CRYSTAL
PRIMVEC
 14.820031   0.000000   0.000000
 -7.410015  12.834505   0.000000
  0.000000   0.000000  20.000041
PRIMCOORD
3 1
16   4.002001   5.340964  14.000028
11   1.889658   6.719170  14.000028
11   6.112684   6.720425  14.000028
