
*************** JDFTx 1.7.0  ***************

Start date and time: Sat Dec 28 15:18:35 2024
Executable jdftx_gpu with command-line: -i /home/akim2/JDFTx/Na2S2-PC/Na2S2-PC.in -o /home/akim2/JDFTx/Na2S2-PC/Na2S2-PC.out
Running on hosts (process indices):  exp-7-57 (0)
Divided in process groups (process indices):  0 (0)
gpuInit: Found compatible cuda device 0 'Tesla V100-SXM2-32GB'
gpuInit: Selected device 0
Resource initialization completed at t[s]:      0.38
Run totals: 1 processes, 1 threads, 1 GPUs


Input parsed successfully to the following command list (including defaults):

basis kpoint-dependent
coords-type Cartesian
core-overlap-check vector
coulomb-interaction Isolated
coulomb-truncation-embed 9.40288 12.4301 27.2635
davidson-band-ratio 1.1
dump End State
dump-name Na2S2-PC.$VAR
elec-cutoff 20 100
elec-eigen-algo Davidson
elec-ex-corr gga-PBE
electronic-minimize  \
	dirUpdateScheme      FletcherReeves \
	linminMethod         DirUpdateRecommended \
	nIterations          100 \
	history              15 \
	knormThreshold       0 \
	energyDiffThreshold  1e-08 \
	nEnergyDiff          2 \
	alphaTstart          1 \
	alphaTmin            1e-10 \
	updateTestStepSize   yes \
	alphaTreduceFactor   0.1 \
	alphaTincreaseFactor 3 \
	nAlphaAdjustMax      3 \
	wolfeEnergy          0.0001 \
	wolfeGradient        0.9 \
	fdTest               no
electronic-scf  \
	nIterations	50 \
	energyDiffThreshold	1e-08 \
	residualThreshold	1e-07 \
	mixFraction	0.5 \
	qMetric	0.8 \
	history	10 \
	nEigSteps	2 \
	eigDiffThreshold	1e-08 \
	mixedVariable	Density \
	qKerker	0.8 \
	qKappa	-1 \
	verbose	no \
	mixFractionMag	1.5
exchange-regularization None
fluid LinearPCM 298.000000 1.013250
fluid-ex-corr lda-TF lda-PZ
fluid-gummel-loop 10 1.000000e-05
fluid-minimize  \
	dirUpdateScheme      PolakRibiere \
	linminMethod         DirUpdateRecommended \
	nIterations          400 \
	history              15 \
	knormThreshold       1e-11 \
	energyDiffThreshold  0 \
	nEnergyDiff          2 \
	alphaTstart          1 \
	alphaTmin            1e-10 \
	updateTestStepSize   yes \
	alphaTreduceFactor   0.1 \
	alphaTincreaseFactor 3 \
	nAlphaAdjustMax      6 \
	wolfeEnergy          0.0001 \
	wolfeGradient        0.9 \
	fdTest               no
fluid-solvent PC 11.6429 ScalarEOS \
	epsBulk 64 \
	pMol 2.95 \
	epsInf 2.02 \
	Pvap 1.53277e-13 \
	sigmaBulk 2.88e-05 \
	Rvdw 0 \
	Res 0 \
	tauNuc 343133
forces-output-coords Positions
ion S   9.402875070209999  12.430078910730000  27.263527773840000 1
ion S   5.921463285810000  10.087698104369998  27.341467797959996 1
ion Na   9.852901041599997   7.943043527369999  25.470895880699999 1
ion Na   5.365079530559999  14.615699054669998  25.686786194819998 1
ion-species GBRV/$ID_pbe.uspp
ion-width Ecut
ionic-minimize  \
	dirUpdateScheme      FletcherReeves \
	linminMethod         DirUpdateRecommended \
	nIterations          200 \
	history              15 \
	knormThreshold       0.0001 \
	energyDiffThreshold  1e-06 \
	nEnergyDiff          2 \
	alphaTstart          1 \
	alphaTmin            1e-10 \
	updateTestStepSize   yes \
	alphaTreduceFactor   0.1 \
	alphaTincreaseFactor 3 \
	nAlphaAdjustMax      3 \
	wolfeEnergy          0.0001 \
	wolfeGradient        0.9 \
	fdTest               no
kpoint   0.000000000000   0.000000000000   0.000000000000  1.00000000000000
kpoint-folding 1 1 1 
latt-move-scale 1 1 1
latt-scale 1 1 1 
lattice Triclinic 28.0058 28.0058 37.7946 90 90 120
lattice-minimize  \
	dirUpdateScheme      L-BFGS \
	linminMethod         DirUpdateRecommended \
	nIterations          0 \
	history              15 \
	knormThreshold       0 \
	energyDiffThreshold  1e-06 \
	nEnergyDiff          2 \
	alphaTstart          1 \
	alphaTmin            1e-10 \
	updateTestStepSize   yes \
	alphaTreduceFactor   0.1 \
	alphaTincreaseFactor 3 \
	nAlphaAdjustMax      3 \
	wolfeEnergy          0.0001 \
	wolfeGradient        0.9 \
	fdTest               no
lcao-params -1 1e-06 0.001
pcm-variant GLSSA13
spintype no-spin
subspace-rotation-factor 1 yes
symmetries automatic
symmetry-threshold 0.0001



---------- Setting up symmetries ----------

Found 24 point-group symmetries of the bravais lattice
Found 1 space-group symmetries with basis
Applied RMS atom displacement 0 bohrs to make symmetries exact.

---------- Initializing the Grid ----------
R = 
[      28.0058     -14.0029            0  ]
[            0      24.2537            0  ]
[            0            0      37.7946  ]
unit cell volume = 25671.8
G =
[   0.224353    0.12953         -0  ]
[          0   0.259061          0  ]
[          0         -0   0.166246  ]
Minimum fftbox size, Smin = [  128  128  172  ]
Chosen fftbox size, S = [  128  128  180  ]

---------- Initializing tighter grid for wavefunction operations ----------
R = 
[      28.0058     -14.0029            0  ]
[            0      24.2537            0  ]
[            0            0      37.7946  ]
unit cell volume = 25671.8
G =
[   0.224353    0.12953         -0  ]
[          0   0.259061          0  ]
[          0         -0   0.166246  ]
Minimum fftbox size, Smin = [  116  116  156  ]
Chosen fftbox size, S = [  120  120  160  ]

---------- Exchange Correlation functional ----------
Initalized PBE GGA exchange.
Initalized PBE GGA correlation.

---------- Setting up pseudopotentials ----------
Width of ionic core gaussian charges (only for fluid interactions / plotting) set to 0.397384

Reading pseudopotential file '/home/akim2/jdftx_install/build/pseudopotentials/GBRV/s_pbe.uspp':
  Title: S.  Created by USPP 7.3.6 on 1-4-15
  Reference state energy: -11.898476.  6 valence electrons in orbitals:
    |300>  occupation: 2  eigenvalue: -0.634167
    |310>  occupation: 4  eigenvalue: -0.257568
  lMax: 2  lLocal: 3  QijEcut: 6
  6 projectors sampled on a log grid with 635 points:
    l: 0  eig: -0.634161  rCut: 1.5
    l: 0  eig: 1.500000  rCut: 1.5
    l: 1  eig: -0.257567  rCut: 1.5
    l: 1  eig: 1.500000  rCut: 1.5
    l: 2  eig: -1.000000  rCut: 1.5
    l: 2  eig: 1.500000  rCut: 1.5
  Partial core density with radius 1.15
  Transforming core density to a uniform radial grid of dG=0.02 with 1625 points.
  Transforming local potential to a uniform radial grid of dG=0.02 with 1625 points.
  Transforming nonlocal projectors to a uniform radial grid of dG=0.02 with 432 points.
  Transforming density augmentations to a uniform radial grid of dG=0.02 with 1625 points.
  Transforming atomic orbitals to a uniform radial grid of dG=0.02 with 432 points.
  Core radius for overlap checks: 1.50 bohrs.

Reading pseudopotential file '/home/akim2/jdftx_install/build/pseudopotentials/GBRV/na_pbe.uspp':
  Title: Na.  Created by USPP 7.3.6 on 23-9-15
  Reference state energy: -47.625620.  9 valence electrons in orbitals:
    |200>  occupation: 2  eigenvalue: -2.085638
    |210>  occupation: 6  eigenvalue: -1.053708
    |300>  occupation: 1  eigenvalue: -0.100838
  lMax: 2  lLocal: 0  QijEcut: 6
  5 projectors sampled on a log grid with 657 points:
    l: 0  eig: -2.085640  rCut: 1.37
    l: 0  eig: -0.100839  rCut: 1.37
    l: 1  eig: -1.053708  rCut: 1.47
    l: 1  eig: 0.500000  rCut: 1.47
    l: 2  eig: 0.750000  rCut: 2
  Transforming local potential to a uniform radial grid of dG=0.02 with 1625 points.
  Transforming nonlocal projectors to a uniform radial grid of dG=0.02 with 432 points.
  Transforming density augmentations to a uniform radial grid of dG=0.02 with 1625 points.
  Transforming atomic orbitals to a uniform radial grid of dG=0.02 with 432 points.
  Core radius for overlap checks: 2.00 bohrs.

Initialized 2 species with 4 total atoms.

Folded 1 k-points by 1x1x1 to 1 k-points.

---------- Setting up k-points, bands, fillings ----------
No reducable k-points. 
Computing the number of bands and number of electrons
Calculating initial fillings.
nElectrons:  30.000000   nBands: 15   nStates: 1

----- Setting up reduced wavefunction bases (one per k-point) -----
average nbasis = 109673.000 , ideal nbasis = 109671.883

---------- Setting up coulomb interaction ----------
Fluid mode embedding: using embedded box, but periodic Coulomb kernel.
(Fluid response is responsible for (approximate) separation between periodic images.)
Setting up double-sized grid for truncated Coulomb potentials:
R = 
[      56.0116     -28.0058            0  ]
[            0      48.5075            0  ]
[            0            0      75.5892  ]
unit cell volume = 205374
G =
[   0.112177  0.0647651         -0  ]
[          0    0.12953          0  ]
[          0         -0  0.0831228  ]
Chosen fftbox size, S = [  256  256  360  ]
Integer grid location selected as the embedding center:
   Grid: [  76  66  130  ]
   Lattice: [  0.591998  0.512502  0.72136  ]
   Cartesian: [  9.40288  12.4301  27.2635  ]
Constructing Wigner-Seitz cell: 8 faces (6 quadrilaterals, 2 hexagons)
Range-separation parameter for embedded mesh potentials due to point charges: 0.590105 bohrs.

---------- Setting up ewald sum ----------
Optimum gaussian width for ewald sums = 18.681662 bohr.
Real space sum over 1089 unit cells with max indices [  5  5  4  ]
Reciprocal space sum over 2873 terms with max indices [  6  6  8  ]

---------- Allocating electronic variables ----------
Initializing wave functions:  linear combination of atomic orbitals
S pseudo-atom occupations:   s ( 2 )  p ( 4 )
Na pseudo-atom occupations:   s ( 2 1 )  p ( 6 )
	FillingsUpdate:  mu: -0.000443411  nElectrons: 30.000000
LCAOMinimize: Iter:   0  Etot: -115.7661534105568393  |grad|_K:  1.230e-02  alpha:  1.000e+00
	FillingsUpdate:  mu: -0.002888541  nElectrons: 30.000000
LCAOMinimize: Iter:   1  Etot: -115.7702864728458394  |grad|_K:  1.213e-02  alpha:  7.333e-02  linmin: -1.090e-01  cgtest:  9.274e-01  t[s]:      3.76
LCAOMinimize: 	Wrong curvature in test step, increasing alphaT to 2.199864e-01.
	FillingsUpdate:  mu: -0.005609494  nElectrons: 30.000000
LCAOMinimize: Iter:   2  Etot: -115.7745525082539046  |grad|_K:  1.189e-02  alpha: -1.248e+00  linmin: -1.144e-01  cgtest:  9.257e-01  t[s]:      4.07
	FillingsUpdate:  mu: -0.008105406  nElectrons: 30.000000
LCAOMinimize: Iter:   3  Etot: -115.7781888437365865  |grad|_K:  1.163e-02  alpha:  6.556e-02  linmin: -1.193e-01  cgtest:  9.365e-01  t[s]:      4.37
LCAOMinimize: None of the convergence criteria satisfied after 3 iterations.
----- createFluidSolver() ----- (Fluid-side solver setup)
   Initializing fluid molecule 'PC'
     Net charge: 0   dipole magnitude: 0
     Initializing spherical shell mfKernel with radius 0 Bohr
     deltaS corrections:

Correction to mu due to finite nuclear width = -0.000144935
   Cavity determined by nc: 0.00098 and sigma: 0.6
   Effective cavity tension: 9.53e-06 Eh/bohr^2 to account for cavitation and dispersion.


---- Citations for features of the code used in this run ----

   Software package:
      R. Sundararaman, K. Letchworth-Weaver, K.A. Schwarz, D. Gunceler, Y. Ozhabes and T.A. Arias, 'JDFTx: software for joint density-functional theory', SoftwareX 6, 278 (2017)

   gga-PBE exchange-correlation functional:
      J.P. Perdew, K. Burke and M. Ernzerhof, Phys. Rev. Lett. 77, 3865 (1996)

   Pseudopotentials:
      KF Garrity, JW Bennett, KM Rabe and D Vanderbilt, Comput. Mater. Sci. 81, 446 (2014)

   Truncated Coulomb potentials:
      R. Sundararaman and T.A. Arias, Phys. Rev. B 87, 165122 (2013)

   Linear/nonlinear dielectric/ionic fluid model with effective cavity tension:
      D. Gunceler, K. Letchworth-Weaver, R. Sundararaman, K.A. Schwarz and T.A. Arias, Modelling Simul. Mater. Sci. Eng. 21, 074005 (2013)

This list may not be complete. Please suggest additional citations or
report any other bugs at https://github.com/shankar1729/jdftx/issues

Initialization completed successfully at t[s]:      4.38

Fluid solver invoked on fresh (random / LCAO) wavefunctions
Running a vacuum solve first:

-------- Initial electronic minimization -----------
Will mix electronic density at each iteration.
SCF: Cycle:  0   Etot: -115.779514800769604   dEtot: -1.326e-03   |Residual|: 2.532e-01   |deigs|: 1.379e-02  t[s]:      4.84
SCF: Cycle:  1   Etot: -115.879626839906436   dEtot: -1.001e-01   |Residual|: 1.089e-01   |deigs|: 3.336e-02  t[s]:      5.18
SCF: Cycle:  2   Etot: -115.920383377381029   dEtot: -4.076e-02   |Residual|: 3.882e-02   |deigs|: 2.741e-02  t[s]:      5.50
SCF: Cycle:  3   Etot: -115.919335298567660   dEtot: +1.048e-03   |Residual|: 2.218e-02   |deigs|: 8.416e-03  t[s]:      5.83
SCF: Cycle:  4   Etot: -115.920664851039277   dEtot: -1.330e-03   |Residual|: 1.140e-02   |deigs|: 4.869e-03  t[s]:      6.16
SCF: Cycle:  5   Etot: -115.921322659419516   dEtot: -6.578e-04   |Residual|: 5.370e-03   |deigs|: 3.156e-03  t[s]:      6.49
SCF: Cycle:  6   Etot: -115.921495732945630   dEtot: -1.731e-04   |Residual|: 4.019e-03   |deigs|: 2.274e-03  t[s]:      6.83
SCF: Cycle:  7   Etot: -115.921542245850048   dEtot: -4.651e-05   |Residual|: 3.930e-03   |deigs|: 1.844e-03  t[s]:      7.16
SCF: Cycle:  8   Etot: -115.921575288869519   dEtot: -3.304e-05   |Residual|: 2.330e-03   |deigs|: 1.016e-03  t[s]:      7.46
SCF: Cycle:  9   Etot: -115.921589328782645   dEtot: -1.404e-05   |Residual|: 2.560e-03   |deigs|: 1.651e-03  t[s]:      7.80
SCF: Cycle: 10   Etot: -115.921596337345505   dEtot: -7.009e-06   |Residual|: 1.499e-03   |deigs|: 1.689e-04  t[s]:      8.10
SCF: Cycle: 11   Etot: -115.921573795736848   dEtot: +2.254e-05   |Residual|: 3.714e-03   |deigs|: 6.052e-04  t[s]:      8.44
SCF: Cycle: 12   Etot: -115.921596170942337   dEtot: -2.238e-05   |Residual|: 1.403e-03   |deigs|: 7.245e-04  t[s]:      8.78
SCF: Cycle: 13   Etot: -115.921600278485613   dEtot: -4.108e-06   |Residual|: 1.282e-03   |deigs|: 4.884e-04  t[s]:      9.08
SCF: Cycle: 14   Etot: -115.921591800992786   dEtot: +8.477e-06   |Residual|: 2.065e-03   |deigs|: 2.718e-04  t[s]:      9.42
SCF: Cycle: 15   Etot: -115.921600381292961   dEtot: -8.580e-06   |Residual|: 7.204e-04   |deigs|: 8.603e-04  t[s]:      9.74
SCF: Cycle: 16   Etot: -115.921602912804246   dEtot: -2.532e-06   |Residual|: 5.782e-04   |deigs|: 2.890e-04  t[s]:     10.04
SCF: Cycle: 17   Etot: -115.921604868108730   dEtot: -1.955e-06   |Residual|: 4.562e-04   |deigs|: 1.272e-04  t[s]:     10.34
SCF: Cycle: 18   Etot: -115.921605561198774   dEtot: -6.931e-07   |Residual|: 4.817e-04   |deigs|: 2.720e-04  t[s]:     10.66
SCF: Cycle: 19   Etot: -115.921606434900767   dEtot: -8.737e-07   |Residual|: 2.017e-04   |deigs|: 2.021e-04  t[s]:     10.98
SCF: Cycle: 20   Etot: -115.921606644686960   dEtot: -2.098e-07   |Residual|: 1.531e-04   |deigs|: 7.729e-05  t[s]:     11.29
SCF: Cycle: 21   Etot: -115.921606852714376   dEtot: -2.080e-07   |Residual|: 1.171e-04   |deigs|: 8.614e-05  t[s]:     11.62
SCF: Cycle: 22   Etot: -115.921606941454428   dEtot: -8.874e-08   |Residual|: 6.726e-05   |deigs|: 1.834e-05  t[s]:     11.94
SCF: Cycle: 23   Etot: -115.921607014226325   dEtot: -7.277e-08   |Residual|: 5.951e-05   |deigs|: 1.049e-05  t[s]:     12.26
SCF: Cycle: 24   Etot: -115.921607084047366   dEtot: -6.982e-08   |Residual|: 5.240e-05   |deigs|: 3.260e-05  t[s]:     12.61
SCF: Cycle: 25   Etot: -115.921607114696116   dEtot: -3.065e-08   |Residual|: 3.143e-05   |deigs|: 1.274e-05  t[s]:     12.93
SCF: Cycle: 26   Etot: -115.921607138343688   dEtot: -2.365e-08   |Residual|: 2.310e-05   |deigs|: 7.599e-06  t[s]:     13.25
SCF: Cycle: 27   Etot: -115.921607145280490   dEtot: -6.937e-09   |Residual|: 1.246e-05   |deigs|: 1.737e-06  t[s]:     13.56
SCF: Cycle: 28   Etot: -115.921607147920298   dEtot: -2.640e-09   |Residual|: 9.665e-06   |deigs|: 1.130e-06  t[s]:     13.87
SCF: Converged (|Delta E|<1.000000e-08 for 2 iters).

Setting wave functions to eigenvectors of Hamiltonian
Vacuum energy after initial minimize, Etot = -115.921607147920298


-------- Electronic minimization -----------
Will mix electronic density at each iteration.
	Linear fluid (dielectric constant: 64) occupying 0.996331 of unit cell:	Completed after 27 iterations at t[s]:     15.59
	Linear fluid (dielectric constant: 64) occupying 0.996457 of unit cell:	Completed after 23 iterations at t[s]:     17.95
SCF: Cycle:  0   Etot: -116.086388054140812   dEtot: -3.260e-02   |Residual|: 4.169e-02   |deigs|: 1.697e-03  t[s]:     18.22
	Linear fluid (dielectric constant: 64) occupying 0.996360 of unit cell:	Completed after 19 iterations at t[s]:     19.84
	Linear fluid (dielectric constant: 64) occupying 0.996458 of unit cell:	Completed after 22 iterations at t[s]:     22.07
SCF: Cycle:  1   Etot: -116.087660358234672   dEtot: -1.272e-03   |Residual|: 2.884e-02   |deigs|: 6.215e-03  t[s]:     22.36
	Linear fluid (dielectric constant: 64) occupying 0.996424 of unit cell:	Completed after 18 iterations at t[s]:     23.90
	Linear fluid (dielectric constant: 64) occupying 0.996436 of unit cell:	Completed after 19 iterations at t[s]:     25.91
SCF: Cycle:  2   Etot: -116.088665782831939   dEtot: -1.005e-03   |Residual|: 1.233e-02   |deigs|: 9.392e-03  t[s]:     26.19
	Linear fluid (dielectric constant: 64) occupying 0.996438 of unit cell:	Completed after 16 iterations at t[s]:     27.60
	Linear fluid (dielectric constant: 64) occupying 0.996434 of unit cell:	Completed after 17 iterations at t[s]:     29.47
SCF: Cycle:  3   Etot: -116.088774475832466   dEtot: -1.087e-04   |Residual|: 9.116e-03   |deigs|: 7.533e-04  t[s]:     29.74
	Linear fluid (dielectric constant: 64) occupying 0.996478 of unit cell:	Completed after 13 iterations at t[s]:     30.94
	Linear fluid (dielectric constant: 64) occupying 0.996421 of unit cell:	Completed after 10 iterations at t[s]:     32.30
SCF: Cycle:  4   Etot: -116.088944021747452   dEtot: -1.695e-04   |Residual|: 5.374e-03   |deigs|: 5.895e-03  t[s]:     32.59
	Linear fluid (dielectric constant: 64) occupying 0.996433 of unit cell:	Completed after 13 iterations at t[s]:     33.77
	Linear fluid (dielectric constant: 64) occupying 0.996421 of unit cell:	Completed after 13 iterations at t[s]:     35.35
SCF: Cycle:  5   Etot: -116.088997868110667   dEtot: -5.385e-05   |Residual|: 5.496e-03   |deigs|: 3.136e-03  t[s]:     35.63
	Linear fluid (dielectric constant: 64) occupying 0.996409 of unit cell:	Completed after 6 iterations at t[s]:     36.31
	Linear fluid (dielectric constant: 64) occupying 0.996414 of unit cell:	Completed after 6 iterations at t[s]:     37.42
SCF: Cycle:  6   Etot: -116.089075333211085   dEtot: -7.747e-05   |Residual|: 3.539e-03   |deigs|: 1.447e-03  t[s]:     37.68
	Linear fluid (dielectric constant: 64) occupying 0.996394 of unit cell:	Completed after 11 iterations at t[s]:     38.75
	Linear fluid (dielectric constant: 64) occupying 0.996412 of unit cell:	Completed after 10 iterations at t[s]:     40.10
SCF: Cycle:  7   Etot: -116.089112541548914   dEtot: -3.721e-05   |Residual|: 2.689e-03   |deigs|: 2.581e-04  t[s]:     40.38
	Linear fluid (dielectric constant: 64) occupying 0.996387 of unit cell:	Completed after 5 iterations at t[s]:     46.61
	Linear fluid (dielectric constant: 64) occupying 0.996408 of unit cell:	Completed after 5 iterations at t[s]:     47.60
SCF: Cycle:  8   Etot: -116.089138219767662   dEtot: -2.568e-05   |Residual|: 2.474e-03   |deigs|: 5.682e-04  t[s]:     47.79
	Linear fluid (dielectric constant: 64) occupying 0.996390 of unit cell:	Completed after 7 iterations at t[s]:     48.51
	Linear fluid (dielectric constant: 64) occupying 0.996408 of unit cell:	Completed after 6 iterations at t[s]:     49.53
SCF: Cycle:  9   Etot: -116.089146844356748   dEtot: -8.625e-06   |Residual|: 2.675e-03   |deigs|: 4.493e-04  t[s]:     49.72
	Linear fluid (dielectric constant: 64) occupying 0.996411 of unit cell:	Completed after 5 iterations at t[s]:     50.38
	Linear fluid (dielectric constant: 64) occupying 0.996410 of unit cell:	Completed after 5 iterations at t[s]:     53.81
SCF: Cycle: 10   Etot: -116.089154017494550   dEtot: -7.173e-06   |Residual|: 2.572e-03   |deigs|: 1.528e-04  t[s]:     54.00
	Linear fluid (dielectric constant: 64) occupying 0.996412 of unit cell:	Completed after 4 iterations at t[s]:     54.61
	Linear fluid (dielectric constant: 64) occupying 0.996408 of unit cell:	Completed after 3 iterations at t[s]:     55.49
SCF: Cycle: 11   Etot: -116.089156349838802   dEtot: -2.332e-06   |Residual|: 1.776e-03   |deigs|: 6.031e-04  t[s]:     55.68
	Linear fluid (dielectric constant: 64) occupying 0.996417 of unit cell:	Completed after 4 iterations at t[s]:     61.48
	Linear fluid (dielectric constant: 64) occupying 0.996407 of unit cell:	Completed after 4 iterations at t[s]:     62.42
SCF: Cycle: 12   Etot: -116.089156035486297   dEtot: +3.144e-07   |Residual|: 2.210e-03   |deigs|: 3.946e-04  t[s]:     62.61
	Linear fluid (dielectric constant: 64) occupying 0.996414 of unit cell:	Completed after 4 iterations at t[s]:     63.22
	Linear fluid (dielectric constant: 64) occupying 0.996409 of unit cell:	Completed after 4 iterations at t[s]:     64.17
SCF: Cycle: 13   Etot: -116.089157943196227   dEtot: -1.908e-06   |Residual|: 1.423e-03   |deigs|: 6.093e-04  t[s]:     64.37
	Linear fluid (dielectric constant: 64) occupying 0.996403 of unit cell:	Completed after 3 iterations at t[s]:     64.95
	Linear fluid (dielectric constant: 64) occupying 0.996410 of unit cell:	Completed after 3 iterations at t[s]:     65.87
SCF: Cycle: 14   Etot: -116.089157093463058   dEtot: +8.497e-07   |Residual|: 1.451e-03   |deigs|: 1.091e-04  t[s]:     66.05
	Linear fluid (dielectric constant: 64) occupying 0.996406 of unit cell:	Completed after 2 iterations at t[s]:     66.60
	Linear fluid (dielectric constant: 64) occupying 0.996408 of unit cell:	Completed after 1 iterations at t[s]:     67.40
SCF: Cycle: 15   Etot: -116.089158923971283   dEtot: -1.831e-06   |Residual|: 8.683e-04   |deigs|: 4.266e-04  t[s]:     67.59
	Linear fluid (dielectric constant: 64) occupying 0.996406 of unit cell:	Completed after 0 iterations at t[s]:     68.02
	Linear fluid (dielectric constant: 64) occupying 0.996408 of unit cell:	Completed after 0 iterations at t[s]:     68.71
SCF: Cycle: 16   Etot: -116.089158322013930   dEtot: +6.020e-07   |Residual|: 6.441e-04   |deigs|: 3.047e-05  t[s]:     68.90
	Linear fluid (dielectric constant: 64) occupying 0.996408 of unit cell:	Completed after 0 iterations at t[s]:     69.27
	Linear fluid (dielectric constant: 64) occupying 0.996408 of unit cell:	Completed after 0 iterations at t[s]:     69.93
SCF: Cycle: 17   Etot: -116.089158863092081   dEtot: -5.411e-07   |Residual|: 3.946e-04   |deigs|: 3.383e-05  t[s]:     70.11
	Linear fluid (dielectric constant: 64) occupying 0.996410 of unit cell:	Completed after 2 iterations at t[s]:     70.56
	Linear fluid (dielectric constant: 64) occupying 0.996409 of unit cell:	Completed after 1 iterations at t[s]:     71.35
SCF: Cycle: 18   Etot: -116.089159636395763   dEtot: -7.733e-07   |Residual|: 9.196e-04   |deigs|: 1.857e-04  t[s]:     71.54
	Linear fluid (dielectric constant: 64) occupying 0.996410 of unit cell:	Completed after 0 iterations at t[s]:     71.97
	Linear fluid (dielectric constant: 64) occupying 0.996408 of unit cell:	Completed after 0 iterations at t[s]:     72.61
SCF: Cycle: 19   Etot: -116.089159554796936   dEtot: +8.160e-08   |Residual|: 4.017e-04   |deigs|: 9.957e-05  t[s]:     72.81
	Linear fluid (dielectric constant: 64) occupying 0.996409 of unit cell:	Completed after 0 iterations at t[s]:     73.14
	Linear fluid (dielectric constant: 64) occupying 0.996408 of unit cell:	Completed after 0 iterations at t[s]:     73.83
SCF: Cycle: 20   Etot: -116.089159622897796   dEtot: -6.810e-08   |Residual|: 2.460e-04   |deigs|: 4.436e-06  t[s]:     74.02
	Linear fluid (dielectric constant: 64) occupying 0.996407 of unit cell:	Completed after 0 iterations at t[s]:     74.39
	Linear fluid (dielectric constant: 64) occupying 0.996408 of unit cell:	Completed after 0 iterations at t[s]:     75.04
SCF: Cycle: 21   Etot: -116.089159607253919   dEtot: +1.564e-08   |Residual|: 1.536e-04   |deigs|: 2.201e-05  t[s]:     75.24
	Linear fluid (dielectric constant: 64) occupying 0.996407 of unit cell:	Completed after 1 iterations at t[s]:     75.64
	Linear fluid (dielectric constant: 64) occupying 0.996408 of unit cell:	Completed after 0 iterations at t[s]:     76.38
SCF: Cycle: 22   Etot: -116.089159966281159   dEtot: -3.590e-07   |Residual|: 7.437e-04   |deigs|: 2.219e-04  t[s]:     76.57
	Linear fluid (dielectric constant: 64) occupying 0.996408 of unit cell:	Completed after 0 iterations at t[s]:     76.98
	Linear fluid (dielectric constant: 64) occupying 0.996408 of unit cell:	Completed after 0 iterations at t[s]:     77.61
SCF: Cycle: 23   Etot: -116.089160042072209   dEtot: -7.579e-08   |Residual|: 5.444e-04   |deigs|: 4.294e-05  t[s]:     77.80
	Linear fluid (dielectric constant: 64) occupying 0.996408 of unit cell:	Completed after 0 iterations at t[s]:     78.13
	Linear fluid (dielectric constant: 64) occupying 0.996408 of unit cell:	Completed after 0 iterations at t[s]:     78.82
SCF: Cycle: 24   Etot: -116.089160151584906   dEtot: -1.095e-07   |Residual|: 3.764e-04   |deigs|: 4.814e-06  t[s]:     79.01
	Linear fluid (dielectric constant: 64) occupying 0.996408 of unit cell:	Completed after 0 iterations at t[s]:     79.38
	Linear fluid (dielectric constant: 64) occupying 0.996408 of unit cell:	Completed after 0 iterations at t[s]:     80.01
SCF: Cycle: 25   Etot: -116.089160196118812   dEtot: -4.453e-08   |Residual|: 1.501e-04   |deigs|: 7.022e-05  t[s]:     80.20
	Linear fluid (dielectric constant: 64) occupying 0.996408 of unit cell:	Completed after 0 iterations at t[s]:     80.54
	Linear fluid (dielectric constant: 64) occupying 0.996408 of unit cell:	Completed after 0 iterations at t[s]:     81.17
SCF: Cycle: 26   Etot: -116.089160261620066   dEtot: -6.550e-08   |Residual|: 1.080e-04   |deigs|: 2.945e-06  t[s]:     81.36
	Linear fluid (dielectric constant: 64) occupying 0.996408 of unit cell:	Completed after 0 iterations at t[s]:     81.70
	Linear fluid (dielectric constant: 64) occupying 0.996408 of unit cell:	Completed after 2 iterations at t[s]:     82.48
SCF: Cycle: 27   Etot: -116.089159297413715   dEtot: +9.642e-07   |Residual|: 6.625e-05   |deigs|: 4.112e-06  t[s]:     82.67
	Linear fluid (dielectric constant: 64) occupying 0.996408 of unit cell:	Completed after 0 iterations at t[s]:     83.09
	Linear fluid (dielectric constant: 64) occupying 0.996408 of unit cell:	Completed after 0 iterations at t[s]:     83.78
SCF: Cycle: 28   Etot: -116.089160197135556   dEtot: -8.997e-07   |Residual|: 7.840e-04   |deigs|: 3.229e-04  t[s]:     83.97
	Linear fluid (dielectric constant: 64) occupying 0.996408 of unit cell:	Completed after 0 iterations at t[s]:     84.37
	Linear fluid (dielectric constant: 64) occupying 0.996408 of unit cell:	Completed after 0 iterations at t[s]:     85.01
SCF: Cycle: 29   Etot: -116.089160183786078   dEtot: +1.335e-08   |Residual|: 6.978e-04   |deigs|: 3.244e-05  t[s]:     85.21
	Linear fluid (dielectric constant: 64) occupying 0.996408 of unit cell:	Completed after 0 iterations at t[s]:     85.54
	Linear fluid (dielectric constant: 64) occupying 0.996408 of unit cell:	Completed after 0 iterations at t[s]:     86.18
SCF: Cycle: 30   Etot: -116.089160248451350   dEtot: -6.467e-08   |Residual|: 6.927e-04   |deigs|: 4.878e-07  t[s]:     86.36
	Linear fluid (dielectric constant: 64) occupying 0.996408 of unit cell:	Completed after 0 iterations at t[s]:     86.70
	Linear fluid (dielectric constant: 64) occupying 0.996408 of unit cell:	Completed after 0 iterations at t[s]:     87.37
SCF: Cycle: 31   Etot: -116.089160208518180   dEtot: +3.993e-08   |Residual|: 6.331e-04   |deigs|: 2.026e-06  t[s]:     87.56
	Linear fluid (dielectric constant: 64) occupying 0.996408 of unit cell:	Completed after 0 iterations at t[s]:     87.92
	Linear fluid (dielectric constant: 64) occupying 0.996408 of unit cell:	Completed after 0 iterations at t[s]:     88.55
SCF: Cycle: 32   Etot: -116.089160290785117   dEtot: -8.227e-08   |Residual|: 3.769e-04   |deigs|: 7.107e-05  t[s]:     88.74
	Linear fluid (dielectric constant: 64) occupying 0.996408 of unit cell:	Completed after 0 iterations at t[s]:     89.08
	Linear fluid (dielectric constant: 64) occupying 0.996408 of unit cell:	Completed after 0 iterations at t[s]:     89.72
SCF: Cycle: 33   Etot: -116.089160321255548   dEtot: -3.047e-08   |Residual|: 3.287e-04   |deigs|: 7.311e-07  t[s]:     89.90
	Linear fluid (dielectric constant: 64) occupying 0.996408 of unit cell:	Completed after 0 iterations at t[s]:     90.24
	Linear fluid (dielectric constant: 64) occupying 0.996408 of unit cell:	Completed after 0 iterations at t[s]:     90.87
SCF: Cycle: 34   Etot: -116.089160318250379   dEtot: +3.005e-09   |Residual|: 3.202e-04   |deigs|: 4.698e-07  t[s]:     91.06
	Linear fluid (dielectric constant: 64) occupying 0.996408 of unit cell:	Completed after 0 iterations at t[s]:     91.39
	Linear fluid (dielectric constant: 64) occupying 0.996408 of unit cell:	Completed after 0 iterations at t[s]:     92.04
SCF: Cycle: 35   Etot: -116.089160316031865   dEtot: +2.219e-09   |Residual|: 3.231e-04   |deigs|: 4.681e-07  t[s]:     92.23
	Linear fluid (dielectric constant: 64) occupying 0.996408 of unit cell:	Completed after 0 iterations at t[s]:     92.56
	Linear fluid (dielectric constant: 64) occupying 0.996408 of unit cell:	Completed after 0 iterations at t[s]:     93.23
SCF: Cycle: 36   Etot: -116.089160327686443   dEtot: -1.165e-08   |Residual|: 3.210e-04   |deigs|: 6.738e-07  t[s]:     93.42
	Linear fluid (dielectric constant: 64) occupying 0.996408 of unit cell:	Completed after 0 iterations at t[s]:     93.75
	Linear fluid (dielectric constant: 64) occupying 0.996408 of unit cell:	Completed after 0 iterations at t[s]:     94.39
SCF: Cycle: 37   Etot: -116.089160374534941   dEtot: -4.685e-08   |Residual|: 3.021e-04   |deigs|: 1.595e-06  t[s]:     94.59
	Linear fluid (dielectric constant: 64) occupying 0.996408 of unit cell:	Completed after 2 iterations at t[s]:     95.03
	Linear fluid (dielectric constant: 64) occupying 0.996408 of unit cell:	Completed after 0 iterations at t[s]:     95.79
SCF: Cycle: 38   Etot: -116.089160184860447   dEtot: +1.897e-07   |Residual|: 6.975e-04   |deigs|: 3.032e-04  t[s]:     95.98
	Linear fluid (dielectric constant: 64) occupying 0.996408 of unit cell:	Completed after 0 iterations at t[s]:     96.35
	Linear fluid (dielectric constant: 64) occupying 0.996408 of unit cell:	Completed after 0 iterations at t[s]:     96.97
SCF: Cycle: 39   Etot: -116.089160220240217   dEtot: -3.538e-08   |Residual|: 5.245e-04   |deigs|: 5.650e-05  t[s]:     97.16
	Linear fluid (dielectric constant: 64) occupying 0.996408 of unit cell:	Completed after 0 iterations at t[s]:     97.50
	Linear fluid (dielectric constant: 64) occupying 0.996408 of unit cell:	Completed after 1 iterations at t[s]:     98.24
SCF: Cycle: 40   Etot: -116.089159926013977   dEtot: +2.942e-07   |Residual|: 3.319e-04   |deigs|: 4.827e-06  t[s]:     98.43
	Linear fluid (dielectric constant: 64) occupying 0.996408 of unit cell:	Completed after 0 iterations at t[s]:     98.82
	Linear fluid (dielectric constant: 64) occupying 0.996408 of unit cell:	Completed after 0 iterations at t[s]:     99.46
SCF: Cycle: 41   Etot: -116.089160039445474   dEtot: -1.134e-07   |Residual|: 4.988e-05   |deigs|: 1.182e-04  t[s]:     99.65
	Linear fluid (dielectric constant: 64) occupying 0.996408 of unit cell:	Completed after 0 iterations at t[s]:     99.98
	Linear fluid (dielectric constant: 64) occupying 0.996408 of unit cell:	Completed after 0 iterations at t[s]:    100.62
SCF: Cycle: 42   Etot: -116.089160047786123   dEtot: -8.341e-09   |Residual|: 5.752e-05   |deigs|: 7.011e-07  t[s]:    100.81
	Linear fluid (dielectric constant: 64) occupying 0.996408 of unit cell:	Completed after 0 iterations at t[s]:    101.15
	Linear fluid (dielectric constant: 64) occupying 0.996408 of unit cell:	Completed after 0 iterations at t[s]:    101.78
SCF: Cycle: 43   Etot: -116.089160057713357   dEtot: -9.927e-09   |Residual|: 5.886e-05   |deigs|: 5.303e-07  t[s]:    101.98
SCF: Converged (|Delta E|<1.000000e-08 for 2 iters).

Setting wave functions to eigenvectors of Hamiltonian
Single-point solvation energy estimate, DeltaEtot = -0.167552909793059

# Ionic positions in cartesian coordinates:
ion S   9.402875070209999  12.430078910730000  27.263527773840000 1
ion S   5.921463285810000  10.087698104369998  27.341467797959996 1
ion Na   9.852901041599997   7.943043527369999  25.470895880699999 1
ion Na   5.365079530559999  14.615699054669998  25.686786194819998 1

# Forces in Cartesian coordinates:
force S  -0.001476311500363  -0.001302844533468   0.011417825797432 1
force S   0.002112053487586   0.001021440735975   0.011364041925729 1
force Na   0.014714646283641  -0.022325072828968  -0.012210486021291 1
force Na  -0.015381138886408   0.022589234811805  -0.010728709845341 1

# Energy components:
   A_diel =       -0.2066458016794220
   Eewald =       42.5786531081733202
       EH =      139.3397861647310094
     Eloc =     -162.8650680827438464
      Enl =     -140.4063079358736559
      Exc =      -22.8418273992329581
 Exc_core =        3.5354580038104433
       KE =       24.7767918851017548
-------------------------------------
     Etot =     -116.0891600577133573

IonicMinimize: Iter:   0  Etot: -116.089160057713357  |grad|_K:  1.289e-02  alpha:  1.000e+00

#--- Lowdin population analysis ---
# oxidation-state S -0.793 -0.793
# oxidation-state Na +0.878 +0.878


-------- Electronic minimization -----------
Will mix electronic density at each iteration.
	Linear fluid (dielectric constant: 64) occupying 0.996408 of unit cell:	Completed after 16 iterations at t[s]:    103.33
	Linear fluid (dielectric constant: 64) occupying 0.996373 of unit cell:	Completed after 18 iterations at t[s]:    105.27
SCF: Cycle:  0   Etot: -116.089557878036970   dEtot: -3.096e-02   |Residual|: 7.866e-02   |deigs|: 1.908e-03  t[s]:    105.54
	Linear fluid (dielectric constant: 64) occupying 0.996411 of unit cell:	Completed after 19 iterations at t[s]:    107.13
	Linear fluid (dielectric constant: 64) occupying 0.996378 of unit cell:	Completed after 18 iterations at t[s]:    109.13
SCF: Cycle:  1   Etot: -116.090480477848487   dEtot: -9.226e-04   |Residual|: 3.887e-02   |deigs|: 1.736e-03  t[s]:    109.41
	Linear fluid (dielectric constant: 64) occupying 0.996400 of unit cell:	Completed after 17 iterations at t[s]:    110.86
	Linear fluid (dielectric constant: 64) occupying 0.996393 of unit cell:	Completed after 17 iterations at t[s]:    112.76
SCF: Cycle:  2   Etot: -116.090986015279654   dEtot: -5.055e-04   |Residual|: 6.900e-03   |deigs|: 2.119e-03  t[s]:    113.06
	Linear fluid (dielectric constant: 64) occupying 0.996389 of unit cell:	Completed after 14 iterations at t[s]:    114.28
	Linear fluid (dielectric constant: 64) occupying 0.996395 of unit cell:	Completed after 14 iterations at t[s]:    115.95
SCF: Cycle:  3   Etot: -116.091038216809409   dEtot: -5.220e-05   |Residual|: 3.651e-03   |deigs|: 1.829e-03  t[s]:    116.24
	Linear fluid (dielectric constant: 64) occupying 0.996378 of unit cell:	Completed after 7 iterations at t[s]:    116.97
	Linear fluid (dielectric constant: 64) occupying 0.996396 of unit cell:	Completed after 8 iterations at t[s]:    118.22
SCF: Cycle:  4   Etot: -116.091072989859455   dEtot: -3.477e-05   |Residual|: 1.619e-03   |deigs|: 1.445e-03  t[s]:    118.50
	Linear fluid (dielectric constant: 64) occupying 0.996380 of unit cell:	Completed after 5 iterations at t[s]:    119.15
	Linear fluid (dielectric constant: 64) occupying 0.996397 of unit cell:	Completed after 5 iterations at t[s]:    120.14
SCF: Cycle:  5   Etot: -116.091083452292139   dEtot: -1.046e-05   |Residual|: 1.152e-03   |deigs|: 2.829e-04  t[s]:    120.38
	Linear fluid (dielectric constant: 64) occupying 0.996381 of unit cell:	Completed after 5 iterations at t[s]:    121.03
	Linear fluid (dielectric constant: 64) occupying 0.996397 of unit cell:	Completed after 4 iterations at t[s]:    122.05
SCF: Cycle:  6   Etot: -116.091087040086592   dEtot: -3.588e-06   |Residual|: 7.606e-04   |deigs|: 2.867e-04  t[s]:    122.25
	Linear fluid (dielectric constant: 64) occupying 0.996386 of unit cell:	Completed after 4 iterations at t[s]:    122.86
	Linear fluid (dielectric constant: 64) occupying 0.996398 of unit cell:	Completed after 3 iterations at t[s]:    123.76
SCF: Cycle:  7   Etot: -116.091089510650121   dEtot: -2.471e-06   |Residual|: 6.882e-04   |deigs|: 1.072e-04  t[s]:    123.95
	Linear fluid (dielectric constant: 64) occupying 0.996392 of unit cell:	Completed after 0 iterations at t[s]:    124.42
	Linear fluid (dielectric constant: 64) occupying 0.996399 of unit cell:	Completed after 1 iterations at t[s]:    125.22
SCF: Cycle:  8   Etot: -116.091091494706390   dEtot: -1.984e-06   |Residual|: 4.194e-04   |deigs|: 4.848e-05  t[s]:    125.43
	Linear fluid (dielectric constant: 64) occupying 0.996397 of unit cell:	Completed after 2 iterations at t[s]:    125.96
	Linear fluid (dielectric constant: 64) occupying 0.996399 of unit cell:	Completed after 1 iterations at t[s]:    126.78
SCF: Cycle:  9   Etot: -116.091091617737860   dEtot: -1.230e-07   |Residual|: 8.861e-04   |deigs|: 3.271e-04  t[s]:    126.97
	Linear fluid (dielectric constant: 64) occupying 0.996399 of unit cell:	Completed after 0 iterations at t[s]:    127.36
	Linear fluid (dielectric constant: 64) occupying 0.996399 of unit cell:	Completed after 0 iterations at t[s]:    128.02
SCF: Cycle: 10   Etot: -116.091091870767229   dEtot: -2.530e-07   |Residual|: 2.911e-04   |deigs|: 4.869e-05  t[s]:    128.20
	Linear fluid (dielectric constant: 64) occupying 0.996400 of unit cell:	Completed after 1 iterations at t[s]:    128.62
	Linear fluid (dielectric constant: 64) occupying 0.996399 of unit cell:	Completed after 0 iterations at t[s]:    129.27
SCF: Cycle: 11   Etot: -116.091091998838124   dEtot: -1.281e-07   |Residual|: 5.751e-04   |deigs|: 1.251e-04  t[s]:    129.48
	Linear fluid (dielectric constant: 64) occupying 0.996400 of unit cell:	Completed after 0 iterations at t[s]:    129.82
	Linear fluid (dielectric constant: 64) occupying 0.996400 of unit cell:	Completed after 0 iterations at t[s]:    130.48
SCF: Cycle: 12   Etot: -116.091092222325841   dEtot: -2.235e-07   |Residual|: 4.255e-04   |deigs|: 5.976e-06  t[s]:    130.68
	Linear fluid (dielectric constant: 64) occupying 0.996400 of unit cell:	Completed after 0 iterations at t[s]:    131.01
	Linear fluid (dielectric constant: 64) occupying 0.996400 of unit cell:	Completed after 0 iterations at t[s]:    131.67
SCF: Cycle: 13   Etot: -116.091092351935714   dEtot: -1.296e-07   |Residual|: 1.134e-04   |deigs|: 9.082e-06  t[s]:    131.86
	Linear fluid (dielectric constant: 64) occupying 0.996399 of unit cell:	Completed after 0 iterations at t[s]:    132.23
	Linear fluid (dielectric constant: 64) occupying 0.996400 of unit cell:	Completed after 0 iterations at t[s]:    132.88
SCF: Cycle: 14   Etot: -116.091092304641620   dEtot: +4.729e-08   |Residual|: 2.110e-04   |deigs|: 1.037e-05  t[s]:    133.08
	Linear fluid (dielectric constant: 64) occupying 0.996399 of unit cell:	Completed after 0 iterations at t[s]:    133.41
	Linear fluid (dielectric constant: 64) occupying 0.996400 of unit cell:	Completed after 0 iterations at t[s]:    134.08
SCF: Cycle: 15   Etot: -116.091092337264058   dEtot: -3.262e-08   |Residual|: 7.212e-05   |deigs|: 4.068e-06  t[s]:    134.27
	Linear fluid (dielectric constant: 64) occupying 0.996399 of unit cell:	Completed after 0 iterations at t[s]:    134.60
	Linear fluid (dielectric constant: 64) occupying 0.996400 of unit cell:	Completed after 0 iterations at t[s]:    135.26
SCF: Cycle: 16   Etot: -116.091092373954609   dEtot: -3.669e-08   |Residual|: 5.447e-05   |deigs|: 1.870e-06  t[s]:    135.45
	Linear fluid (dielectric constant: 64) occupying 0.996400 of unit cell:	Completed after 0 iterations at t[s]:    135.78
	Linear fluid (dielectric constant: 64) occupying 0.996400 of unit cell:	Completed after 0 iterations at t[s]:    136.46
SCF: Cycle: 17   Etot: -116.091092411001313   dEtot: -3.705e-08   |Residual|: 1.331e-04   |deigs|: 7.406e-06  t[s]:    136.65
	Linear fluid (dielectric constant: 64) occupying 0.996400 of unit cell:	Completed after 0 iterations at t[s]:    137.02
	Linear fluid (dielectric constant: 64) occupying 0.996400 of unit cell:	Completed after 0 iterations at t[s]:    137.68
SCF: Cycle: 18   Etot: -116.091092328593561   dEtot: +8.241e-08   |Residual|: 6.177e-05   |deigs|: 2.788e-05  t[s]:    137.88
	Linear fluid (dielectric constant: 64) occupying 0.996400 of unit cell:	Completed after 0 iterations at t[s]:    138.20
	Linear fluid (dielectric constant: 64) occupying 0.996400 of unit cell:	Completed after 0 iterations at t[s]:    138.86
SCF: Cycle: 19   Etot: -116.091092327725775   dEtot: +8.678e-10   |Residual|: 5.253e-05   |deigs|: 1.854e-06  t[s]:    139.06
	Linear fluid (dielectric constant: 64) occupying 0.996400 of unit cell:	Completed after 0 iterations at t[s]:    139.39
	Linear fluid (dielectric constant: 64) occupying 0.996400 of unit cell:	Completed after 0 iterations at t[s]:    140.07
SCF: Cycle: 20   Etot: -116.091092342881069   dEtot: -1.516e-08   |Residual|: 3.595e-05   |deigs|: 1.620e-06  t[s]:    140.27
	Linear fluid (dielectric constant: 64) occupying 0.996400 of unit cell:	Completed after 0 iterations at t[s]:    140.61
	Linear fluid (dielectric constant: 64) occupying 0.996400 of unit cell:	Completed after 0 iterations at t[s]:    141.25
SCF: Cycle: 21   Etot: -116.091092359143033   dEtot: -1.626e-08   |Residual|: 4.435e-05   |deigs|: 2.736e-06  t[s]:    141.44
	Linear fluid (dielectric constant: 64) occupying 0.996400 of unit cell:	Completed after 0 iterations at t[s]:    141.77
	Linear fluid (dielectric constant: 64) occupying 0.996400 of unit cell:	Completed after 0 iterations at t[s]:    142.45
SCF: Cycle: 22   Etot: -116.091092377940384   dEtot: -1.880e-08   |Residual|: 2.546e-05   |deigs|: 2.079e-06  t[s]:    142.65
	Linear fluid (dielectric constant: 64) occupying 0.996400 of unit cell:	Completed after 0 iterations at t[s]:    142.99
	Linear fluid (dielectric constant: 64) occupying 0.996400 of unit cell:	Completed after 0 iterations at t[s]:    143.63
SCF: Cycle: 23   Etot: -116.091092380509536   dEtot: -2.569e-09   |Residual|: 2.266e-05   |deigs|: 1.220e-06  t[s]:    143.83
	Linear fluid (dielectric constant: 64) occupying 0.996400 of unit cell:	Completed after 0 iterations at t[s]:    144.16
	Linear fluid (dielectric constant: 64) occupying 0.996400 of unit cell:	Completed after 0 iterations at t[s]:    144.84
SCF: Cycle: 24   Etot: -116.091092383495464   dEtot: -2.986e-09   |Residual|: 1.841e-05   |deigs|: 1.228e-06  t[s]:    145.03
SCF: Converged (|Delta E|<1.000000e-08 for 2 iters).

Setting wave functions to eigenvectors of Hamiltonian
IonicMinimize: 	Predicted alpha/alphaT>3.000000, increasing alphaT to 3.000000e+00.

-------- Electronic minimization -----------
Will mix electronic density at each iteration.
	Linear fluid (dielectric constant: 64) occupying 0.996398 of unit cell:	Completed after 20 iterations at t[s]:    146.33
	Linear fluid (dielectric constant: 64) occupying 0.996333 of unit cell:	Completed after 21 iterations at t[s]:    148.55
SCF: Cycle:  0   Etot: -116.088216874772314   dEtot: -1.240e-01   |Residual|: 1.608e-01   |deigs|: 7.723e-03  t[s]:    148.81
	Linear fluid (dielectric constant: 64) occupying 0.996404 of unit cell:	Completed after 23 iterations at t[s]:    150.71
	Linear fluid (dielectric constant: 64) occupying 0.996341 of unit cell:	Completed after 21 iterations at t[s]:    152.89
SCF: Cycle:  1   Etot: -116.092157676707245   dEtot: -3.941e-03   |Residual|: 7.809e-02   |deigs|: 6.608e-03  t[s]:    153.16
	Linear fluid (dielectric constant: 64) occupying 0.996380 of unit cell:	Completed after 22 iterations at t[s]:    155.01
	Linear fluid (dielectric constant: 64) occupying 0.996368 of unit cell:	Completed after 20 iterations at t[s]:    157.10
SCF: Cycle:  2   Etot: -116.094186422196671   dEtot: -2.029e-03   |Residual|: 1.490e-02   |deigs|: 3.371e-03  t[s]:    157.38
	Linear fluid (dielectric constant: 64) occupying 0.996359 of unit cell:	Completed after 19 iterations at t[s]:    159.00
	Linear fluid (dielectric constant: 64) occupying 0.996372 of unit cell:	Completed after 18 iterations at t[s]:    160.94
SCF: Cycle:  3   Etot: -116.094411672137653   dEtot: -2.252e-04   |Residual|: 7.523e-03   |deigs|: 4.529e-03  t[s]:    161.20
	Linear fluid (dielectric constant: 64) occupying 0.996338 of unit cell:	Completed after 12 iterations at t[s]:    162.33
	Linear fluid (dielectric constant: 64) occupying 0.996376 of unit cell:	Completed after 13 iterations at t[s]:    163.92
SCF: Cycle:  4   Etot: -116.094562388520316   dEtot: -1.507e-04   |Residual|: 3.275e-03   |deigs|: 2.801e-03  t[s]:    164.20
	Linear fluid (dielectric constant: 64) occupying 0.996339 of unit cell:	Completed after 8 iterations at t[s]:    165.01
	Linear fluid (dielectric constant: 64) occupying 0.996377 of unit cell:	Completed after 8 iterations at t[s]:    166.27
SCF: Cycle:  5   Etot: -116.094601726104344   dEtot: -3.934e-05   |Residual|: 1.999e-03   |deigs|: 2.918e-04  t[s]:    166.54
	Linear fluid (dielectric constant: 64) occupying 0.996347 of unit cell:	Completed after 9 iterations at t[s]:    167.45
	Linear fluid (dielectric constant: 64) occupying 0.996379 of unit cell:	Completed after 8 iterations at t[s]:    168.70
SCF: Cycle:  6   Etot: -116.094617838736085   dEtot: -1.611e-05   |Residual|: 1.306e-03   |deigs|: 5.138e-04  t[s]:    168.96
	Linear fluid (dielectric constant: 64) occupying 0.996361 of unit cell:	Completed after 5 iterations at t[s]:    169.61
	Linear fluid (dielectric constant: 64) occupying 0.996381 of unit cell:	Completed after 4 iterations at t[s]:    170.60
SCF: Cycle:  7   Etot: -116.094621817390248   dEtot: -3.979e-06   |Residual|: 9.866e-04   |deigs|: 3.917e-04  t[s]:    170.80
	Linear fluid (dielectric constant: 64) occupying 0.996377 of unit cell:	Completed after 3 iterations at t[s]:    171.38
	Linear fluid (dielectric constant: 64) occupying 0.996382 of unit cell:	Completed after 3 iterations at t[s]:    172.26
SCF: Cycle:  8   Etot: -116.094625373587192   dEtot: -3.556e-06   |Residual|: 6.997e-04   |deigs|: 3.852e-05  t[s]:    172.46
	Linear fluid (dielectric constant: 64) occupying 0.996382 of unit cell:	Completed after 3 iterations at t[s]:    173.04
	Linear fluid (dielectric constant: 64) occupying 0.996383 of unit cell:	Completed after 2 iterations at t[s]:    173.88
SCF: Cycle:  9   Etot: -116.094626434911291   dEtot: -1.061e-06   |Residual|: 9.095e-04   |deigs|: 2.539e-04  t[s]:    174.07
	Linear fluid (dielectric constant: 64) occupying 0.996384 of unit cell:	Completed after 1 iterations at t[s]:    174.57
	Linear fluid (dielectric constant: 64) occupying 0.996383 of unit cell:	Completed after 0 iterations at t[s]:    175.36
SCF: Cycle: 10   Etot: -116.094627030123135   dEtot: -5.952e-07   |Residual|: 3.652e-04   |deigs|: 7.871e-05  t[s]:    175.55
	Linear fluid (dielectric constant: 64) occupying 0.996383 of unit cell:	Completed after 0 iterations at t[s]:    175.98
	Linear fluid (dielectric constant: 64) occupying 0.996383 of unit cell:	Completed after 0 iterations at t[s]:    176.63
SCF: Cycle: 11   Etot: -116.094627914878998   dEtot: -8.848e-07   |Residual|: 2.781e-04   |deigs|: 5.703e-05  t[s]:    176.82
	Linear fluid (dielectric constant: 64) occupying 0.996382 of unit cell:	Completed after 2 iterations at t[s]:    177.26
	Linear fluid (dielectric constant: 64) occupying 0.996382 of unit cell:	Completed after 0 iterations at t[s]:    177.99
SCF: Cycle: 12   Etot: -116.094627694520923   dEtot: +2.204e-07   |Residual|: 3.076e-04   |deigs|: 5.971e-05  t[s]:    178.19
	Linear fluid (dielectric constant: 64) occupying 0.996383 of unit cell:	Completed after 0 iterations at t[s]:    178.55
	Linear fluid (dielectric constant: 64) occupying 0.996383 of unit cell:	Completed after 0 iterations at t[s]:    179.22
SCF: Cycle: 13   Etot: -116.094628157716400   dEtot: -4.632e-07   |Residual|: 1.639e-04   |deigs|: 5.097e-05  t[s]:    179.43
	Linear fluid (dielectric constant: 64) occupying 0.996383 of unit cell:	Completed after 0 iterations at t[s]:    179.76
	Linear fluid (dielectric constant: 64) occupying 0.996383 of unit cell:	Completed after 0 iterations at t[s]:    180.45
SCF: Cycle: 14   Etot: -116.094628161879754   dEtot: -4.163e-09   |Residual|: 1.864e-04   |deigs|: 4.795e-06  t[s]:    180.64
	Linear fluid (dielectric constant: 64) occupying 0.996383 of unit cell:	Completed after 0 iterations at t[s]:    181.00
	Linear fluid (dielectric constant: 64) occupying 0.996383 of unit cell:	Completed after 0 iterations at t[s]:    181.70
SCF: Cycle: 15   Etot: -116.094628216734549   dEtot: -5.485e-08   |Residual|: 1.696e-04   |deigs|: 2.742e-05  t[s]:    181.89
	Linear fluid (dielectric constant: 64) occupying 0.996383 of unit cell:	Completed after 0 iterations at t[s]:    182.23
	Linear fluid (dielectric constant: 64) occupying 0.996383 of unit cell:	Completed after 0 iterations at t[s]:    182.90
SCF: Cycle: 16   Etot: -116.094628250107490   dEtot: -3.337e-08   |Residual|: 8.261e-05   |deigs|: 5.614e-06  t[s]:    183.09
	Linear fluid (dielectric constant: 64) occupying 0.996383 of unit cell:	Completed after 0 iterations at t[s]:    183.43
	Linear fluid (dielectric constant: 64) occupying 0.996383 of unit cell:	Completed after 0 iterations at t[s]:    184.10
SCF: Cycle: 17   Etot: -116.094628279881562   dEtot: -2.977e-08   |Residual|: 9.671e-05   |deigs|: 2.275e-06  t[s]:    184.29
	Linear fluid (dielectric constant: 64) occupying 0.996383 of unit cell:	Completed after 0 iterations at t[s]:    184.66
	Linear fluid (dielectric constant: 64) occupying 0.996383 of unit cell:	Completed after 0 iterations at t[s]:    185.34
SCF: Cycle: 18   Etot: -116.094628213269843   dEtot: +6.661e-08   |Residual|: 2.300e-04   |deigs|: 6.045e-05  t[s]:    185.52
	Linear fluid (dielectric constant: 64) occupying 0.996384 of unit cell:	Completed after 0 iterations at t[s]:    185.86
	Linear fluid (dielectric constant: 64) occupying 0.996383 of unit cell:	Completed after 0 iterations at t[s]:    186.51
SCF: Cycle: 19   Etot: -116.094628225910071   dEtot: -1.264e-08   |Residual|: 1.021e-04   |deigs|: 4.647e-06  t[s]:    186.70
	Linear fluid (dielectric constant: 64) occupying 0.996384 of unit cell:	Completed after 0 iterations at t[s]:    187.03
	Linear fluid (dielectric constant: 64) occupying 0.996383 of unit cell:	Completed after 0 iterations at t[s]:    187.73
SCF: Cycle: 20   Etot: -116.094628213646217   dEtot: +1.226e-08   |Residual|: 5.802e-05   |deigs|: 2.152e-06  t[s]:    187.93
	Linear fluid (dielectric constant: 64) occupying 0.996384 of unit cell:	Completed after 0 iterations at t[s]:    188.29
	Linear fluid (dielectric constant: 64) occupying 0.996383 of unit cell:	Completed after 0 iterations at t[s]:    188.97
SCF: Cycle: 21   Etot: -116.094628291997225   dEtot: -7.835e-08   |Residual|: 3.793e-05   |deigs|: 3.887e-05  t[s]:    189.16
	Linear fluid (dielectric constant: 64) occupying 0.996383 of unit cell:	Completed after 0 iterations at t[s]:    189.50
	Linear fluid (dielectric constant: 64) occupying 0.996383 of unit cell:	Completed after 0 iterations at t[s]:    190.13
SCF: Cycle: 22   Etot: -116.094628306037635   dEtot: -1.404e-08   |Residual|: 3.597e-05   |deigs|: 2.328e-06  t[s]:    190.32
	Linear fluid (dielectric constant: 64) occupying 0.996383 of unit cell:	Completed after 0 iterations at t[s]:    190.65
	Linear fluid (dielectric constant: 64) occupying 0.996383 of unit cell:	Completed after 0 iterations at t[s]:    191.35
SCF: Cycle: 23   Etot: -116.094628313056063   dEtot: -7.018e-09   |Residual|: 7.022e-05   |deigs|: 2.468e-06  t[s]:    191.54
	Linear fluid (dielectric constant: 64) occupying 0.996383 of unit cell:	Completed after 0 iterations at t[s]:    191.88
	Linear fluid (dielectric constant: 64) occupying 0.996383 of unit cell:	Completed after 0 iterations at t[s]:    192.55
SCF: Cycle: 24   Etot: -116.094628312515340   dEtot: +5.407e-10   |Residual|: 3.956e-05   |deigs|: 8.749e-07  t[s]:    192.74
	Linear fluid (dielectric constant: 64) occupying 0.996383 of unit cell:	Completed after 0 iterations at t[s]:    193.08
	Linear fluid (dielectric constant: 64) occupying 0.996383 of unit cell:	Completed after 0 iterations at t[s]:    193.77
SCF: Cycle: 25   Etot: -116.094628319122819   dEtot: -6.607e-09   |Residual|: 2.339e-05   |deigs|: 9.501e-07  t[s]:    193.97
	Linear fluid (dielectric constant: 64) occupying 0.996383 of unit cell:	Completed after 0 iterations at t[s]:    194.30
	Linear fluid (dielectric constant: 64) occupying 0.996383 of unit cell:	Completed after 0 iterations at t[s]:    194.99
SCF: Cycle: 26   Etot: -116.094628330193416   dEtot: -1.107e-08   |Residual|: 2.578e-05   |deigs|: 1.289e-06  t[s]:    195.19
	Linear fluid (dielectric constant: 64) occupying 0.996383 of unit cell:	Completed after 0 iterations at t[s]:    195.51
	Linear fluid (dielectric constant: 64) occupying 0.996383 of unit cell:	Completed after 0 iterations at t[s]:    196.15
SCF: Cycle: 27   Etot: -116.094628332824854   dEtot: -2.631e-09   |Residual|: 1.017e-05   |deigs|: 4.865e-07  t[s]:    196.34
	Linear fluid (dielectric constant: 64) occupying 0.996383 of unit cell:	Completed after 0 iterations at t[s]:    196.67
	Linear fluid (dielectric constant: 64) occupying 0.996383 of unit cell:	Completed after 0 iterations at t[s]:    197.36
SCF: Cycle: 28   Etot: -116.094628336764018   dEtot: -3.939e-09   |Residual|: 7.807e-06   |deigs|: 7.548e-07  t[s]:    197.55
SCF: Converged (|Delta E|<1.000000e-08 for 2 iters).

Setting wave functions to eigenvectors of Hamiltonian
IonicMinimize: 	Predicted alpha/alphaT>3.000000, increasing alphaT to 9.000000e+00.

-------- Electronic minimization -----------
Will mix electronic density at each iteration.
	Linear fluid (dielectric constant: 64) occupying 0.996373 of unit cell:	Completed after 25 iterations at t[s]:    199.22
	Linear fluid (dielectric constant: 64) occupying 0.996224 of unit cell:	Completed after 31 iterations at t[s]:    202.08
SCF: Cycle:  0   Etot: -116.017593720362569   dEtot: -1.140e+00   |Residual|: 5.751e-01   |deigs|: 7.268e-02  t[s]:    202.36
	Linear fluid (dielectric constant: 64) occupying 0.996353 of unit cell:	Completed after 36 iterations at t[s]:    205.22
	Linear fluid (dielectric constant: 64) occupying 0.996217 of unit cell:	Completed after 31 iterations at t[s]:    208.10
SCF: Cycle:  1   Etot: -116.076168944955697   dEtot: -5.858e-02   |Residual|: 2.479e-01   |deigs|: 6.124e-02  t[s]:    208.37
	Linear fluid (dielectric constant: 64) occupying 0.996214 of unit cell:	Completed after 37 iterations at t[s]:    211.28
	Linear fluid (dielectric constant: 64) occupying 0.996272 of unit cell:	Completed after 28 iterations at t[s]:    213.94
SCF: Cycle:  2   Etot: -116.096734878071032   dEtot: -2.057e-02   |Residual|: 6.741e-02   |deigs|: 8.160e-03  t[s]:    214.22
	Linear fluid (dielectric constant: 64) occupying 0.996185 of unit cell:	Completed after 31 iterations at t[s]:    216.70
	Linear fluid (dielectric constant: 64) occupying 0.996290 of unit cell:	Completed after 23 iterations at t[s]:    218.99
SCF: Cycle:  3   Etot: -116.100719975293529   dEtot: -3.985e-03   |Residual|: 2.569e-02   |deigs|: 2.213e-02  t[s]:    219.27
	Linear fluid (dielectric constant: 64) occupying 0.996169 of unit cell:	Completed after 19 iterations at t[s]:    220.89
	Linear fluid (dielectric constant: 64) occupying 0.996307 of unit cell:	Completed after 19 iterations at t[s]:    222.90
SCF: Cycle:  4   Etot: -116.102432584693560   dEtot: -1.713e-03   |Residual|: 1.162e-02   |deigs|: 1.112e-02  t[s]:    223.18
	Linear fluid (dielectric constant: 64) occupying 0.996177 of unit cell:	Completed after 13 iterations at t[s]:    224.37
	Linear fluid (dielectric constant: 64) occupying 0.996315 of unit cell:	Completed after 14 iterations at t[s]:    226.04
SCF: Cycle:  5   Etot: -116.102852415474644   dEtot: -4.198e-04   |Residual|: 6.497e-03   |deigs|: 2.549e-03  t[s]:    226.31
	Linear fluid (dielectric constant: 64) occupying 0.996216 of unit cell:	Completed after 13 iterations at t[s]:    227.50
	Linear fluid (dielectric constant: 64) occupying 0.996320 of unit cell:	Completed after 12 iterations at t[s]:    229.03
SCF: Cycle:  6   Etot: -116.102971924586157   dEtot: -1.195e-04   |Residual|: 4.505e-03   |deigs|: 1.376e-03  t[s]:    229.31
	Linear fluid (dielectric constant: 64) occupying 0.996259 of unit cell:	Completed after 9 iterations at t[s]:    230.19
	Linear fluid (dielectric constant: 64) occupying 0.996326 of unit cell:	Completed after 9 iterations at t[s]:    231.51
SCF: Cycle:  7   Etot: -116.103007153674142   dEtot: -3.523e-05   |Residual|: 3.305e-03   |deigs|: 1.732e-03  t[s]:    231.78
	Linear fluid (dielectric constant: 64) occupying 0.996311 of unit cell:	Completed after 4 iterations at t[s]:    232.40
	Linear fluid (dielectric constant: 64) occupying 0.996330 of unit cell:	Completed after 5 iterations at t[s]:    233.41
SCF: Cycle:  8   Etot: -116.103022221540471   dEtot: -1.507e-05   |Residual|: 2.039e-03   |deigs|: 1.845e-04  t[s]:    233.60
	Linear fluid (dielectric constant: 64) occupying 0.996331 of unit cell:	Completed after 7 iterations at t[s]:    234.37
	Linear fluid (dielectric constant: 64) occupying 0.996332 of unit cell:	Completed after 4 iterations at t[s]:    235.37
SCF: Cycle:  9   Etot: -116.103023698239781   dEtot: -1.477e-06   |Residual|: 1.656e-03   |deigs|: 2.559e-04  t[s]:    235.60
	Linear fluid (dielectric constant: 64) occupying 0.996332 of unit cell:	Completed after 4 iterations at t[s]:    236.21
	Linear fluid (dielectric constant: 64) occupying 0.996333 of unit cell:	Completed after 5 iterations at t[s]:    237.21
SCF: Cycle: 10   Etot: -116.103028692887662   dEtot: -4.995e-06   |Residual|: 1.170e-03   |deigs|: 1.338e-04  t[s]:    237.44
	Linear fluid (dielectric constant: 64) occupying 0.996332 of unit cell:	Completed after 1 iterations at t[s]:    237.95
	Linear fluid (dielectric constant: 64) occupying 0.996333 of unit cell:	Completed after 2 iterations at t[s]:    238.81
SCF: Cycle: 11   Etot: -116.103030772854609   dEtot: -2.080e-06   |Residual|: 7.890e-04   |deigs|: 5.949e-05  t[s]:    239.00
	Linear fluid (dielectric constant: 64) occupying 0.996332 of unit cell:	Completed after 3 iterations at t[s]:    239.57
	Linear fluid (dielectric constant: 64) occupying 0.996333 of unit cell:	Completed after 3 iterations at t[s]:    240.46
SCF: Cycle: 12   Etot: -116.103031632230085   dEtot: -8.594e-07   |Residual|: 9.286e-04   |deigs|: 2.031e-04  t[s]:    240.66
	Linear fluid (dielectric constant: 64) occupying 0.996333 of unit cell:	Completed after 0 iterations at t[s]:    241.10
	Linear fluid (dielectric constant: 64) occupying 0.996334 of unit cell:	Completed after 0 iterations at t[s]:    241.84
SCF: Cycle: 13   Etot: -116.103032609508404   dEtot: -9.773e-07   |Residual|: 5.343e-04   |deigs|: 1.542e-04  t[s]:    242.03
	Linear fluid (dielectric constant: 64) occupying 0.996334 of unit cell:	Completed after 0 iterations at t[s]:    242.40
	Linear fluid (dielectric constant: 64) occupying 0.996334 of unit cell:	Completed after 0 iterations at t[s]:    243.05
SCF: Cycle: 14   Etot: -116.103032801110899   dEtot: -1.916e-07   |Residual|: 4.176e-04   |deigs|: 5.854e-05  t[s]:    243.24
	Linear fluid (dielectric constant: 64) occupying 0.996334 of unit cell:	Completed after 3 iterations at t[s]:    243.72
	Linear fluid (dielectric constant: 64) occupying 0.996333 of unit cell:	Completed after 0 iterations at t[s]:    244.50
SCF: Cycle: 15   Etot: -116.103033162616953   dEtot: -3.615e-07   |Residual|: 5.030e-04   |deigs|: 1.213e-04  t[s]:    244.71
	Linear fluid (dielectric constant: 64) occupying 0.996334 of unit cell:	Completed after 0 iterations at t[s]:    245.11
	Linear fluid (dielectric constant: 64) occupying 0.996333 of unit cell:	Completed after 0 iterations at t[s]:    245.77
SCF: Cycle: 16   Etot: -116.103033247566941   dEtot: -8.495e-08   |Residual|: 3.210e-04   |deigs|: 2.706e-05  t[s]:    245.97
	Linear fluid (dielectric constant: 64) occupying 0.996332 of unit cell:	Completed after 2 iterations at t[s]:    246.44
	Linear fluid (dielectric constant: 64) occupying 0.996333 of unit cell:	Completed after 3 iterations at t[s]:    247.32
SCF: Cycle: 17   Etot: -116.103032671285149   dEtot: +5.763e-07   |Residual|: 1.187e-03   |deigs|: 3.793e-04  t[s]:    247.51
	Linear fluid (dielectric constant: 64) occupying 0.996332 of unit cell:	Completed after 0 iterations at t[s]:    247.94
	Linear fluid (dielectric constant: 64) occupying 0.996333 of unit cell:	Completed after 0 iterations at t[s]:    248.59
SCF: Cycle: 18   Etot: -116.103032859251243   dEtot: -1.880e-07   |Residual|: 2.295e-04   |deigs|: 2.487e-04  t[s]:    248.79
	Linear fluid (dielectric constant: 64) occupying 0.996332 of unit cell:	Completed after 0 iterations at t[s]:    249.12
	Linear fluid (dielectric constant: 64) occupying 0.996333 of unit cell:	Completed after 0 iterations at t[s]:    249.75
SCF: Cycle: 19   Etot: -116.103032876529852   dEtot: -1.728e-08   |Residual|: 1.765e-04   |deigs|: 5.028e-06  t[s]:    249.94
	Linear fluid (dielectric constant: 64) occupying 0.996332 of unit cell:	Completed after 0 iterations at t[s]:    250.28
	Linear fluid (dielectric constant: 64) occupying 0.996334 of unit cell:	Completed after 0 iterations at t[s]:    250.98
SCF: Cycle: 20   Etot: -116.103033121394787   dEtot: -2.449e-07   |Residual|: 3.072e-04   |deigs|: 1.012e-05  t[s]:    251.20
	Linear fluid (dielectric constant: 64) occupying 0.996333 of unit cell:	Completed after 0 iterations at t[s]:    251.56
	Linear fluid (dielectric constant: 64) occupying 0.996334 of unit cell:	Completed after 0 iterations at t[s]:    252.20
SCF: Cycle: 21   Etot: -116.103033120605645   dEtot: +7.891e-10   |Residual|: 1.632e-04   |deigs|: 7.517e-06  t[s]:    252.39
	Linear fluid (dielectric constant: 64) occupying 0.996333 of unit cell:	Completed after 0 iterations at t[s]:    252.73
	Linear fluid (dielectric constant: 64) occupying 0.996334 of unit cell:	Completed after 0 iterations at t[s]:    253.41
SCF: Cycle: 22   Etot: -116.103033219264006   dEtot: -9.866e-08   |Residual|: 1.375e-04   |deigs|: 2.139e-06  t[s]:    253.61
	Linear fluid (dielectric constant: 64) occupying 0.996334 of unit cell:	Completed after 0 iterations at t[s]:    253.94
	Linear fluid (dielectric constant: 64) occupying 0.996334 of unit cell:	Completed after 0 iterations at t[s]:    254.60
SCF: Cycle: 23   Etot: -116.103033402917760   dEtot: -1.837e-07   |Residual|: 7.344e-05   |deigs|: 6.188e-06  t[s]:    254.79
	Linear fluid (dielectric constant: 64) occupying 0.996335 of unit cell:	Completed after 0 iterations at t[s]:    255.16
	Linear fluid (dielectric constant: 64) occupying 0.996334 of unit cell:	Completed after 0 iterations at t[s]:    255.80
SCF: Cycle: 24   Etot: -116.103033345961421   dEtot: +5.696e-08   |Residual|: 1.024e-04   |deigs|: 2.305e-05  t[s]:    256.00
	Linear fluid (dielectric constant: 64) occupying 0.996334 of unit cell:	Completed after 0 iterations at t[s]:    256.33
	Linear fluid (dielectric constant: 64) occupying 0.996334 of unit cell:	Completed after 0 iterations at t[s]:    256.98
SCF: Cycle: 25   Etot: -116.103033407999376   dEtot: -6.204e-08   |Residual|: 1.657e-04   |deigs|: 3.073e-06  t[s]:    257.18
	Linear fluid (dielectric constant: 64) occupying 0.996334 of unit cell:	Completed after 0 iterations at t[s]:    257.51
	Linear fluid (dielectric constant: 64) occupying 0.996334 of unit cell:	Completed after 0 iterations at t[s]:    258.15
SCF: Cycle: 26   Etot: -116.103033434844519   dEtot: -2.685e-08   |Residual|: 1.472e-04   |deigs|: 3.350e-06  t[s]:    258.34
	Linear fluid (dielectric constant: 64) occupying 0.996334 of unit cell:	Completed after 0 iterations at t[s]:    258.68
	Linear fluid (dielectric constant: 64) occupying 0.996334 of unit cell:	Completed after 0 iterations at t[s]:    259.36
SCF: Cycle: 27   Etot: -116.103033451368191   dEtot: -1.652e-08   |Residual|: 5.152e-05   |deigs|: 1.627e-06  t[s]:    259.57
	Linear fluid (dielectric constant: 64) occupying 0.996334 of unit cell:	Completed after 0 iterations at t[s]:    259.90
	Linear fluid (dielectric constant: 64) occupying 0.996334 of unit cell:	Completed after 0 iterations at t[s]:    260.56
SCF: Cycle: 28   Etot: -116.103033454779435   dEtot: -3.411e-09   |Residual|: 2.524e-05   |deigs|: 1.075e-06  t[s]:    260.77
	Linear fluid (dielectric constant: 64) occupying 0.996334 of unit cell:	Completed after 0 iterations at t[s]:    261.10
	Linear fluid (dielectric constant: 64) occupying 0.996334 of unit cell:	Completed after 0 iterations at t[s]:    261.77
SCF: Cycle: 29   Etot: -116.103033460366021   dEtot: -5.587e-09   |Residual|: 2.615e-05   |deigs|: 1.180e-06  t[s]:    261.97
SCF: Converged (|Delta E|<1.000000e-08 for 2 iters).

Setting wave functions to eigenvectors of Hamiltonian

-------- Electronic minimization -----------
Will mix electronic density at each iteration.
	Linear fluid (dielectric constant: 64) occupying 0.996308 of unit cell:	Completed after 31 iterations at t[s]:    264.04
	Linear fluid (dielectric constant: 64) occupying 0.996174 of unit cell:	Completed after 45 iterations at t[s]:    267.94
SCF: Cycle:  0   Etot: -115.647624653159852   dEtot: -3.908e+00   |Residual|: 1.356e+00   |deigs|: 2.525e-01  t[s]:    268.22
	Linear fluid (dielectric constant: 64) occupying 0.996090 of unit cell:	Completed after 52 iterations at t[s]:    272.19
	Linear fluid (dielectric constant: 64) occupying 0.996088 of unit cell:	Completed after 37 iterations at t[s]:    275.50
SCF: Cycle:  1   Etot: -115.976559862716613   dEtot: -3.289e-01   |Residual|: 5.224e-01   |deigs|: 2.064e-01  t[s]:    275.78
	Linear fluid (dielectric constant: 64) occupying 0.995766 of unit cell:	Completed after 53 iterations at t[s]:    279.79
	Linear fluid (dielectric constant: 64) occupying 0.996131 of unit cell:	Completed after 33 iterations at t[s]:    282.81
SCF: Cycle:  2   Etot: -116.070850167401261   dEtot: -9.429e-02   |Residual|: 1.616e-01   |deigs|: 3.926e-02  t[s]:    283.08
	Linear fluid (dielectric constant: 64) occupying 0.995703 of unit cell:	Completed after 42 iterations at t[s]:    287.38
	Linear fluid (dielectric constant: 64) occupying 0.996165 of unit cell:	Completed after 30 iterations at t[s]:    291.62
SCF: Cycle:  3   Etot: -116.101027462492212   dEtot: -3.018e-02   |Residual|: 5.624e-02   |deigs|: 5.630e-02  t[s]:    291.89
	Linear fluid (dielectric constant: 64) occupying 0.995773 of unit cell:	Completed after 27 iterations at t[s]:    298.63
	Linear fluid (dielectric constant: 64) occupying 0.996185 of unit cell:	Completed after 22 iterations at t[s]:    300.85
SCF: Cycle:  4   Etot: -116.109448882409879   dEtot: -8.421e-03   |Residual|: 2.838e-02   |deigs|: 2.415e-02  t[s]:    301.13
	Linear fluid (dielectric constant: 64) occupying 0.995868 of unit cell:	Completed after 19 iterations at t[s]:    302.76
	Linear fluid (dielectric constant: 64) occupying 0.996206 of unit cell:	Completed after 19 iterations at t[s]:    304.78
SCF: Cycle:  5   Etot: -116.111685656071600   dEtot: -2.237e-03   |Residual|: 1.433e-02   |deigs|: 1.327e-02  t[s]:    305.05
	Linear fluid (dielectric constant: 64) occupying 0.995987 of unit cell:	Completed after 13 iterations at t[s]:    306.25
	Linear fluid (dielectric constant: 64) occupying 0.996223 of unit cell:	Completed after 13 iterations at t[s]:    307.85
SCF: Cycle:  6   Etot: -116.112250493360818   dEtot: -5.648e-04   |Residual|: 7.359e-03   |deigs|: 1.268e-03  t[s]:    308.13
	Linear fluid (dielectric constant: 64) occupying 0.996054 of unit cell:	Completed after 14 iterations at t[s]:    309.38
	Linear fluid (dielectric constant: 64) occupying 0.996231 of unit cell:	Completed after 14 iterations at t[s]:    311.07
SCF: Cycle:  7   Etot: -116.112291912695468   dEtot: -4.142e-05   |Residual|: 6.400e-03   |deigs|: 4.621e-04  t[s]:    311.33
	Linear fluid (dielectric constant: 64) occupying 0.996217 of unit cell:	Completed after 11 iterations at t[s]:    312.38
	Linear fluid (dielectric constant: 64) occupying 0.996245 of unit cell:	Completed after 6 iterations at t[s]:    313.51
SCF: Cycle:  8   Etot: -116.112389255248843   dEtot: -9.734e-05   |Residual|: 4.395e-03   |deigs|: 3.003e-03  t[s]:    313.77
	Linear fluid (dielectric constant: 64) occupying 0.996237 of unit cell:	Completed after 6 iterations at t[s]:    314.46
	Linear fluid (dielectric constant: 64) occupying 0.996246 of unit cell:	Completed after 4 iterations at t[s]:    315.49
SCF: Cycle:  9   Etot: -116.112394560551166   dEtot: -5.305e-06   |Residual|: 2.986e-03   |deigs|: 6.065e-04  t[s]:    315.69
	Linear fluid (dielectric constant: 64) occupying 0.996257 of unit cell:	Completed after 10 iterations at t[s]:    316.62
	Linear fluid (dielectric constant: 64) occupying 0.996250 of unit cell:	Completed after 9 iterations at t[s]:    317.93
SCF: Cycle: 10   Etot: -116.112397738749550   dEtot: -3.178e-06   |Residual|: 2.454e-03   |deigs|: 7.256e-04  t[s]:    318.21
	Linear fluid (dielectric constant: 64) occupying 0.996243 of unit cell:	Completed after 9 iterations at t[s]:    319.14
	Linear fluid (dielectric constant: 64) occupying 0.996251 of unit cell:	Completed after 5 iterations at t[s]:    320.20
SCF: Cycle: 11   Etot: -116.112409373518020   dEtot: -1.163e-05   |Residual|: 1.408e-03   |deigs|: 1.558e-04  t[s]:    320.43
	Linear fluid (dielectric constant: 64) occupying 0.996247 of unit cell:	Completed after 2 iterations at t[s]:    320.97
	Linear fluid (dielectric constant: 64) occupying 0.996251 of unit cell:	Completed after 3 iterations at t[s]:    321.88
SCF: Cycle: 12   Etot: -116.112410623258555   dEtot: -1.250e-06   |Residual|: 9.772e-04   |deigs|: 1.803e-04  t[s]:    322.08
	Linear fluid (dielectric constant: 64) occupying 0.996248 of unit cell:	Completed after 1 iterations at t[s]:    322.59
	Linear fluid (dielectric constant: 64) occupying 0.996251 of unit cell:	Completed after 1 iterations at t[s]:    323.43
SCF: Cycle: 13   Etot: -116.112412136191665   dEtot: -1.513e-06   |Residual|: 7.347e-04   |deigs|: 1.997e-04  t[s]:    323.62
	Linear fluid (dielectric constant: 64) occupying 0.996250 of unit cell:	Completed after 2 iterations at t[s]:    324.17
	Linear fluid (dielectric constant: 64) occupying 0.996251 of unit cell:	Completed after 1 iterations at t[s]:    324.99
SCF: Cycle: 14   Etot: -116.112413121852455   dEtot: -9.857e-07   |Residual|: 5.454e-04   |deigs|: 7.657e-05  t[s]:    325.20
	Linear fluid (dielectric constant: 64) occupying 0.996253 of unit cell:	Completed after 4 iterations at t[s]:    325.77
	Linear fluid (dielectric constant: 64) occupying 0.996250 of unit cell:	Completed after 3 iterations at t[s]:    326.68
SCF: Cycle: 15   Etot: -116.112413075747611   dEtot: +4.610e-08   |Residual|: 5.053e-04   |deigs|: 1.003e-04  t[s]:    326.88
	Linear fluid (dielectric constant: 64) occupying 0.996250 of unit cell:	Completed after 0 iterations at t[s]:    327.34
	Linear fluid (dielectric constant: 64) occupying 0.996251 of unit cell:	Completed after 0 iterations at t[s]:    328.05
SCF: Cycle: 16   Etot: -116.112413837812483   dEtot: -7.621e-07   |Residual|: 4.248e-04   |deigs|: 9.225e-05  t[s]:    328.24
	Linear fluid (dielectric constant: 64) occupying 0.996249 of unit cell:	Completed after 1 iterations at t[s]:    328.65
	Linear fluid (dielectric constant: 64) occupying 0.996251 of unit cell:	Completed after 1 iterations at t[s]:    329.39
SCF: Cycle: 17   Etot: -116.112413404943112   dEtot: +4.329e-07   |Residual|: 3.464e-04   |deigs|: 1.013e-04  t[s]:    329.59
	Linear fluid (dielectric constant: 64) occupying 0.996246 of unit cell:	Completed after 0 iterations at t[s]:    330.01
	Linear fluid (dielectric constant: 64) occupying 0.996250 of unit cell:	Completed after 0 iterations at t[s]:    330.72
SCF: Cycle: 18   Etot: -116.112413228040893   dEtot: +1.769e-07   |Residual|: 3.697e-04   |deigs|: 5.039e-05  t[s]:    330.91
	Linear fluid (dielectric constant: 64) occupying 0.996246 of unit cell:	Completed after 3 iterations at t[s]:    331.42
	Linear fluid (dielectric constant: 64) occupying 0.996250 of unit cell:	Completed after 3 iterations at t[s]:    332.32
SCF: Cycle: 19   Etot: -116.112413214516920   dEtot: +1.352e-08   |Residual|: 6.427e-04   |deigs|: 1.397e-04  t[s]:    332.51
	Linear fluid (dielectric constant: 64) occupying 0.996247 of unit cell:	Completed after 0 iterations at t[s]:    332.98
	Linear fluid (dielectric constant: 64) occupying 0.996251 of unit cell:	Completed after 0 iterations at t[s]:    333.70
SCF: Cycle: 20   Etot: -116.112413324853961   dEtot: -1.103e-07   |Residual|: 2.368e-04   |deigs|: 1.390e-04  t[s]:    333.89
	Linear fluid (dielectric constant: 64) occupying 0.996249 of unit cell:	Completed after 0 iterations at t[s]:    334.26
	Linear fluid (dielectric constant: 64) occupying 0.996251 of unit cell:	Completed after 0 iterations at t[s]:    334.97
SCF: Cycle: 21   Etot: -116.112413791823400   dEtot: -4.670e-07   |Residual|: 1.916e-04   |deigs|: 3.952e-05  t[s]:    335.18
	Linear fluid (dielectric constant: 64) occupying 0.996252 of unit cell:	Completed after 3 iterations at t[s]:    335.68
	Linear fluid (dielectric constant: 64) occupying 0.996251 of unit cell:	Completed after 1 iterations at t[s]:    336.47
SCF: Cycle: 22   Etot: -116.112413842931829   dEtot: -5.111e-08   |Residual|: 7.340e-04   |deigs|: 2.561e-04  t[s]:    336.67
	Linear fluid (dielectric constant: 64) occupying 0.996252 of unit cell:	Completed after 0 iterations at t[s]:    337.09
	Linear fluid (dielectric constant: 64) occupying 0.996251 of unit cell:	Completed after 0 iterations at t[s]:    337.80
SCF: Cycle: 23   Etot: -116.112413721841477   dEtot: +1.211e-07   |Residual|: 5.546e-04   |deigs|: 3.388e-05  t[s]:    338.00
	Linear fluid (dielectric constant: 64) occupying 0.996251 of unit cell:	Completed after 0 iterations at t[s]:    338.36
	Linear fluid (dielectric constant: 64) occupying 0.996251 of unit cell:	Completed after 0 iterations at t[s]:    338.99
SCF: Cycle: 24   Etot: -116.112413983338982   dEtot: -2.615e-07   |Residual|: 5.470e-04   |deigs|: 4.917e-05  t[s]:    339.18
	Linear fluid (dielectric constant: 64) occupying 0.996250 of unit cell:	Completed after 0 iterations at t[s]:    339.52
	Linear fluid (dielectric constant: 64) occupying 0.996250 of unit cell:	Completed after 2 iterations at t[s]:    340.31
SCF: Cycle: 25   Etot: -116.112413599559858   dEtot: +3.838e-07   |Residual|: 4.903e-04   |deigs|: 1.146e-05  t[s]:    340.50
	Linear fluid (dielectric constant: 64) occupying 0.996249 of unit cell:	Completed after 0 iterations at t[s]:    340.96
	Linear fluid (dielectric constant: 64) occupying 0.996251 of unit cell:	Completed after 0 iterations at t[s]:    341.60
SCF: Cycle: 26   Etot: -116.112414004812422   dEtot: -4.053e-07   |Residual|: 4.429e-04   |deigs|: 2.827e-04  t[s]:    341.80
	Linear fluid (dielectric constant: 64) occupying 0.996249 of unit cell:	Completed after 0 iterations at t[s]:    342.13
	Linear fluid (dielectric constant: 64) occupying 0.996251 of unit cell:	Completed after 0 iterations at t[s]:    342.78
SCF: Cycle: 27   Etot: -116.112413946333135   dEtot: +5.848e-08   |Residual|: 4.372e-04   |deigs|: 6.302e-06  t[s]:    342.97
	Linear fluid (dielectric constant: 64) occupying 0.996249 of unit cell:	Completed after 0 iterations at t[s]:    343.30
	Linear fluid (dielectric constant: 64) occupying 0.996251 of unit cell:	Completed after 0 iterations at t[s]:    343.95
SCF: Cycle: 28   Etot: -116.112413987603858   dEtot: -4.127e-08   |Residual|: 5.426e-04   |deigs|: 3.212e-06  t[s]:    344.16
	Linear fluid (dielectric constant: 64) occupying 0.996249 of unit cell:	Completed after 0 iterations at t[s]:    344.50
	Linear fluid (dielectric constant: 64) occupying 0.996251 of unit cell:	Completed after 0 iterations at t[s]:    345.15
SCF: Cycle: 29   Etot: -116.112414049212944   dEtot: -6.161e-08   |Residual|: 5.581e-04   |deigs|: 1.691e-06  t[s]:    345.37
	Linear fluid (dielectric constant: 64) occupying 0.996249 of unit cell:	Completed after 0 iterations at t[s]:    345.70
	Linear fluid (dielectric constant: 64) occupying 0.996251 of unit cell:	Completed after 0 iterations at t[s]:    346.34
SCF: Cycle: 30   Etot: -116.112414026975742   dEtot: +2.224e-08   |Residual|: 5.492e-04   |deigs|: 7.787e-07  t[s]:    346.53
	Linear fluid (dielectric constant: 64) occupying 0.996249 of unit cell:	Completed after 0 iterations at t[s]:    346.86
	Linear fluid (dielectric constant: 64) occupying 0.996251 of unit cell:	Completed after 0 iterations at t[s]:    347.53
SCF: Cycle: 31   Etot: -116.112414166905580   dEtot: -1.399e-07   |Residual|: 5.285e-04   |deigs|: 3.253e-06  t[s]:    347.72
	Linear fluid (dielectric constant: 64) occupying 0.996250 of unit cell:	Completed after 0 iterations at t[s]:    348.06
	Linear fluid (dielectric constant: 64) occupying 0.996251 of unit cell:	Completed after 0 iterations at t[s]:    348.71
SCF: Cycle: 32   Etot: -116.112414214669258   dEtot: -4.776e-08   |Residual|: 5.297e-04   |deigs|: 1.216e-06  t[s]:    348.90
	Linear fluid (dielectric constant: 64) occupying 0.996250 of unit cell:	Completed after 0 iterations at t[s]:    349.23
	Linear fluid (dielectric constant: 64) occupying 0.996251 of unit cell:	Completed after 0 iterations at t[s]:    349.87
SCF: Cycle: 33   Etot: -116.112414181833643   dEtot: +3.284e-08   |Residual|: 5.258e-04   |deigs|: 9.377e-07  t[s]:    350.08
	Linear fluid (dielectric constant: 64) occupying 0.996250 of unit cell:	Completed after 0 iterations at t[s]:    350.41
	Linear fluid (dielectric constant: 64) occupying 0.996251 of unit cell:	Completed after 0 iterations at t[s]:    351.05
SCF: Cycle: 34   Etot: -116.112414169472132   dEtot: +1.236e-08   |Residual|: 5.532e-04   |deigs|: 2.793e-06  t[s]:    351.26
	Linear fluid (dielectric constant: 64) occupying 0.996250 of unit cell:	Completed after 0 iterations at t[s]:    351.60
	Linear fluid (dielectric constant: 64) occupying 0.996251 of unit cell:	Completed after 1 iterations at t[s]:    352.36
SCF: Cycle: 35   Etot: -116.112413844531915   dEtot: +3.249e-07   |Residual|: 5.574e-04   |deigs|: 2.466e-06  t[s]:    352.56
	Linear fluid (dielectric constant: 64) occupying 0.996249 of unit cell:	Completed after 3 iterations at t[s]:    353.09
	Linear fluid (dielectric constant: 64) occupying 0.996251 of unit cell:	Completed after 3 iterations at t[s]:    353.95
SCF: Cycle: 36   Etot: -116.112413702666217   dEtot: +1.419e-07   |Residual|: 1.178e-03   |deigs|: 2.410e-04  t[s]:    354.16
	Linear fluid (dielectric constant: 64) occupying 0.996251 of unit cell:	Completed after 0 iterations at t[s]:    354.58
	Linear fluid (dielectric constant: 64) occupying 0.996251 of unit cell:	Completed after 0 iterations at t[s]:    355.28
SCF: Cycle: 37   Etot: -116.112414221570589   dEtot: -5.189e-07   |Residual|: 2.311e-04   |deigs|: 4.053e-04  t[s]:    355.47
	Linear fluid (dielectric constant: 64) occupying 0.996251 of unit cell:	Completed after 0 iterations at t[s]:    355.80
	Linear fluid (dielectric constant: 64) occupying 0.996250 of unit cell:	Completed after 0 iterations at t[s]:    356.45
SCF: Cycle: 38   Etot: -116.112414204046502   dEtot: +1.752e-08   |Residual|: 2.343e-04   |deigs|: 2.137e-06  t[s]:    356.65
	Linear fluid (dielectric constant: 64) occupying 0.996251 of unit cell:	Completed after 0 iterations at t[s]:    356.98
	Linear fluid (dielectric constant: 64) occupying 0.996251 of unit cell:	Completed after 0 iterations at t[s]:    357.67
[...]
	Linear fluid (dielectric constant: 64) occupying 0.996016 of unit cell:	Completed after 0 iterations at t[s]:   1304.18
	Linear fluid (dielectric constant: 64) occupying 0.996017 of unit cell:	Completed after 1 iterations at t[s]:   1304.88
SCF: Cycle:  7   Etot: -116.129230248189799   dEtot: +3.816e-07   |Residual|: 2.423e-04   |deigs|: 2.387e-06  t[s]:   1305.08
	Linear fluid (dielectric constant: 64) occupying 0.996016 of unit cell:	Completed after 0 iterations at t[s]:   1305.46
	Linear fluid (dielectric constant: 64) occupying 0.996016 of unit cell:	Completed after 0 iterations at t[s]:   1306.09
SCF: Cycle:  8   Etot: -116.129230373555089   dEtot: -1.254e-07   |Residual|: 7.358e-05   |deigs|: 6.170e-05  t[s]:   1306.29
	Linear fluid (dielectric constant: 64) occupying 0.996016 of unit cell:	Completed after 0 iterations at t[s]:   1306.62
	Linear fluid (dielectric constant: 64) occupying 0.996016 of unit cell:	Completed after 0 iterations at t[s]:   1307.26
SCF: Cycle:  9   Etot: -116.129230388549445   dEtot: -1.499e-08   |Residual|: 4.564e-05   |deigs|: 1.709e-06  t[s]:   1307.47
	Linear fluid (dielectric constant: 64) occupying 0.996016 of unit cell:	Completed after 0 iterations at t[s]:   1307.80
	Linear fluid (dielectric constant: 64) occupying 0.996016 of unit cell:	Completed after 0 iterations at t[s]:   1308.44
SCF: Cycle: 10   Etot: -116.129230395771103   dEtot: -7.222e-09   |Residual|: 8.416e-05   |deigs|: 1.748e-06  t[s]:   1308.63
	Linear fluid (dielectric constant: 64) occupying 0.996016 of unit cell:	Completed after 0 iterations at t[s]:   1309.00
	Linear fluid (dielectric constant: 64) occupying 0.996016 of unit cell:	Completed after 0 iterations at t[s]:   1309.64
SCF: Cycle: 11   Etot: -116.129230288233842   dEtot: +1.075e-07   |Residual|: 4.232e-05   |deigs|: 2.118e-05  t[s]:   1309.86
	Linear fluid (dielectric constant: 64) occupying 0.996016 of unit cell:	Completed after 0 iterations at t[s]:   1310.19
	Linear fluid (dielectric constant: 64) occupying 0.996016 of unit cell:	Completed after 0 iterations at t[s]:   1310.82
SCF: Cycle: 12   Etot: -116.129230289432456   dEtot: -1.199e-09   |Residual|: 5.464e-05   |deigs|: 7.888e-07  t[s]:   1311.03
	Linear fluid (dielectric constant: 64) occupying 0.996016 of unit cell:	Completed after 0 iterations at t[s]:   1311.35
	Linear fluid (dielectric constant: 64) occupying 0.996016 of unit cell:	Completed after 0 iterations at t[s]:   1312.05
SCF: Cycle: 13   Etot: -116.129230288751387   dEtot: +6.811e-10   |Residual|: 7.269e-05   |deigs|: 9.539e-07  t[s]:   1312.25
	Linear fluid (dielectric constant: 64) occupying 0.996016 of unit cell:	Completed after 0 iterations at t[s]:   1312.57
	Linear fluid (dielectric constant: 64) occupying 0.996016 of unit cell:	Completed after 0 iterations at t[s]:   1313.25
SCF: Cycle: 14   Etot: -116.129230288437313   dEtot: +3.141e-10   |Residual|: 6.994e-05   |deigs|: 8.282e-07  t[s]:   1313.44
	Linear fluid (dielectric constant: 64) occupying 0.996016 of unit cell:	Completed after 0 iterations at t[s]:   1313.78
	Linear fluid (dielectric constant: 64) occupying 0.996016 of unit cell:	Completed after 0 iterations at t[s]:   1314.41
SCF: Cycle: 15   Etot: -116.129230289228502   dEtot: -7.912e-10   |Residual|: 6.094e-05   |deigs|: 4.337e-07  t[s]:   1314.60
	Linear fluid (dielectric constant: 64) occupying 0.996016 of unit cell:	Completed after 0 iterations at t[s]:   1314.94
	Linear fluid (dielectric constant: 64) occupying 0.996016 of unit cell:	Completed after 0 iterations at t[s]:   1315.60
SCF: Cycle: 16   Etot: -116.129230288746655   dEtot: +4.818e-10   |Residual|: 5.963e-05   |deigs|: 3.884e-07  t[s]:   1315.79
	Linear fluid (dielectric constant: 64) occupying 0.996016 of unit cell:	Completed after 0 iterations at t[s]:   1316.12
	Linear fluid (dielectric constant: 64) occupying 0.996016 of unit cell:	Completed after 0 iterations at t[s]:   1316.75
SCF: Cycle: 17   Etot: -116.129230287491396   dEtot: +1.255e-09   |Residual|: 5.842e-05   |deigs|: 3.425e-07  t[s]:   1316.94
	Linear fluid (dielectric constant: 64) occupying 0.996016 of unit cell:	Completed after 0 iterations at t[s]:   1317.28
	Linear fluid (dielectric constant: 64) occupying 0.996016 of unit cell:	Completed after 0 iterations at t[s]:   1317.97
SCF: Cycle: 18   Etot: -116.129230291626115   dEtot: -4.135e-09   |Residual|: 4.984e-05   |deigs|: 2.263e-06  t[s]:   1318.18
	Linear fluid (dielectric constant: 64) occupying 0.996016 of unit cell:	Completed after 0 iterations at t[s]:   1318.52
	Linear fluid (dielectric constant: 64) occupying 0.996016 of unit cell:	Completed after 0 iterations at t[s]:   1319.16
SCF: Cycle: 19   Etot: -116.129230291632126   dEtot: -6.011e-12   |Residual|: 5.507e-05   |deigs|: 5.866e-07  t[s]:   1319.36
SCF: Converged (|Delta E|<1.000000e-08 for 2 iters).

Setting wave functions to eigenvectors of Hamiltonian

-------- Electronic minimization -----------
Will mix electronic density at each iteration.
	Linear fluid (dielectric constant: 64) occupying 0.996016 of unit cell:	Completed after 3 iterations at t[s]:   1319.95
	Linear fluid (dielectric constant: 64) occupying 0.996016 of unit cell:	Completed after 1 iterations at t[s]:   1320.77
SCF: Cycle:  0   Etot: -116.129230103900909   dEtot: +1.281e-07   |Residual|: 1.181e-04   |deigs|: 8.374e-09  t[s]:   1320.96
	Linear fluid (dielectric constant: 64) occupying 0.996016 of unit cell:	Completed after 0 iterations at t[s]:   1321.38
	Linear fluid (dielectric constant: 64) occupying 0.996015 of unit cell:	Completed after 0 iterations at t[s]:   1322.02
SCF: Cycle:  1   Etot: -116.129230020143709   dEtot: +8.376e-08   |Residual|: 5.509e-05   |deigs|: 6.337e-06  t[s]:   1322.21
	Linear fluid (dielectric constant: 64) occupying 0.996016 of unit cell:	Completed after 0 iterations at t[s]:   1322.54
	Linear fluid (dielectric constant: 64) occupying 0.996015 of unit cell:	Completed after 0 iterations at t[s]:   1323.18
SCF: Cycle:  2   Etot: -116.129230035905707   dEtot: -1.576e-08   |Residual|: 4.259e-05   |deigs|: 8.414e-07  t[s]:   1323.37
	Linear fluid (dielectric constant: 64) occupying 0.996016 of unit cell:	Completed after 0 iterations at t[s]:   1323.69
	Linear fluid (dielectric constant: 64) occupying 0.996015 of unit cell:	Completed after 0 iterations at t[s]:   1324.36
SCF: Cycle:  3   Etot: -116.129230045125766   dEtot: -9.220e-09   |Residual|: 2.428e-05   |deigs|: 9.449e-07  t[s]:   1324.57
	Linear fluid (dielectric constant: 64) occupying 0.996015 of unit cell:	Completed after 0 iterations at t[s]:   1324.89
	Linear fluid (dielectric constant: 64) occupying 0.996015 of unit cell:	Completed after 0 iterations at t[s]:   1325.54
SCF: Cycle:  4   Etot: -116.129230050320203   dEtot: -5.194e-09   |Residual|: 1.953e-05   |deigs|: 3.390e-07  t[s]:   1325.72
SCF: Converged (|Delta E|<1.000000e-08 for 2 iters).

Setting wave functions to eigenvectors of Hamiltonian

# Ionic positions in cartesian coordinates:
ion S   9.385424631350975  12.385538482742909  28.300433501773369 1
ion S   5.997565459034754  10.104736992020149  28.377819592690212 1
ion Na  11.061527515137582   6.119319590261547  24.376243491604221 1
ion Na   4.097801322656693  16.466924532115392  24.708181061252180 1

# Forces in Cartesian coordinates:
force S   0.000022532468767   0.000034645826520   0.000237789546755 1
force S  -0.000005414362767  -0.000039569844282   0.000186293893836 1
force Na  -0.000254458096900   0.000339858229753   0.000132847429840 1
force Na   0.000278278423885  -0.000338820478311   0.000115238076898 1

# Energy components:
   A_diel =       -0.4018467211715591
   Eewald =       23.4027780485783765
       EH =      120.3067051578631350
     Eloc =     -124.4321208722902696
      Enl =     -140.4033731357681916
      Exc =      -22.7856120181023094
 Exc_core =        3.5354581395930014
       KE =       24.6487813509776181
-------------------------------------
     Etot =     -116.1292300503202028

IonicMinimize: Iter:   9  Etot: -116.129230050320203  |grad|_K:  1.790e-04  alpha:  6.614e-01  linmin:  7.306e-01  t[s]:   1326.05
IonicMinimize: 	Bad step direction: g.d > 0.
IonicMinimize: 	Undoing step.

#--- Lowdin population analysis ---
# oxidation-state S -0.857 -0.857
# oxidation-state Na +0.970 +0.970


-------- Electronic minimization -----------
Will mix electronic density at each iteration.
	Linear fluid (dielectric constant: 64) occupying 0.996015 of unit cell:	Completed after 0 iterations at t[s]:   1326.46
	Linear fluid (dielectric constant: 64) occupying 0.996015 of unit cell:	Completed after 0 iterations at t[s]:   1327.13
SCF: Cycle:  0   Etot: -116.129230055596466   dEtot: -5.276e-09   |Residual|: 1.306e-05   |deigs|: 1.453e-10  t[s]:   1327.32
	Linear fluid (dielectric constant: 64) occupying 0.996015 of unit cell:	Completed after 0 iterations at t[s]:   1327.65
	Linear fluid (dielectric constant: 64) occupying 0.996015 of unit cell:	Completed after 0 iterations at t[s]:   1328.30
SCF: Cycle:  1   Etot: -116.129230056866916   dEtot: -1.270e-09   |Residual|: 1.101e-05   |deigs|: 7.479e-08  t[s]:   1328.49
SCF: Converged (|Delta E|<1.000000e-08 for 2 iters).

Setting wave functions to eigenvectors of Hamiltonian
IonicMinimize: 	Step failed: resetting search direction.

# Ionic positions in cartesian coordinates:
ion S   9.385424631350975  12.385538482742909  28.300433501773369 1
ion S   5.997565459034754  10.104736992020149  28.377819592690212 1
ion Na  11.061527515137582   6.119319590261547  24.376243491604221 1
ion Na   4.097801322656693  16.466924532115392  24.708181061252180 1

# Forces in Cartesian coordinates:
force S   0.000023441795738   0.000035478276406   0.000257248822237 1
force S  -0.000007306299008  -0.000041777388990   0.000203138877257 1
force Na  -0.000290674339405   0.000389630086045   0.000152711531889 1
force Na   0.000318007118190  -0.000386782074225   0.000132258014554 1

# Energy components:
   A_diel =       -0.4018512181251336
   Eewald =       23.4027780485783765
       EH =      120.3066256804639522
     Eloc =     -124.4318759873156637
      Enl =     -140.4035029710064748
      Exc =      -22.7856023727613284
 Exc_core =        3.5354581395930014
       KE =       24.6487406237063560
-------------------------------------
     Etot =     -116.1292300568669162

IonicMinimize: Iter:  10  Etot: -116.129230056866916  |grad|_K:  2.040e-04  alpha:  0.000e+00

#--- Lowdin population analysis ---
# oxidation-state S -0.857 -0.857
# oxidation-state Na +0.970 +0.970


-------- Electronic minimization -----------
Will mix electronic density at each iteration.
	Linear fluid (dielectric constant: 64) occupying 0.996015 of unit cell:	Completed after 3 iterations at t[s]:   1329.37
	Linear fluid (dielectric constant: 64) occupying 0.996016 of unit cell:	Completed after 0 iterations at t[s]:   1330.10
SCF: Cycle:  0   Etot: -116.129229539424671   dEtot: -1.516e-07   |Residual|: 1.141e-04   |deigs|: 4.081e-09  t[s]:   1330.30
	Linear fluid (dielectric constant: 64) occupying 0.996015 of unit cell:	Completed after 0 iterations at t[s]:   1330.63
	Linear fluid (dielectric constant: 64) occupying 0.996016 of unit cell:	Completed after 0 iterations at t[s]:   1331.27
SCF: Cycle:  1   Etot: -116.129229572357900   dEtot: -3.293e-08   |Residual|: 9.579e-05   |deigs|: 9.093e-07  t[s]:   1331.46
	Linear fluid (dielectric constant: 64) occupying 0.996016 of unit cell:	Completed after 0 iterations at t[s]:   1331.78
	Linear fluid (dielectric constant: 64) occupying 0.996016 of unit cell:	Completed after 0 iterations at t[s]:   1332.45
SCF: Cycle:  2   Etot: -116.129229619421295   dEtot: -4.706e-08   |Residual|: 5.274e-05   |deigs|: 2.371e-06  t[s]:   1332.66
	Linear fluid (dielectric constant: 64) occupying 0.996016 of unit cell:	Completed after 0 iterations at t[s]:   1332.98
	Linear fluid (dielectric constant: 64) occupying 0.996016 of unit cell:	Completed after 0 iterations at t[s]:   1333.64
SCF: Cycle:  3   Etot: -116.129229634540977   dEtot: -1.512e-08   |Residual|: 3.883e-05   |deigs|: 1.160e-06  t[s]:   1333.82
	Linear fluid (dielectric constant: 64) occupying 0.996016 of unit cell:	Completed after 0 iterations at t[s]:   1334.15
	Linear fluid (dielectric constant: 64) occupying 0.996016 of unit cell:	Completed after 0 iterations at t[s]:   1334.82
SCF: Cycle:  4   Etot: -116.129229650971212   dEtot: -1.643e-08   |Residual|: 2.052e-05   |deigs|: 2.193e-06  t[s]:   1335.02
	Linear fluid (dielectric constant: 64) occupying 0.996016 of unit cell:	Completed after 0 iterations at t[s]:   1335.34
	Linear fluid (dielectric constant: 64) occupying 0.996016 of unit cell:	Completed after 0 iterations at t[s]:   1335.99
SCF: Cycle:  5   Etot: -116.129229653665675   dEtot: -2.694e-09   |Residual|: 1.567e-05   |deigs|: 8.827e-07  t[s]:   1336.18
	Linear fluid (dielectric constant: 64) occupying 0.996017 of unit cell:	Completed after 0 iterations at t[s]:   1336.51
	Linear fluid (dielectric constant: 64) occupying 0.996016 of unit cell:	Completed after 0 iterations at t[s]:   1337.14
SCF: Cycle:  6   Etot: -116.129229655153225   dEtot: -1.488e-09   |Residual|: 1.312e-05   |deigs|: 9.667e-07  t[s]:   1337.33
SCF: Converged (|Delta E|<1.000000e-08 for 2 iters).

Setting wave functions to eigenvectors of Hamiltonian

-------- Electronic minimization -----------
Will mix electronic density at each iteration.
	Linear fluid (dielectric constant: 64) occupying 0.996017 of unit cell:	Completed after 3 iterations at t[s]:   1337.93
	Linear fluid (dielectric constant: 64) occupying 0.996015 of unit cell:	Completed after 0 iterations at t[s]:   1338.66
SCF: Cycle:  0   Etot: -116.129229940393614   dEtot: -6.496e-07   |Residual|: 3.111e-04   |deigs|: 2.060e-08  t[s]:   1338.86
	Linear fluid (dielectric constant: 64) occupying 0.996016 of unit cell:	Completed after 0 iterations at t[s]:   1339.19
	Linear fluid (dielectric constant: 64) occupying 0.996014 of unit cell:	Completed after 1 iterations at t[s]:   1339.90
SCF: Cycle:  1   Etot: -116.129229455321521   dEtot: +4.851e-07   |Residual|: 2.782e-04   |deigs|: 3.112e-06  t[s]:   1340.10
	Linear fluid (dielectric constant: 64) occupying 0.996015 of unit cell:	Completed after 0 iterations at t[s]:   1340.47
	Linear fluid (dielectric constant: 64) occupying 0.996015 of unit cell:	Completed after 0 iterations at t[s]:   1341.12
SCF: Cycle:  2   Etot: -116.129229567077772   dEtot: -1.118e-07   |Residual|: 1.328e-04   |deigs|: 1.066e-04  t[s]:   1341.31
	Linear fluid (dielectric constant: 64) occupying 0.996015 of unit cell:	Completed after 0 iterations at t[s]:   1341.64
	Linear fluid (dielectric constant: 64) occupying 0.996015 of unit cell:	Completed after 0 iterations at t[s]:   1342.30
SCF: Cycle:  3   Etot: -116.129229599653144   dEtot: -3.258e-08   |Residual|: 6.459e-05   |deigs|: 3.409e-06  t[s]:   1342.50
	Linear fluid (dielectric constant: 64) occupying 0.996015 of unit cell:	Completed after 0 iterations at t[s]:   1342.82
	Linear fluid (dielectric constant: 64) occupying 0.996016 of unit cell:	Completed after 0 iterations at t[s]:   1343.47
SCF: Cycle:  4   Etot: -116.129229619006765   dEtot: -1.935e-08   |Residual|: 2.763e-05   |deigs|: 3.436e-06  t[s]:   1343.66
	Linear fluid (dielectric constant: 64) occupying 0.996016 of unit cell:	Completed after 0 iterations at t[s]:   1343.99
	Linear fluid (dielectric constant: 64) occupying 0.996016 of unit cell:	Completed after 0 iterations at t[s]:   1344.64
SCF: Cycle:  5   Etot: -116.129229624051391   dEtot: -5.045e-09   |Residual|: 2.272e-05   |deigs|: 6.548e-07  t[s]:   1344.84
	Linear fluid (dielectric constant: 64) occupying 0.996016 of unit cell:	Completed after 0 iterations at t[s]:   1345.17
	Linear fluid (dielectric constant: 64) occupying 0.996016 of unit cell:	Completed after 0 iterations at t[s]:   1345.81
SCF: Cycle:  6   Etot: -116.129229628396487   dEtot: -4.345e-09   |Residual|: 1.544e-05   |deigs|: 6.556e-07  t[s]:   1346.02
SCF: Converged (|Delta E|<1.000000e-08 for 2 iters).

Setting wave functions to eigenvectors of Hamiltonian
IonicMinimize: 	Step increased Etot by 4.284704e-07, reducing alpha to 1.492415e-02.

-------- Electronic minimization -----------
Will mix electronic density at each iteration.
	Linear fluid (dielectric constant: 64) occupying 0.996016 of unit cell:	Completed after 0 iterations at t[s]:   1346.74
	Linear fluid (dielectric constant: 64) occupying 0.996016 of unit cell:	Completed after 0 iterations at t[s]:   1347.41
SCF: Cycle:  0   Etot: -116.129229754814986   dEtot: -1.719e-08   |Residual|: 6.843e-05   |deigs|: 6.784e-10  t[s]:   1347.60
	Linear fluid (dielectric constant: 64) occupying 0.996016 of unit cell:	Completed after 0 iterations at t[s]:   1347.93
	Linear fluid (dielectric constant: 64) occupying 0.996016 of unit cell:	Completed after 0 iterations at t[s]:   1348.57
SCF: Cycle:  1   Etot: -116.129229756359877   dEtot: -1.545e-09   |Residual|: 4.141e-05   |deigs|: 9.995e-08  t[s]:   1348.76
	Linear fluid (dielectric constant: 64) occupying 0.996016 of unit cell:	Completed after 0 iterations at t[s]:   1349.08
	Linear fluid (dielectric constant: 64) occupying 0.996016 of unit cell:	Completed after 0 iterations at t[s]:   1349.72
SCF: Cycle:  2   Etot: -116.129229757678743   dEtot: -1.319e-09   |Residual|: 8.837e-06   |deigs|: 2.163e-07  t[s]:   1349.91
SCF: Converged (|Delta E|<1.000000e-08 for 2 iters).

Setting wave functions to eigenvectors of Hamiltonian
IonicMinimize: 	Step increased Etot by 2.991882e-07, reducing alpha to 1.492415e-03.

-------- Electronic minimization -----------
Will mix electronic density at each iteration.
	Linear fluid (dielectric constant: 64) occupying 0.996016 of unit cell:	Completed after 0 iterations at t[s]:   1350.66
	Linear fluid (dielectric constant: 64) occupying 0.996016 of unit cell:	Completed after 0 iterations at t[s]:   1351.31
SCF: Cycle:  0   Etot: -116.129229780419024   dEtot: -9.121e-10   |Residual|: 1.045e-05   |deigs|: 2.980e-11  t[s]:   1351.50
	Linear fluid (dielectric constant: 64) occupying 0.996016 of unit cell:	Completed after 0 iterations at t[s]:   1351.83
	Linear fluid (dielectric constant: 64) occupying 0.996016 of unit cell:	Completed after 0 iterations at t[s]:   1352.47
SCF: Cycle:  1   Etot: -116.129229780692739   dEtot: -2.737e-10   |Residual|: 7.690e-06   |deigs|: 3.650e-08  t[s]:   1352.66
SCF: Converged (|Delta E|<1.000000e-08 for 2 iters).

Setting wave functions to eigenvectors of Hamiltonian
IonicMinimize: 	Step increased Etot by 2.761742e-07, reducing alpha to 1.492415e-04.
IonicMinimize: 	Step failed to reduce Etot after 3 attempts. Quitting step.
IonicMinimize: 	Undoing step.

-------- Electronic minimization -----------
Will mix electronic density at each iteration.
	Linear fluid (dielectric constant: 64) occupying 0.996016 of unit cell:	Completed after 0 iterations at t[s]:   1353.40
	Linear fluid (dielectric constant: 64) occupying 0.996016 of unit cell:	Completed after 0 iterations at t[s]:   1354.07
SCF: Cycle:  0   Etot: -116.129229781153327   dEtot: -2.044e-10   |Residual|: 3.287e-06   |deigs|: 6.710e-12  t[s]:   1354.26
	Linear fluid (dielectric constant: 64) occupying 0.996016 of unit cell:	Completed after 0 iterations at t[s]:   1354.59
	Linear fluid (dielectric constant: 64) occupying 0.996016 of unit cell:	Completed after 0 iterations at t[s]:   1355.23
SCF: Cycle:  1   Etot: -116.129229781265053   dEtot: -1.117e-10   |Residual|: 3.518e-06   |deigs|: 1.553e-08  t[s]:   1355.43
SCF: Converged (|Delta E|<1.000000e-08 for 2 iters).

Setting wave functions to eigenvectors of Hamiltonian
IonicMinimize: 	Step failed along negative gradient direction.
IonicMinimize: Probably at roundoff error limit. (Stopping)

Dumping 'Na2S2-PC.wfns' ... done
Dumping 'Na2S2-PC.fluidState' ... done
Dumping 'Na2S2-PC.ionpos' ... done
End date and time: Sat Dec 28 15:41:11 2024  (Duration: 0-0:22:36.49)
Done!
