CRYSTAL
PRIMVEC
 14.820031   0.000000   0.000000
 -7.410015  12.834505   0.000000
  0.000000   0.000000  20.000041
PRIMCOORD
4 1
16   4.976278   6.578258  14.427532
16   3.132820   5.337682  14.469000
11   5.214359   4.202656  13.478161
11   2.838842   7.734870  13.592504
