
*************** JDFTx 1.7.0  ***************

Start date and time: Mon Dec 23 13:44:16 2024
Executable jdftx_gpu with command-line: -i /home/akim2/JDFTx/Na2S6-glyme/Na2S6-glyme.in -o /home/akim2/JDFTx/Na2S6-glyme/Na2S6-glyme.out
Running on hosts (process indices):  exp-1-60 (0)
Divided in process groups (process indices):  0 (0)
gpuInit: Found compatible cuda device 0 'Tesla V100-SXM2-32GB'
gpuInit: Selected device 0
Resource initialization completed at t[s]:      0.38
Run totals: 1 processes, 1 threads, 1 GPUs


Input parsed successfully to the following command list (including defaults):

basis kpoint-dependent
coords-type Cartesian
core-overlap-check vector
coulomb-interaction Isolated
coulomb-truncation-embed 3.92133 11.8496 23.1275
davidson-band-ratio 1.1
dump End State
dump-name Na2S6-glyme.$VAR
elec-cutoff 20 100
elec-eigen-algo Davidson
elec-ex-corr gga-PBE
electronic-minimize  \
	dirUpdateScheme      FletcherReeves \
	linminMethod         DirUpdateRecommended \
	nIterations          100 \
	history              15 \
	knormThreshold       0 \
	energyDiffThreshold  1e-08 \
	nEnergyDiff          2 \
	alphaTstart          1 \
	alphaTmin            1e-10 \
	updateTestStepSize   yes \
	alphaTreduceFactor   0.1 \
	alphaTincreaseFactor 3 \
	nAlphaAdjustMax      3 \
	wolfeEnergy          0.0001 \
	wolfeGradient        0.9 \
	fdTest               no
exchange-regularization None
fluid LinearPCM 298.000000 1.013250
fluid-ex-corr lda-TF lda-PZ
fluid-gummel-loop 10 1.000000e-05
fluid-minimize  \
	dirUpdateScheme      PolakRibiere \
	linminMethod         DirUpdateRecommended \
	nIterations          400 \
	history              15 \
	knormThreshold       1e-11 \
	energyDiffThreshold  0 \
	nEnergyDiff          2 \
	alphaTstart          1 \
	alphaTmin            1e-10 \
	updateTestStepSize   yes \
	alphaTreduceFactor   0.1 \
	alphaTincreaseFactor 3 \
	nAlphaAdjustMax      6 \
	wolfeEnergy          0.0001 \
	wolfeGradient        0.9 \
	fdTest               no
fluid-solvent Glyme 9.62137 ScalarEOS \
	epsBulk 7.2 \
	pMol 0 \
	epsInf 1.9 \
	Pvap 0 \
	sigmaBulk 0 \
	Rvdw 0 \
	Res 0 \
	tauNuc 343133
forces-output-coords Positions
ion S   3.921331479750000  11.849557634189999  23.127532414739999 1
ion S   7.567480476899996  11.351192369400000  23.945456691719997 1
ion S   8.668781105760003   7.743174344189998  23.234262475409999 1
ion S   6.502139520210000   7.687128731849999  29.705151530609999 1
ion S   7.556913106740001  11.318358310649998  29.045040495659997 1
ion S  11.194673592419999  11.852526400019999  29.882693553839999 1
ion Na   3.832890226020000   7.182347833710000  25.239470096249999 1
ion Na  11.349661688099999   7.228066071600000  27.689512600169998 1
ion-species GBRV/$ID_pbe.uspp
ion-width Ecut
ionic-minimize  \
	dirUpdateScheme      FletcherReeves \
	linminMethod         DirUpdateRecommended \
	nIterations          200 \
	history              15 \
	knormThreshold       0.0001 \
	energyDiffThreshold  1e-06 \
	nEnergyDiff          2 \
	alphaTstart          1 \
	alphaTmin            1e-10 \
	updateTestStepSize   yes \
	alphaTreduceFactor   0.1 \
	alphaTincreaseFactor 3 \
	nAlphaAdjustMax      3 \
	wolfeEnergy          0.0001 \
	wolfeGradient        0.9 \
	fdTest               no
kpoint   0.000000000000   0.000000000000   0.000000000000  1.00000000000000
kpoint-folding 1 1 1 
latt-move-scale 1 1 1
latt-scale 1 1 1 
lattice Triclinic 28.0058 28.0058 37.7946 90 90 120
lattice-minimize  \
	dirUpdateScheme      L-BFGS \
	linminMethod         DirUpdateRecommended \
	nIterations          0 \
	history              15 \
	knormThreshold       0 \
	energyDiffThreshold  1e-06 \
	nEnergyDiff          2 \
	alphaTstart          1 \
	alphaTmin            1e-10 \
	updateTestStepSize   yes \
	alphaTreduceFactor   0.1 \
	alphaTincreaseFactor 3 \
	nAlphaAdjustMax      3 \
	wolfeEnergy          0.0001 \
	wolfeGradient        0.9 \
	fdTest               no
lcao-params -1 1e-06 0.001
pcm-variant GLSSA13
spintype no-spin
subspace-rotation-factor 1 yes
symmetries automatic
symmetry-threshold 0.0001



---------- Setting up symmetries ----------

Found 24 point-group symmetries of the bravais lattice
Found 1 space-group symmetries with basis
Applied RMS atom displacement 0 bohrs to make symmetries exact.

---------- Initializing the Grid ----------
R = 
[      28.0058     -14.0029            0  ]
[            0      24.2537            0  ]
[            0            0      37.7946  ]
unit cell volume = 25671.8
G =
[   0.224353    0.12953         -0  ]
[          0   0.259061          0  ]
[          0         -0   0.166246  ]
Minimum fftbox size, Smin = [  128  128  172  ]
Chosen fftbox size, S = [  128  128  180  ]

---------- Initializing tighter grid for wavefunction operations ----------
R = 
[      28.0058     -14.0029            0  ]
[            0      24.2537            0  ]
[            0            0      37.7946  ]
unit cell volume = 25671.8
G =
[   0.224353    0.12953         -0  ]
[          0   0.259061          0  ]
[          0         -0   0.166246  ]
Minimum fftbox size, Smin = [  116  116  156  ]
Chosen fftbox size, S = [  120  120  160  ]

---------- Exchange Correlation functional ----------
Initalized PBE GGA exchange.
Initalized PBE GGA correlation.

---------- Setting up pseudopotentials ----------
Width of ionic core gaussian charges (only for fluid interactions / plotting) set to 0.397384

Reading pseudopotential file '/home/akim2/jdftx_install/build/pseudopotentials/GBRV/s_pbe.uspp':
  Title: S.  Created by USPP 7.3.6 on 1-4-15
  Reference state energy: -11.898476.  6 valence electrons in orbitals:
    |300>  occupation: 2  eigenvalue: -0.634167
    |310>  occupation: 4  eigenvalue: -0.257568
  lMax: 2  lLocal: 3  QijEcut: 6
  6 projectors sampled on a log grid with 635 points:
    l: 0  eig: -0.634161  rCut: 1.5
    l: 0  eig: 1.500000  rCut: 1.5
    l: 1  eig: -0.257567  rCut: 1.5
    l: 1  eig: 1.500000  rCut: 1.5
    l: 2  eig: -1.000000  rCut: 1.5
    l: 2  eig: 1.500000  rCut: 1.5
  Partial core density with radius 1.15
  Transforming core density to a uniform radial grid of dG=0.02 with 1625 points.
  Transforming local potential to a uniform radial grid of dG=0.02 with 1625 points.
  Transforming nonlocal projectors to a uniform radial grid of dG=0.02 with 432 points.
  Transforming density augmentations to a uniform radial grid of dG=0.02 with 1625 points.
  Transforming atomic orbitals to a uniform radial grid of dG=0.02 with 432 points.
  Core radius for overlap checks: 1.50 bohrs.

Reading pseudopotential file '/home/akim2/jdftx_install/build/pseudopotentials/GBRV/na_pbe.uspp':
  Title: Na.  Created by USPP 7.3.6 on 23-9-15
  Reference state energy: -47.625620.  9 valence electrons in orbitals:
    |200>  occupation: 2  eigenvalue: -2.085638
    |210>  occupation: 6  eigenvalue: -1.053708
    |300>  occupation: 1  eigenvalue: -0.100838
  lMax: 2  lLocal: 0  QijEcut: 6
  5 projectors sampled on a log grid with 657 points:
    l: 0  eig: -2.085640  rCut: 1.37
    l: 0  eig: -0.100839  rCut: 1.37
    l: 1  eig: -1.053708  rCut: 1.47
    l: 1  eig: 0.500000  rCut: 1.47
    l: 2  eig: 0.750000  rCut: 2
  Transforming local potential to a uniform radial grid of dG=0.02 with 1625 points.
  Transforming nonlocal projectors to a uniform radial grid of dG=0.02 with 432 points.
  Transforming density augmentations to a uniform radial grid of dG=0.02 with 1625 points.
  Transforming atomic orbitals to a uniform radial grid of dG=0.02 with 432 points.
  Core radius for overlap checks: 2.00 bohrs.

Initialized 2 species with 8 total atoms.

Folded 1 k-points by 1x1x1 to 1 k-points.

---------- Setting up k-points, bands, fillings ----------
No reducable k-points. 
Computing the number of bands and number of electrons
Calculating initial fillings.
nElectrons:  54.000000   nBands: 27   nStates: 1

----- Setting up reduced wavefunction bases (one per k-point) -----
average nbasis = 109673.000 , ideal nbasis = 109671.883

---------- Setting up coulomb interaction ----------
Fluid mode embedding: using embedded box, but periodic Coulomb kernel.
(Fluid response is responsible for (approximate) separation between periodic images.)
Setting up double-sized grid for truncated Coulomb potentials:
R = 
[      56.0116     -28.0058            0  ]
[            0      48.5075            0  ]
[            0            0      75.5892  ]
unit cell volume = 205374
G =
[   0.112177  0.0647651         -0  ]
[          0    0.12953          0  ]
[          0         -0  0.0831228  ]
Chosen fftbox size, S = [  256  256  360  ]
Integer grid location selected as the embedding center:
   Grid: [  49  63  110  ]
   Lattice: [  0.384302  0.488566  0.611927  ]
   Cartesian: [  3.92133  11.8496  23.1275  ]
Constructing Wigner-Seitz cell: 8 faces (6 quadrilaterals, 2 hexagons)
Range-separation parameter for embedded mesh potentials due to point charges: 0.590105 bohrs.

---------- Setting up ewald sum ----------
Optimum gaussian width for ewald sums = 16.643468 bohr.
Real space sum over 1089 unit cells with max indices [  5  5  4  ]
Reciprocal space sum over 3825 terms with max indices [  7  7  8  ]

---------- Allocating electronic variables ----------
Initializing wave functions:  linear combination of atomic orbitals
S pseudo-atom occupations:   s ( 2 )  p ( 4 )
Na pseudo-atom occupations:   s ( 2 1 )  p ( 6 )
	FillingsUpdate:  mu: -0.164955365  nElectrons: 54.000000
LCAOMinimize: Iter:   0  Etot: -156.5595025291391664  |grad|_K:  2.735e-02  alpha:  1.000e+00
	FillingsUpdate:  mu: -0.148280260  nElectrons: 54.000000
LCAOMinimize: Iter:   1  Etot: -156.6973850260835377  |grad|_K:  7.073e-03  alpha:  3.525e-01  linmin:  3.116e-01  cgtest: -7.197e-01  t[s]:      4.02
	FillingsUpdate:  mu: -0.152264760  nElectrons: 54.000000
LCAOMinimize: Iter:   2  Etot: -156.7002377605796539  |grad|_K:  7.228e-03  alpha:  3.169e-01  linmin:  3.447e-03  cgtest:  8.448e-01  t[s]:      4.40
	FillingsUpdate:  mu: -0.166441425  nElectrons: 54.000000
LCAOMinimize: Iter:   3  Etot: -156.7102118753117281  |grad|_K:  7.707e-04  alpha:  3.123e-01  linmin:  3.211e-02  cgtest: -2.577e-01  t[s]:      4.76
LCAOMinimize: None of the convergence criteria satisfied after 3 iterations.
----- createFluidSolver() ----- (Fluid-side solver setup)
   Initializing fluid molecule 'Glyme'
     Net charge: 0   dipole magnitude: 0
     Initializing spherical shell mfKernel with radius 0 Bohr
     deltaS corrections:

Correction to mu due to finite nuclear width = -0.000260884
   Cavity determined by nc: 8.36e-05 and sigma: 0.6
   Effective cavity tension: -8.03e-06 Eh/bohr^2 to account for cavitation and dispersion.


---- Citations for features of the code used in this run ----

   Software package:
      R. Sundararaman, K. Letchworth-Weaver, K.A. Schwarz, D. Gunceler, Y. Ozhabes and T.A. Arias, 'JDFTx: software for joint density-functional theory', SoftwareX 6, 278 (2017)

   gga-PBE exchange-correlation functional:
      J.P. Perdew, K. Burke and M. Ernzerhof, Phys. Rev. Lett. 77, 3865 (1996)

   Pseudopotentials:
      KF Garrity, JW Bennett, KM Rabe and D Vanderbilt, Comput. Mater. Sci. 81, 446 (2014)

   Truncated Coulomb potentials:
      R. Sundararaman and T.A. Arias, Phys. Rev. B 87, 165122 (2013)

   Linear/nonlinear dielectric/ionic fluid model with effective cavity tension:
      D. Gunceler, K. Letchworth-Weaver, R. Sundararaman, K.A. Schwarz and T.A. Arias, Modelling Simul. Mater. Sci. Eng. 21, 074005 (2013)

   Total energy minimization:
      T.A. Arias, M.C. Payne and J.D. Joannopoulos, Phys. Rev. Lett. 69, 1077 (1992)

This list may not be complete. Please suggest additional citations or
report any other bugs at https://github.com/shankar1729/jdftx/issues

Initialization completed successfully at t[s]:      4.77

Fluid solver invoked on fresh (random / LCAO) wavefunctions
Running a vacuum solve first:

-------- Initial electronic minimization -----------
ElecMinimize: Iter:   0  Etot: -156.710211875310648  |grad|_K:  3.157e-04  alpha:  1.000e+00
ElecMinimize: Iter:   1  Etot: -157.007413956051607  |grad|_K:  1.429e-04  alpha:  1.007e+00  linmin:  3.627e-03  t[s]:      5.43
ElecMinimize: Iter:   2  Etot: -157.077244103623286  |grad|_K:  7.385e-05  alpha:  1.156e+00  linmin: -2.853e-03  t[s]:      5.81
ElecMinimize: Iter:   3  Etot: -157.089285648685575  |grad|_K:  5.583e-05  alpha:  7.442e-01  linmin: -2.744e-05  t[s]:      6.19
ElecMinimize: Iter:   4  Etot: -157.094194392388772  |grad|_K:  3.605e-05  alpha:  5.316e-01  linmin:  5.112e-05  t[s]:      6.57
ElecMinimize: Iter:   5  Etot: -157.096660570940600  |grad|_K:  2.045e-05  alpha:  6.410e-01  linmin: -2.630e-04  t[s]:      6.94
ElecMinimize: Iter:   6  Etot: -157.097681999546552  |grad|_K:  1.521e-05  alpha:  8.243e-01  linmin:  6.061e-05  t[s]:      7.31
ElecMinimize: Iter:   7  Etot: -157.098173995199147  |grad|_K:  1.002e-05  alpha:  7.184e-01  linmin:  2.860e-05  t[s]:      7.68
ElecMinimize: Iter:   8  Etot: -157.098410805851358  |grad|_K:  7.358e-06  alpha:  7.960e-01  linmin: -9.630e-06  t[s]:      8.06
ElecMinimize: Iter:   9  Etot: -157.098533523825012  |grad|_K:  4.565e-06  alpha:  7.656e-01  linmin: -3.825e-05  t[s]:      8.44
ElecMinimize: Iter:  10  Etot: -157.098595990777426  |grad|_K:  3.165e-06  alpha:  1.012e+00  linmin: -1.378e-05  t[s]:      8.82
ElecMinimize: Iter:  11  Etot: -157.098620841849907  |grad|_K:  2.129e-06  alpha:  8.377e-01  linmin:  4.808e-06  t[s]:      9.19
ElecMinimize: Iter:  12  Etot: -157.098632273324341  |grad|_K:  1.349e-06  alpha:  8.521e-01  linmin: -1.433e-05  t[s]:      9.57
ElecMinimize: Iter:  13  Etot: -157.098636655788169  |grad|_K:  1.026e-06  alpha:  8.127e-01  linmin:  9.266e-06  t[s]:      9.93
ElecMinimize: Iter:  14  Etot: -157.098638517042673  |grad|_K:  7.591e-07  alpha:  5.968e-01  linmin: -1.801e-06  t[s]:     10.31
ElecMinimize: Iter:  15  Etot: -157.098639653620580  |grad|_K:  5.177e-07  alpha:  6.661e-01  linmin:  2.407e-06  t[s]:     10.69
ElecMinimize: Iter:  16  Etot: -157.098640282950640  |grad|_K:  3.587e-07  alpha:  7.930e-01  linmin: -5.185e-06  t[s]:     11.08
ElecMinimize: Iter:  17  Etot: -157.098640639892722  |grad|_K:  2.755e-07  alpha:  9.370e-01  linmin:  4.588e-06  t[s]:     11.45
ElecMinimize: Iter:  18  Etot: -157.098640858540080  |grad|_K:  2.081e-07  alpha:  9.729e-01  linmin:  7.542e-07  t[s]:     11.82
ElecMinimize: Iter:  19  Etot: -157.098640978898715  |grad|_K:  1.560e-07  alpha:  9.384e-01  linmin: -1.973e-07  t[s]:     12.19
ElecMinimize: Iter:  20  Etot: -157.098641034965652  |grad|_K:  1.137e-07  alpha:  7.777e-01  linmin: -6.379e-07  t[s]:     12.58
ElecMinimize: Iter:  21  Etot: -157.098641069061614  |grad|_K:  8.243e-08  alpha:  8.908e-01  linmin: -2.291e-06  t[s]:     12.96
ElecMinimize: Iter:  22  Etot: -157.098641085185562  |grad|_K:  6.132e-08  alpha:  8.015e-01  linmin: -2.574e-06  t[s]:     13.33
ElecMinimize: Iter:  23  Etot: -157.098641094660707  |grad|_K:  4.681e-08  alpha:  8.510e-01  linmin:  1.882e-05  t[s]:     13.72
ElecMinimize: Iter:  24  Etot: -157.098641099617538  |grad|_K:  3.886e-08  alpha:  7.640e-01  linmin: -3.099e-06  t[s]:     14.11
ElecMinimize: Converged (|Delta Etot|<1.000000e-08 for 2 iters).
Setting wave functions to eigenvectors of Hamiltonian
Vacuum energy after initial minimize, Etot = -157.098641099617538


-------- Electronic minimization -----------
	Linear fluid (dielectric constant: 7.2) occupying 0.986719 of unit cell:	Completed after 9 iterations at t[s]:     14.83
ElecMinimize: Iter:   0  Etot: -157.125688811629487  |grad|_K:  3.872e-05  alpha:  1.000e+00
	Linear fluid (dielectric constant: 7.2) occupying 0.986934 of unit cell:	Completed after 7 iterations at t[s]:     15.90
	Linear fluid (dielectric constant: 7.2) occupying 0.986968 of unit cell:	Completed after 6 iterations at t[s]:     16.83
ElecMinimize: Iter:   1  Etot: -157.130896716377947  |grad|_K:  3.528e-05  alpha:  1.220e+00  linmin:  9.745e-02  t[s]:     17.10
	Linear fluid (dielectric constant: 7.2) occupying 0.987095 of unit cell:	Completed after 9 iterations at t[s]:     18.01
	Linear fluid (dielectric constant: 7.2) occupying 0.987073 of unit cell:	Completed after 6 iterations at t[s]:     19.03
ElecMinimize: Iter:   2  Etot: -157.134155118508716  |grad|_K:  3.078e-05  alpha:  9.849e-01  linmin:  2.190e-02  t[s]:     19.40
	Linear fluid (dielectric constant: 7.2) occupying 0.987117 of unit cell:	Completed after 8 iterations at t[s]:     20.26
	Linear fluid (dielectric constant: 7.2) occupying 0.987101 of unit cell:	Completed after 6 iterations at t[s]:     21.26
ElecMinimize: Iter:   3  Etot: -157.135854971558331  |grad|_K:  2.069e-05  alpha:  6.212e-01  linmin: -8.841e-04  t[s]:     21.64
	Linear fluid (dielectric constant: 7.2) occupying 0.987092 of unit cell:	Completed after 5 iterations at t[s]:     22.34
	Linear fluid (dielectric constant: 7.2) occupying 0.987094 of unit cell:	Completed after 3 iterations at t[s]:     23.14
ElecMinimize: Iter:   4  Etot: -157.136528865487549  |grad|_K:  1.335e-05  alpha:  5.327e-01  linmin: -5.836e-03  t[s]:     23.42
	Linear fluid (dielectric constant: 7.2) occupying 0.987093 of unit cell:	Completed after 4 iterations at t[s]:     24.08
	Linear fluid (dielectric constant: 7.2) occupying 0.987093 of unit cell:	Completed after 2 iterations at t[s]:     24.85
ElecMinimize: Iter:   5  Etot: -157.136872757027817  |grad|_K:  9.754e-06  alpha:  6.463e-01  linmin: -2.751e-03  t[s]:     25.13
	Linear fluid (dielectric constant: 7.2) occupying 0.987099 of unit cell:	Completed after 4 iterations at t[s]:     25.79
	Linear fluid (dielectric constant: 7.2) occupying 0.987099 of unit cell:	Completed after 1 iterations at t[s]:     26.52
ElecMinimize: Iter:   6  Etot: -157.137043044212533  |grad|_K:  6.466e-06  alpha:  6.022e-01  linmin: -2.125e-03  t[s]:     26.81
	Linear fluid (dielectric constant: 7.2) occupying 0.987102 of unit cell:	Completed after 3 iterations at t[s]:     27.43
	Linear fluid (dielectric constant: 7.2) occupying 0.987102 of unit cell:	Completed after 0 iterations at t[s]:     28.13
ElecMinimize: Iter:   7  Etot: -157.137123392572335  |grad|_K:  4.682e-06  alpha:  6.471e-01  linmin:  1.640e-03  t[s]:     28.42
	Linear fluid (dielectric constant: 7.2) occupying 0.987103 of unit cell:	Completed after 3 iterations at t[s]:     29.04
	Linear fluid (dielectric constant: 7.2) occupying 0.987103 of unit cell:	Completed after 0 iterations at t[s]:     29.70
ElecMinimize: Iter:   8  Etot: -157.137164066792423  |grad|_K:  3.245e-06  alpha:  6.279e-01  linmin:  1.521e-03  t[s]:     29.97
	Linear fluid (dielectric constant: 7.2) occupying 0.987103 of unit cell:	Completed after 2 iterations at t[s]:     30.47
	Linear fluid (dielectric constant: 7.2) occupying 0.987103 of unit cell:	Completed after 0 iterations at t[s]:     31.15
ElecMinimize: Iter:   9  Etot: -157.137182460888909  |grad|_K:  2.280e-06  alpha:  5.916e-01  linmin:  1.108e-03  t[s]:     31.45
	Linear fluid (dielectric constant: 7.2) occupying 0.987102 of unit cell:	Completed after 2 iterations at t[s]:     31.94
	Linear fluid (dielectric constant: 7.2) occupying 0.987102 of unit cell:	Completed after 0 iterations at t[s]:     32.62
ElecMinimize: Iter:  10  Etot: -157.137193048391396  |grad|_K:  1.649e-06  alpha:  6.887e-01  linmin: -1.504e-03  t[s]:     32.90
	Linear fluid (dielectric constant: 7.2) occupying 0.987101 of unit cell:	Completed after 2 iterations at t[s]:     33.39
	Linear fluid (dielectric constant: 7.2) occupying 0.987101 of unit cell:	Completed after 0 iterations at t[s]:     34.04
ElecMinimize: Iter:  11  Etot: -157.137197843734782  |grad|_K:  1.161e-06  alpha:  5.936e-01  linmin:  4.648e-03  t[s]:     34.32
	Linear fluid (dielectric constant: 7.2) occupying 0.987101 of unit cell:	Completed after 0 iterations at t[s]:     34.73
	Linear fluid (dielectric constant: 7.2) occupying 0.987100 of unit cell:	Completed after 0 iterations at t[s]:     35.36
ElecMinimize: Iter:  12  Etot: -157.137200674374242  |grad|_K:  9.082e-07  alpha:  7.174e-01  linmin: -7.928e-04  t[s]:     35.64
	Linear fluid (dielectric constant: 7.2) occupying 0.987100 of unit cell:	Completed after 1 iterations at t[s]:     36.09
	Linear fluid (dielectric constant: 7.2) occupying 0.987100 of unit cell:	Completed after 0 iterations at t[s]:     36.71
ElecMinimize: Iter:  13  Etot: -157.137202294949816  |grad|_K:  6.649e-07  alpha:  6.634e-01  linmin: -1.913e-03  t[s]:     36.99
	Linear fluid (dielectric constant: 7.2) occupying 0.987100 of unit cell:	Completed after 1 iterations at t[s]:     37.44
	Linear fluid (dielectric constant: 7.2) occupying 0.987100 of unit cell:	Completed after 0 iterations at t[s]:     38.07
ElecMinimize: Iter:  14  Etot: -157.137203193696820  |grad|_K:  5.183e-07  alpha:  6.840e-01  linmin: -1.512e-03  t[s]:     38.35
	Linear fluid (dielectric constant: 7.2) occupying 0.987100 of unit cell:	Completed after 1 iterations at t[s]:     38.80
	Linear fluid (dielectric constant: 7.2) occupying 0.987100 of unit cell:	Completed after 0 iterations at t[s]:     39.42
ElecMinimize: Iter:  15  Etot: -157.137203719726188  |grad|_K:  3.947e-07  alpha:  6.600e-01  linmin: -4.041e-03  t[s]:     39.70
	Linear fluid (dielectric constant: 7.2) occupying 0.987100 of unit cell:	Completed after 0 iterations at t[s]:     40.11
	Linear fluid (dielectric constant: 7.2) occupying 0.987100 of unit cell:	Completed after 0 iterations at t[s]:     40.70
ElecMinimize: Iter:  16  Etot: -157.137204036336215  |grad|_K:  3.095e-07  alpha:  6.810e-01  linmin: -8.955e-03  t[s]:     40.98
	Linear fluid (dielectric constant: 7.2) occupying 0.987100 of unit cell:	Completed after 1 iterations at t[s]:     41.44
	Linear fluid (dielectric constant: 7.2) occupying 0.987100 of unit cell:	Completed after 0 iterations at t[s]:     42.06
ElecMinimize: Iter:  17  Etot: -157.137204219068622  |grad|_K:  2.637e-07  alpha:  6.379e-01  linmin: -2.097e-02  t[s]:     42.34
	Linear fluid (dielectric constant: 7.2) occupying 0.987100 of unit cell:	Completed after 0 iterations at t[s]:     42.72
	Linear fluid (dielectric constant: 7.2) occupying 0.987100 of unit cell:	Completed after 0 iterations at t[s]:     43.32
ElecMinimize: Iter:  18  Etot: -157.137204361766749  |grad|_K:  2.209e-07  alpha:  7.152e-01  linmin:  2.147e-02  t[s]:     43.60
	Linear fluid (dielectric constant: 7.2) occupying 0.987100 of unit cell:	Completed after 0 iterations at t[s]:     44.02
	Linear fluid (dielectric constant: 7.2) occupying 0.987100 of unit cell:	Completed after 0 iterations at t[s]:     44.61
ElecMinimize: Iter:  19  Etot: -157.137204454635196  |grad|_K:  1.875e-07  alpha:  6.779e-01  linmin: -1.118e-02  t[s]:     44.90
	Linear fluid (dielectric constant: 7.2) occupying 0.987100 of unit cell:	Completed after 0 iterations at t[s]:     45.28
	Linear fluid (dielectric constant: 7.2) occupying 0.987100 of unit cell:	Completed after 0 iterations at t[s]:     45.88
ElecMinimize: Iter:  20  Etot: -157.137204518755880  |grad|_K:  1.581e-07  alpha:  7.139e-01  linmin:  3.859e-02  t[s]:     46.15
	Linear fluid (dielectric constant: 7.2) occupying 0.987100 of unit cell:	Completed after 0 iterations at t[s]:     46.57
	Linear fluid (dielectric constant: 7.2) occupying 0.987100 of unit cell:	Completed after 0 iterations at t[s]:     47.16
ElecMinimize: Iter:  21  Etot: -157.137204557520988  |grad|_K:  1.275e-07  alpha:  5.980e-01  linmin: -2.884e-02  t[s]:     47.44
	Linear fluid (dielectric constant: 7.2) occupying 0.987100 of unit cell:	Completed after 0 iterations at t[s]:     47.82
	Linear fluid (dielectric constant: 7.2) occupying 0.987100 of unit cell:	Completed after 0 iterations at t[s]:     48.38
ElecMinimize: Iter:  22  Etot: -157.137204589963744  |grad|_K:  1.019e-07  alpha:  6.308e-01  linmin:  8.367e-06  t[s]:     48.66
	Linear fluid (dielectric constant: 7.2) occupying 0.987100 of unit cell:	Completed after 0 iterations at t[s]:     49.08
	Linear fluid (dielectric constant: 7.2) occupying 0.987100 of unit cell:	Completed after 0 iterations at t[s]:     49.67
ElecMinimize: Iter:  23  Etot: -157.137204600583459  |grad|_K:  8.397e-08  alpha:  4.447e-01  linmin: -7.883e-02  t[s]:     49.95
	Linear fluid (dielectric constant: 7.2) occupying 0.987100 of unit cell:	Completed after 0 iterations at t[s]:     50.33
	Linear fluid (dielectric constant: 7.2) occupying 0.987100 of unit cell:	Completed after 0 iterations at t[s]:     50.89
ElecMinimize: Iter:  24  Etot: -157.137204614221503  |grad|_K:  6.673e-08  alpha:  5.512e-01  linmin:  1.545e-05  t[s]:     51.17
	Linear fluid (dielectric constant: 7.2) occupying 0.987100 of unit cell:	Completed after 0 iterations at t[s]:     51.55
	Linear fluid (dielectric constant: 7.2) occupying 0.987100 of unit cell:	Completed after 0 iterations at t[s]:     52.15
ElecMinimize: Iter:  25  Etot: -157.137204614585357  |grad|_K:  7.693e-08  alpha:  7.274e-01  linmin:  1.345e-01  t[s]:     52.44
	Linear fluid (dielectric constant: 7.2) occupying 0.987100 of unit cell:	Completed after 0 iterations at t[s]:     52.85
	Linear fluid (dielectric constant: 7.2) occupying 0.987100 of unit cell:	Completed after 0 iterations at t[s]:     53.45
ElecMinimize: Iter:  26  Etot: -157.137204616967949  |grad|_K:  8.455e-08  alpha:  2.081e-01  linmin:  9.077e-02  t[s]:     53.73
ElecMinimize: Converged (|Delta Etot|<1.000000e-08 for 2 iters).
Setting wave functions to eigenvectors of Hamiltonian
Single-point solvation energy estimate, DeltaEtot = -0.038563517350411

# Ionic positions in cartesian coordinates:
ion S   3.921331479750000  11.849557634189999  23.127532414739999 1
ion S   7.567480476899996  11.351192369400000  23.945456691719997 1
ion S   8.668781105760003   7.743174344189998  23.234262475409999 1
ion S   6.502139520210000   7.687128731849999  29.705151530609999 1
ion S   7.556913106740001  11.318358310649998  29.045040495659997 1
ion S  11.194673592419999  11.852526400019999  29.882693553839999 1
ion Na   3.832890226020000   7.182347833710000  25.239470096249999 1
ion Na  11.349661688099999   7.228066071600000  27.689512600169998 1

# Forces in Cartesian coordinates:
force S  -0.001008759452208   0.004080781524205  -0.001205597845766 1
force S   0.002941394111222  -0.002039064068882  -0.001227468978696 1
force S  -0.000591925356910   0.004479392067148  -0.000442063336379 1
force S   0.000599403247103   0.004514085143039   0.000625856099859 1
force S  -0.002813447861614  -0.002094023335195   0.001388456351775 1
force S   0.000716631712810   0.004061444476706   0.001503860738585 1
force Na  -0.006262888692532  -0.006393289484685  -0.000293730787496 1
force Na   0.006350140804596  -0.006594444053664  -0.000069045433929 1

# Energy components:
   A_diel =       -0.0518272727973707
   Eewald =      146.4436344602262920
       EH =      275.8292229364674313
     Eloc =     -457.1997423352694909
      Enl =     -133.1814620175116204
      Exc =      -39.6131390397453842
 Exc_core =       10.6063786150841732
       KE =       40.0297300365780444
-------------------------------------
     Etot =     -157.1372046169679493

IonicMinimize: Iter:   0  Etot: -157.137204616967949  |grad|_K:  3.371e-03  alpha:  1.000e+00

#--- Lowdin population analysis ---
# oxidation-state S -0.439 +0.374 -0.464 -0.464 +0.373 -0.439
# oxidation-state Na +0.792 +0.792


-------- Electronic minimization -----------
	Linear fluid (dielectric constant: 7.2) occupying 0.987096 of unit cell:	Completed after 4 iterations at t[s]:     54.66
ElecMinimize: Iter:   0  Etot: -157.137438604874774  |grad|_K:  2.747e-06  alpha:  1.000e+00
	Linear fluid (dielectric constant: 7.2) occupying 0.987098 of unit cell:	Completed after 2 iterations at t[s]:     55.54
	Linear fluid (dielectric constant: 7.2) occupying 0.987097 of unit cell:	Completed after 1 iterations at t[s]:     56.26
ElecMinimize: Iter:   1  Etot: -157.137456802009638  |grad|_K:  1.219e-06  alpha:  8.139e-01  linmin:  4.395e-03  t[s]:     56.55
	Linear fluid (dielectric constant: 7.2) occupying 0.987095 of unit cell:	Completed after 2 iterations at t[s]:     57.05
	Linear fluid (dielectric constant: 7.2) occupying 0.987096 of unit cell:	Completed after 0 iterations at t[s]:     57.73
ElecMinimize: Iter:   2  Etot: -157.137459774054605  |grad|_K:  7.648e-07  alpha:  6.767e-01  linmin:  1.375e-02  t[s]:     58.02
	Linear fluid (dielectric constant: 7.2) occupying 0.987095 of unit cell:	Completed after 1 iterations at t[s]:     58.47
	Linear fluid (dielectric constant: 7.2) occupying 0.987095 of unit cell:	Completed after 0 iterations at t[s]:     59.09
ElecMinimize: Iter:   3  Etot: -157.137460904556548  |grad|_K:  5.794e-07  alpha:  6.616e-01  linmin: -5.632e-03  t[s]:     59.37
	Linear fluid (dielectric constant: 7.2) occupying 0.987095 of unit cell:	Completed after 1 iterations at t[s]:     59.82
	Linear fluid (dielectric constant: 7.2) occupying 0.987095 of unit cell:	Completed after 0 iterations at t[s]:     60.44
ElecMinimize: Iter:   4  Etot: -157.137461489073871  |grad|_K:  3.887e-07  alpha:  5.810e-01  linmin:  2.062e-02  t[s]:     60.72
	Linear fluid (dielectric constant: 7.2) occupying 0.987094 of unit cell:	Completed after 0 iterations at t[s]:     61.14
	Linear fluid (dielectric constant: 7.2) occupying 0.987094 of unit cell:	Completed after 0 iterations at t[s]:     61.73
ElecMinimize: Iter:   5  Etot: -157.137461758670185  |grad|_K:  2.710e-07  alpha:  6.174e-01  linmin: -3.795e-02  t[s]:     62.02
	Linear fluid (dielectric constant: 7.2) occupying 0.987094 of unit cell:	Completed after 0 iterations at t[s]:     62.44
	Linear fluid (dielectric constant: 7.2) occupying 0.987094 of unit cell:	Completed after 0 iterations at t[s]:     63.03
ElecMinimize: Iter:   6  Etot: -157.137461916921666  |grad|_K:  1.835e-07  alpha:  6.770e-01  linmin: -6.242e-02  t[s]:     63.31
	Linear fluid (dielectric constant: 7.2) occupying 0.987094 of unit cell:	Completed after 0 iterations at t[s]:     63.73
	Linear fluid (dielectric constant: 7.2) occupying 0.987094 of unit cell:	Completed after 0 iterations at t[s]:     64.32
ElecMinimize: Iter:   7  Etot: -157.137461976737910  |grad|_K:  1.394e-07  alpha:  5.655e-01  linmin: -2.041e-02  t[s]:     64.59
	Linear fluid (dielectric constant: 7.2) occupying 0.987094 of unit cell:	Completed after 0 iterations at t[s]:     64.97
	Linear fluid (dielectric constant: 7.2) occupying 0.987094 of unit cell:	Completed after 0 iterations at t[s]:     65.58
ElecMinimize: Iter:   8  Etot: -157.137462021621928  |grad|_K:  1.208e-07  alpha:  8.874e-01  linmin:  3.253e-02  t[s]:     65.86
	Linear fluid (dielectric constant: 7.2) occupying 0.987094 of unit cell:	Completed after 0 iterations at t[s]:     66.27
	Linear fluid (dielectric constant: 7.2) occupying 0.987094 of unit cell:	Completed after 0 iterations at t[s]:     66.86
ElecMinimize: Iter:   9  Etot: -157.137462037206063  |grad|_K:  9.865e-08  alpha:  4.474e-01  linmin:  9.138e-03  t[s]:     67.14
	Linear fluid (dielectric constant: 7.2) occupying 0.987094 of unit cell:	Completed after 0 iterations at t[s]:     67.52
	Linear fluid (dielectric constant: 7.2) occupying 0.987094 of unit cell:	Completed after 0 iterations at t[s]:     68.11
ElecMinimize: Iter:  10  Etot: -157.137462050707313  |grad|_K:  7.975e-08  alpha:  4.797e-01  linmin: -1.752e-05  t[s]:     68.39
	Linear fluid (dielectric constant: 7.2) occupying 0.987094 of unit cell:	Completed after 0 iterations at t[s]:     68.81
	Linear fluid (dielectric constant: 7.2) occupying 0.987094 of unit cell:	Completed after 0 iterations at t[s]:     69.40
ElecMinimize: 	Step increased Etot by 1.455732e-09, reducing alpha to 1.954789e-02.
	Linear fluid (dielectric constant: 7.2) occupying 0.987094 of unit cell:	Completed after 0 iterations at t[s]:     70.05
ElecMinimize: 	Step increased Etot by 3.617345e-09, reducing alpha to 1.954789e-03.
	Linear fluid (dielectric constant: 7.2) occupying 0.987094 of unit cell:	Completed after 0 iterations at t[s]:     70.72
ElecMinimize: 	Step increased Etot by 3.993250e-09, reducing alpha to 1.954789e-04.
ElecMinimize: 	Step failed to reduce Etot after 3 attempts. Quitting step.
ElecMinimize: 	Undoing step.
	Linear fluid (dielectric constant: 7.2) occupying 0.987094 of unit cell:	Completed after 0 iterations at t[s]:     71.37
ElecMinimize: 	Step failed: resetting search direction.
ElecMinimize: Iter:  11  Etot: -157.137462046709715  |grad|_K:  8.585e-08  alpha:  1.955e-04
	Linear fluid (dielectric constant: 7.2) occupying 0.987094 of unit cell:	Completed after 0 iterations at t[s]:     72.03
	Linear fluid (dielectric constant: 7.2) occupying 0.987094 of unit cell:	Completed after 0 iterations at t[s]:     72.61
ElecMinimize: Iter:  12  Etot: -157.137462056168545  |grad|_K:  4.473e-08  alpha:  4.334e-01  linmin: -2.713e-05  t[s]:     72.88
	Linear fluid (dielectric constant: 7.2) occupying 0.987094 of unit cell:	Completed after 0 iterations at t[s]:     73.27
	Linear fluid (dielectric constant: 7.2) occupying 0.987094 of unit cell:	Completed after 0 iterations at t[s]:     73.87
ElecMinimize: 	Step increased Etot by 1.899082e-09, reducing alpha to 1.019282e-01.
	Linear fluid (dielectric constant: 7.2) occupying 0.987094 of unit cell:	Completed after 0 iterations at t[s]:     74.53
ElecMinimize: 	Step increased Etot by 1.621601e-09, reducing alpha to 1.019282e-02.
	Linear fluid (dielectric constant: 7.2) occupying 0.987094 of unit cell:	Completed after 0 iterations at t[s]:     78.58
ElecMinimize: 	Step increased Etot by 2.131372e-09, reducing alpha to 1.019282e-03.
ElecMinimize: 	Step failed to reduce Etot after 3 attempts. Quitting step.
ElecMinimize: 	Undoing step.
	Linear fluid (dielectric constant: 7.2) occupying 0.987094 of unit cell:	Completed after 0 iterations at t[s]:     79.24
ElecMinimize: 	Step failed: resetting search direction.
ElecMinimize: Iter:  13  Etot: -157.137462054030635  |grad|_K:  5.254e-08  alpha:  1.019e-03
	Linear fluid (dielectric constant: 7.2) occupying 0.987094 of unit cell:	Completed after 0 iterations at t[s]:     79.92
	Linear fluid (dielectric constant: 7.2) occupying 0.987094 of unit cell:	Completed after 0 iterations at t[s]:     81.44
ElecMinimize: Iter:  14  Etot: -157.137462060041230  |grad|_K:  6.091e-08  alpha:  7.353e-01  linmin:  5.766e-05  t[s]:     81.73
	Linear fluid (dielectric constant: 7.2) occupying 0.987094 of unit cell:	Completed after 0 iterations at t[s]:     82.15
	Linear fluid (dielectric constant: 7.2) occupying 0.987094 of unit cell:	Completed after 0 iterations at t[s]:     82.78
ElecMinimize: 	Step increased Etot by 7.720558e-09, reducing alpha to 1.862696e-02.
	Linear fluid (dielectric constant: 7.2) occupying 0.987094 of unit cell:	Completed after 0 iterations at t[s]:     83.43
ElecMinimize: 	Step increased Etot by 4.959276e-09, reducing alpha to 1.862696e-03.
	Linear fluid (dielectric constant: 7.2) occupying 0.987094 of unit cell:	Completed after 0 iterations at t[s]:     84.08
ElecMinimize: 	Step increased Etot by 4.670142e-09, reducing alpha to 1.862696e-04.
ElecMinimize: 	Step failed to reduce Etot after 3 attempts. Quitting step.
ElecMinimize: 	Undoing step.
	Linear fluid (dielectric constant: 7.2) occupying 0.987094 of unit cell:	Completed after 0 iterations at t[s]:     84.74
ElecMinimize: 	Step failed: resetting search direction.
ElecMinimize: Iter:  15  Etot: -157.137462055374272  |grad|_K:  8.294e-08  alpha:  1.863e-04
	Linear fluid (dielectric constant: 7.2) occupying 0.987094 of unit cell:	Completed after 0 iterations at t[s]:     85.45
	Linear fluid (dielectric constant: 7.2) occupying 0.987094 of unit cell:	Completed after 0 iterations at t[s]:     86.04
ElecMinimize: Iter:  16  Etot: -157.137462062485810  |grad|_K:  5.455e-08  alpha:  3.138e-01  linmin:  5.239e-01  t[s]:     86.32
	Linear fluid (dielectric constant: 7.2) occupying 0.987094 of unit cell:	Completed after 0 iterations at t[s]:     86.70
ElecMinimize: 	Predicted alpha/alphaT>3.000000, increasing alphaT to 9.412818e-01.
	Linear fluid (dielectric constant: 7.2) occupying 0.987094 of unit cell:	Completed after 0 iterations at t[s]:     87.31
	Linear fluid (dielectric constant: 7.2) occupying 0.987094 of unit cell:	Completed after 0 iterations at t[s]:     87.90
ElecMinimize: 	Step increased Etot by 3.032454e-09, reducing alpha to 2.756943e-02.
	Linear fluid (dielectric constant: 7.2) occupying 0.987094 of unit cell:	Completed after 0 iterations at t[s]:     88.55
ElecMinimize: 	Step increased Etot by 2.455323e-09, reducing alpha to 2.756943e-03.
	Linear fluid (dielectric constant: 7.2) occupying 0.987094 of unit cell:	Completed after 0 iterations at t[s]:     89.23
ElecMinimize: 	Step increased Etot by 2.418602e-09, reducing alpha to 2.756943e-04.
ElecMinimize: 	Step failed to reduce Etot after 3 attempts. Quitting step.
ElecMinimize: 	Undoing step.
	Linear fluid (dielectric constant: 7.2) occupying 0.987094 of unit cell:	Completed after 0 iterations at t[s]:     89.88
ElecMinimize: 	Step failed: resetting search direction.
ElecMinimize: Iter:  17  Etot: -157.137462060067691  |grad|_K:  3.939e-08  alpha:  2.757e-04
	Linear fluid (dielectric constant: 7.2) occupying 0.987094 of unit cell:	Completed after 0 iterations at t[s]:     90.55
ElecMinimize: 	Predicted alpha/alphaT>3.000000, increasing alphaT to 9.412818e-01.
	Linear fluid (dielectric constant: 7.2) occupying 0.987094 of unit cell:	Completed after 0 iterations at t[s]:     91.16
	Linear fluid (dielectric constant: 7.2) occupying 0.987094 of unit cell:	Completed after 0 iterations at t[s]:     91.75
ElecMinimize: 	Step increased Etot by 2.414140e-10, reducing alpha to 3.087461e-02.
	Linear fluid (dielectric constant: 7.2) occupying 0.987094 of unit cell:	Completed after 0 iterations at t[s]:     92.41
ElecMinimize: Iter:  18  Etot: -157.137462061508415  |grad|_K:  5.076e-08  alpha:  3.087e-02  linmin:  3.988e-01  t[s]:     92.69
	Linear fluid (dielectric constant: 7.2) occupying 0.987094 of unit cell:	Completed after 0 iterations at t[s]:     93.07
ElecMinimize: 	Predicted alpha/alphaT>3.000000, increasing alphaT to 9.262383e-02.
	Linear fluid (dielectric constant: 7.2) occupying 0.987094 of unit cell:	Completed after 0 iterations at t[s]:     93.63
ElecMinimize: 	Predicted alpha/alphaT>3.000000, increasing alphaT to 2.778715e-01.
	Linear fluid (dielectric constant: 7.2) occupying 0.987094 of unit cell:	Completed after 0 iterations at t[s]:     94.21
	Linear fluid (dielectric constant: 7.2) occupying 0.987094 of unit cell:	Completed after 0 iterations at t[s]:     94.77
ElecMinimize: Iter:  19  Etot: -157.137462062285493  |grad|_K:  4.957e-08  alpha:  2.788e-01  linmin:  3.564e-05  t[s]:     95.05
ElecMinimize: Converged (|Delta Etot|<1.000000e-08 for 2 iters).
Setting wave functions to eigenvectors of Hamiltonian
IonicMinimize: 	Predicted alpha/alphaT>3.000000, increasing alphaT to 3.000000e+00.

-------- Electronic minimization -----------
	Linear fluid (dielectric constant: 7.2) occupying 0.987087 of unit cell:	Completed after 5 iterations at t[s]:     95.70
ElecMinimize: Iter:   0  Etot: -157.137793440123460  |grad|_K:  5.507e-06  alpha:  1.000e+00
	Linear fluid (dielectric constant: 7.2) occupying 0.987090 of unit cell:	Completed after 4 iterations at t[s]:     96.64
	Linear fluid (dielectric constant: 7.2) occupying 0.987089 of unit cell:	Completed after 2 iterations at t[s]:     97.42
ElecMinimize: Iter:   1  Etot: -157.137866379508267  |grad|_K:  2.497e-06  alpha:  8.113e-01  linmin:  1.331e-03  t[s]:     97.71
	Linear fluid (dielectric constant: 7.2) occupying 0.987085 of unit cell:	Completed after 4 iterations at t[s]:     98.35
	Linear fluid (dielectric constant: 7.2) occupying 0.987086 of unit cell:	Completed after 2 iterations at t[s]:     99.13
ElecMinimize: Iter:   2  Etot: -157.137878064294171  |grad|_K:  1.500e-06  alpha:  6.372e-01  linmin: -8.115e-03  t[s]:     99.41
	Linear fluid (dielectric constant: 7.2) occupying 0.987085 of unit cell:	Completed after 1 iterations at t[s]:     99.93
	Linear fluid (dielectric constant: 7.2) occupying 0.987085 of unit cell:	Completed after 0 iterations at t[s]:    100.59
ElecMinimize: Iter:   3  Etot: -157.137882985564289  |grad|_K:  1.173e-06  alpha:  7.353e-01  linmin: -8.387e-04  t[s]:    100.87
	Linear fluid (dielectric constant: 7.2) occupying 0.987084 of unit cell:	Completed after 2 iterations at t[s]:    101.35
	Linear fluid (dielectric constant: 7.2) occupying 0.987084 of unit cell:	Completed after 1 iterations at t[s]:    102.07
ElecMinimize: Iter:   4  Etot: -157.137885280403310  |grad|_K:  7.297e-07  alpha:  5.636e-01  linmin:  6.997e-04  t[s]:    102.35
	Linear fluid (dielectric constant: 7.2) occupying 0.987083 of unit cell:	Completed after 1 iterations at t[s]:    102.82
	Linear fluid (dielectric constant: 7.2) occupying 0.987083 of unit cell:	Completed after 0 iterations at t[s]:    103.48
ElecMinimize: Iter:   5  Etot: -157.137886468243948  |grad|_K:  5.542e-07  alpha:  7.547e-01  linmin: -7.285e-03  t[s]:    103.77
	Linear fluid (dielectric constant: 7.2) occupying 0.987082 of unit cell:	Completed after 1 iterations at t[s]:    104.23
	Linear fluid (dielectric constant: 7.2) occupying 0.987083 of unit cell:	Completed after 0 iterations at t[s]:    104.85
ElecMinimize: Iter:   6  Etot: -157.137887049570537  |grad|_K:  3.805e-07  alpha:  6.320e-01  linmin:  4.337e-03  t[s]:    105.12
	Linear fluid (dielectric constant: 7.2) occupying 0.987083 of unit cell:	Completed after 0 iterations at t[s]:    105.54
	Linear fluid (dielectric constant: 7.2) occupying 0.987083 of unit cell:	Completed after 0 iterations at t[s]:    106.13
ElecMinimize: Iter:   7  Etot: -157.137887319919969  |grad|_K:  2.729e-07  alpha:  6.344e-01  linmin: -2.293e-03  t[s]:    106.41
	Linear fluid (dielectric constant: 7.2) occupying 0.987083 of unit cell:	Completed after 0 iterations at t[s]:    106.83
	Linear fluid (dielectric constant: 7.2) occupying 0.987083 of unit cell:	Completed after 0 iterations at t[s]:    107.42
ElecMinimize: Iter:   8  Etot: -157.137887502236936  |grad|_K:  1.893e-07  alpha:  8.032e-01  linmin: -4.918e-02  t[s]:    107.70
	Linear fluid (dielectric constant: 7.2) occupying 0.987083 of unit cell:	Completed after 0 iterations at t[s]:    108.11
	Linear fluid (dielectric constant: 7.2) occupying 0.987083 of unit cell:	Completed after 0 iterations at t[s]:    108.70
ElecMinimize: Iter:   9  Etot: -157.137887552691666  |grad|_K:  1.528e-07  alpha:  5.013e-01  linmin: -2.018e-02  t[s]:    108.98
	Linear fluid (dielectric constant: 7.2) occupying 0.987083 of unit cell:	Completed after 0 iterations at t[s]:    109.40
	Linear fluid (dielectric constant: 7.2) occupying 0.987083 of unit cell:	Completed after 0 iterations at t[s]:    109.99
ElecMinimize: Iter:  10  Etot: -157.137887591867099  |grad|_K:  1.149e-07  alpha:  5.344e-01  linmin: -9.118e-02  t[s]:    110.28
	Linear fluid (dielectric constant: 7.2) occupying 0.987083 of unit cell:	Completed after 0 iterations at t[s]:    110.66
	Linear fluid (dielectric constant: 7.2) occupying 0.987083 of unit cell:	Completed after 0 iterations at t[s]:    111.22
ElecMinimize: Iter:  11  Etot: -157.137887615582258  |grad|_K:  8.718e-08  alpha:  5.185e-01  linmin:  3.129e-05  t[s]:    111.51
	Linear fluid (dielectric constant: 7.2) occupying 0.987083 of unit cell:	Completed after 0 iterations at t[s]:    111.88
	Linear fluid (dielectric constant: 7.2) occupying 0.987083 of unit cell:	Completed after 0 iterations at t[s]:    112.49
ElecMinimize: Iter:  12  Etot: -157.137887620845447  |grad|_K:  8.655e-08  alpha:  7.452e-01  linmin:  9.774e-02  t[s]:    112.77
	Linear fluid (dielectric constant: 7.2) occupying 0.987083 of unit cell:	Completed after 0 iterations at t[s]:    113.15
	Linear fluid (dielectric constant: 7.2) occupying 0.987083 of unit cell:	Completed after 0 iterations at t[s]:    113.72
ElecMinimize: Iter:  13  Etot: -157.137887627516449  |grad|_K:  7.295e-08  alpha:  4.010e-01  linmin:  3.872e-05  t[s]:    114.01
ElecMinimize: Converged (|Delta Etot|<1.000000e-08 for 2 iters).
Setting wave functions to eigenvectors of Hamiltonian
IonicMinimize: 	Predicted alpha/alphaT>3.000000, increasing alphaT to 9.000000e+00.

-------- Electronic minimization -----------
	Linear fluid (dielectric constant: 7.2) occupying 0.987082 of unit cell:	Completed after 7 iterations at t[s]:    114.73
ElecMinimize: Iter:   0  Etot: -157.015097910278115  |grad|_K:  3.169e-04  alpha:  1.000e+00
	Linear fluid (dielectric constant: 7.2) occupying 0.987079 of unit cell:	Completed after 10 iterations at t[s]:    115.90
	Linear fluid (dielectric constant: 7.2) occupying 0.987083 of unit cell:	Completed after 8 iterations at t[s]:    116.89
ElecMinimize: Iter:   1  Etot: -157.130382476554644  |grad|_K:  6.447e-05  alpha:  3.918e-01  linmin: -9.101e-04  t[s]:    117.24
	Linear fluid (dielectric constant: 7.2) occupying 0.987064 of unit cell:	Completed after 6 iterations at t[s]:    117.98
	Linear fluid (dielectric constant: 7.2) occupying 0.987059 of unit cell:	Completed after 4 iterations at t[s]:    118.89
ElecMinimize: Iter:   2  Etot: -157.136295302379779  |grad|_K:  3.428e-05  alpha:  4.791e-01  linmin: -9.968e-03  t[s]:    119.21
	Linear fluid (dielectric constant: 7.2) occupying 0.987046 of unit cell:	Completed after 5 iterations at t[s]:    119.92
	Linear fluid (dielectric constant: 7.2) occupying 0.987047 of unit cell:	Completed after 2 iterations at t[s]:    120.70
ElecMinimize: Iter:   3  Etot: -157.137791112347685  |grad|_K:  1.404e-05  alpha:  4.265e-01  linmin: -4.650e-04  t[s]:    120.97
	Linear fluid (dielectric constant: 7.2) occupying 0.987048 of unit cell:	Completed after 4 iterations at t[s]:    121.63
	Linear fluid (dielectric constant: 7.2) occupying 0.987049 of unit cell:	Completed after 3 iterations at t[s]:    122.44
ElecMinimize: Iter:   4  Etot: -157.138207619257884  |grad|_K:  8.745e-06  alpha:  7.138e-01  linmin:  1.107e-03  t[s]:    122.71
	Linear fluid (dielectric constant: 7.2) occupying 0.987048 of unit cell:	Completed after 4 iterations at t[s]:    123.39
	Linear fluid (dielectric constant: 7.2) occupying 0.987048 of unit cell:	Completed after 2 iterations at t[s]:    124.15
ElecMinimize: Iter:   5  Etot: -157.138332889545950  |grad|_K:  5.229e-06  alpha:  5.541e-01  linmin: -2.459e-04  t[s]:    124.43
	Linear fluid (dielectric constant: 7.2) occupying 0.987048 of unit cell:	Completed after 2 iterations at t[s]:    125.02
	Linear fluid (dielectric constant: 7.2) occupying 0.987048 of unit cell:	Completed after 1 iterations at t[s]:    125.75
ElecMinimize: Iter:   6  Etot: -157.138404083376486  |grad|_K:  3.052e-06  alpha:  8.795e-01  linmin:  8.576e-04  t[s]:    126.03
	Linear fluid (dielectric constant: 7.2) occupying 0.987051 of unit cell:	Completed after 3 iterations at t[s]:    126.66
	Linear fluid (dielectric constant: 7.2) occupying 0.987051 of unit cell:	Completed after 0 iterations at t[s]:    127.36
ElecMinimize: Iter:   7  Etot: -157.138428033872685  |grad|_K:  2.026e-06  alpha:  8.695e-01  linmin:  4.574e-04  t[s]:    127.64
	Linear fluid (dielectric constant: 7.2) occupying 0.987050 of unit cell:	Completed after 2 iterations at t[s]:    128.19
	Linear fluid (dielectric constant: 7.2) occupying 0.987051 of unit cell:	Completed after 0 iterations at t[s]:    128.88
ElecMinimize: Iter:   8  Etot: -157.138436601280972  |grad|_K:  1.348e-06  alpha:  7.042e-01  linmin:  3.854e-03  t[s]:    129.16
	Linear fluid (dielectric constant: 7.2) occupying 0.987049 of unit cell:	Completed after 2 iterations at t[s]:    129.66
	Linear fluid (dielectric constant: 7.2) occupying 0.987049 of unit cell:	Completed after 0 iterations at t[s]:    130.34
ElecMinimize: Iter:   9  Etot: -157.138440955103420  |grad|_K:  1.105e-06  alpha:  8.154e-01  linmin:  5.295e-03  t[s]:    130.62
	Linear fluid (dielectric constant: 7.2) occupying 0.987048 of unit cell:	Completed after 3 iterations at t[s]:    131.14
	Linear fluid (dielectric constant: 7.2) occupying 0.987048 of unit cell:	Completed after 1 iterations at t[s]:    131.88
ElecMinimize: Iter:  10  Etot: -157.138443176262399  |grad|_K:  7.611e-07  alpha:  6.229e-01  linmin:  1.306e-02  t[s]:    132.15
	Linear fluid (dielectric constant: 7.2) occupying 0.987048 of unit cell:	Completed after 1 iterations at t[s]:    132.63
	Linear fluid (dielectric constant: 7.2) occupying 0.987048 of unit cell:	Completed after 0 iterations at t[s]:    133.25
ElecMinimize: Iter:  11  Etot: -157.138444273824490  |grad|_K:  5.567e-07  alpha:  6.558e-01  linmin:  1.092e-02  t[s]:    133.53
	Linear fluid (dielectric constant: 7.2) occupying 0.987047 of unit cell:	Completed after 0 iterations at t[s]:    133.94
	Linear fluid (dielectric constant: 7.2) occupying 0.987048 of unit cell:	Completed after 0 iterations at t[s]:    134.53
ElecMinimize: Iter:  12  Etot: -157.138444824347630  |grad|_K:  3.840e-07  alpha:  6.090e-01  linmin:  3.840e-03  t[s]:    134.81
	Linear fluid (dielectric constant: 7.2) occupying 0.987047 of unit cell:	Completed after 1 iterations at t[s]:    135.27
	Linear fluid (dielectric constant: 7.2) occupying 0.987047 of unit cell:	Completed after 0 iterations at t[s]:    135.89
ElecMinimize: Iter:  13  Etot: -157.138445093004833  |grad|_K:  3.176e-07  alpha:  6.185e-01  linmin: -2.750e-02  t[s]:    136.17
	Linear fluid (dielectric constant: 7.2) occupying 0.987048 of unit cell:	Completed after 0 iterations at t[s]:    136.58
	Linear fluid (dielectric constant: 7.2) occupying 0.987048 of unit cell:	Completed after 0 iterations at t[s]:    137.17
ElecMinimize: Iter:  14  Etot: -157.138445261368418  |grad|_K:  2.212e-07  alpha:  5.325e-01  linmin:  1.520e-02  t[s]:    137.45
	Linear fluid (dielectric constant: 7.2) occupying 0.987048 of unit cell:	Completed after 0 iterations at t[s]:    137.84
	Linear fluid (dielectric constant: 7.2) occupying 0.987048 of unit cell:	Completed after 0 iterations at t[s]:    138.40
ElecMinimize: Iter:  15  Etot: -157.138445366317796  |grad|_K:  1.617e-07  alpha:  7.458e-01  linmin:  3.759e-04  t[s]:    138.68
	Linear fluid (dielectric constant: 7.2) occupying 0.987048 of unit cell:	Completed after 0 iterations at t[s]:    139.09
	Linear fluid (dielectric constant: 7.2) occupying 0.987048 of unit cell:	Completed after 0 iterations at t[s]:    139.68
ElecMinimize: Iter:  16  Etot: -157.138445397264604  |grad|_K:  1.262e-07  alpha:  4.658e-01  linmin: -9.131e-03  t[s]:    139.96
	Linear fluid (dielectric constant: 7.2) occupying 0.987048 of unit cell:	Completed after 0 iterations at t[s]:    140.39
	Linear fluid (dielectric constant: 7.2) occupying 0.987048 of unit cell:	Completed after 0 iterations at t[s]:    140.98
ElecMinimize: Iter:  17  Etot: -157.138445417942876  |grad|_K:  9.184e-08  alpha:  4.423e-01  linmin: -1.335e-01  t[s]:    141.26
	Linear fluid (dielectric constant: 7.2) occupying 0.987048 of unit cell:	Completed after 0 iterations at t[s]:    141.64
	Linear fluid (dielectric constant: 7.2) occupying 0.987048 of unit cell:	Completed after 0 iterations at t[s]:    142.20
ElecMinimize: Iter:  18  Etot: -157.138445438528777  |grad|_K:  7.609e-08  alpha:  6.642e-01  linmin:  1.376e-05  t[s]:    142.48
	Linear fluid (dielectric constant: 7.2) occupying 0.987048 of unit cell:	Completed after 0 iterations at t[s]:    142.91
	Linear fluid (dielectric constant: 7.2) occupying 0.987048 of unit cell:	Completed after 0 iterations at t[s]:    143.50
ElecMinimize: 	Step increased Etot by 3.304081e-09, reducing alpha to 2.806712e-02.
	Linear fluid (dielectric constant: 7.2) occupying 0.987048 of unit cell:	Completed after 0 iterations at t[s]:    144.15
ElecMinimize: 	Step increased Etot by 6.204630e-09, reducing alpha to 2.806712e-03.
	Linear fluid (dielectric constant: 7.2) occupying 0.987048 of unit cell:	Completed after 0 iterations at t[s]:    144.80
ElecMinimize: 	Step increased Etot by 6.646218e-09, reducing alpha to 2.806712e-04.
ElecMinimize: 	Step failed to reduce Etot after 3 attempts. Quitting step.
ElecMinimize: 	Undoing step.
	Linear fluid (dielectric constant: 7.2) occupying 0.987048 of unit cell:	Completed after 0 iterations at t[s]:    145.46
ElecMinimize: 	Step failed: resetting search direction.
ElecMinimize: Iter:  19  Etot: -157.138445431877614  |grad|_K:  1.193e-07  alpha:  2.807e-04
	Linear fluid (dielectric constant: 7.2) occupying 0.987048 of unit cell:	Completed after 0 iterations at t[s]:    146.15
	Linear fluid (dielectric constant: 7.2) occupying 0.987048 of unit cell:	Completed after 0 iterations at t[s]:    146.74
ElecMinimize: Iter:  20  Etot: -157.138445444737698  |grad|_K:  6.875e-08  alpha:  3.498e-01  linmin:  1.966e-01  t[s]:    147.02
	Linear fluid (dielectric constant: 7.2) occupying 0.987048 of unit cell:	Completed after 0 iterations at t[s]:    147.43
	Linear fluid (dielectric constant: 7.2) occupying 0.987048 of unit cell:	Completed after 0 iterations at t[s]:    148.03
ElecMinimize: 	Step increased Etot by 6.383800e-10, reducing alpha to 2.024833e-02.
	Linear fluid (dielectric constant: 7.2) occupying 0.987048 of unit cell:	Completed after 0 iterations at t[s]:    148.68
ElecMinimize: 	Step increased Etot by 3.224500e-09, reducing alpha to 2.024833e-03.
	Linear fluid (dielectric constant: 7.2) occupying 0.987048 of unit cell:	Completed after 0 iterations at t[s]:    149.33
ElecMinimize: 	Step increased Etot by 3.507097e-09, reducing alpha to 2.024833e-04.
ElecMinimize: 	Step failed to reduce Etot after 3 attempts. Quitting step.
ElecMinimize: 	Undoing step.
	Linear fluid (dielectric constant: 7.2) occupying 0.987048 of unit cell:	Completed after 0 iterations at t[s]:    149.98
ElecMinimize: 	Step failed: resetting search direction.
ElecMinimize: Iter:  21  Etot: -157.138445441227390  |grad|_K:  4.865e-08  alpha:  2.025e-04
	Linear fluid (dielectric constant: 7.2) occupying 0.987048 of unit cell:	Completed after 0 iterations at t[s]:    150.65
ElecMinimize: 	Predicted alpha/alphaT>3.000000, increasing alphaT to 1.049518e+00.
	Linear fluid (dielectric constant: 7.2) occupying 0.987048 of unit cell:	Completed after 0 iterations at t[s]:    151.21
	Linear fluid (dielectric constant: 7.2) occupying 0.987048 of unit cell:	Completed after 0 iterations at t[s]:    151.77
ElecMinimize: Iter:  22  Etot: -157.138445448832897  |grad|_K:  4.898e-08  alpha:  1.085e+00  linmin: -5.014e-05  t[s]:    152.05
	Linear fluid (dielectric constant: 7.2) occupying 0.987048 of unit cell:	Completed after 0 iterations at t[s]:    152.43
	Linear fluid (dielectric constant: 7.2) occupying 0.987048 of unit cell:	Completed after 0 iterations at t[s]:    153.04
ElecMinimize: 	Step increased Etot by 1.780990e-09, reducing alpha to 1.870254e-01.
	Linear fluid (dielectric constant: 7.2) occupying 0.987048 of unit cell:	Completed after 0 iterations at t[s]:    153.72
ElecMinimize: 	Step increased Etot by 1.235776e-09, reducing alpha to 1.870254e-02.
	Linear fluid (dielectric constant: 7.2) occupying 0.987048 of unit cell:	Completed after 0 iterations at t[s]:    154.37
ElecMinimize: 	Step increased Etot by 2.809088e-09, reducing alpha to 1.870254e-03.
ElecMinimize: 	Step failed to reduce Etot after 3 attempts. Quitting step.
ElecMinimize: 	Undoing step.
	Linear fluid (dielectric constant: 7.2) occupying 0.987048 of unit cell:	Completed after 0 iterations at t[s]:    155.03
ElecMinimize: 	Step failed: resetting search direction.
ElecMinimize: Iter:  23  Etot: -157.138445446004937  |grad|_K:  7.591e-08  alpha:  1.870e-03
	Linear fluid (dielectric constant: 7.2) occupying 0.987048 of unit cell:	Completed after 0 iterations at t[s]:    155.73
	Linear fluid (dielectric constant: 7.2) occupying 0.987048 of unit cell:	Completed after 0 iterations at t[s]:    156.32
ElecMinimize: Iter:  24  Etot: -157.138445463852065  |grad|_K:  1.016e-07  alpha:  3.277e-01  linmin:  4.801e-01  t[s]:    156.60
	Linear fluid (dielectric constant: 7.2) occupying 0.987048 of unit cell:	Completed after 0 iterations at t[s]:    156.98
	Linear fluid (dielectric constant: 7.2) occupying 0.987048 of unit cell:	Completed after 0 iterations at t[s]:    157.54
ElecMinimize: Iter:  25  Etot: -157.138445463922636  |grad|_K:  1.055e-07  alpha:  5.440e-02  linmin:  2.882e-06  t[s]:    157.82
	Linear fluid (dielectric constant: 7.2) occupying 0.987048 of unit cell:	Completed after 0 iterations at t[s]:    158.25
	Linear fluid (dielectric constant: 7.2) occupying 0.987048 of unit cell:	Completed after 0 iterations at t[s]:    158.84
ElecMinimize: 	Step increased Etot by 1.039987e-08, reducing alpha to 7.598631e-04.
	Linear fluid (dielectric constant: 7.2) occupying 0.987048 of unit cell:	Completed after 0 iterations at t[s]:    159.49
ElecMinimize: 	Step increased Etot by 1.057376e-08, reducing alpha to 7.598631e-05.
	Linear fluid (dielectric constant: 7.2) occupying 0.987048 of unit cell:	Completed after 0 iterations at t[s]:    160.14
ElecMinimize: 	Step increased Etot by 1.059126e-08, reducing alpha to 7.598631e-06.
ElecMinimize: 	Step failed to reduce Etot after 3 attempts. Quitting step.
ElecMinimize: 	Undoing step.
	Linear fluid (dielectric constant: 7.2) occupying 0.987048 of unit cell:	Completed after 0 iterations at t[s]:    160.80
ElecMinimize: 	Step failed: resetting search direction.
ElecMinimize: Iter:  26  Etot: -157.138445453331087  |grad|_K:  4.754e-08  alpha:  7.599e-06
	Linear fluid (dielectric constant: 7.2) occupying 0.987048 of unit cell:	Completed after 0 iterations at t[s]:    161.46
ElecMinimize: 	Predicted alpha/alphaT>3.000000, increasing alphaT to 1.632059e-01.
	Linear fluid (dielectric constant: 7.2) occupying 0.987048 of unit cell:	Completed after 0 iterations at t[s]:    162.02
ElecMinimize: 	Predicted alpha/alphaT>3.000000, increasing alphaT to 4.896176e-01.
	Linear fluid (dielectric constant: 7.2) occupying 0.987048 of unit cell:	Completed after 0 iterations at t[s]:    162.92
	Linear fluid (dielectric constant: 7.2) occupying 0.987048 of unit cell:	Completed after 0 iterations at t[s]:    163.49
ElecMinimize: Iter:  27  Etot: -157.138445457918465  |grad|_K:  3.399e-08  alpha:  6.854e-01  linmin:  1.128e-04  t[s]:    163.78
	Linear fluid (dielectric constant: 7.2) occupying 0.987048 of unit cell:	Completed after 0 iterations at t[s]:    164.16
ElecMinimize: 	Predicted alpha/alphaT>3.000000, increasing alphaT to 2.056207e+00.
	Linear fluid (dielectric constant: 7.2) occupying 0.987048 of unit cell:	Completed after 0 iterations at t[s]:    164.76
	Linear fluid (dielectric constant: 7.2) occupying 0.987048 of unit cell:	Completed after 0 iterations at t[s]:    165.38
ElecMinimize: 	Step increased Etot by 9.661846e-09, reducing alpha to 5.441130e-02.
	Linear fluid (dielectric constant: 7.2) occupying 0.987048 of unit cell:	Completed after 0 iterations at t[s]:    166.05
ElecMinimize: 	Step increased Etot by 8.869762e-09, reducing alpha to 5.441130e-03.
	Linear fluid (dielectric constant: 7.2) occupying 0.987048 of unit cell:	Completed after 0 iterations at t[s]:    166.70
ElecMinimize: 	Step increased Etot by 8.808911e-09, reducing alpha to 5.441130e-04.
ElecMinimize: 	Step failed to reduce Etot after 3 attempts. Quitting step.
ElecMinimize: 	Undoing step.
	Linear fluid (dielectric constant: 7.2) occupying 0.987048 of unit cell:	Completed after 0 iterations at t[s]:    174.33
ElecMinimize: 	Step failed: resetting search direction.
ElecMinimize: Iter:  28  Etot: -157.138445449110066  |grad|_K:  1.017e-07  alpha:  5.441e-04
	Linear fluid (dielectric constant: 7.2) occupying 0.987048 of unit cell:	Completed after 0 iterations at t[s]:    175.04
	Linear fluid (dielectric constant: 7.2) occupying 0.987048 of unit cell:	Completed after 0 iterations at t[s]:    175.63
ElecMinimize: Iter:  29  Etot: -157.138445462614726  |grad|_K:  8.134e-08  alpha:  2.775e-01  linmin:  5.329e-01  t[s]:    175.91
	Linear fluid (dielectric constant: 7.2) occupying 0.987048 of unit cell:	Completed after 0 iterations at t[s]:    176.32
	Linear fluid (dielectric constant: 7.2) occupying 0.987048 of unit cell:	Completed after 0 iterations at t[s]:    176.91
ElecMinimize: 	Step increased Etot by 6.128346e-09, reducing alpha to 6.000574e-03.
	Linear fluid (dielectric constant: 7.2) occupying 0.987048 of unit cell:	Completed after 0 iterations at t[s]:    177.88
ElecMinimize: 	Step increased Etot by 6.269090e-09, reducing alpha to 6.000574e-04.
	Linear fluid (dielectric constant: 7.2) occupying 0.987048 of unit cell:	Completed after 0 iterations at t[s]:    178.54
ElecMinimize: 	Step increased Etot by 6.283472e-09, reducing alpha to 6.000574e-05.
ElecMinimize: 	Step failed to reduce Etot after 3 attempts. Quitting step.
ElecMinimize: 	Undoing step.
	Linear fluid (dielectric constant: 7.2) occupying 0.987048 of unit cell:	Completed after 0 iterations at t[s]:    179.19
ElecMinimize: 	Step failed: resetting search direction.
ElecMinimize: Iter:  30  Etot: -157.138445456331112  |grad|_K:  4.088e-08  alpha:  6.001e-05
	Linear fluid (dielectric constant: 7.2) occupying 0.987048 of unit cell:	Completed after 0 iterations at t[s]:    179.85
	Linear fluid (dielectric constant: 7.2) occupying 0.987048 of unit cell:	Completed after 0 iterations at t[s]:    180.41
ElecMinimize: Iter:  31  Etot: -157.138445459823799  |grad|_K:  2.917e-08  alpha:  7.059e-01  linmin:  1.182e-04  t[s]:    180.69
	Linear fluid (dielectric constant: 7.2) occupying 0.987048 of unit cell:	Completed after 0 iterations at t[s]:    181.08
ElecMinimize: 	Predicted alpha/alphaT>3.000000, increasing alphaT to 2.117833e+00.
	Linear fluid (dielectric constant: 7.2) occupying 0.987048 of unit cell:	Completed after 0 iterations at t[s]:    181.68
	Linear fluid (dielectric constant: 7.2) occupying 0.987048 of unit cell:	Completed after 0 iterations at t[s]:    182.27
ElecMinimize: 	Step increased Etot by 2.321627e-09, reducing alpha to 5.748050e-02.
	Linear fluid (dielectric constant: 7.2) occupying 0.987048 of unit cell:	Completed after 0 iterations at t[s]:    182.96
ElecMinimize: 	Step increased Etot by 8.619082e-09, reducing alpha to 5.748050e-03.
	Linear fluid (dielectric constant: 7.2) occupying 0.987048 of unit cell:	Completed after 0 iterations at t[s]:    183.62
ElecMinimize: 	Step increased Etot by 8.659867e-09, reducing alpha to 5.748050e-04.
ElecMinimize: 	Step failed to reduce Etot after 3 attempts. Quitting step.
ElecMinimize: 	Undoing step.
	Linear fluid (dielectric constant: 7.2) occupying 0.987048 of unit cell:	Completed after 0 iterations at t[s]:    184.27
ElecMinimize: 	Step failed: resetting search direction.
ElecMinimize: Iter:  32  Etot: -157.138445451163477  |grad|_K:  8.234e-08  alpha:  5.748e-04
	Linear fluid (dielectric constant: 7.2) occupying 0.987048 of unit cell:	Completed after 0 iterations at t[s]:    184.93
	Linear fluid (dielectric constant: 7.2) occupying 0.987048 of unit cell:	Completed after 0 iterations at t[s]:    185.49
ElecMinimize: Iter:  33  Etot: -157.138445462595030  |grad|_K:  4.182e-08  alpha:  5.694e-01  linmin: -3.608e-05  t[s]:    185.77
	Linear fluid (dielectric constant: 7.2) occupying 0.987048 of unit cell:	Completed after 0 iterations at t[s]:    186.19
	Linear fluid (dielectric constant: 7.2) occupying 0.987048 of unit cell:	Completed after 0 iterations at t[s]:    186.78
ElecMinimize: 	Step increased Etot by 5.565369e-09, reducing alpha to 1.058780e-02.
	Linear fluid (dielectric constant: 7.2) occupying 0.987048 of unit cell:	Completed after 0 iterations at t[s]:    187.43
ElecMinimize: 	Step increased Etot by 4.610627e-09, reducing alpha to 1.058780e-03.
	Linear fluid (dielectric constant: 7.2) occupying 0.987048 of unit cell:	Completed after 0 iterations at t[s]:    188.08
ElecMinimize: 	Step increased Etot by 4.514220e-09, reducing alpha to 1.058780e-04.
ElecMinimize: 	Step failed to reduce Etot after 3 attempts. Quitting step.
ElecMinimize: 	Undoing step.
	Linear fluid (dielectric constant: 7.2) occupying 0.987048 of unit cell:	Completed after 0 iterations at t[s]:    188.74
ElecMinimize: 	Step failed: resetting search direction.
ElecMinimize: Iter:  34  Etot: -157.138445458081719  |grad|_K:  9.186e-08  alpha:  1.059e-04
	Linear fluid (dielectric constant: 7.2) occupying 0.987048 of unit cell:	Completed after 0 iterations at t[s]:    189.43
	Linear fluid (dielectric constant: 7.2) occupying 0.987048 of unit cell:	Completed after 0 iterations at t[s]:    190.02
ElecMinimize: Iter:  35  Etot: -157.138445460361396  |grad|_K:  4.832e-08  alpha:  2.509e-01  linmin:  3.180e-01  t[s]:    190.30
	Linear fluid (dielectric constant: 7.2) occupying 0.987048 of unit cell:	Completed after 0 iterations at t[s]:    190.68
ElecMinimize: 	Predicted alpha/alphaT>3.000000, increasing alphaT to 7.527997e-01.
	Linear fluid (dielectric constant: 7.2) occupying 0.987048 of unit cell:	Completed after 0 iterations at t[s]:    191.29
	Linear fluid (dielectric constant: 7.2) occupying 0.987048 of unit cell:	Completed after 0 iterations at t[s]:    191.88
ElecMinimize: 	Step increased Etot by 3.362572e-10, reducing alpha to 2.757145e-02.
	Linear fluid (dielectric constant: 7.2) occupying 0.987048 of unit cell:	Completed after 0 iterations at t[s]:    192.53
ElecMinimize: Iter:  36  Etot: -157.138445460494438  |grad|_K:  2.522e-08  alpha:  2.757e-02  linmin:  7.589e-02  t[s]:    192.81
ElecMinimize: Converged (|Delta Etot|<1.000000e-08 for 2 iters).
Setting wave functions to eigenvectors of Hamiltonian

-------- Electronic minimization -----------
	Linear fluid (dielectric constant: 7.2) occupying 0.987047 of unit cell:	Completed after 1 iterations at t[s]:    193.31
ElecMinimize: Iter:   0  Etot: -157.138445150218587  |grad|_K:  2.873e-07  alpha:  1.000e+00
	Linear fluid (dielectric constant: 7.2) occupying 0.987047 of unit cell:	Completed after 1 iterations at t[s]:    194.07
	Linear fluid (dielectric constant: 7.2) occupying 0.987047 of unit cell:	Completed after 0 iterations at t[s]:    194.69
ElecMinimize: Iter:   1  Etot: -157.138445350547386  |grad|_K:  1.375e-07  alpha:  8.152e-01  linmin:  6.212e-02  t[s]:    194.97
	Linear fluid (dielectric constant: 7.2) occupying 0.987047 of unit cell:	Completed after 0 iterations at t[s]:    195.39
	Linear fluid (dielectric constant: 7.2) occupying 0.987047 of unit cell:	Completed after 0 iterations at t[s]:    195.98
ElecMinimize: Iter:   2  Etot: -157.138445377704045  |grad|_K:  9.817e-08  alpha:  5.420e-01  linmin:  3.043e-02  t[s]:    196.27
	Linear fluid (dielectric constant: 7.2) occupying 0.987047 of unit cell:	Completed after 0 iterations at t[s]:    196.68
	Linear fluid (dielectric constant: 7.2) occupying 0.987047 of unit cell:	Completed after 0 iterations at t[s]:    197.27
ElecMinimize: Iter:   3  Etot: -157.138445389260511  |grad|_K:  5.179e-08  alpha:  4.677e-01  linmin: -2.916e-01  t[s]:    197.56
	Linear fluid (dielectric constant: 7.2) occupying 0.987047 of unit cell:	Completed after 0 iterations at t[s]:    197.94
	Linear fluid (dielectric constant: 7.2) occupying 0.987047 of unit cell:	Completed after 0 iterations at t[s]:    198.50
ElecMinimize: Iter:   4  Etot: -157.138445399982572  |grad|_K:  5.197e-08  alpha:  1.049e+00  linmin:  1.387e-03  t[s]:    198.79
	Linear fluid (dielectric constant: 7.2) occupying 0.987047 of unit cell:	Completed after 0 iterations at t[s]:    199.21
	Linear fluid (dielectric constant: 7.2) occupying 0.987047 of unit cell:	Completed after 0 iterations at t[s]:    199.80
ElecMinimize: 	Step increased Etot by 7.478889e-10, reducing alpha to 3.418985e-02.
	Linear fluid (dielectric constant: 7.2) occupying 0.987047 of unit cell:	Completed after 0 iterations at t[s]:    200.46
ElecMinimize: Iter:   5  Etot: -157.138445401143770  |grad|_K:  1.111e-07  alpha:  3.419e-02  linmin:  5.276e-02  t[s]:    200.74
	Linear fluid (dielectric constant: 7.2) occupying 0.987047 of unit cell:	Completed after 0 iterations at t[s]:    201.12
ElecMinimize: 	Predicted alpha/alphaT>3.000000, increasing alphaT to 1.025696e-01.
	Linear fluid (dielectric constant: 7.2) occupying 0.987047 of unit cell:	Completed after 0 iterations at t[s]:    201.68
	Linear fluid (dielectric constant: 7.2) occupying 0.987047 of unit cell:	Completed after 0 iterations at t[s]:    202.25
ElecMinimize: Iter:   6  Etot: -157.138445404082120  |grad|_K:  9.254e-08  alpha:  1.127e-01  linmin:  5.272e-07  t[s]:    202.54
ElecMinimize: Converged (|Delta Etot|<1.000000e-08 for 2 iters).
Setting wave functions to eigenvectors of Hamiltonian

# Ionic positions in cartesian coordinates:
ion S   3.912228081174959  11.886686783321975  23.116239335515139 1
ion S   7.594334095413248  11.332614470936269  23.933964526386749 1
ion S   8.663472018076158   7.783931920894226  23.229919612919925 1
ion S   6.507674725611075   7.728202108814295  29.710529606002758 1
ion S   7.531382191883872  11.299280135109383  29.057360283532876 1
ion S  11.201275892018035  11.889479530033681  29.896063831887997 1
ion Na   3.775960126066196   7.124134777987642  25.236477458734544 1
ion Na  11.407544065656454   7.168021968512517  27.688565203419994 1

# Forces in Cartesian coordinates:
force S   0.004644937293148   0.000805991249910   0.000336082957511 1
force S  -0.005644108776988   0.008713248700579   0.000553284392214 1
force S   0.001276006705969  -0.005262191818973  -0.001237506347659 1
force S  -0.001227683397831  -0.005578260063671   0.001270777772491 1
force S   0.005157940687373   0.008745460057698  -0.000371650651101 1
force S  -0.004436381612133   0.000809176742775  -0.000245224698576 1
force Na  -0.005181072879453  -0.004212807234792  -0.000894024402175 1
force Na   0.004918576110909  -0.004060790965723   0.000505210749822 1

# Energy components:
   A_diel =       -0.0555894103905088
   Eewald =      145.0704288595582057
       EH =      274.4434146333171611
     Eloc =     -454.4452123274407427
      Enl =     -133.1755781647600259
      Exc =      -39.6123517234849132
 Exc_core =       10.6063790194309426
       KE =       40.0300637096877523
-------------------------------------
     Etot =     -157.1384454040821197

IonicMinimize: Iter:   1  Etot: -157.138445404082120  |grad|_K:  4.110e-03  alpha:  9.103e+00  linmin:  5.208e-03  t[s]:    202.86

#--- Lowdin population analysis ---
# oxidation-state S -0.461 +0.374 -0.445 -0.445 +0.375 -0.460
# oxidation-state Na +0.797 +0.797


-------- Electronic minimization -----------
	Linear fluid (dielectric constant: 7.2) occupying 0.987044 of unit cell:	Completed after 8 iterations at t[s]:    203.61
ElecMinimize: Iter:   0  Etot: -156.736056458013934  |grad|_K:  5.902e-04  alpha:  1.000e+00
	Linear fluid (dielectric constant: 7.2) occupying 0.987019 of unit cell:	Completed after 12 iterations at t[s]:    204.85
	Linear fluid (dielectric constant: 7.2) occupying 0.987043 of unit cell:	Completed after 10 iterations at t[s]:    206.10
ElecMinimize: Iter:   1  Etot: -157.115726255189088  |grad|_K:  1.304e-04  alpha:  3.824e-01  linmin: -1.323e-02  t[s]:    206.47
	Linear fluid (dielectric constant: 7.2) occupying 0.987006 of unit cell:	Completed after 7 iterations at t[s]:    207.28
	Linear fluid (dielectric constant: 7.2) occupying 0.987008 of unit cell:	Completed after 3 iterations at t[s]:    208.16
ElecMinimize: Iter:   2  Etot: -157.134141058745598  |grad|_K:  5.761e-05  alpha:  3.641e-01  linmin: -4.644e-04  t[s]:    208.45
	Linear fluid (dielectric constant: 7.2) occupying 0.986984 of unit cell:	Completed after 6 iterations at t[s]:    209.18
	Linear fluid (dielectric constant: 7.2) occupying 0.986976 of unit cell:	Completed after 4 iterations at t[s]:    210.05
ElecMinimize: Iter:   3  Etot: -157.138870407467209  |grad|_K:  1.996e-05  alpha:  4.809e-01  linmin: -2.931e-03  t[s]:    210.37
	Linear fluid (dielectric constant: 7.2) occupying 0.986975 of unit cell:	Completed after 5 iterations at t[s]:    211.07
	Linear fluid (dielectric constant: 7.2) occupying 0.986974 of unit cell:	Completed after 3 iterations at t[s]:    211.90
ElecMinimize: Iter:   4  Etot: -157.139607938445266  |grad|_K:  1.173e-05  alpha:  6.237e-01  linmin: -6.509e-04  t[s]:    212.18
	Linear fluid (dielectric constant: 7.2) occupying 0.986971 of unit cell:	Completed after 5 iterations at t[s]:    212.88
	Linear fluid (dielectric constant: 7.2) occupying 0.986971 of unit cell:	Completed after 2 iterations at t[s]:    213.67
ElecMinimize: Iter:   5  Etot: -157.139818937527934  |grad|_K:  5.939e-06  alpha:  5.179e-01  linmin:  3.025e-04  t[s]:    213.94
	Linear fluid (dielectric constant: 7.2) occupying 0.986969 of unit cell:	Completed after 3 iterations at t[s]:    214.57
	Linear fluid (dielectric constant: 7.2) occupying 0.986968 of unit cell:	Completed after 2 iterations at t[s]:    215.35
ElecMinimize: Iter:   6  Etot: -157.139901759213245  |grad|_K:  4.741e-06  alpha:  7.952e-01  linmin:  3.239e-03  t[s]:    215.63
	Linear fluid (dielectric constant: 7.2) occupying 0.986971 of unit cell:	Completed after 2 iterations at t[s]:    216.22
	Linear fluid (dielectric constant: 7.2) occupying 0.986970 of unit cell:	Completed after 2 iterations at t[s]:    216.98
ElecMinimize: Iter:   7  Etot: -157.139936389115235  |grad|_K:  3.148e-06  alpha:  5.234e-01  linmin: -3.627e-04  t[s]:    217.28
	Linear fluid (dielectric constant: 7.2) occupying 0.986974 of unit cell:	Completed after 3 iterations at t[s]:    217.90
	Linear fluid (dielectric constant: 7.2) occupying 0.986975 of unit cell:	Completed after 2 iterations at t[s]:    218.67
ElecMinimize: Iter:   8  Etot: -157.139957111960484  |grad|_K:  1.955e-06  alpha:  7.065e-01  linmin:  1.256e-03  t[s]:    218.96
	Linear fluid (dielectric constant: 7.2) occupying 0.986975 of unit cell:	Completed after 2 iterations at t[s]:    219.55
	Linear fluid (dielectric constant: 7.2) occupying 0.986975 of unit cell:	Completed after 0 iterations at t[s]:    220.20
ElecMinimize: Iter:   9  Etot: -157.139965186124755  |grad|_K:  1.188e-06  alpha:  7.142e-01  linmin: -2.456e-03  t[s]:    220.47
	Linear fluid (dielectric constant: 7.2) occupying 0.986975 of unit cell:	Completed after 1 iterations at t[s]:    220.93
	Linear fluid (dielectric constant: 7.2) occupying 0.986975 of unit cell:	Completed after 0 iterations at t[s]:    221.54
ElecMinimize: Iter:  10  Etot: -157.139968203245786  |grad|_K:  8.737e-07  alpha:  7.201e-01  linmin: -1.081e-03  t[s]:    221.82
	Linear fluid (dielectric constant: 7.2) occupying 0.986974 of unit cell:	Completed after 1 iterations at t[s]:    222.27
	Linear fluid (dielectric constant: 7.2) occupying 0.986974 of unit cell:	Completed after 0 iterations at t[s]:    222.89
ElecMinimize: Iter:  11  Etot: -157.139969610730532  |grad|_K:  6.735e-07  alpha:  6.181e-01  linmin:  1.807e-02  t[s]:    223.17
	Linear fluid (dielectric constant: 7.2) occupying 0.986973 of unit cell:	Completed after 1 iterations at t[s]:    223.62
	Linear fluid (dielectric constant: 7.2) occupying 0.986973 of unit cell:	Completed after 0 iterations at t[s]:    224.25
ElecMinimize: Iter:  12  Etot: -157.139970356663696  |grad|_K:  4.890e-07  alpha:  5.779e-01  linmin: -1.183e-02  t[s]:    224.54
	Linear fluid (dielectric constant: 7.2) occupying 0.986973 of unit cell:	Completed after 0 iterations at t[s]:    224.95
	Linear fluid (dielectric constant: 7.2) occupying 0.986973 of unit cell:	Completed after 0 iterations at t[s]:    225.58
ElecMinimize: Iter:  13  Etot: -157.139970907414551  |grad|_K:  3.546e-07  alpha:  7.698e-01  linmin: -1.103e-02  t[s]:    225.87
	Linear fluid (dielectric constant: 7.2) occupying 0.986973 of unit cell:	Completed after 0 iterations at t[s]:    226.30
	Linear fluid (dielectric constant: 7.2) occupying 0.986973 of unit cell:	Completed after 0 iterations at t[s]:    226.89
ElecMinimize: Iter:  14  Etot: -157.139971201274648  |grad|_K:  2.411e-07  alpha:  7.743e-01  linmin: -1.659e-02  t[s]:    227.16
	Linear fluid (dielectric constant: 7.2) occupying 0.986973 of unit cell:	Completed after 0 iterations at t[s]:    227.58
	Linear fluid (dielectric constant: 7.2) occupying 0.986973 of unit cell:	Completed after 0 iterations at t[s]:    228.17
ElecMinimize: Iter:  15  Etot: -157.139971326707382  |grad|_K:  1.629e-07  alpha:  7.178e-01  linmin: -2.871e-02  t[s]:    228.45
	Linear fluid (dielectric constant: 7.2) occupying 0.986973 of unit cell:	Completed after 0 iterations at t[s]:    228.87
	Linear fluid (dielectric constant: 7.2) occupying 0.986973 of unit cell:	Completed after 0 iterations at t[s]:    229.46
ElecMinimize: Iter:  16  Etot: -157.139971382972391  |grad|_K:  1.057e-07  alpha:  6.912e-01  linmin: -9.311e-02  t[s]:    229.74
	Linear fluid (dielectric constant: 7.2) occupying 0.986974 of unit cell:	Completed after 0 iterations at t[s]:    230.16
	Linear fluid (dielectric constant: 7.2) occupying 0.986974 of unit cell:	Completed after 0 iterations at t[s]:    230.75
ElecMinimize: Iter:  17  Etot: -157.139971407702348  |grad|_K:  7.805e-08  alpha:  6.735e-01  linmin: -1.263e-01  t[s]:    231.04
	Linear fluid (dielectric constant: 7.2) occupying 0.986974 of unit cell:	Completed after 0 iterations at t[s]:    231.42
	Linear fluid (dielectric constant: 7.2) occupying 0.986974 of unit cell:	Completed after 0 iterations at t[s]:    231.98
ElecMinimize: Iter:  18  Etot: -157.139971426906158  |grad|_K:  6.848e-08  alpha:  8.798e-01  linmin:  1.089e-06  t[s]:    232.27
	Linear fluid (dielectric constant: 7.2) occupying 0.986974 of unit cell:	Completed after 0 iterations at t[s]:    232.70
	Linear fluid (dielectric constant: 7.2) occupying 0.986974 of unit cell:	Completed after 0 iterations at t[s]:    233.29
ElecMinimize: Iter:  19  Etot: -157.139971427287946  |grad|_K:  7.896e-08  alpha:  4.307e-01  linmin: -3.275e-02  t[s]:    233.57
	Linear fluid (dielectric constant: 7.2) occupying 0.986974 of unit cell:	Completed after 0 iterations at t[s]:    233.95
	Linear fluid (dielectric constant: 7.2) occupying 0.986974 of unit cell:	Completed after 0 iterations at t[s]:    234.52
ElecMinimize: Iter:  20  Etot: -157.139971436090576  |grad|_K:  7.294e-08  alpha:  4.295e-01  linmin: -1.148e-05  t[s]:    234.80
ElecMinimize: Converged (|Delta Etot|<1.000000e-08 for 2 iters).
Setting wave functions to eigenvectors of Hamiltonian

-------- Electronic minimization -----------
	Linear fluid (dielectric constant: 7.2) occupying 0.986970 of unit cell:	Completed after 8 iterations at t[s]:    235.56
ElecMinimize: Iter:   0  Etot: -156.678673828218962  |grad|_K:  6.327e-04  alpha:  1.000e+00
	Linear fluid (dielectric constant: 7.2) occupying 0.986945 of unit cell:	Completed after 12 iterations at t[s]:    236.80
	Linear fluid (dielectric constant: 7.2) occupying 0.986970 of unit cell:	Completed after 10 iterations at t[s]:    238.07
ElecMinimize: Iter:   1  Etot: -157.112010596505058  |grad|_K:  1.426e-04  alpha:  3.819e-01  linmin: -1.712e-02  t[s]:    238.44
	Linear fluid (dielectric constant: 7.2) occupying 0.986933 of unit cell:	Completed after 8 iterations at t[s]:    239.27
	Linear fluid (dielectric constant: 7.2) occupying 0.986935 of unit cell:	Completed after 4 iterations at t[s]:    240.22
ElecMinimize: Iter:   2  Etot: -157.133729125359480  |grad|_K:  6.221e-05  alpha:  3.587e-01  linmin:  3.887e-03  t[s]:    240.51
	Linear fluid (dielectric constant: 7.2) occupying 0.986908 of unit cell:	Completed after 6 iterations at t[s]:    241.24
	Linear fluid (dielectric constant: 7.2) occupying 0.986898 of unit cell:	Completed after 5 iterations at t[s]:    242.18
ElecMinimize: Iter:   3  Etot: -157.139298228154814  |grad|_K:  2.151e-05  alpha:  4.863e-01  linmin: -9.219e-03  t[s]:    242.54
	Linear fluid (dielectric constant: 7.2) occupying 0.986897 of unit cell:	Completed after 5 iterations at t[s]:    243.23
	Linear fluid (dielectric constant: 7.2) occupying 0.986896 of unit cell:	Completed after 3 iterations at t[s]:    244.05
ElecMinimize: Iter:   4  Etot: -157.140139335418667  |grad|_K:  1.282e-05  alpha:  6.107e-01  linmin: -1.647e-04  t[s]:    244.33
[...]
	Linear fluid (dielectric constant: 7.2) occupying 0.986957 of unit cell:	Completed after 0 iterations at t[s]:   1760.61
ElecMinimize: Iter:   4  Etot: -157.141794591999997  |grad|_K:  8.208e-07  alpha:  6.241e-01  linmin:  3.830e-03  t[s]:   1760.88
	Linear fluid (dielectric constant: 7.2) occupying 0.986957 of unit cell:	Completed after 1 iterations at t[s]:   1761.34
	Linear fluid (dielectric constant: 7.2) occupying 0.986957 of unit cell:	Completed after 0 iterations at t[s]:   1761.99
ElecMinimize: Iter:   5  Etot: -157.141796196645316  |grad|_K:  5.931e-07  alpha:  8.046e-01  linmin: -1.363e-02  t[s]:   1762.27
	Linear fluid (dielectric constant: 7.2) occupying 0.986957 of unit cell:	Completed after 1 iterations at t[s]:   1762.72
	Linear fluid (dielectric constant: 7.2) occupying 0.986957 of unit cell:	Completed after 0 iterations at t[s]:   1763.34
ElecMinimize: Iter:   6  Etot: -157.141796860971027  |grad|_K:  5.059e-07  alpha:  6.055e-01  linmin:  3.977e-02  t[s]:   1763.62
	Linear fluid (dielectric constant: 7.2) occupying 0.986957 of unit cell:	Completed after 0 iterations at t[s]:   1764.03
	Linear fluid (dielectric constant: 7.2) occupying 0.986957 of unit cell:	Completed after 0 iterations at t[s]:   1764.62
ElecMinimize: Iter:   7  Etot: -157.141797262891657  |grad|_K:  3.253e-07  alpha:  5.820e-01  linmin: -4.300e-02  t[s]:   1764.90
	Linear fluid (dielectric constant: 7.2) occupying 0.986957 of unit cell:	Completed after 0 iterations at t[s]:   1765.32
	Linear fluid (dielectric constant: 7.2) occupying 0.986957 of unit cell:	Completed after 0 iterations at t[s]:   1765.90
ElecMinimize: Iter:   8  Etot: -157.141797524386618  |grad|_K:  2.236e-07  alpha:  7.623e-01  linmin: -3.598e-02  t[s]:   1766.18
	Linear fluid (dielectric constant: 7.2) occupying 0.986957 of unit cell:	Completed after 0 iterations at t[s]:   1766.60
	Linear fluid (dielectric constant: 7.2) occupying 0.986957 of unit cell:	Completed after 0 iterations at t[s]:   1767.19
ElecMinimize: Iter:   9  Etot: -157.141797632142413  |grad|_K:  2.022e-07  alpha:  7.046e-01  linmin: -5.107e-02  t[s]:   1767.46
	Linear fluid (dielectric constant: 7.2) occupying 0.986957 of unit cell:	Completed after 0 iterations at t[s]:   1767.88
	Linear fluid (dielectric constant: 7.2) occupying 0.986957 of unit cell:	Completed after 0 iterations at t[s]:   1768.47
ElecMinimize: Iter:  10  Etot: -157.141797723984183  |grad|_K:  1.552e-07  alpha:  6.841e-01  linmin: -2.690e-02  t[s]:   1768.75
	Linear fluid (dielectric constant: 7.2) occupying 0.986957 of unit cell:	Completed after 0 iterations at t[s]:   1769.13
	Linear fluid (dielectric constant: 7.2) occupying 0.986957 of unit cell:	Completed after 0 iterations at t[s]:   1769.69
ElecMinimize: Iter:  11  Etot: -157.141797781782884  |grad|_K:  1.450e-07  alpha:  7.640e-01  linmin:  3.648e-06  t[s]:   1769.97
	Linear fluid (dielectric constant: 7.2) occupying 0.986957 of unit cell:	Completed after 0 iterations at t[s]:   1770.38
	Linear fluid (dielectric constant: 7.2) occupying 0.986957 of unit cell:	Completed after 0 iterations at t[s]:   1770.97
ElecMinimize: Iter:  12  Etot: -157.141797808171503  |grad|_K:  1.076e-07  alpha:  4.944e-01  linmin: -2.701e-02  t[s]:   1771.25
	Linear fluid (dielectric constant: 7.2) occupying 0.986957 of unit cell:	Completed after 0 iterations at t[s]:   1771.66
	Linear fluid (dielectric constant: 7.2) occupying 0.986957 of unit cell:	Completed after 0 iterations at t[s]:   1772.25
ElecMinimize: Iter:  13  Etot: -157.141797821616706  |grad|_K:  8.334e-08  alpha:  4.116e-01  linmin: -1.135e-01  t[s]:   1772.53
	Linear fluid (dielectric constant: 7.2) occupying 0.986957 of unit cell:	Completed after 0 iterations at t[s]:   1772.91
	Linear fluid (dielectric constant: 7.2) occupying 0.986957 of unit cell:	Completed after 0 iterations at t[s]:   1773.47
ElecMinimize: Iter:  14  Etot: -157.141797839722869  |grad|_K:  7.714e-08  alpha:  7.125e-01  linmin: -2.444e-05  t[s]:   1773.75
	Linear fluid (dielectric constant: 7.2) occupying 0.986957 of unit cell:	Completed after 0 iterations at t[s]:   1774.13
	Linear fluid (dielectric constant: 7.2) occupying 0.986957 of unit cell:	Completed after 0 iterations at t[s]:   1774.69
ElecMinimize: Iter:  15  Etot: -157.141797852598643  |grad|_K:  7.816e-08  alpha:  7.306e-01  linmin:  1.660e-05  t[s]:   1774.97
	Linear fluid (dielectric constant: 7.2) occupying 0.986957 of unit cell:	Completed after 0 iterations at t[s]:   1775.38
	Linear fluid (dielectric constant: 7.2) occupying 0.986957 of unit cell:	Completed after 0 iterations at t[s]:   1776.01
ElecMinimize: 	Step increased Etot by 1.086764e-08, reducing alpha to 2.123953e-02.
	Linear fluid (dielectric constant: 7.2) occupying 0.986957 of unit cell:	Completed after 0 iterations at t[s]:   1776.66
ElecMinimize: 	Step increased Etot by 1.026464e-08, reducing alpha to 2.123953e-03.
	Linear fluid (dielectric constant: 7.2) occupying 0.986957 of unit cell:	Completed after 0 iterations at t[s]:   1777.31
ElecMinimize: 	Step increased Etot by 1.029372e-08, reducing alpha to 2.123953e-04.
ElecMinimize: 	Step failed to reduce Etot after 3 attempts. Quitting step.
ElecMinimize: 	Undoing step.
	Linear fluid (dielectric constant: 7.2) occupying 0.986957 of unit cell:	Completed after 0 iterations at t[s]:   1777.96
ElecMinimize: 	Step failed: resetting search direction.
ElecMinimize: Iter:  16  Etot: -157.141797842304527  |grad|_K:  1.016e-07  alpha:  2.124e-04
	Linear fluid (dielectric constant: 7.2) occupying 0.986957 of unit cell:	Completed after 0 iterations at t[s]:   1778.65
	Linear fluid (dielectric constant: 7.2) occupying 0.986957 of unit cell:	Completed after 0 iterations at t[s]:   1779.24
ElecMinimize: Iter:  17  Etot: -157.141797856606047  |grad|_K:  5.386e-08  alpha:  4.636e-01  linmin:  2.332e-01  t[s]:   1779.52
	Linear fluid (dielectric constant: 7.2) occupying 0.986957 of unit cell:	Completed after 0 iterations at t[s]:   1779.90
	Linear fluid (dielectric constant: 7.2) occupying 0.986957 of unit cell:	Completed after 0 iterations at t[s]:   1780.46
ElecMinimize: Iter:  18  Etot: -157.141797862819715  |grad|_K:  4.175e-08  alpha:  8.545e-01  linmin:  8.475e-05  t[s]:   1780.74
	Linear fluid (dielectric constant: 7.2) occupying 0.986957 of unit cell:	Completed after 0 iterations at t[s]:   1781.16
	Linear fluid (dielectric constant: 7.2) occupying 0.986957 of unit cell:	Completed after 0 iterations at t[s]:   1781.75
ElecMinimize: 	Step increased Etot by 4.649934e-09, reducing alpha to 1.947922e-02.
	Linear fluid (dielectric constant: 7.2) occupying 0.986957 of unit cell:	Completed after 0 iterations at t[s]:   1782.40
ElecMinimize: 	Step increased Etot by 3.226518e-09, reducing alpha to 1.947922e-03.
	Linear fluid (dielectric constant: 7.2) occupying 0.986957 of unit cell:	Completed after 0 iterations at t[s]:   1783.05
ElecMinimize: 	Step increased Etot by 3.087479e-09, reducing alpha to 1.947922e-04.
ElecMinimize: 	Step failed to reduce Etot after 3 attempts. Quitting step.
ElecMinimize: 	Undoing step.
	Linear fluid (dielectric constant: 7.2) occupying 0.986957 of unit cell:	Completed after 0 iterations at t[s]:   1783.70
ElecMinimize: 	Step failed: resetting search direction.
ElecMinimize: Iter:  19  Etot: -157.141797859733998  |grad|_K:  7.673e-08  alpha:  1.948e-04
	Linear fluid (dielectric constant: 7.2) occupying 0.986957 of unit cell:	Completed after 0 iterations at t[s]:   1784.40
	Linear fluid (dielectric constant: 7.2) occupying 0.986957 of unit cell:	Completed after 0 iterations at t[s]:   1785.02
ElecMinimize: 	Step increased Etot by 2.206775e-09, reducing alpha to 3.326741e-02.
	Linear fluid (dielectric constant: 7.2) occupying 0.986957 of unit cell:	Completed after 0 iterations at t[s]:   1785.68
ElecMinimize: 	Step increased Etot by 8.499796e-10, reducing alpha to 3.326741e-03.
	Linear fluid (dielectric constant: 7.2) occupying 0.986957 of unit cell:	Completed after 0 iterations at t[s]:   1786.33
ElecMinimize: 	Step increased Etot by 7.653966e-10, reducing alpha to 3.326741e-04.
ElecMinimize: 	Step failed to reduce Etot after 3 attempts. Quitting step.
ElecMinimize: 	Undoing step.
	Linear fluid (dielectric constant: 7.2) occupying 0.986957 of unit cell:	Completed after 0 iterations at t[s]:   1786.98
ElecMinimize: 	Step failed along negative gradient direction.
ElecMinimize: Probably at roundoff error limit. (Stopping)
Setting wave functions to eigenvectors of Hamiltonian

# Ionic positions in cartesian coordinates:
ion S   3.916499225533711  12.052135443808297  23.211556223098679 1
ion S   7.572918860870297  11.474917441293975  24.031759242636433 1
ion S   8.591307510832365   7.872651705509065  23.407043355752140 1
ion S   6.616313837026151   7.590887509435481  29.429206754127801 1
ion S   7.514690365530497  11.264309892593912  29.095307268259639 1
ion S  11.152456857115752  11.899193720150343  29.948939759656039 1
ion Na   3.361798829585839   7.022268124241330  24.922547006468449 1
ion Na  11.867885709405400   7.035987858577593  27.822760248400826 1

# Forces in Cartesian coordinates:
force S   0.000093848891286   0.000190011524841   0.000115414222605 1
force S   0.000265694645988   0.000061020025086   0.000147776834908 1
force S  -0.000022961199807  -0.000161187188646   0.000102986186410 1
force S   0.000080614370103   0.000102617556278  -0.000119786347663 1
force S  -0.000417811244841   0.000061883648045   0.000225582691859 1
force S   0.000051517255658   0.000010339021442   0.000034146912593 1
force Na   0.000165170740893  -0.000155467803636   0.000439854157753 1
force Na  -0.000265168777474  -0.000154166118574   0.000042170788618 1

# Energy components:
   A_diel =       -0.0662207187730168
   Eewald =      140.0730885428347108
       EH =      269.7039413227334421
     Eloc =     -444.6766579245052071
      Enl =     -133.1725916299778021
      Exc =      -39.5963805253211589
 Exc_core =       10.6063794534426297
       KE =       39.9866436205966238
-------------------------------------
     Etot =     -157.1417978589698237

IonicMinimize: Iter:  26  Etot: -157.141797858969824  |grad|_K:  1.676e-04  alpha:  1.844e+00  linmin:  1.528e-02  t[s]:   1787.58

#--- Lowdin population analysis ---
# oxidation-state S -0.478 +0.372 -0.445 -0.444 +0.372 -0.477
# oxidation-state Na +0.815 +0.815


-------- Electronic minimization -----------
	Linear fluid (dielectric constant: 7.2) occupying 0.986957 of unit cell:	Completed after 1 iterations at t[s]:   1788.08
ElecMinimize: Iter:   0  Etot: -157.141796363263552  |grad|_K:  8.040e-07  alpha:  1.000e+00
	Linear fluid (dielectric constant: 7.2) occupying 0.986957 of unit cell:	Completed after 1 iterations at t[s]:   1788.84
	Linear fluid (dielectric constant: 7.2) occupying 0.986957 of unit cell:	Completed after 0 iterations at t[s]:   1789.46
ElecMinimize: Iter:   1  Etot: -157.141798108932988  |grad|_K:  2.973e-07  alpha:  9.111e-01  linmin:  3.182e-02  t[s]:   1789.74
	Linear fluid (dielectric constant: 7.2) occupying 0.986957 of unit cell:	Completed after 0 iterations at t[s]:   1790.15
	Linear fluid (dielectric constant: 7.2) occupying 0.986957 of unit cell:	Completed after 0 iterations at t[s]:   1790.74
ElecMinimize: Iter:   2  Etot: -157.141798303851914  |grad|_K:  1.798e-07  alpha:  7.682e-01  linmin: -2.537e-02  t[s]:   1791.02
	Linear fluid (dielectric constant: 7.2) occupying 0.986957 of unit cell:	Completed after 0 iterations at t[s]:   1791.44
	Linear fluid (dielectric constant: 7.2) occupying 0.986957 of unit cell:	Completed after 0 iterations at t[s]:   1792.03
ElecMinimize: Iter:   3  Etot: -157.141798362693748  |grad|_K:  1.118e-07  alpha:  6.373e-01  linmin: -1.024e-01  t[s]:   1792.31
	Linear fluid (dielectric constant: 7.2) occupying 0.986957 of unit cell:	Completed after 0 iterations at t[s]:   1792.73
	Linear fluid (dielectric constant: 7.2) occupying 0.986957 of unit cell:	Completed after 0 iterations at t[s]:   1793.32
ElecMinimize: Iter:   4  Etot: -157.141798391212802  |grad|_K:  7.896e-08  alpha:  6.803e-01  linmin: -1.572e-01  t[s]:   1793.60
	Linear fluid (dielectric constant: 7.2) occupying 0.986957 of unit cell:	Completed after 0 iterations at t[s]:   1793.98
	Linear fluid (dielectric constant: 7.2) occupying 0.986957 of unit cell:	Completed after 0 iterations at t[s]:   1794.54
ElecMinimize: Iter:   5  Etot: -157.141798418963276  |grad|_K:  6.709e-08  alpha:  1.224e+00  linmin:  3.538e-05  t[s]:   1794.82
	Linear fluid (dielectric constant: 7.2) occupying 0.986957 of unit cell:	Completed after 0 iterations at t[s]:   1795.24
	Linear fluid (dielectric constant: 7.2) occupying 0.986957 of unit cell:	Completed after 0 iterations at t[s]:   1795.83
ElecMinimize: Iter:   6  Etot: -157.141798420923720  |grad|_K:  9.380e-08  alpha:  4.403e-01  linmin:  1.066e-01  t[s]:   1796.11
	Linear fluid (dielectric constant: 7.2) occupying 0.986957 of unit cell:	Completed after 0 iterations at t[s]:   1796.52
	Linear fluid (dielectric constant: 7.2) occupying 0.986957 of unit cell:	Completed after 0 iterations at t[s]:   1797.11
ElecMinimize: 	Step increased Etot by 1.869779e-09, reducing alpha to 1.577118e-02.
	Linear fluid (dielectric constant: 7.2) occupying 0.986957 of unit cell:	Completed after 0 iterations at t[s]:   1797.77
ElecMinimize: 	Step increased Etot by 3.649092e-09, reducing alpha to 1.577118e-03.
	Linear fluid (dielectric constant: 7.2) occupying 0.986957 of unit cell:	Completed after 0 iterations at t[s]:   1798.42
ElecMinimize: 	Step increased Etot by 3.968097e-09, reducing alpha to 1.577118e-04.
ElecMinimize: 	Step failed to reduce Etot after 3 attempts. Quitting step.
ElecMinimize: 	Undoing step.
	Linear fluid (dielectric constant: 7.2) occupying 0.986957 of unit cell:	Completed after 0 iterations at t[s]:   1799.07
ElecMinimize: 	Step failed: resetting search direction.
ElecMinimize: Iter:   7  Etot: -157.141798416952156  |grad|_K:  6.561e-08  alpha:  1.577e-04
	Linear fluid (dielectric constant: 7.2) occupying 0.986957 of unit cell:	Completed after 0 iterations at t[s]:   1799.72
ElecMinimize: 	Predicted alpha/alphaT>3.000000, increasing alphaT to 1.320797e+00.
	Linear fluid (dielectric constant: 7.2) occupying 0.986957 of unit cell:	Completed after 0 iterations at t[s]:   1800.28
	Linear fluid (dielectric constant: 7.2) occupying 0.986957 of unit cell:	Completed after 0 iterations at t[s]:   1800.85
ElecMinimize: Iter:   8  Etot: -157.141798433933502  |grad|_K:  5.653e-08  alpha:  1.332e+00  linmin: -2.970e-05  t[s]:   1801.12
	Linear fluid (dielectric constant: 7.2) occupying 0.986957 of unit cell:	Completed after 0 iterations at t[s]:   1801.54
	Linear fluid (dielectric constant: 7.2) occupying 0.986957 of unit cell:	Completed after 0 iterations at t[s]:   1802.16
ElecMinimize: 	Step increased Etot by 1.552218e-08, reducing alpha to 2.491401e-02.
	Linear fluid (dielectric constant: 7.2) occupying 0.986957 of unit cell:	Completed after 0 iterations at t[s]:   1802.82
ElecMinimize: 	Step increased Etot by 1.147345e-08, reducing alpha to 2.491401e-03.
	Linear fluid (dielectric constant: 7.2) occupying 0.986957 of unit cell:	Completed after 0 iterations at t[s]:   1803.47
ElecMinimize: 	Step increased Etot by 1.108205e-08, reducing alpha to 2.491401e-04.
ElecMinimize: 	Step failed to reduce Etot after 3 attempts. Quitting step.
ElecMinimize: 	Undoing step.
	Linear fluid (dielectric constant: 7.2) occupying 0.986957 of unit cell:	Completed after 0 iterations at t[s]:   1804.12
ElecMinimize: 	Step failed: resetting search direction.
ElecMinimize: Iter:   9  Etot: -157.141798422855800  |grad|_K:  9.096e-08  alpha:  2.491e-04
	Linear fluid (dielectric constant: 7.2) occupying 0.986957 of unit cell:	Completed after 0 iterations at t[s]:   1804.81
	Linear fluid (dielectric constant: 7.2) occupying 0.986957 of unit cell:	Completed after 0 iterations at t[s]:   1805.44
ElecMinimize: Iter:  10  Etot: -157.141798427051782  |grad|_K:  5.479e-08  alpha:  5.009e-01  linmin:  3.415e-01  t[s]:   1805.72
	Linear fluid (dielectric constant: 7.2) occupying 0.986957 of unit cell:	Completed after 0 iterations at t[s]:   1806.10
	Linear fluid (dielectric constant: 7.2) occupying 0.986957 of unit cell:	Completed after 0 iterations at t[s]:   1806.70
ElecMinimize: 	Step increased Etot by 4.329280e-09, reducing alpha to 1.191789e-01.
	Linear fluid (dielectric constant: 7.2) occupying 0.986957 of unit cell:	Completed after 0 iterations at t[s]:   1807.35
ElecMinimize: Iter:  11  Etot: -157.141798432933768  |grad|_K:  4.067e-08  alpha:  1.192e-01  linmin:  2.655e-01  t[s]:   1807.62
ElecMinimize: Converged (|Delta Etot|<1.000000e-08 for 2 iters).
Setting wave functions to eigenvectors of Hamiltonian

-------- Electronic minimization -----------
	Linear fluid (dielectric constant: 7.2) occupying 0.986957 of unit cell:	Completed after 1 iterations at t[s]:   1808.13
ElecMinimize: Iter:   0  Etot: -157.141798421515631  |grad|_K:  5.056e-08  alpha:  1.000e+00
	Linear fluid (dielectric constant: 7.2) occupying 0.986957 of unit cell:	Completed after 0 iterations at t[s]:   1808.85
	Linear fluid (dielectric constant: 7.2) occupying 0.986957 of unit cell:	Completed after 0 iterations at t[s]:   1809.44
ElecMinimize: Iter:   1  Etot: -157.141798425566691  |grad|_K:  4.212e-08  alpha:  5.157e-01  linmin:  3.748e-01  t[s]:   1809.72
	Linear fluid (dielectric constant: 7.2) occupying 0.986957 of unit cell:	Completed after 0 iterations at t[s]:   1810.10
	Linear fluid (dielectric constant: 7.2) occupying 0.986957 of unit cell:	Completed after 0 iterations at t[s]:   1810.66
ElecMinimize: Iter:   2  Etot: -157.141798428266867  |grad|_K:  3.349e-08  alpha:  8.512e-01  linmin:  1.838e-04  t[s]:   1810.94
ElecMinimize: Converged (|Delta Etot|<1.000000e-08 for 2 iters).
Setting wave functions to eigenvectors of Hamiltonian

# Ionic positions in cartesian coordinates:
ion S   3.916859075710596  12.052907503220139  23.211998628118664 1
ion S   7.574129622033057  11.475715964953460  24.032540077063711 1
ion S   8.592180915806821   7.872769353991178  23.407575224486937 1
ion S   6.616318236371660   7.589886376027255  29.427338943560894 1
ion S   7.512921946577588  11.263485020494338  29.096100112741777 1
ion S  11.152063728228601  11.898748349359169  29.950186565137592 1
ion Na   3.361958009964840   7.023481949147886  24.921134587880466 1
ion Na  11.867439661206848   7.035357178416573  27.822245719409967 1

# Forces in Cartesian coordinates:
force S   0.000219460136010   0.000177208651073   0.000121699207654 1
force S   0.000109673697250  -0.000032749568821   0.000094903690014 1
force S  -0.000060539869146  -0.000043569013094   0.000113552354997 1
force S   0.000042157002332   0.000096534632732  -0.000085529754099 1
force S  -0.000113515764826   0.000114614687892   0.000230597690943 1
force S  -0.000162894828650  -0.000025518732903  -0.000013924603019 1
force Na   0.000149382264547  -0.000198067985810   0.000483925605531 1
force Na  -0.000247501857103  -0.000141588512303   0.000066335674000 1

# Energy components:
   A_diel =       -0.0662189598539731
   Eewald =      140.0755594995978299
       EH =      269.7064567319559387
     Eloc =     -444.6808059330828655
      Enl =     -133.1726971494777843
      Exc =      -39.5959593229041928
 Exc_core =       10.6063794113030845
       KE =       39.9854872941950887
-------------------------------------
     Etot =     -157.1417984282668669

IonicMinimize: Iter:  27  Etot: -157.141798428266867  |grad|_K:  1.461e-04  alpha:  1.790e+00  linmin: -3.600e-02  t[s]:   1811.25
IonicMinimize: Converged (|Delta Etot|<1.000000e-06 for 2 iters).

#--- Lowdin population analysis ---
# oxidation-state S -0.478 +0.371 -0.444 -0.443 +0.372 -0.478
# oxidation-state Na +0.815 +0.815


Dumping 'Na2S6-glyme.wfns' ... done
Dumping 'Na2S6-glyme.fluidState' ... done
Dumping 'Na2S6-glyme.ionpos' ... done
End date and time: Mon Dec 23 14:14:28 2024  (Duration: 0-0:30:12.01)
Done!
