CRYSTAL
PRIMVEC
 14.820031   0.000000   0.000000
 -7.410015  12.834505   0.000000
  0.000000   0.000000  20.000041
PRIMCOORD
4 1
16   4.957112   6.556573  14.477439
16   3.134989   5.338028  14.467311
11   5.280977   4.120107  13.434318
11   2.789220   7.838758  13.588129
