
*************** JDFTx 1.7.0  ***************

Start date and time: Mon Aug 19 08:51:47 2024
Executable jdftx with command-line: -i Na2S4-glyme-vdw.in -o Na2S4-glyme-vdw.out
Running on hosts (process indices):  DESKTOP-H9SOOLG (0)
Divided in process groups (process indices):  0 (0)
Resource initialization completed at t[s]:      0.00
Run totals: 1 processes, 4 threads, 0 GPUs


Input parsed successfully to the following command list (including defaults):

basis kpoint-dependent
coords-type Cartesian
core-overlap-check vector
coulomb-interaction Isolated
coulomb-truncation-embed 4.96043 13.9816 25.2655
davidson-band-ratio 1.1
dump End State
dump-name Na2S4-glyme-vdw.$VAR
elec-cutoff 20 100
elec-eigen-algo Davidson
elec-ex-corr gga-PBE
electronic-minimize  \
	dirUpdateScheme      FletcherReeves \
	linminMethod         DirUpdateRecommended \
	nIterations          100 \
	history              15 \
	knormThreshold       0 \
	energyDiffThreshold  1e-08 \
	nEnergyDiff          2 \
	alphaTstart          1 \
	alphaTmin            1e-10 \
	updateTestStepSize   yes \
	alphaTreduceFactor   0.1 \
	alphaTincreaseFactor 3 \
	nAlphaAdjustMax      3 \
	wolfeEnergy          0.0001 \
	wolfeGradient        0.9 \
	fdTest               no
electronic-scf  \
	nIterations	50 \
	energyDiffThreshold	1e-08 \
	residualThreshold	1e-07 \
	mixFraction	0.5 \
	qMetric	0.8 \
	history	10 \
	nEigSteps	2 \
	eigDiffThreshold	1e-08 \
	mixedVariable	Density \
	qKerker	0.8 \
	qKappa	-1 \
	verbose	no \
	mixFractionMag	1.5
exchange-regularization None
fluid LinearPCM 298.000000 1.013250
fluid-ex-corr lda-TF lda-PZ
fluid-gummel-loop 10 1.000000e-05
fluid-minimize  \
	dirUpdateScheme      PolakRibiere \
	linminMethod         DirUpdateRecommended \
	nIterations          400 \
	history              15 \
	knormThreshold       1e-11 \
	energyDiffThreshold  0 \
	nEnergyDiff          2 \
	alphaTstart          1 \
	alphaTmin            1e-10 \
	updateTestStepSize   yes \
	alphaTreduceFactor   0.1 \
	alphaTincreaseFactor 3 \
	nAlphaAdjustMax      6 \
	wolfeEnergy          0.0001 \
	wolfeGradient        0.9 \
	fdTest               no
fluid-solvent Glyme 9.62137 ScalarEOS \
	epsBulk 7.2 \
	pMol 0 \
	epsInf 1.9 \
	Pvap 0 \
	sigmaBulk 0 \
	Rvdw 0 \
	Res 0 \
	tauNuc 343133
forces-output-coords Positions
ion S   4.960431645660000  13.981560468840000  25.265472781050001 1
ion S   7.075808635770003  13.274826015330000  28.544133544019999 1
ion S   8.239466575169999   9.479152131930000  28.544855420880001 1
ion S  10.355264975069996   8.766735260310000  25.266360954149999 1
ion Na   5.293454984100000   8.983135801530000  24.325194155759998 1
ion Na  10.011364350749997  13.762072108800000  24.311516290019998 1
ion-species GBRV/$ID_pbe.uspp
ion-width Ecut
ionic-minimize  \
	dirUpdateScheme      FletcherReeves \
	linminMethod         DirUpdateRecommended \
	nIterations          200 \
	history              15 \
	knormThreshold       0.0001 \
	energyDiffThreshold  1e-06 \
	nEnergyDiff          2 \
	alphaTstart          1 \
	alphaTmin            1e-10 \
	updateTestStepSize   yes \
	alphaTreduceFactor   0.1 \
	alphaTincreaseFactor 3 \
	nAlphaAdjustMax      3 \
	wolfeEnergy          0.0001 \
	wolfeGradient        0.9 \
	fdTest               no
kpoint   0.000000000000   0.000000000000   0.000000000000  1.00000000000000
kpoint-folding 1 1 1 
latt-move-scale 1 1 1
latt-scale 1 1 1 
lattice Triclinic 28.0058 28.0058 37.7946 90 90 120
lattice-minimize  \
	dirUpdateScheme      L-BFGS \
	linminMethod         DirUpdateRecommended \
	nIterations          0 \
	history              15 \
	knormThreshold       0 \
	energyDiffThreshold  1e-06 \
	nEnergyDiff          2 \
	alphaTstart          1 \
	alphaTmin            1e-10 \
	updateTestStepSize   yes \
	alphaTreduceFactor   0.1 \
	alphaTincreaseFactor 3 \
	nAlphaAdjustMax      3 \
	wolfeEnergy          0.0001 \
	wolfeGradient        0.9 \
	fdTest               no
lcao-params -1 1e-06 0.001
pcm-variant GLSSA13
spintype no-spin
subspace-rotation-factor 1 yes
symmetries automatic
symmetry-threshold 0.0001
van-der-waals D3



---------- Setting up symmetries ----------

Found 24 point-group symmetries of the bravais lattice
Found 1 space-group symmetries with basis
Applied RMS atom displacement 0 bohrs to make symmetries exact.

---------- Initializing the Grid ----------
R = 
[      28.0058     -14.0029            0  ]
[            0      24.2537            0  ]
[            0            0      37.7946  ]
unit cell volume = 25671.8
G =
[   0.224353    0.12953         -0  ]
[          0   0.259061          0  ]
[          0         -0   0.166246  ]
Minimum fftbox size, Smin = [  128  128  172  ]
Chosen fftbox size, S = [  128  128  180  ]

---------- Initializing tighter grid for wavefunction operations ----------
R = 
[      28.0058     -14.0029            0  ]
[            0      24.2537            0  ]
[            0            0      37.7946  ]
unit cell volume = 25671.8
G =
[   0.224353    0.12953         -0  ]
[          0   0.259061          0  ]
[          0         -0   0.166246  ]
Minimum fftbox size, Smin = [  116  116  156  ]
Chosen fftbox size, S = [  120  120  160  ]

---------- Exchange Correlation functional ----------
Initalized PBE GGA exchange.
Initalized PBE GGA correlation.

---------- Setting up pseudopotentials ----------
Width of ionic core gaussian charges (only for fluid interactions / plotting) set to 0.397384

Reading pseudopotential file '/home/danielkim/jdftx_install/build/pseudopotentials/GBRV/s_pbe.uspp':
  Title: S.  Created by USPP 7.3.6 on 1-4-15
  Reference state energy: -11.898476.  6 valence electrons in orbitals:
    |300>  occupation: 2  eigenvalue: -0.634167
    |310>  occupation: 4  eigenvalue: -0.257568
  lMax: 2  lLocal: 3  QijEcut: 6
  6 projectors sampled on a log grid with 635 points:
    l: 0  eig: -0.634161  rCut: 1.5
    l: 0  eig: 1.500000  rCut: 1.5
    l: 1  eig: -0.257567  rCut: 1.5
    l: 1  eig: 1.500000  rCut: 1.5
    l: 2  eig: -1.000000  rCut: 1.5
    l: 2  eig: 1.500000  rCut: 1.5
  Partial core density with radius 1.15
  Transforming core density to a uniform radial grid of dG=0.02 with 1625 points.
  Transforming local potential to a uniform radial grid of dG=0.02 with 1625 points.
  Transforming nonlocal projectors to a uniform radial grid of dG=0.02 with 432 points.
  Transforming density augmentations to a uniform radial grid of dG=0.02 with 1625 points.
  Transforming atomic orbitals to a uniform radial grid of dG=0.02 with 432 points.
  Core radius for overlap checks: 1.50 bohrs.

Reading pseudopotential file '/home/danielkim/jdftx_install/build/pseudopotentials/GBRV/na_pbe.uspp':
  Title: Na.  Created by USPP 7.3.6 on 23-9-15
  Reference state energy: -47.625620.  9 valence electrons in orbitals:
    |200>  occupation: 2  eigenvalue: -2.085638
    |210>  occupation: 6  eigenvalue: -1.053708
    |300>  occupation: 1  eigenvalue: -0.100838
  lMax: 2  lLocal: 0  QijEcut: 6
  5 projectors sampled on a log grid with 657 points:
    l: 0  eig: -2.085640  rCut: 1.37
    l: 0  eig: -0.100839  rCut: 1.37
    l: 1  eig: -1.053708  rCut: 1.47
    l: 1  eig: 0.500000  rCut: 1.47
    l: 2  eig: 0.750000  rCut: 2
  Transforming local potential to a uniform radial grid of dG=0.02 with 1625 points.
  Transforming nonlocal projectors to a uniform radial grid of dG=0.02 with 432 points.
  Transforming density augmentations to a uniform radial grid of dG=0.02 with 1625 points.
  Transforming atomic orbitals to a uniform radial grid of dG=0.02 with 432 points.
  Core radius for overlap checks: 2.00 bohrs.

Initialized 2 species with 6 total atoms.

Folded 1 k-points by 1x1x1 to 1 k-points.

---------- Setting up k-points, bands, fillings ----------
No reducable k-points. 
Computing the number of bands and number of electrons
Calculating initial fillings.
nElectrons:  42.000000   nBands: 21   nStates: 1

----- Setting up reduced wavefunction bases (one per k-point) -----
average nbasis = 109673.000 , ideal nbasis = 109671.883

---------- Setting up coulomb interaction ----------
Fluid mode embedding: using embedded box, but periodic Coulomb kernel.
(Fluid response is responsible for (approximate) separation between periodic images.)
Setting up double-sized grid for truncated Coulomb potentials:
R = 
[      56.0116     -28.0058            0  ]
[            0      48.5075            0  ]
[            0            0      75.5892  ]
unit cell volume = 205374
G =
[   0.112177  0.0647651         -0  ]
[          0    0.12953          0  ]
[          0         -0  0.0831228  ]
Chosen fftbox size, S = [  256  256  360  ]
Integer grid location selected as the embedding center:
   Grid: [  60  74  120  ]
   Lattice: [  0.465357  0.57647  0.668494  ]
   Cartesian: [  4.96043  13.9816  25.2655  ]
Constructing Wigner-Seitz cell: 8 faces (6 quadrilaterals, 2 hexagons)
Range-separation parameter for embedded mesh potentials due to point charges: 0.590105 bohrs.

Initializing DFT-D3 calculator:
	Parameters set for gga-PBE functional
	s6:  1.000  s_r6:  1.217
	s8:  0.722  s_r8:  1.000
	Per-atom parameters loaded for:
	 S:  sqrtQ[a0]:  4.041  Rcov[a0]:  1.928  CN: [ 0.00 0.99 1.99 ]
	Na:  sqrtQ[a0]:  6.586  Rcov[a0]:  2.646  CN: [ 0.00 0.97 ]

---------- Setting up ewald sum ----------
Optimum gaussian width for ewald sums = 17.460913 bohr.
Real space sum over 1089 unit cells with max indices [  5  5  4  ]
Reciprocal space sum over 2873 terms with max indices [  6  6  8  ]

Computing DFT-D3 correction:
# coordination-number S 2.944 3.352 3.353 2.942
# coordination-number Na 3.934 3.934
# diagonal-C6 S 125.81 125.81 125.81 125.81
# diagonal-C6 Na 186.11 186.11
EvdW_6 =   -0.000279
EvdW_8 =   -0.003951

---------- Allocating electronic variables ----------
Initializing wave functions:  linear combination of atomic orbitals
S pseudo-atom occupations:   s ( 2 )  p ( 4 )
Na pseudo-atom occupations:   s ( 2 1 )  p ( 6 )
	FillingsUpdate:  mu: -0.088614534  nElectrons: 42.000000
LCAOMinimize: Iter:   0  Etot: -136.2295793878387258  |grad|_K:  1.848e-02  alpha:  1.000e+00
	FillingsUpdate:  mu: -0.093245074  nElectrons: 42.000000
LCAOMinimize: Iter:   1  Etot: -136.2672942131539173  |grad|_K:  1.041e-02  alpha:  1.874e-01  linmin: -3.574e-01  cgtest:  8.732e-01  t[s]:     37.45
LCAOMinimize: Encountered beta<0, resetting CG.
	FillingsUpdate:  mu: -0.095759784  nElectrons: 42.000000
LCAOMinimize: Iter:   2  Etot: -136.2829472534884019  |grad|_K:  8.187e-03  alpha:  5.527e-01  linmin:  1.878e-01  cgtest: -5.672e-01  t[s]:     48.09
	FillingsUpdate:  mu: -0.095843439  nElectrons: 42.000000
LCAOMinimize: Iter:   3  Etot: -136.2829539002398178  |grad|_K:  8.228e-03  alpha:  5.181e-03  linmin: -2.682e-03  cgtest:  9.991e-01  t[s]:     58.56
LCAOMinimize: None of the convergence criteria satisfied after 3 iterations.
----- createFluidSolver() ----- (Fluid-side solver setup)
   Initializing fluid molecule 'Glyme'
     Net charge: 0   dipole magnitude: 0
     Initializing spherical shell mfKernel with radius 0 Bohr
     deltaS corrections:

Correction to mu due to finite nuclear width = -0.00020291
   Cavity determined by nc: 8.36e-05 and sigma: 0.6
   Effective cavity tension: -8.03e-06 Eh/bohr^2 to account for cavitation and dispersion.


---- Citations for features of the code used in this run ----

   Software package:
      R. Sundararaman, K. Letchworth-Weaver, K.A. Schwarz, D. Gunceler, Y. Ozhabes and T.A. Arias, 'JDFTx: software for joint density-functional theory', SoftwareX 6, 278 (2017)

   gga-PBE exchange-correlation functional:
      J.P. Perdew, K. Burke and M. Ernzerhof, Phys. Rev. Lett. 77, 3865 (1996)

   Pseudopotentials:
      KF Garrity, JW Bennett, KM Rabe and D Vanderbilt, Comput. Mater. Sci. 81, 446 (2014)

   Truncated Coulomb potentials:
      R. Sundararaman and T.A. Arias, Phys. Rev. B 87, 165122 (2013)

   DFT-D3 dispersion correction:
      S. Grimme, J. Antony, S. Ehrlich and H. Krieg, J. Chem. Phys. 132, 154104 (2010)

   Linear/nonlinear dielectric/ionic fluid model with effective cavity tension:
      D. Gunceler, K. Letchworth-Weaver, R. Sundararaman, K.A. Schwarz and T.A. Arias, Modelling Simul. Mater. Sci. Eng. 21, 074005 (2013)

This list may not be complete. Please suggest additional citations or
report any other bugs at https://github.com/shankar1729/jdftx/issues

Initialization completed successfully at t[s]:     59.37


Computing DFT-D3 correction:
# coordination-number S 2.944 3.352 3.353 2.942
# coordination-number Na 3.934 3.934
# diagonal-C6 S 125.81 125.81 125.81 125.81
# diagonal-C6 Na 186.11 186.11
EvdW_6 =   -0.000279
EvdW_8 =   -0.003951
Fluid solver invoked on fresh (random / LCAO) wavefunctions
Running a vacuum solve first:

-------- Initial electronic minimization -----------
Will mix electronic density at each iteration.
SCF: Cycle:  0   Etot: -136.429449894928183   dEtot: -1.465e-01   |Residual|: 2.157e-01   |deigs|: 1.094e-02  t[s]:     76.13
SCF: Cycle:  1   Etot: -136.491800169891604   dEtot: -6.235e-02   |Residual|: 1.162e-01   |deigs|: 1.128e-02  t[s]:     88.57
SCF: Cycle:  2   Etot: -136.531447939218992   dEtot: -3.965e-02   |Residual|: 3.798e-02   |deigs|: 1.318e-02  t[s]:    101.09
SCF: Cycle:  3   Etot: -136.532448541746305   dEtot: -1.001e-03   |Residual|: 2.092e-02   |deigs|: 1.748e-03  t[s]:    113.17
SCF: Cycle:  4   Etot: -136.533304857909059   dEtot: -8.563e-04   |Residual|: 1.727e-02   |deigs|: 6.259e-03  t[s]:    125.00
SCF: Cycle:  5   Etot: -136.533847710843531   dEtot: -5.429e-04   |Residual|: 1.214e-02   |deigs|: 7.555e-04  t[s]:    137.08
SCF: Cycle:  6   Etot: -136.534220895626618   dEtot: -3.732e-04   |Residual|: 1.042e-02   |deigs|: 3.935e-03  t[s]:    149.05
SCF: Cycle:  7   Etot: -136.534347175847017   dEtot: -1.263e-04   |Residual|: 8.701e-03   |deigs|: 1.720e-03  t[s]:    160.75
SCF: Cycle:  8   Etot: -136.534620360914289   dEtot: -2.732e-04   |Residual|: 3.868e-03   |deigs|: 1.414e-03  t[s]:    172.63
SCF: Cycle:  9   Etot: -136.534653549573534   dEtot: -3.319e-05   |Residual|: 2.697e-03   |deigs|: 9.184e-04  t[s]:    183.99
SCF: Cycle: 10   Etot: -136.534608819094359   dEtot: +4.473e-05   |Residual|: 3.784e-03   |deigs|: 6.476e-04  t[s]:    196.03
SCF: Cycle: 11   Etot: -136.534661976293364   dEtot: -5.316e-05   |Residual|: 2.191e-03   |deigs|: 6.538e-04  t[s]:    207.32
SCF: Cycle: 12   Etot: -136.534676256938553   dEtot: -1.428e-05   |Residual|: 1.928e-03   |deigs|: 3.366e-04  t[s]:    217.23
SCF: Cycle: 13   Etot: -136.534679036793904   dEtot: -2.780e-06   |Residual|: 2.349e-03   |deigs|: 4.555e-04  t[s]:    227.37
SCF: Cycle: 14   Etot: -136.534692818227541   dEtot: -1.378e-05   |Residual|: 1.363e-03   |deigs|: 2.399e-04  t[s]:    238.68
SCF: Cycle: 15   Etot: -136.534685102620557   dEtot: +7.716e-06   |Residual|: 2.300e-03   |deigs|: 2.368e-04  t[s]:    248.56
SCF: Cycle: 16   Etot: -136.534694234570878   dEtot: -9.132e-06   |Residual|: 9.126e-04   |deigs|: 1.624e-04  t[s]:    258.77
SCF: Cycle: 17   Etot: -136.534695306761819   dEtot: -1.072e-06   |Residual|: 7.653e-04   |deigs|: 1.795e-04  t[s]:    268.77
SCF: Cycle: 18   Etot: -136.534696743628615   dEtot: -1.437e-06   |Residual|: 4.316e-04   |deigs|: 6.390e-05  t[s]:    278.72
SCF: Cycle: 19   Etot: -136.534696621263322   dEtot: +1.224e-07   |Residual|: 6.242e-04   |deigs|: 7.297e-05  t[s]:    288.72
SCF: Cycle: 20   Etot: -136.534697446952407   dEtot: -8.257e-07   |Residual|: 2.081e-04   |deigs|: 7.223e-05  t[s]:    300.84
SCF: Cycle: 21   Etot: -136.534697668670901   dEtot: -2.217e-07   |Residual|: 1.131e-04   |deigs|: 3.884e-05  t[s]:    310.74
SCF: Cycle: 22   Etot: -136.534697821947248   dEtot: -1.533e-07   |Residual|: 1.015e-04   |deigs|: 1.474e-05  t[s]:    320.74
SCF: Cycle: 23   Etot: -136.534697913719924   dEtot: -9.177e-08   |Residual|: 7.850e-05   |deigs|: 2.368e-05  t[s]:    330.77
SCF: Cycle: 24   Etot: -136.534697967491070   dEtot: -5.377e-08   |Residual|: 4.644e-05   |deigs|: 3.550e-05  t[s]:    340.77
SCF: Cycle: 25   Etot: -136.534698021790405   dEtot: -5.430e-08   |Residual|: 3.704e-05   |deigs|: 1.885e-05  t[s]:    352.96
SCF: Cycle: 26   Etot: -136.534698045980292   dEtot: -2.419e-08   |Residual|: 3.107e-05   |deigs|: 2.607e-05  t[s]:    363.00
SCF: Cycle: 27   Etot: -136.534698067057917   dEtot: -2.108e-08   |Residual|: 1.863e-05   |deigs|: 8.501e-06  t[s]:    375.22
SCF: Cycle: 28   Etot: -136.534698075693854   dEtot: -8.636e-09   |Residual|: 1.483e-05   |deigs|: 5.103e-06  t[s]:    385.21
SCF: Cycle: 29   Etot: -136.534698085263386   dEtot: -9.570e-09   |Residual|: 9.855e-06   |deigs|: 1.431e-06  t[s]:    397.39
SCF: Converged (|Delta E|<1.000000e-08 for 2 iters).

Setting wave functions to eigenvectors of Hamiltonian
Vacuum energy after initial minimize, Etot = -136.534698085263386


-------- Electronic minimization -----------
Will mix electronic density at each iteration.
	Linear fluid (dielectric constant: 7.2) occupying 0.989653 of unit cell:	Completed after 9 iterations at t[s]:    429.99
	Linear fluid (dielectric constant: 7.2) occupying 0.989913 of unit cell:	Completed after 7 iterations at t[s]:    459.64
SCF: Cycle:  0   Etot: -136.571155863551667   dEtot: -7.876e-03   |Residual|: 1.391e-02   |deigs|: 2.741e-04  t[s]:    462.13
	Linear fluid (dielectric constant: 7.2) occupying 0.989668 of unit cell:	Completed after 7 iterations at t[s]:    477.08
	Linear fluid (dielectric constant: 7.2) occupying 0.989997 of unit cell:	Completed after 7 iterations at t[s]:    505.66
SCF: Cycle:  1   Etot: -136.572060883562244   dEtot: -9.050e-04   |Residual|: 1.060e-02   |deigs|: 1.100e-03  t[s]:    508.15
	Linear fluid (dielectric constant: 7.2) occupying 0.989603 of unit cell:	Completed after 7 iterations at t[s]:    522.90
	Linear fluid (dielectric constant: 7.2) occupying 0.990061 of unit cell:	Completed after 7 iterations at t[s]:    551.43
SCF: Cycle:  2   Etot: -136.572829849709876   dEtot: -7.690e-04   |Residual|: 6.106e-03   |deigs|: 2.822e-03  t[s]:    554.01
	Linear fluid (dielectric constant: 7.2) occupying 0.989664 of unit cell:	Completed after 6 iterations at t[s]:    567.79
	Linear fluid (dielectric constant: 7.2) occupying 0.990077 of unit cell:	Completed after 7 iterations at t[s]:    595.84
SCF: Cycle:  3   Etot: -136.573044053190870   dEtot: -2.142e-04   |Residual|: 4.302e-03   |deigs|: 1.391e-03  t[s]:    598.32
	Linear fluid (dielectric constant: 7.2) occupying 0.989767 of unit cell:	Completed after 6 iterations at t[s]:    611.84
	Linear fluid (dielectric constant: 7.2) occupying 0.990130 of unit cell:	Completed after 7 iterations at t[s]:    640.61
SCF: Cycle:  4   Etot: -136.573925688816473   dEtot: -8.816e-04   |Residual|: 5.121e-03   |deigs|: 4.212e-03  t[s]:    643.09
	Linear fluid (dielectric constant: 7.2) occupying 0.989784 of unit cell:	Completed after 6 iterations at t[s]:    656.71
	Linear fluid (dielectric constant: 7.2) occupying 0.990140 of unit cell:	Completed after 7 iterations at t[s]:    685.63
SCF: Cycle:  5   Etot: -136.574091585666849   dEtot: -1.659e-04   |Residual|: 4.276e-03   |deigs|: 7.165e-04  t[s]:    688.36
	Linear fluid (dielectric constant: 7.2) occupying 0.989848 of unit cell:	Completed after 6 iterations at t[s]:    702.21
	Linear fluid (dielectric constant: 7.2) occupying 0.990146 of unit cell:	Completed after 7 iterations at t[s]:    731.14
SCF: Cycle:  6   Etot: -136.574263184444675   dEtot: -1.716e-04   |Residual|: 3.033e-03   |deigs|: 1.295e-03  t[s]:    733.64
	Linear fluid (dielectric constant: 7.2) occupying 0.990103 of unit cell:	Completed after 6 iterations at t[s]:    747.22
	Linear fluid (dielectric constant: 7.2) occupying 0.990130 of unit cell:	Completed after 5 iterations at t[s]:    773.48
SCF: Cycle:  7   Etot: -136.574606593073497   dEtot: -3.434e-04   |Residual|: 1.650e-03   |deigs|: 4.741e-03  t[s]:    775.98
	Linear fluid (dielectric constant: 7.2) occupying 0.990114 of unit cell:	Completed after 5 iterations at t[s]:    788.23
	Linear fluid (dielectric constant: 7.2) occupying 0.990119 of unit cell:	Completed after 6 iterations at t[s]:    814.52
SCF: Cycle:  8   Etot: -136.574630004575937   dEtot: -2.341e-05   |Residual|: 3.049e-03   |deigs|: 3.841e-04  t[s]:    816.96
	Linear fluid (dielectric constant: 7.2) occupying 0.990041 of unit cell:	Completed after 5 iterations at t[s]:    829.31
	Linear fluid (dielectric constant: 7.2) occupying 0.990111 of unit cell:	Completed after 6 iterations at t[s]:    855.60
SCF: Cycle:  9   Etot: -136.574651973807931   dEtot: -2.197e-05   |Residual|: 3.157e-03   |deigs|: 7.128e-04  t[s]:    858.18
	Linear fluid (dielectric constant: 7.2) occupying 0.989985 of unit cell:	Completed after 5 iterations at t[s]:    870.64
	Linear fluid (dielectric constant: 7.2) occupying 0.990082 of unit cell:	Completed after 4 iterations at t[s]:    895.45
SCF: Cycle: 10   Etot: -136.574683642085859   dEtot: -3.167e-05   |Residual|: 1.657e-03   |deigs|: 1.085e-03  t[s]:    897.92
	Linear fluid (dielectric constant: 7.2) occupying 0.989936 of unit cell:	Completed after 4 iterations at t[s]:    908.75
	Linear fluid (dielectric constant: 7.2) occupying 0.990079 of unit cell:	Completed after 3 iterations at t[s]:    929.47
SCF: Cycle: 11   Etot: -136.574685247202950   dEtot: -1.605e-06   |Residual|: 1.990e-03   |deigs|: 8.182e-04  t[s]:    931.99
	Linear fluid (dielectric constant: 7.2) occupying 0.989950 of unit cell:	Completed after 4 iterations at t[s]:    942.96
	Linear fluid (dielectric constant: 7.2) occupying 0.990068 of unit cell:	Completed after 5 iterations at t[s]:    968.82
SCF: Cycle: 12   Etot: -136.574712731965889   dEtot: -2.748e-05   |Residual|: 1.323e-03   |deigs|: 4.894e-04  t[s]:    971.25
	Linear fluid (dielectric constant: 7.2) occupying 0.989975 of unit cell:	Completed after 5 iterations at t[s]:    983.60
	Linear fluid (dielectric constant: 7.2) occupying 0.990035 of unit cell:	Completed after 5 iterations at t[s]:   1008.60
SCF: Cycle: 13   Etot: -136.574752828233670   dEtot: -4.010e-05   |Residual|: 7.055e-04   |deigs|: 1.286e-04  t[s]:   1011.11
	Linear fluid (dielectric constant: 7.2) occupying 0.989987 of unit cell:	Completed after 5 iterations at t[s]:   1023.38
	Linear fluid (dielectric constant: 7.2) occupying 0.990037 of unit cell:	Completed after 5 iterations at t[s]:   1048.53
SCF: Cycle: 14   Etot: -136.574804876890994   dEtot: -5.205e-05   |Residual|: 7.281e-04   |deigs|: 2.091e-04  t[s]:   1050.99
	Linear fluid (dielectric constant: 7.2) occupying 0.990037 of unit cell:	Completed after 4 iterations at t[s]:   1061.97
	Linear fluid (dielectric constant: 7.2) occupying 0.990052 of unit cell:	Completed after 5 iterations at t[s]:   1086.83
SCF: Cycle: 15   Etot: -136.574762596625106   dEtot: +4.228e-05   |Residual|: 6.894e-04   |deigs|: 2.509e-04  t[s]:   1089.37
	Linear fluid (dielectric constant: 7.2) occupying 0.990052 of unit cell:	Completed after 4 iterations at t[s]:   1100.44
	Linear fluid (dielectric constant: 7.2) occupying 0.990026 of unit cell:	Completed after 4 iterations at t[s]:   1123.90
SCF: Cycle: 16   Etot: -136.574854773787479   dEtot: -9.218e-05   |Residual|: 5.014e-04   |deigs|: 1.978e-04  t[s]:   1126.42
	Linear fluid (dielectric constant: 7.2) occupying 0.990053 of unit cell:	Completed after 4 iterations at t[s]:   1137.52
	Linear fluid (dielectric constant: 7.2) occupying 0.989965 of unit cell:	Completed after 4 iterations at t[s]:   1161.18
SCF: Cycle: 17   Etot: -136.574772971676026   dEtot: +8.180e-05   |Residual|: 7.470e-04   |deigs|: 7.078e-04  t[s]:   1163.80
	Linear fluid (dielectric constant: 7.2) occupying 0.990035 of unit cell:	Completed after 3 iterations at t[s]:   1173.26
	Linear fluid (dielectric constant: 7.2) occupying 0.990038 of unit cell:	Completed after 3 iterations at t[s]:   1195.97
SCF: Cycle: 18   Etot: -136.574813498935356   dEtot: -4.053e-05   |Residual|: 4.946e-04   |deigs|: 9.045e-05  t[s]:   1198.36
	Linear fluid (dielectric constant: 7.2) occupying 0.990027 of unit cell:	Completed after 4 iterations at t[s]:   1209.32
	Linear fluid (dielectric constant: 7.2) occupying 0.990034 of unit cell:	Completed after 3 iterations at t[s]:   1231.73
SCF: Cycle: 19   Etot: -136.574831690818996   dEtot: -1.819e-05   |Residual|: 5.054e-04   |deigs|: 7.143e-05  t[s]:   1234.20
	Linear fluid (dielectric constant: 7.2) occupying 0.990011 of unit cell:	Completed after 4 iterations at t[s]:   1245.13
	Linear fluid (dielectric constant: 7.2) occupying 0.990032 of unit cell:	Completed after 4 iterations at t[s]:   1266.94
SCF: Cycle: 20   Etot: -136.574830031080467   dEtot: +1.660e-06   |Residual|: 5.003e-04   |deigs|: 2.881e-05  t[s]:   1269.44
	Linear fluid (dielectric constant: 7.2) occupying 0.989990 of unit cell:	Completed after 2 iterations at t[s]:   1277.46
	Linear fluid (dielectric constant: 7.2) occupying 0.989955 of unit cell:	Completed after 3 iterations at t[s]:   1299.85
SCF: Cycle: 21   Etot: -136.574943285186663   dEtot: -1.133e-04   |Residual|: 3.172e-04   |deigs|: 2.448e-04  t[s]:   1302.34
	Linear fluid (dielectric constant: 7.2) occupying 0.989987 of unit cell:	Completed after 3 iterations at t[s]:   1312.11
	Linear fluid (dielectric constant: 7.2) occupying 0.989948 of unit cell:	Completed after 3 iterations at t[s]:   1334.12
SCF: Cycle: 22   Etot: -136.574953016203011   dEtot: -9.731e-06   |Residual|: 4.036e-04   |deigs|: 7.998e-05  t[s]:   1336.62
	Linear fluid (dielectric constant: 7.2) occupying 0.989983 of unit cell:	Completed after 3 iterations at t[s]:   1346.40
	Linear fluid (dielectric constant: 7.2) occupying 0.989950 of unit cell:	Completed after 3 iterations at t[s]:   1366.87
SCF: Cycle: 23   Etot: -136.574976000335596   dEtot: -2.298e-05   |Residual|: 2.589e-04   |deigs|: 3.144e-05  t[s]:   1369.33
	Linear fluid (dielectric constant: 7.2) occupying 0.989970 of unit cell:	Completed after 3 iterations at t[s]:   1379.26
	Linear fluid (dielectric constant: 7.2) occupying 0.989955 of unit cell:	Completed after 3 iterations at t[s]:   1401.34
SCF: Cycle: 24   Etot: -136.574998130626568   dEtot: -2.213e-05   |Residual|: 2.178e-04   |deigs|: 6.000e-05  t[s]:   1403.85
	Linear fluid (dielectric constant: 7.2) occupying 0.989962 of unit cell:	Completed after 2 iterations at t[s]:   1412.12
	Linear fluid (dielectric constant: 7.2) occupying 0.989945 of unit cell:	Completed after 3 iterations at t[s]:   1432.75
SCF: Cycle: 25   Etot: -136.575001012070146   dEtot: -2.881e-06   |Residual|: 1.459e-04   |deigs|: 1.068e-04  t[s]:   1435.27
	Linear fluid (dielectric constant: 7.2) occupying 0.989952 of unit cell:	Completed after 2 iterations at t[s]:   1443.52
	Linear fluid (dielectric constant: 7.2) occupying 0.989936 of unit cell:	Completed after 2 iterations at t[s]:   1464.19
SCF: Cycle: 26   Etot: -136.575009081391670   dEtot: -8.069e-06   |Residual|: 1.783e-04   |deigs|: 4.431e-05  t[s]:   1466.70
	Linear fluid (dielectric constant: 7.2) occupying 0.989942 of unit cell:	Completed after 2 iterations at t[s]:   1474.77
	Linear fluid (dielectric constant: 7.2) occupying 0.989923 of unit cell:	Completed after 2 iterations at t[s]:   1495.51
SCF: Cycle: 27   Etot: -136.575009107846370   dEtot: -2.645e-08   |Residual|: 2.063e-04   |deigs|: 5.907e-05  t[s]:   1498.07
	Linear fluid (dielectric constant: 7.2) occupying 0.989935 of unit cell:	Completed after 2 iterations at t[s]:   1506.09
	Linear fluid (dielectric constant: 7.2) occupying 0.989929 of unit cell:	Completed after 2 iterations at t[s]:   1527.40
SCF: Cycle: 28   Etot: -136.575022347422276   dEtot: -1.324e-05   |Residual|: 1.262e-04   |deigs|: 1.371e-05  t[s]:   1530.09
	Linear fluid (dielectric constant: 7.2) occupying 0.989931 of unit cell:	Completed after 2 iterations at t[s]:   1537.98
	Linear fluid (dielectric constant: 7.2) occupying 0.989923 of unit cell:	Completed after 2 iterations at t[s]:   1557.38
SCF: Cycle: 29   Etot: -136.575025439844666   dEtot: -3.092e-06   |Residual|: 1.057e-04   |deigs|: 2.734e-05  t[s]:   1559.99
	Linear fluid (dielectric constant: 7.2) occupying 0.989926 of unit cell:	Completed after 2 iterations at t[s]:   1567.92
	Linear fluid (dielectric constant: 7.2) occupying 0.989895 of unit cell:	Completed after 2 iterations at t[s]:   1588.56
SCF: Cycle: 30   Etot: -136.575008436424213   dEtot: +1.700e-05   |Residual|: 2.569e-04   |deigs|: 3.228e-05  t[s]:   1591.48
	Linear fluid (dielectric constant: 7.2) occupying 0.989927 of unit cell:	Completed after 2 iterations at t[s]:   1599.34
	Linear fluid (dielectric constant: 7.2) occupying 0.989894 of unit cell:	Completed after 2 iterations at t[s]:   1618.90
SCF: Cycle: 31   Etot: -136.575004765622964   dEtot: +3.671e-06   |Residual|: 2.578e-04   |deigs|: 6.446e-06  t[s]:   1621.59
	Linear fluid (dielectric constant: 7.2) occupying 0.989927 of unit cell:	Completed after 2 iterations at t[s]:   1629.48
	Linear fluid (dielectric constant: 7.2) occupying 0.989891 of unit cell:	Completed after 2 iterations at t[s]:   1649.05
SCF: Cycle: 32   Etot: -136.574999877439950   dEtot: +4.888e-06   |Residual|: 2.543e-04   |deigs|: 3.261e-06  t[s]:   1651.71
	Linear fluid (dielectric constant: 7.2) occupying 0.989931 of unit cell:	Completed after 2 iterations at t[s]:   1659.61
	Linear fluid (dielectric constant: 7.2) occupying 0.989886 of unit cell:	Completed after 3 iterations at t[s]:   1680.54
SCF: Cycle: 33   Etot: -136.574979139579881   dEtot: +2.074e-05   |Residual|: 3.147e-04   |deigs|: 1.226e-05  t[s]:   1683.04
	Linear fluid (dielectric constant: 7.2) occupying 0.989923 of unit cell:	Completed after 3 iterations at t[s]:   1692.33
	Linear fluid (dielectric constant: 7.2) occupying 0.989892 of unit cell:	Completed after 2 iterations at t[s]:   1711.82
SCF: Cycle: 34   Etot: -136.575002985906934   dEtot: -2.385e-05   |Residual|: 2.665e-04   |deigs|: 3.621e-05  t[s]:   1714.32
	Linear fluid (dielectric constant: 7.2) occupying 0.989921 of unit cell:	Completed after 2 iterations at t[s]:   1722.30
	Linear fluid (dielectric constant: 7.2) occupying 0.989891 of unit cell:	Completed after 2 iterations at t[s]:   1741.98
SCF: Cycle: 35   Etot: -136.575004600101920   dEtot: -1.614e-06   |Residual|: 2.407e-04   |deigs|: 2.387e-05  t[s]:   1744.48
	Linear fluid (dielectric constant: 7.2) occupying 0.989919 of unit cell:	Completed after 2 iterations at t[s]:   1752.51
	Linear fluid (dielectric constant: 7.2) occupying 0.989892 of unit cell:	Completed after 2 iterations at t[s]:   1771.97
SCF: Cycle: 36   Etot: -136.575008474058734   dEtot: -3.874e-06   |Residual|: 2.220e-04   |deigs|: 1.640e-05  t[s]:   1774.43
	Linear fluid (dielectric constant: 7.2) occupying 0.989915 of unit cell:	Completed after 2 iterations at t[s]:   1782.42
	Linear fluid (dielectric constant: 7.2) occupying 0.989892 of unit cell:	Completed after 2 iterations at t[s]:   1802.10
SCF: Cycle: 37   Etot: -136.575015987940446   dEtot: -7.514e-06   |Residual|: 1.916e-04   |deigs|: 2.581e-05  t[s]:   1804.57
	Linear fluid (dielectric constant: 7.2) occupying 0.989910 of unit cell:	Completed after 2 iterations at t[s]:   1812.50
	Linear fluid (dielectric constant: 7.2) occupying 0.989892 of unit cell:	Completed after 2 iterations at t[s]:   1832.23
SCF: Cycle: 38   Etot: -136.575023118603099   dEtot: -7.131e-06   |Residual|: 1.539e-04   |deigs|: 2.947e-05  t[s]:   1834.69
	Linear fluid (dielectric constant: 7.2) occupying 0.989909 of unit cell:	Completed after 2 iterations at t[s]:   1842.60
	Linear fluid (dielectric constant: 7.2) occupying 0.989892 of unit cell:	Completed after 2 iterations at t[s]:   1862.33
SCF: Cycle: 39   Etot: -136.575023647885047   dEtot: -5.293e-07   |Residual|: 1.539e-04   |deigs|: 3.030e-06  t[s]:   1864.82
	Linear fluid (dielectric constant: 7.2) occupying 0.989894 of unit cell:	Completed after 1 iterations at t[s]:   1871.46
	Linear fluid (dielectric constant: 7.2) occupying 0.989906 of unit cell:	Completed after 1 iterations at t[s]:   1891.19
SCF: Cycle: 40   Etot: -136.575041192236313   dEtot: -1.754e-05   |Residual|: 1.059e-04   |deigs|: 8.395e-05  t[s]:   1893.72
	Linear fluid (dielectric constant: 7.2) occupying 0.989898 of unit cell:	Completed after 0 iterations at t[s]:   1898.90
	Linear fluid (dielectric constant: 7.2) occupying 0.989904 of unit cell:	Completed after 0 iterations at t[s]:   1915.16
SCF: Cycle: 41   Etot: -136.575042117384612   dEtot: -9.251e-07   |Residual|: 5.213e-05   |deigs|: 2.082e-05  t[s]:   1917.65
	Linear fluid (dielectric constant: 7.2) occupying 0.989898 of unit cell:	Completed after 0 iterations at t[s]:   1923.08
	Linear fluid (dielectric constant: 7.2) occupying 0.989895 of unit cell:	Completed after 1 iterations at t[s]:   1942.21
SCF: Cycle: 42   Etot: -136.575041717533168   dEtot: +3.999e-07   |Residual|: 9.017e-05   |deigs|: 1.028e-05  t[s]:   1944.67
	Linear fluid (dielectric constant: 7.2) occupying 0.989894 of unit cell:	Completed after 1 iterations at t[s]:   1951.30
	Linear fluid (dielectric constant: 7.2) occupying 0.989894 of unit cell:	Completed after 1 iterations at t[s]:   1970.48
SCF: Cycle: 43   Etot: -136.575043401389735   dEtot: -1.684e-06   |Residual|: 8.852e-05   |deigs|: 1.666e-05  t[s]:   1972.91
	Linear fluid (dielectric constant: 7.2) occupying 0.989893 of unit cell:	Completed after 1 iterations at t[s]:   1979.53
	Linear fluid (dielectric constant: 7.2) occupying 0.989894 of unit cell:	Completed after 1 iterations at t[s]:   1997.37
SCF: Cycle: 44   Etot: -136.575044043694447   dEtot: -6.423e-07   |Residual|: 6.530e-05   |deigs|: 1.419e-05  t[s]:   1999.85
	Linear fluid (dielectric constant: 7.2) occupying 0.989892 of unit cell:	Completed after 1 iterations at t[s]:   2006.57
	Linear fluid (dielectric constant: 7.2) occupying 0.989892 of unit cell:	Completed after 1 iterations at t[s]:   2025.68
SCF: Cycle: 45   Etot: -136.575044489323318   dEtot: -4.456e-07   |Residual|: 5.424e-05   |deigs|: 1.582e-05  t[s]:   2028.13
	Linear fluid (dielectric constant: 7.2) occupying 0.989892 of unit cell:	Completed after 1 iterations at t[s]:   2034.75
	Linear fluid (dielectric constant: 7.2) occupying 0.989886 of unit cell:	Completed after 1 iterations at t[s]:   2053.89
SCF: Cycle: 46   Etot: -136.575044033751993   dEtot: +4.556e-07   |Residual|: 5.809e-05   |deigs|: 1.286e-05  t[s]:   2056.36
	Linear fluid (dielectric constant: 7.2) occupying 0.989891 of unit cell:	Completed after 1 iterations at t[s]:   2062.91
	Linear fluid (dielectric constant: 7.2) occupying 0.989883 of unit cell:	Completed after 1 iterations at t[s]:   2082.15
SCF: Cycle: 47   Etot: -136.575044075885501   dEtot: -4.213e-08   |Residual|: 7.343e-05   |deigs|: 9.728e-06  t[s]:   2084.64
	Linear fluid (dielectric constant: 7.2) occupying 0.989889 of unit cell:	Completed after 1 iterations at t[s]:   2091.36
	Linear fluid (dielectric constant: 7.2) occupying 0.989887 of unit cell:	Completed after 1 iterations at t[s]:   2110.61
SCF: Cycle: 48   Etot: -136.575045768034926   dEtot: -1.692e-06   |Residual|: 4.875e-05   |deigs|: 4.924e-06  t[s]:   2113.07
	Linear fluid (dielectric constant: 7.2) occupying 0.989888 of unit cell:	Completed after 1 iterations at t[s]:   2119.68
	Linear fluid (dielectric constant: 7.2) occupying 0.989887 of unit cell:	Completed after 1 iterations at t[s]:   2137.79
SCF: Cycle: 49   Etot: -136.575046115615891   dEtot: -3.476e-07   |Residual|: 4.063e-05   |deigs|: 7.987e-06  t[s]:   2140.24
	Linear fluid (dielectric constant: 7.2) occupying 0.989888 of unit cell:	Completed after 0 iterations at t[s]:   2145.46
Setting wave functions to eigenvectors of Hamiltonian
Single-point solvation energy estimate, DeltaEtot = -0.040385578719622

Computing DFT-D3 correction:
# coordination-number S 2.944 3.352 3.353 2.942
# coordination-number Na 3.934 3.934
# diagonal-C6 S 125.81 125.81 125.81 125.81
# diagonal-C6 Na 186.11 186.11
EvdW_6 =   -0.000279
EvdW_8 =   -0.003951

# Ionic positions in cartesian coordinates:
ion S   4.960431645660000  13.981560468840000  25.265472781050001 1
ion S   7.075808635770003  13.274826015330000  28.544133544019999 1
ion S   8.239466575169999   9.479152131930000  28.544855420880001 1
ion S  10.355264975069996   8.766735260310000  25.266360954149999 1
ion Na   5.293454984100000   8.983135801530000  24.325194155759998 1
ion Na  10.011364350749997  13.762072108800000  24.311516290019998 1

# Forces in Cartesian coordinates:
force S  -0.002075100835270   0.002612827292664   0.004352669762778 1
force S  -0.001648585646912   0.001532377992515   0.000773619583073 1
force S   0.001690937975533  -0.001751285657596   0.001411685199519 1
force S   0.002522564604642  -0.003121966902049   0.004204268892473 1
force Na  -0.006366214311983  -0.006322797348610  -0.005465181477245 1
force Na   0.006534060521555   0.006270153261311  -0.005399330401846 1

# Energy components:
   A_diel =       -0.0544905759444860
   Eewald =       95.1000625064078804
       EH =      208.1219273654087374
     Eloc =     -311.2853192442343016
      Enl =     -136.7006351893011526
     EvdW =       -0.0042299291212359
      Exc =      -31.2329649828296994
 Exc_core =        7.0709167916615527
       KE =       32.4096495939696965
-------------------------------------
     Etot =     -136.5750836639830084

IonicMinimize: Iter:   0  Etot: -136.575083663983008  |grad|_K:  4.074e-03  alpha:  1.000e+00

#--- Lowdin population analysis ---
# oxidation-state S -0.625 -0.022 -0.023 -0.626
# oxidation-state Na +0.828 +0.828


Computing DFT-D3 correction:
# coordination-number S 2.940 3.343 3.344 2.938
# coordination-number Na 3.913 3.913
# diagonal-C6 S 125.81 125.81 125.81 125.81
# diagonal-C6 Na 186.11 186.11
EvdW_6 =   -0.000282
EvdW_8 =   -0.003987

-------- Electronic minimization -----------
Will mix electronic density at each iteration.
	Linear fluid (dielectric constant: 7.2) occupying 0.989881 of unit cell:	Completed after 4 iterations at t[s]:   2178.46
	Linear fluid (dielectric constant: 7.2) occupying 0.989887 of unit cell:	Completed after 2 iterations at t[s]:   2198.42
SCF: Cycle:  0   Etot: -136.575329406704554   dEtot: -3.519e-06   |Residual|: 9.498e-04   |deigs|: 3.966e-07  t[s]:   2200.86
	Linear fluid (dielectric constant: 7.2) occupying 0.989889 of unit cell:	Completed after 2 iterations at t[s]:   2208.43
	Linear fluid (dielectric constant: 7.2) occupying 0.989870 of unit cell:	Completed after 2 iterations at t[s]:   2228.95
SCF: Cycle:  1   Etot: -136.575333821217697   dEtot: -4.415e-06   |Residual|: 5.790e-04   |deigs|: 7.006e-05  t[s]:   2231.39
	Linear fluid (dielectric constant: 7.2) occupying 0.989890 of unit cell:	Completed after 1 iterations at t[s]:   2237.76
	Linear fluid (dielectric constant: 7.2) occupying 0.989892 of unit cell:	Completed after 1 iterations at t[s]:   2257.18
SCF: Cycle:  2   Etot: -136.575327970522210   dEtot: +5.851e-06   |Residual|: 1.764e-04   |deigs|: 7.679e-05  t[s]:   2259.75
	Linear fluid (dielectric constant: 7.2) occupying 0.989891 of unit cell:	Completed after 1 iterations at t[s]:   2266.07
	Linear fluid (dielectric constant: 7.2) occupying 0.989864 of unit cell:	Completed after 1 iterations at t[s]:   2285.20
SCF: Cycle:  3   Etot: -136.575328711136621   dEtot: -7.406e-07   |Residual|: 1.458e-04   |deigs|: 1.931e-05  t[s]:   2287.94
	Linear fluid (dielectric constant: 7.2) occupying 0.989887 of unit cell:	Completed after 1 iterations at t[s]:   2294.72
	Linear fluid (dielectric constant: 7.2) occupying 0.989878 of unit cell:	Completed after 1 iterations at t[s]:   2313.82
SCF: Cycle:  4   Etot: -136.575336551116635   dEtot: -7.840e-06   |Residual|: 8.675e-05   |deigs|: 1.763e-05  t[s]:   2316.31
	Linear fluid (dielectric constant: 7.2) occupying 0.989884 of unit cell:	Completed after 0 iterations at t[s]:   2321.37
	Linear fluid (dielectric constant: 7.2) occupying 0.989876 of unit cell:	Completed after 0 iterations at t[s]:   2337.88
SCF: Cycle:  5   Etot: -136.575336505305927   dEtot: +4.581e-08   |Residual|: 4.517e-05   |deigs|: 2.101e-05  t[s]:   2340.39
	Linear fluid (dielectric constant: 7.2) occupying 0.989880 of unit cell:	Completed after 0 iterations at t[s]:   2345.85
	Linear fluid (dielectric constant: 7.2) occupying 0.989876 of unit cell:	Completed after 0 iterations at t[s]:   2363.78
SCF: Cycle:  6   Etot: -136.575336668778647   dEtot: -1.635e-07   |Residual|: 3.019e-05   |deigs|: 1.261e-05  t[s]:   2366.28
	Linear fluid (dielectric constant: 7.2) occupying 0.989878 of unit cell:	Completed after 0 iterations at t[s]:   2371.44
	Linear fluid (dielectric constant: 7.2) occupying 0.989876 of unit cell:	Completed after 0 iterations at t[s]:   2387.92
SCF: Cycle:  7   Etot: -136.575336710734518   dEtot: -4.196e-08   |Residual|: 2.410e-05   |deigs|: 5.880e-06  t[s]:   2390.40
	Linear fluid (dielectric constant: 7.2) occupying 0.989876 of unit cell:	Completed after 0 iterations at t[s]:   2395.52
	Linear fluid (dielectric constant: 7.2) occupying 0.989875 of unit cell:	Completed after 0 iterations at t[s]:   2413.28
SCF: Cycle:  8   Etot: -136.575336729045205   dEtot: -1.831e-08   |Residual|: 1.869e-05   |deigs|: 5.791e-06  t[s]:   2415.82
	Linear fluid (dielectric constant: 7.2) occupying 0.989873 of unit cell:	Completed after 0 iterations at t[s]:   2421.10
	Linear fluid (dielectric constant: 7.2) occupying 0.989875 of unit cell:	Completed after 0 iterations at t[s]:   2439.12
SCF: Cycle:  9   Etot: -136.575336818826145   dEtot: -8.978e-08   |Residual|: 1.622e-05   |deigs|: 7.065e-06  t[s]:   2441.72
	Linear fluid (dielectric constant: 7.2) occupying 0.989873 of unit cell:	Completed after 0 iterations at t[s]:   2446.85
	Linear fluid (dielectric constant: 7.2) occupying 0.989875 of unit cell:	Completed after 0 iterations at t[s]:   2463.34
SCF: Cycle: 10   Etot: -136.575336872680140   dEtot: -5.385e-08   |Residual|: 1.364e-05   |deigs|: 4.464e-06  t[s]:   2465.94
	Linear fluid (dielectric constant: 7.2) occupying 0.989873 of unit cell:	Completed after 0 iterations at t[s]:   2470.00
	Linear fluid (dielectric constant: 7.2) occupying 0.989874 of unit cell:	Completed after 0 iterations at t[s]:   2486.40
SCF: Cycle: 11   Etot: -136.575336925345312   dEtot: -5.267e-08   |Residual|: 1.182e-05   |deigs|: 1.145e-05  t[s]:   2488.86
	Linear fluid (dielectric constant: 7.2) occupying 0.989873 of unit cell:	Completed after 0 iterations at t[s]:   2492.83
	Linear fluid (dielectric constant: 7.2) occupying 0.989874 of unit cell:	Completed after 0 iterations at t[s]:   2508.26
SCF: Cycle: 12   Etot: -136.575336928712886   dEtot: -3.368e-09   |Residual|: 1.222e-05   |deigs|: 5.502e-08  t[s]:   2510.86
	Linear fluid (dielectric constant: 7.2) occupying 0.989873 of unit cell:	Completed after 0 iterations at t[s]:   2516.05
	Linear fluid (dielectric constant: 7.2) occupying 0.989874 of unit cell:	Completed after 0 iterations at t[s]:   2533.97
SCF: Cycle: 13   Etot: -136.575336933042621   dEtot: -4.330e-09   |Residual|: 1.146e-05   |deigs|: 6.968e-06  t[s]:   2536.34
SCF: Converged (|Delta E|<1.000000e-08 for 2 iters).

Setting wave functions to eigenvectors of Hamiltonian
IonicMinimize: 	Predicted alpha/alphaT>3.000000, increasing alphaT to 3.000000e+00.

Computing DFT-D3 correction:
# coordination-number S 2.933 3.326 3.325 2.930
# coordination-number Na 3.869 3.869
# diagonal-C6 S 125.81 125.81 125.81 125.81
# diagonal-C6 Na 186.11 186.11
EvdW_6 =   -0.000287
EvdW_8 =   -0.004059

-------- Electronic minimization -----------
Will mix electronic density at each iteration.
	Linear fluid (dielectric constant: 7.2) occupying 0.989874 of unit cell:	Completed after 5 iterations at t[s]:   2555.46
	Linear fluid (dielectric constant: 7.2) occupying 0.989710 of unit cell:	Completed after 6 iterations at t[s]:   2583.53
SCF: Cycle:  0   Etot: -136.573022467945577   dEtot: -1.512e-02   |Residual|: 6.024e-02   |deigs|: 9.081e-04  t[s]:   2585.94
	Linear fluid (dielectric constant: 7.2) occupying 0.990058 of unit cell:	Completed after 9 iterations at t[s]:   2603.39
	Linear fluid (dielectric constant: 7.2) occupying 0.989682 of unit cell:	Completed after 8 iterations at t[s]:   2633.63
SCF: Cycle:  1   Etot: -136.574360164876339   dEtot: -1.338e-03   |Residual|: 2.985e-02   |deigs|: 2.328e-03  t[s]:   2636.19
	Linear fluid (dielectric constant: 7.2) occupying 0.990123 of unit cell:	Completed after 10 iterations at t[s]:   2655.55
	Linear fluid (dielectric constant: 7.2) occupying 0.989876 of unit cell:	Completed after 8 iterations at t[s]:   2685.72
SCF: Cycle:  2   Etot: -136.575503177897502   dEtot: -1.143e-03   |Residual|: 6.200e-03   |deigs|: 1.854e-03  t[s]:   2688.23
	Linear fluid (dielectric constant: 7.2) occupying 0.990090 of unit cell:	Completed after 9 iterations at t[s]:   2706.03
	Linear fluid (dielectric constant: 7.2) occupying 0.989732 of unit cell:	Completed after 7 iterations at t[s]:   2734.63
SCF: Cycle:  3   Etot: -136.575360151386519   dEtot: +1.430e-04   |Residual|: 3.947e-03   |deigs|: 1.245e-03  t[s]:   2737.19
	Linear fluid (dielectric constant: 7.2) occupying 0.989960 of unit cell:	Completed after 6 iterations at t[s]:   2750.58
	Linear fluid (dielectric constant: 7.2) occupying 0.989987 of unit cell:	Completed after 6 iterations at t[s]:   2777.96
SCF: Cycle:  4   Etot: -136.575282712030287   dEtot: +7.744e-05   |Residual|: 2.169e-03   |deigs|: 1.794e-03  t[s]:   2780.41
	Linear fluid (dielectric constant: 7.2) occupying 0.989909 of unit cell:	Completed after 6 iterations at t[s]:   2794.06
	Linear fluid (dielectric constant: 7.2) occupying 0.989932 of unit cell:	Completed after 6 iterations at t[s]:   2821.01
SCF: Cycle:  5   Etot: -136.575651245042053   dEtot: -3.685e-04   |Residual|: 1.307e-03   |deigs|: 1.032e-03  t[s]:   2823.53
	Linear fluid (dielectric constant: 7.2) occupying 0.989886 of unit cell:	Completed after 5 iterations at t[s]:   2835.99
	Linear fluid (dielectric constant: 7.2) occupying 0.989685 of unit cell:	Completed after 6 iterations at t[s]:   2862.56
SCF: Cycle:  6   Etot: -136.575192907056191   dEtot: +4.583e-04   |Residual|: 1.729e-03   |deigs|: 5.387e-04  t[s]:   2865.12
	Linear fluid (dielectric constant: 7.2) occupying 0.989833 of unit cell:	Completed after 5 iterations at t[s]:   2877.35
	Linear fluid (dielectric constant: 7.2) occupying 0.989915 of unit cell:	Completed after 5 iterations at t[s]:   2902.60
SCF: Cycle:  7   Etot: -136.575715887430533   dEtot: -5.230e-04   |Residual|: 8.101e-04   |deigs|: 4.685e-04  t[s]:   2905.06
	Linear fluid (dielectric constant: 7.2) occupying 0.989773 of unit cell:	Completed after 4 iterations at t[s]:   2915.93
	Linear fluid (dielectric constant: 7.2) occupying 0.989900 of unit cell:	Completed after 4 iterations at t[s]:   2940.15
SCF: Cycle:  8   Etot: -136.575823092840466   dEtot: -1.072e-04   |Residual|: 6.408e-04   |deigs|: 7.244e-04  t[s]:   2942.60
	Linear fluid (dielectric constant: 7.2) occupying 0.989772 of unit cell:	Completed after 3 iterations at t[s]:   2951.90
	Linear fluid (dielectric constant: 7.2) occupying 0.989788 of unit cell:	Completed after 4 iterations at t[s]:   2975.19
SCF: Cycle:  9   Etot: -136.575659669905406   dEtot: +1.634e-04   |Residual|: 6.999e-04   |deigs|: 1.921e-04  t[s]:   2977.67
	Linear fluid (dielectric constant: 7.2) occupying 0.989772 of unit cell:	Completed after 3 iterations at t[s]:   2987.06
	Linear fluid (dielectric constant: 7.2) occupying 0.989795 of unit cell:	Completed after 4 iterations at t[s]:   3010.31
SCF: Cycle: 10   Etot: -136.575663213992300   dEtot: -3.544e-06   |Residual|: 7.481e-04   |deigs|: 1.228e-04  t[s]:   3012.80
	Linear fluid (dielectric constant: 7.2) occupying 0.989770 of unit cell:	Completed after 4 iterations at t[s]:   3023.53
	Linear fluid (dielectric constant: 7.2) occupying 0.989814 of unit cell:	Completed after 3 iterations at t[s]:   3045.59
SCF: Cycle: 11   Etot: -136.575785399073339   dEtot: -1.222e-04   |Residual|: 5.501e-04   |deigs|: 2.080e-04  t[s]:   3048.16
	Linear fluid (dielectric constant: 7.2) occupying 0.989775 of unit cell:	Completed after 3 iterations at t[s]:   3057.71
	Linear fluid (dielectric constant: 7.2) occupying 0.989809 of unit cell:	Completed after 4 iterations at t[s]:   3081.45
SCF: Cycle: 12   Etot: -136.575746028383094   dEtot: +3.937e-05   |Residual|: 4.955e-04   |deigs|: 8.685e-05  t[s]:   3083.92
	Linear fluid (dielectric constant: 7.2) occupying 0.989790 of unit cell:	Completed after 4 iterations at t[s]:   3094.49
	Linear fluid (dielectric constant: 7.2) occupying 0.989814 of unit cell:	Completed after 4 iterations at t[s]:   3118.22
SCF: Cycle: 13   Etot: -136.575799507986716   dEtot: -5.348e-05   |Residual|: 3.944e-04   |deigs|: 7.446e-05  t[s]:   3120.68
	Linear fluid (dielectric constant: 7.2) occupying 0.989820 of unit cell:	Completed after 3 iterations at t[s]:   3129.96
	Linear fluid (dielectric constant: 7.2) occupying 0.989819 of unit cell:	Completed after 3 iterations at t[s]:   3150.41
SCF: Cycle: 14   Etot: -136.575819599165811   dEtot: -2.009e-05   |Residual|: 3.112e-04   |deigs|: 8.027e-05  t[s]:   3152.99
	Linear fluid (dielectric constant: 7.2) occupying 0.989832 of unit cell:	Completed after 3 iterations at t[s]:   3162.44
	Linear fluid (dielectric constant: 7.2) occupying 0.989832 of unit cell:	Completed after 3 iterations at t[s]:   3182.97
SCF: Cycle: 15   Etot: -136.575849355630737   dEtot: -2.976e-05   |Residual|: 1.947e-04   |deigs|: 4.327e-05  t[s]:   3185.50
	Linear fluid (dielectric constant: 7.2) occupying 0.989838 of unit cell:	Completed after 3 iterations at t[s]:   3195.20
	Linear fluid (dielectric constant: 7.2) occupying 0.989835 of unit cell:	Completed after 3 iterations at t[s]:   3215.73
SCF: Cycle: 16   Etot: -136.575857208848987   dEtot: -7.853e-06   |Residual|: 1.425e-04   |deigs|: 2.674e-05  t[s]:   3218.27
	Linear fluid (dielectric constant: 7.2) occupying 0.989845 of unit cell:	Completed after 2 iterations at t[s]:   3226.75
	Linear fluid (dielectric constant: 7.2) occupying 0.989839 of unit cell:	Completed after 2 iterations at t[s]:   3246.14
SCF: Cycle: 17   Etot: -136.575863109377707   dEtot: -5.901e-06   |Residual|: 1.104e-04   |deigs|: 4.950e-05  t[s]:   3248.62
	Linear fluid (dielectric constant: 7.2) occupying 0.989849 of unit cell:	Completed after 2 iterations at t[s]:   3256.85
	Linear fluid (dielectric constant: 7.2) occupying 0.989844 of unit cell:	Completed after 2 iterations at t[s]:   3276.12
SCF: Cycle: 18   Etot: -136.575865831685149   dEtot: -2.722e-06   |Residual|: 7.453e-05   |deigs|: 4.415e-05  t[s]:   3278.59
	Linear fluid (dielectric constant: 7.2) occupying 0.989847 of unit cell:	Completed after 1 iterations at t[s]:   3285.45
	Linear fluid (dielectric constant: 7.2) occupying 0.989845 of unit cell:	Completed after 1 iterations at t[s]:   3303.37
SCF: Cycle: 19   Etot: -136.575866910122699   dEtot: -1.078e-06   |Residual|: 5.277e-05   |deigs|: 4.458e-05  t[s]:   3305.88
	Linear fluid (dielectric constant: 7.2) occupying 0.989846 of unit cell:	Completed after 1 iterations at t[s]:   3312.38
	Linear fluid (dielectric constant: 7.2) occupying 0.989847 of unit cell:	Completed after 0 iterations at t[s]:   3328.77
SCF: Cycle: 20   Etot: -136.575867745343686   dEtot: -8.352e-07   |Residual|: 4.950e-05   |deigs|: 4.539e-05  t[s]:   3331.23
	Linear fluid (dielectric constant: 7.2) occupying 0.989849 of unit cell:	Completed after 1 iterations at t[s]:   3337.73
	Linear fluid (dielectric constant: 7.2) occupying 0.989848 of unit cell:	Completed after 1 iterations at t[s]:   3356.07
SCF: Cycle: 21   Etot: -136.575867900324084   dEtot: -1.550e-07   |Residual|: 4.430e-05   |deigs|: 3.592e-05  t[s]:   3358.56
	Linear fluid (dielectric constant: 7.2) occupying 0.989850 of unit cell:	Completed after 0 iterations at t[s]:   3363.82
	Linear fluid (dielectric constant: 7.2) occupying 0.989850 of unit cell:	Completed after 0 iterations at t[s]:   3382.21
SCF: Cycle: 22   Etot: -136.575868173008359   dEtot: -2.727e-07   |Residual|: 3.685e-05   |deigs|: 4.569e-06  t[s]:   3384.78
	Linear fluid (dielectric constant: 7.2) occupying 0.989849 of unit cell:	Completed after 0 iterations at t[s]:   3389.96
	Linear fluid (dielectric constant: 7.2) occupying 0.989850 of unit cell:	Completed after 0 iterations at t[s]:   3406.71
SCF: Cycle: 23   Etot: -136.575868150294099   dEtot: +2.271e-08   |Residual|: 3.141e-05   |deigs|: 2.132e-05  t[s]:   3409.20
	Linear fluid (dielectric constant: 7.2) occupying 0.989849 of unit cell:	Completed after 0 iterations at t[s]:   3414.74
	Linear fluid (dielectric constant: 7.2) occupying 0.989850 of unit cell:	Completed after 0 iterations at t[s]:   3432.66
SCF: Cycle: 24   Etot: -136.575868312949382   dEtot: -1.627e-07   |Residual|: 3.156e-05   |deigs|: 6.797e-06  t[s]:   3435.13
	Linear fluid (dielectric constant: 7.2) occupying 0.989849 of unit cell:	Completed after 0 iterations at t[s]:   3440.46
	Linear fluid (dielectric constant: 7.2) occupying 0.989850 of unit cell:	Completed after 0 iterations at t[s]:   3456.71
SCF: Cycle: 25   Etot: -136.575868228902124   dEtot: +8.405e-08   |Residual|: 3.378e-05   |deigs|: 1.413e-05  t[s]:   3459.19
	Linear fluid (dielectric constant: 7.2) occupying 0.989849 of unit cell:	Completed after 1 iterations at t[s]:   3465.84
	Linear fluid (dielectric constant: 7.2) occupying 0.989849 of unit cell:	Completed after 0 iterations at t[s]:   3483.79
SCF: Cycle: 26   Etot: -136.575868317124673   dEtot: -8.822e-08   |Residual|: 4.423e-05   |deigs|: 4.541e-05  t[s]:   3486.25
	Linear fluid (dielectric constant: 7.2) occupying 0.989851 of unit cell:	Completed after 0 iterations at t[s]:   3491.43
	Linear fluid (dielectric constant: 7.2) occupying 0.989850 of unit cell:	Completed after 0 iterations at t[s]:   3508.27
SCF: Cycle: 27   Etot: -136.575868345519666   dEtot: -2.839e-08   |Residual|: 3.646e-05   |deigs|: 2.005e-05  t[s]:   3510.69
	Linear fluid (dielectric constant: 7.2) occupying 0.989852 of unit cell:	Completed after 0 iterations at t[s]:   3515.94
	Linear fluid (dielectric constant: 7.2) occupying 0.989852 of unit cell:	Completed after 0 iterations at t[s]:   3533.97
SCF: Cycle: 28   Etot: -136.575868331032467   dEtot: +1.449e-08   |Residual|: 3.311e-05   |deigs|: 1.462e-06  t[s]:   3536.40
	Linear fluid (dielectric constant: 7.2) occupying 0.989852 of unit cell:	Completed after 0 iterations at t[s]:   3541.71
	Linear fluid (dielectric constant: 7.2) occupying 0.989850 of unit cell:	Completed after 0 iterations at t[s]:   3559.52
SCF: Cycle: 29   Etot: -136.575868231895015   dEtot: +9.914e-08   |Residual|: 2.893e-05   |deigs|: 2.626e-06  t[s]:   3562.02
	Linear fluid (dielectric constant: 7.2) occupying 0.989851 of unit cell:	Completed after 0 iterations at t[s]:   3567.47
	Linear fluid (dielectric constant: 7.2) occupying 0.989850 of unit cell:	Completed after 0 iterations at t[s]:   3585.27
SCF: Cycle: 30   Etot: -136.575868393080668   dEtot: -1.612e-07   |Residual|: 2.714e-05   |deigs|: 7.024e-06  t[s]:   3587.68
	Linear fluid (dielectric constant: 7.2) occupying 0.989851 of unit cell:	Completed after 0 iterations at t[s]:   3591.58
	Linear fluid (dielectric constant: 7.2) occupying 0.989851 of unit cell:	Completed after 0 iterations at t[s]:   3606.76
SCF: Cycle: 31   Etot: -136.575868416845111   dEtot: -2.376e-08   |Residual|: 1.774e-05   |deigs|: 2.333e-05  t[s]:   3609.21
	Linear fluid (dielectric constant: 7.2) occupying 0.989850 of unit cell:	Completed after 0 iterations at t[s]:   3612.98
	Linear fluid (dielectric constant: 7.2) occupying 0.989851 of unit cell:	Completed after 0 iterations at t[s]:   3629.56
SCF: Cycle: 32   Etot: -136.575868422926959   dEtot: -6.082e-09   |Residual|: 1.539e-05   |deigs|: 4.256e-07  t[s]:   3632.06
	Linear fluid (dielectric constant: 7.2) occupying 0.989849 of unit cell:	Completed after 0 iterations at t[s]:   3637.27
	Linear fluid (dielectric constant: 7.2) occupying 0.989851 of unit cell:	Completed after 0 iterations at t[s]:   3656.14
SCF: Cycle: 33   Etot: -136.575868413897808   dEtot: +9.029e-09   |Residual|: 1.851e-05   |deigs|: 1.201e-05  t[s]:   3658.71
	Linear fluid (dielectric constant: 7.2) occupying 0.989849 of unit cell:	Completed after 0 iterations at t[s]:   3662.55
	Linear fluid (dielectric constant: 7.2) occupying 0.989851 of unit cell:	Completed after 0 iterations at t[s]:   3677.52
SCF: Cycle: 34   Etot: -136.575868412564574   dEtot: +1.333e-09   |Residual|: 1.399e-05   |deigs|: 1.208e-05  t[s]:   3680.02
	Linear fluid (dielectric constant: 7.2) occupying 0.989849 of unit cell:	Completed after 0 iterations at t[s]:   3683.96
	Linear fluid (dielectric constant: 7.2) occupying 0.989851 of unit cell:	Completed after 0 iterations at t[s]:   3701.54
SCF: Cycle: 35   Etot: -136.575868435454993   dEtot: -2.289e-08   |Residual|: 1.038e-05   |deigs|: 3.069e-07  t[s]:   3703.98
	Linear fluid (dielectric constant: 7.2) occupying 0.989849 of unit cell:	Completed after 0 iterations at t[s]:   3707.91
	Linear fluid (dielectric constant: 7.2) occupying 0.989851 of unit cell:	Completed after 0 iterations at t[s]:   3722.88
SCF: Cycle: 36   Etot: -136.575868444979648   dEtot: -9.525e-09   |Residual|: 1.204e-05   |deigs|: 3.275e-07  t[s]:   3725.26
	Linear fluid (dielectric constant: 7.2) occupying 0.989850 of unit cell:	Completed after 0 iterations at t[s]:   3730.46
	Linear fluid (dielectric constant: 7.2) occupying 0.989852 of unit cell:	Completed after 0 iterations at t[s]:   3745.53
SCF: Cycle: 37   Etot: -136.575868440939757   dEtot: +4.040e-09   |Residual|: 8.447e-06   |deigs|: 6.701e-06  t[s]:   3748.07
	Linear fluid (dielectric constant: 7.2) occupying 0.989850 of unit cell:	Completed after 0 iterations at t[s]:   3752.00
	Linear fluid (dielectric constant: 7.2) occupying 0.989851 of unit cell:	Completed after 0 iterations at t[s]:   3766.96
SCF: Cycle: 38   Etot: -136.575868447802577   dEtot: -6.863e-09   |Residual|: 6.869e-06   |deigs|: 1.467e-07  t[s]:   3769.41
	Linear fluid (dielectric constant: 7.2) occupying 0.989850 of unit cell:	Completed after 0 iterations at t[s]:   3773.29
	Linear fluid (dielectric constant: 7.2) occupying 0.989851 of unit cell:	Completed after 0 iterations at t[s]:   3788.56
SCF: Cycle: 39   Etot: -136.575868454354577   dEtot: -6.552e-09   |Residual|: 7.579e-06   |deigs|: 1.435e-07  t[s]:   3790.99
SCF: Converged (|Delta E|<1.000000e-08 for 2 iters).

Setting wave functions to eigenvectors of Hamiltonian
IonicMinimize: 	Predicted alpha/alphaT>3.000000, increasing alphaT to 9.000000e+00.

Computing DFT-D3 correction:
# coordination-number S 2.908 3.274 3.271 2.904
# coordination-number Na 3.733 3.732
# diagonal-C6 S 125.81 125.81 125.81 125.81
# diagonal-C6 Na 186.11 186.11
EvdW_6 =   -0.000306
EvdW_8 =   -0.004280

-------- Electronic minimization -----------
Will mix electronic density at each iteration.
	Linear fluid (dielectric constant: 7.2) occupying 0.989850 of unit cell:	Completed after 7 iterations at t[s]:   3812.72
	Linear fluid (dielectric constant: 7.2) occupying 0.989347 of unit cell:	Completed after 8 iterations at t[s]:   3844.17
SCF: Cycle:  0   Etot: -136.551802860189639   dEtot: -1.373e-01   |Residual|: 1.841e-01   |deigs|: 8.222e-03  t[s]:   3846.63
	Linear fluid (dielectric constant: 7.2) occupying 0.990110 of unit cell:	Completed after 12 iterations at t[s]:   3868.23
	Linear fluid (dielectric constant: 7.2) occupying 0.989395 of unit cell:	Completed after 10 iterations at t[s]:   3901.51
SCF: Cycle:  1   Etot: -136.563914828743748   dEtot: -1.211e-02   |Residual|: 9.173e-02   |deigs|: 6.835e-03  t[s]:   3904.02
	Linear fluid (dielectric constant: 7.2) occupying 0.990025 of unit cell:	Completed after 14 iterations at t[s]:   3928.61
	Linear fluid (dielectric constant: 7.2) occupying 0.989939 of unit cell:	Completed after 10 iterations at t[s]:   3961.69
SCF: Cycle:  2   Etot: -136.573102428078187   dEtot: -9.188e-03   |Residual|: 1.707e-02   |deigs|: 6.953e-03  t[s]:   3964.36
	Linear fluid (dielectric constant: 7.2) occupying 0.989985 of unit cell:	Completed after 13 iterations at t[s]:   3987.73
	Linear fluid (dielectric constant: 7.2) occupying 0.989678 of unit cell:	Completed after 10 iterations at t[s]:   4020.68
SCF: Cycle:  3   Etot: -136.573471541227093   dEtot: -3.691e-04   |Residual|: 1.189e-02   |deigs|: 1.327e-03  t[s]:   4023.27
	Linear fluid (dielectric constant: 7.2) occupying 0.989854 of unit cell:	Completed after 10 iterations at t[s]:   4042.33
	Linear fluid (dielectric constant: 7.2) occupying 0.989956 of unit cell:	Completed after 9 iterations at t[s]:   4074.22
SCF: Cycle:  4   Etot: -136.575570107790384   dEtot: -2.099e-03   |Residual|: 6.241e-03   |deigs|: 1.085e-03  t[s]:   4076.74
	Linear fluid (dielectric constant: 7.2) occupying 0.989821 of unit cell:	Completed after 9 iterations at t[s]:   4095.10
	Linear fluid (dielectric constant: 7.2) occupying 0.989894 of unit cell:	Completed after 8 iterations at t[s]:   4125.62
SCF: Cycle:  5   Etot: -136.576258529055167   dEtot: -6.884e-04   |Residual|: 4.473e-03   |deigs|: 3.531e-03  t[s]:   4128.16
	Linear fluid (dielectric constant: 7.2) occupying 0.989824 of unit cell:	Completed after 8 iterations at t[s]:   4144.84
	Linear fluid (dielectric constant: 7.2) occupying 0.989507 of unit cell:	Completed after 8 iterations at t[s]:   4175.41
SCF: Cycle:  6   Etot: -136.575131844928762   dEtot: +1.127e-03   |Residual|: 4.991e-03   |deigs|: 1.345e-03  t[s]:   4178.01
	Linear fluid (dielectric constant: 7.2) occupying 0.989795 of unit cell:	Completed after 8 iterations at t[s]:   4194.53
	Linear fluid (dielectric constant: 7.2) occupying 0.989754 of unit cell:	Completed after 7 iterations at t[s]:   4223.12
SCF: Cycle:  7   Etot: -136.576591677028603   dEtot: -1.460e-03   |Residual|: 3.464e-03   |deigs|: 4.930e-04  t[s]:   4225.61
	Linear fluid (dielectric constant: 7.2) occupying 0.989687 of unit cell:	Completed after 5 iterations at t[s]:   4237.82
	Linear fluid (dielectric constant: 7.2) occupying 0.989732 of unit cell:	Completed after 6 iterations at t[s]:   4265.69
SCF: Cycle:  8   Etot: -136.576551771048969   dEtot: +3.991e-05   |Residual|: 2.284e-03   |deigs|: 3.912e-03  t[s]:   4268.28
	Linear fluid (dielectric constant: 7.2) occupying 0.989570 of unit cell:	Completed after 5 iterations at t[s]:   4280.53
	Linear fluid (dielectric constant: 7.2) occupying 0.989838 of unit cell:	Completed after 5 iterations at t[s]:   4306.83
SCF: Cycle:  9   Etot: -136.576827919178470   dEtot: -2.761e-04   |Residual|: 2.151e-03   |deigs|: 1.810e-03  t[s]:   4309.35
	Linear fluid (dielectric constant: 7.2) occupying 0.989586 of unit cell:	Completed after 5 iterations at t[s]:   4322.05
	Linear fluid (dielectric constant: 7.2) occupying 0.989605 of unit cell:	Completed after 6 iterations at t[s]:   4348.56
SCF: Cycle: 10   Etot: -136.575939669701285   dEtot: +8.882e-04   |Residual|: 2.112e-03   |deigs|: 3.799e-04  t[s]:   4351.10
	Linear fluid (dielectric constant: 7.2) occupying 0.989551 of unit cell:	Completed after 5 iterations at t[s]:   4363.46
	Linear fluid (dielectric constant: 7.2) occupying 0.989800 of unit cell:	Completed after 5 iterations at t[s]:   4388.83
SCF: Cycle: 11   Etot: -136.576733246678174   dEtot: -7.936e-04   |Residual|: 1.703e-03   |deigs|: 3.919e-04  t[s]:   4391.28
	Linear fluid (dielectric constant: 7.2) occupying 0.989558 of unit cell:	Completed after 4 iterations at t[s]:   4402.32
	Linear fluid (dielectric constant: 7.2) occupying 0.989711 of unit cell:	Completed after 5 iterations at t[s]:   4427.59
SCF: Cycle: 12   Etot: -136.576563129628198   dEtot: +1.701e-04   |Residual|: 1.449e-03   |deigs|: 3.116e-04  t[s]:   4430.15
	Linear fluid (dielectric constant: 7.2) occupying 0.989561 of unit cell:	Completed after 5 iterations at t[s]:   4442.67
	Linear fluid (dielectric constant: 7.2) occupying 0.989742 of unit cell:	Completed after 5 iterations at t[s]:   4467.44
SCF: Cycle: 13   Etot: -136.576700380267170   dEtot: -1.373e-04   |Residual|: 1.264e-03   |deigs|: 3.893e-04  t[s]:   4470.02
	Linear fluid (dielectric constant: 7.2) occupying 0.989601 of unit cell:	Completed after 5 iterations at t[s]:   4482.62
	Linear fluid (dielectric constant: 7.2) occupying 0.989763 of unit cell:	Completed after 5 iterations at t[s]:   4507.93
SCF: Cycle: 14   Etot: -136.576833182298458   dEtot: -1.328e-04   |Residual|: 1.051e-03   |deigs|: 3.521e-04  t[s]:   4510.53
	Linear fluid (dielectric constant: 7.2) occupying 0.989658 of unit cell:	Completed after 5 iterations at t[s]:   4522.73
	Linear fluid (dielectric constant: 7.2) occupying 0.989788 of unit cell:	Completed after 5 iterations at t[s]:   4548.27
SCF: Cycle: 15   Etot: -136.576788258718267   dEtot: +4.492e-05   |Residual|: 7.761e-04   |deigs|: 1.217e-04  t[s]:   4550.72
	Linear fluid (dielectric constant: 7.2) occupying 0.989708 of unit cell:	Completed after 4 iterations at t[s]:   4561.62
	Linear fluid (dielectric constant: 7.2) occupying 0.989832 of unit cell:	Completed after 5 iterations at t[s]:   4586.40
SCF: Cycle: 16   Etot: -136.576890087219908   dEtot: -1.018e-04   |Residual|: 5.548e-04   |deigs|: 1.358e-04  t[s]:   4588.95
	Linear fluid (dielectric constant: 7.2) occupying 0.989776 of unit cell:	Completed after 4 iterations at t[s]:   4599.93
	Linear fluid (dielectric constant: 7.2) occupying 0.989782 of unit cell:	Completed after 4 iterations at t[s]:   4623.48
SCF: Cycle: 17   Etot: -136.576824911801310   dEtot: +6.518e-05   |Residual|: 6.587e-04   |deigs|: 1.333e-04  t[s]:   4625.97
	Linear fluid (dielectric constant: 7.2) occupying 0.989827 of unit cell:	Completed after 4 iterations at t[s]:   4636.76
	Linear fluid (dielectric constant: 7.2) occupying 0.989754 of unit cell:	Completed after 4 iterations at t[s]:   4660.33
SCF: Cycle: 18   Etot: -136.576769880622578   dEtot: +5.503e-05   |Residual|: 7.324e-04   |deigs|: 7.454e-05  t[s]:   4662.89
	Linear fluid (dielectric constant: 7.2) occupying 0.989850 of unit cell:	Completed after 4 iterations at t[s]:   4673.61
	Linear fluid (dielectric constant: 7.2) occupying 0.989750 of unit cell:	Completed after 4 iterations at t[s]:   4697.28
SCF: Cycle: 19   Etot: -136.576731564394493   dEtot: +3.832e-05   |Residual|: 6.490e-04   |deigs|: 7.115e-05  t[s]:   4699.76
	Linear fluid (dielectric constant: 7.2) occupying 0.989831 of unit cell:	Completed after 4 iterations at t[s]:   4710.49
	Linear fluid (dielectric constant: 7.2) occupying 0.989838 of unit cell:	Completed after 4 iterations at t[s]:   4733.83
SCF: Cycle: 20   Etot: -136.576940772167404   dEtot: -2.092e-04   |Residual|: 3.941e-04   |deigs|: 1.456e-04  t[s]:   4736.27
	Linear fluid (dielectric constant: 7.2) occupying 0.989833 of unit cell:	Completed after 3 iterations at t[s]:   4745.67
	Linear fluid (dielectric constant: 7.2) occupying 0.989863 of unit cell:	Completed after 4 iterations at t[s]:   4769.00
SCF: Cycle: 21   Etot: -136.576942833599247   dEtot: -2.061e-06   |Residual|: 3.848e-04   |deigs|: 1.014e-04  t[s]:   4771.49
	Linear fluid (dielectric constant: 7.2) occupying 0.989834 of unit cell:	Completed after 3 iterations at t[s]:   4780.88
	Linear fluid (dielectric constant: 7.2) occupying 0.989842 of unit cell:	Completed after 3 iterations at t[s]:   4802.69
SCF: Cycle: 22   Etot: -136.576993467076107   dEtot: -5.063e-05   |Residual|: 2.694e-04   |deigs|: 4.820e-05  t[s]:   4805.20
	Linear fluid (dielectric constant: 7.2) occupying 0.989833 of unit cell:	Completed after 3 iterations at t[s]:   4815.01
	Linear fluid (dielectric constant: 7.2) occupying 0.989806 of unit cell:	Completed after 3 iterations at t[s]:   4837.04
SCF: Cycle: 23   Etot: -136.576997828653759   dEtot: -4.362e-06   |Residual|: 3.050e-04   |deigs|: 5.361e-05  t[s]:   4839.50
	Linear fluid (dielectric constant: 7.2) occupying 0.989825 of unit cell:	Completed after 3 iterations at t[s]:   4849.13
	Linear fluid (dielectric constant: 7.2) occupying 0.989798 of unit cell:	Completed after 3 iterations at t[s]:   4871.06
SCF: Cycle: 24   Etot: -136.577011194780511   dEtot: -1.337e-05   |Residual|: 3.141e-04   |deigs|: 2.688e-05  t[s]:   4873.51
	Linear fluid (dielectric constant: 7.2) occupying 0.989824 of unit cell:	Completed after 2 iterations at t[s]:   4881.80
	Linear fluid (dielectric constant: 7.2) occupying 0.989809 of unit cell:	Completed after 2 iterations at t[s]:   4902.66
SCF: Cycle: 25   Etot: -136.577039428759946   dEtot: -2.823e-05   |Residual|: 1.912e-04   |deigs|: 3.045e-05  t[s]:   4905.26
	Linear fluid (dielectric constant: 7.2) occupying 0.989824 of unit cell:	Completed after 2 iterations at t[s]:   4913.24
	Linear fluid (dielectric constant: 7.2) occupying 0.989810 of unit cell:	Completed after 2 iterations at t[s]:   4932.56
SCF: Cycle: 26   Etot: -136.577046781803972   dEtot: -7.353e-06   |Residual|: 1.457e-04   |deigs|: 3.119e-05  t[s]:   4935.05
	Linear fluid (dielectric constant: 7.2) occupying 0.989818 of unit cell:	Completed after 2 iterations at t[s]:   4943.10
	Linear fluid (dielectric constant: 7.2) occupying 0.989819 of unit cell:	Completed after 2 iterations at t[s]:   4963.83
SCF: Cycle: 27   Etot: -136.577059578147754   dEtot: -1.280e-05   |Residual|: 1.174e-04   |deigs|: 5.358e-05  t[s]:   4966.46
	Linear fluid (dielectric constant: 7.2) occupying 0.989814 of unit cell:	Completed after 1 iterations at t[s]:   4973.06
	Linear fluid (dielectric constant: 7.2) occupying 0.989817 of unit cell:	Completed after 1 iterations at t[s]:   4990.79
SCF: Cycle: 28   Etot: -136.577068529259776   dEtot: -8.951e-06   |Residual|: 8.681e-05   |deigs|: 4.584e-05  t[s]:   4993.23
	Linear fluid (dielectric constant: 7.2) occupying 0.989811 of unit cell:	Completed after 2 iterations at t[s]:   5001.49
	Linear fluid (dielectric constant: 7.2) occupying 0.989815 of unit cell:	Completed after 2 iterations at t[s]:   5020.58
SCF: Cycle: 29   Etot: -136.577073158668213   dEtot: -4.629e-06   |Residual|: 8.787e-05   |deigs|: 5.588e-05  t[s]:   5023.07
	Linear fluid (dielectric constant: 7.2) occupying 0.989808 of unit cell:	Completed after 2 iterations at t[s]:   5031.33
	Linear fluid (dielectric constant: 7.2) occupying 0.989801 of unit cell:	Completed after 2 iterations at t[s]:   5052.21
SCF: Cycle: 30   Etot: -136.577073627239457   dEtot: -4.686e-07   |Residual|: 1.236e-04   |deigs|: 9.920e-06  t[s]:   5054.79
	Linear fluid (dielectric constant: 7.2) occupying 0.989805 of unit cell:	Completed after 2 iterations at t[s]:   5062.88
	Linear fluid (dielectric constant: 7.2) occupying 0.989799 of unit cell:	Completed after 2 iterations at t[s]:   5083.41
SCF: Cycle: 31   Etot: -136.577077213643236   dEtot: -3.586e-06   |Residual|: 1.301e-04   |deigs|: 8.092e-06  t[s]:   5085.94
	Linear fluid (dielectric constant: 7.2) occupying 0.989802 of unit cell:	Completed after 2 iterations at t[s]:   5094.10
	Linear fluid (dielectric constant: 7.2) occupying 0.989801 of unit cell:	Completed after 2 iterations at t[s]:   5113.21
SCF: Cycle: 32   Etot: -136.577081230799564   dEtot: -4.017e-06   |Residual|: 1.023e-04   |deigs|: 3.803e-06  t[s]:   5115.80
	Linear fluid (dielectric constant: 7.2) occupying 0.989795 of unit cell:	Completed after 1 iterations at t[s]:   5122.59
	Linear fluid (dielectric constant: 7.2) occupying 0.989817 of unit cell:	Completed after 2 iterations at t[s]:   5143.14
SCF: Cycle: 33   Etot: -136.577075820804282   dEtot: +5.410e-06   |Residual|: 1.778e-04   |deigs|: 5.147e-05  t[s]:   5145.69
	Linear fluid (dielectric constant: 7.2) occupying 0.989794 of unit cell:	Completed after 1 iterations at t[s]:   5152.52
	Linear fluid (dielectric constant: 7.2) occupying 0.989805 of unit cell:	Completed after 1 iterations at t[s]:   5171.59
SCF: Cycle: 34   Etot: -136.577085778775597   dEtot: -9.958e-06   |Residual|: 8.658e-05   |deigs|: 3.435e-05  t[s]:   5174.06
	Linear fluid (dielectric constant: 7.2) occupying 0.989791 of unit cell:	Completed after 1 iterations at t[s]:   5180.78
	Linear fluid (dielectric constant: 7.2) occupying 0.989808 of unit cell:	Completed after 1 iterations at t[s]:   5198.42
SCF: Cycle: 35   Etot: -136.577085837120222   dEtot: -5.834e-08   |Residual|: 8.539e-05   |deigs|: 1.204e-05  t[s]:   5200.90
	Linear fluid (dielectric constant: 7.2) occupying 0.989790 of unit cell:	Completed after 1 iterations at t[s]:   5208.12
	Linear fluid (dielectric constant: 7.2) occupying 0.989804 of unit cell:	Completed after 1 iterations at t[s]:   5227.75
SCF: Cycle: 36   Etot: -136.577088410884471   dEtot: -2.574e-06   |Residual|: 5.395e-05   |deigs|: 2.277e-05  t[s]:   5230.27
	Linear fluid (dielectric constant: 7.2) occupying 0.989791 of unit cell:	Completed after 1 iterations at t[s]:   5237.01
	Linear fluid (dielectric constant: 7.2) occupying 0.989793 of unit cell:	Completed after 1 iterations at t[s]:   5256.12
SCF: Cycle: 37   Etot: -136.577088930086063   dEtot: -5.192e-07   |Residual|: 9.372e-05   |deigs|: 2.149e-05  t[s]:   5258.54
	Linear fluid (dielectric constant: 7.2) occupying 0.989789 of unit cell:	Completed after 1 iterations at t[s]:   5265.35
	Linear fluid (dielectric constant: 7.2) occupying 0.989803 of unit cell:	Completed after 1 iterations at t[s]:   5284.71
SCF: Cycle: 38   Etot: -136.577090044090170   dEtot: -1.114e-06   |Residual|: 9.004e-05   |deigs|: 1.716e-05  t[s]:   5287.17
	Linear fluid (dielectric constant: 7.2) occupying 0.989790 of unit cell:	Completed after 1 iterations at t[s]:   5293.66
	Linear fluid (dielectric constant: 7.2) occupying 0.989800 of unit cell:	Completed after 0 iterations at t[s]:   5309.94
SCF: Cycle: 39   Etot: -136.577091394731468   dEtot: -1.351e-06   |Residual|: 4.440e-05   |deigs|: 8.400e-06  t[s]:   5312.37
	Linear fluid (dielectric constant: 7.2) occupying 0.989792 of unit cell:	Completed after 0 iterations at t[s]:   5317.70
	Linear fluid (dielectric constant: 7.2) occupying 0.989802 of unit cell:	Completed after 0 iterations at t[s]:   5336.00
SCF: Cycle: 40   Etot: -136.577090511439252   dEtot: +8.833e-07   |Residual|: 5.358e-05   |deigs|: 1.476e-05  t[s]:   5338.40
	Linear fluid (dielectric constant: 7.2) occupying 0.989795 of unit cell:	Completed after 0 iterations at t[s]:   5343.69
	Linear fluid (dielectric constant: 7.2) occupying 0.989790 of unit cell:	Completed after 1 iterations at t[s]:   5363.00
SCF: Cycle: 41   Etot: -136.577091350436376   dEtot: -8.390e-07   |Residual|: 4.527e-05   |deigs|: 1.019e-05  t[s]:   5365.59
	Linear fluid (dielectric constant: 7.2) occupying 0.989795 of unit cell:	Completed after 0 iterations at t[s]:   5370.86
	Linear fluid (dielectric constant: 7.2) occupying 0.989791 of unit cell:	Completed after 0 iterations at t[s]:   5387.53
SCF: Cycle: 42   Etot: -136.577092461861071   dEtot: -1.111e-06   |Residual|: 3.343e-05   |deigs|: 1.198e-05  t[s]:   5390.00
	Linear fluid (dielectric constant: 7.2) occupying 0.989795 of unit cell:	Completed after 0 iterations at t[s]:   5395.41
	Linear fluid (dielectric constant: 7.2) occupying 0.989791 of unit cell:	Completed after 0 iterations at t[s]:   5411.79
SCF: Cycle: 43   Etot: -136.577092757099592   dEtot: -2.952e-07   |Residual|: 2.817e-05   |deigs|: 4.792e-06  t[s]:   5414.25
	Linear fluid (dielectric constant: 7.2) occupying 0.989795 of unit cell:	Completed after 0 iterations at t[s]:   5419.68
	Linear fluid (dielectric constant: 7.2) occupying 0.989792 of unit cell:	Completed after 0 iterations at t[s]:   5436.13
SCF: Cycle: 44   Etot: -136.577092773834437   dEtot: -1.673e-08   |Residual|: 2.063e-05   |deigs|: 3.091e-06  t[s]:   5438.49
	Linear fluid (dielectric constant: 7.2) occupying 0.989795 of unit cell:	Completed after 0 iterations at t[s]:   5443.88
	Linear fluid (dielectric constant: 7.2) occupying 0.989791 of unit cell:	Completed after 0 iterations at t[s]:   5461.85
SCF: Cycle: 45   Etot: -136.577092857973412   dEtot: -8.414e-08   |Residual|: 1.689e-05   |deigs|: 5.462e-06  t[s]:   5464.31
	Linear fluid (dielectric constant: 7.2) occupying 0.989795 of unit cell:	Completed after 0 iterations at t[s]:   5469.47
	Linear fluid (dielectric constant: 7.2) occupying 0.989792 of unit cell:	Completed after 0 iterations at t[s]:   5486.07
SCF: Cycle: 46   Etot: -136.577092947692392   dEtot: -8.972e-08   |Residual|: 1.178e-05   |deigs|: 5.818e-06  t[s]:   5488.45
	Linear fluid (dielectric constant: 7.2) occupying 0.989794 of unit cell:	Completed after 0 iterations at t[s]:   5492.39
	Linear fluid (dielectric constant: 7.2) occupying 0.989792 of unit cell:	Completed after 0 iterations at t[s]:   5507.40
SCF: Cycle: 47   Etot: -136.577092977162607   dEtot: -2.947e-08   |Residual|: 9.264e-06   |deigs|: 1.598e-05  t[s]:   5509.86
	Linear fluid (dielectric constant: 7.2) occupying 0.989793 of unit cell:	Completed after 0 iterations at t[s]:   5515.15
	Linear fluid (dielectric constant: 7.2) occupying 0.989792 of unit cell:	Completed after 0 iterations at t[s]:   5531.76
SCF: Cycle: 48   Etot: -136.577092976867306   dEtot: +2.953e-10   |Residual|: 1.040e-05   |deigs|: 1.150e-05  t[s]:   5534.21
	Linear fluid (dielectric constant: 7.2) occupying 0.989793 of unit cell:	Completed after 0 iterations at t[s]:   5538.14
	Linear fluid (dielectric constant: 7.2) occupying 0.989792 of unit cell:	Completed after 0 iterations at t[s]:   5556.06
SCF: Cycle: 49   Etot: -136.577092980926039   dEtot: -4.059e-09   |Residual|: 7.008e-06   |deigs|: 1.135e-05  t[s]:   5558.50
	Linear fluid (dielectric constant: 7.2) occupying 0.989792 of unit cell:	Completed after 0 iterations at t[s]:   5562.35
Setting wave functions to eigenvectors of Hamiltonian

Computing DFT-D3 correction:
# coordination-number S 2.866 3.203 3.197 2.859
# coordination-number Na 3.536 3.535
# diagonal-C6 S 125.81 125.81 125.81 125.81
# diagonal-C6 Na 186.11 186.11
EvdW_6 =   -0.000332
EvdW_8 =   -0.004588

-------- Electronic minimization -----------
Will mix electronic density at each iteration.
	Linear fluid (dielectric constant: 7.2) occupying 0.989789 of unit cell:	Completed after 8 iterations at t[s]:   5590.62
	Linear fluid (dielectric constant: 7.2) occupying 0.989111 of unit cell:	Completed after 9 iterations at t[s]:   5623.69
SCF: Cycle:  0   Etot: -136.530566126884992   dEtot: -2.634e-01   |Residual|: 2.588e-01   |deigs|: 1.570e-02  t[s]:   5626.29
	Linear fluid (dielectric constant: 7.2) occupying 0.990025 of unit cell:	Completed after 14 iterations at t[s]:   5651.24
	Linear fluid (dielectric constant: 7.2) occupying 0.989207 of unit cell:	Completed after 11 iterations at t[s]:   5685.82
SCF: Cycle:  1   Etot: -136.552773312628261   dEtot: -2.221e-02   |Residual|: 1.290e-01   |deigs|: 9.374e-03  t[s]:   5688.35
	Linear fluid (dielectric constant: 7.2) occupying 0.989776 of unit cell:	Completed after 16 iterations at t[s]:   5715.76
	Linear fluid (dielectric constant: 7.2) occupying 0.989881 of unit cell:	Completed after 11 iterations at t[s]:   5750.05
SCF: Cycle:  2   Etot: -136.569792428885648   dEtot: -1.702e-02   |Residual|: 2.471e-02   |deigs|: 7.824e-03  t[s]:   5752.47
	Linear fluid (dielectric constant: 7.2) occupying 0.989714 of unit cell:	Completed after 14 iterations at t[s]:   5777.55
	Linear fluid (dielectric constant: 7.2) occupying 0.989631 of unit cell:	Completed after 11 iterations at t[s]:   5812.18
SCF: Cycle:  3   Etot: -136.570924485387280   dEtot: -1.132e-03   |Residual|: 1.499e-02   |deigs|: 1.395e-03  t[s]:   5814.70
	Linear fluid (dielectric constant: 7.2) occupying 0.989583 of unit cell:	Completed after 10 iterations at t[s]:   5834.00
	Linear fluid (dielectric constant: 7.2) occupying 0.989902 of unit cell:	Completed after 9 iterations at t[s]:   5865.96
SCF: Cycle:  4   Etot: -136.575427539269242   dEtot: -4.503e-03   |Residual|: 8.700e-03   |deigs|: 4.635e-04  t[s]:   5868.45
	Linear fluid (dielectric constant: 7.2) occupying 0.989589 of unit cell:	Completed after 9 iterations at t[s]:   5886.87
	Linear fluid (dielectric constant: 7.2) occupying 0.989804 of unit cell:	Completed after 8 iterations at t[s]:   5917.17
SCF: Cycle:  5   Etot: -136.576666177167994   dEtot: -1.239e-03   |Residual|: 6.472e-03   |deigs|: 4.390e-03  t[s]:   5919.65
[...]
	Linear fluid (dielectric constant: 7.2) occupying 0.989590 of unit cell:	Completed after 0 iterations at t[s]:   3067.27
ElecMinimize: Iter:  92  Etot: -136.579007145534177  |grad|_K:  2.980e-06  alpha:  2.688e-02  linmin: -2.030e-03  t[s]:   3074.35
	Linear fluid (dielectric constant: 7.2) occupying 0.989590 of unit cell:	Completed after 0 iterations at t[s]:   3083.51
	Linear fluid (dielectric constant: 7.2) occupying 0.989590 of unit cell:	Completed after 0 iterations at t[s]:   3093.89
ElecMinimize: Iter:  93  Etot: -136.579007713717772  |grad|_K:  2.908e-06  alpha:  2.728e-02  linmin: -1.858e-03  t[s]:   3100.95
	Linear fluid (dielectric constant: 7.2) occupying 0.989590 of unit cell:	Completed after 0 iterations at t[s]:   3110.19
	Linear fluid (dielectric constant: 7.2) occupying 0.989590 of unit cell:	Completed after 0 iterations at t[s]:   3120.62
ElecMinimize: Iter:  94  Etot: -136.579008255589343  |grad|_K:  2.854e-06  alpha:  2.737e-02  linmin: -1.711e-03  t[s]:   3127.72
	Linear fluid (dielectric constant: 7.2) occupying 0.989590 of unit cell:	Completed after 0 iterations at t[s]:   3137.05
	Linear fluid (dielectric constant: 7.2) occupying 0.989590 of unit cell:	Completed after 0 iterations at t[s]:   3147.44
ElecMinimize: Iter:  95  Etot: -136.579008778787824  |grad|_K:  2.815e-06  alpha:  2.747e-02  linmin: -1.390e-03  t[s]:   3154.60
	Linear fluid (dielectric constant: 7.2) occupying 0.989590 of unit cell:	Completed after 0 iterations at t[s]:   3162.36
	Linear fluid (dielectric constant: 7.2) occupying 0.989590 of unit cell:	Completed after 0 iterations at t[s]:   3172.66
ElecMinimize: Iter:  96  Etot: -136.579009295199626  |grad|_K:  2.787e-06  alpha:  2.796e-02  linmin: -8.210e-06  t[s]:   3179.74
	Linear fluid (dielectric constant: 7.2) occupying 0.989590 of unit cell:	Completed after 0 iterations at t[s]:   3188.99
	Linear fluid (dielectric constant: 7.2) occupying 0.989590 of unit cell:	Completed after 0 iterations at t[s]:   3199.40
ElecMinimize: Iter:  97  Etot: -136.579009770862825  |grad|_K:  2.766e-06  alpha:  2.665e-02  linmin: -3.100e-03  t[s]:   3206.48
	Linear fluid (dielectric constant: 7.2) occupying 0.989590 of unit cell:	Completed after 0 iterations at t[s]:   3215.76
	Linear fluid (dielectric constant: 7.2) occupying 0.989590 of unit cell:	Completed after 0 iterations at t[s]:   3226.14
ElecMinimize: Iter:  98  Etot: -136.579010273478815  |grad|_K:  2.741e-06  alpha:  2.779e-02  linmin: -1.872e-03  t[s]:   3233.25
	Linear fluid (dielectric constant: 7.2) occupying 0.989591 of unit cell:	Completed after 0 iterations at t[s]:   3242.53
	Linear fluid (dielectric constant: 7.2) occupying 0.989591 of unit cell:	Completed after 0 iterations at t[s]:   3252.85
ElecMinimize: Iter:  99  Etot: -136.579010755749238  |grad|_K:  2.712e-06  alpha:  2.746e-02  linmin: -1.602e-03  t[s]:   3259.94
	Linear fluid (dielectric constant: 7.2) occupying 0.989591 of unit cell:	Completed after 0 iterations at t[s]:   3267.62
	Linear fluid (dielectric constant: 7.2) occupying 0.989591 of unit cell:	Completed after 0 iterations at t[s]:   3277.96
ElecMinimize: Iter: 100  Etot: -136.579011236316433  |grad|_K:  2.675e-06  alpha:  2.800e-02  linmin: -1.669e-04  t[s]:   3285.08
ElecMinimize: None of the convergence criteria satisfied after 100 iterations.
Setting wave functions to eigenvectors of Hamiltonian
Single-point solvation energy estimate, DeltaEtot = -0.048281619626607

Computing DFT-D3 correction:
# coordination-number S 2.829 3.082 3.069 2.812
# coordination-number Na 3.223 3.225
# diagonal-C6 S 125.81 125.81 125.81 125.81
# diagonal-C6 Na 186.11 186.11
EvdW_6 =   -0.000360
EvdW_8 =   -0.004980

# Ionic positions in cartesian coordinates:
ion S   4.969222812143084  14.001770615560647  25.385490941215863 1
ion S   7.136647042548890  13.288328336748188  28.606990902655106 1
ion S   8.182470121266853   9.471202447068498  28.628149787015658 1
ion S  10.349111648846344   8.730620994977158  25.410724823683442 1
ion Na   5.112850694084502   8.779138039385231  24.118280410518658 1
ion Na  10.185488847630316  13.976421353000289  24.107896280791273 1

# Forces in Cartesian coordinates:
force S   0.000324475168952  -0.000203028980801   0.000136388961028 1
force S   0.000005031705009   0.000010508370628  -0.000230769147984 1
force S  -0.000001896750329  -0.000220542590315  -0.000023457854944 1
force S   0.000154331220143  -0.000296155739881  -0.000161967976457 1
force Na   0.000321262449254   0.000026673339708   0.000447335955090 1
force Na  -0.000151200174769  -0.000402515619436   0.000450475079179 1

# Energy components:
   A_diel =       -0.0660643116332095
   Eewald =       90.0512984028814145
       EH =      203.1300139108219298
     Eloc =     -301.2216524589805999
      Enl =     -136.6848247306980397
     EvdW =       -0.0053403257623849
      Exc =      -31.2082847008048425
 Exc_core =        7.0709170477105001
       KE =       32.3549259301487808
-------------------------------------
     Etot =     -136.5790112363164326

IonicMinimize: Iter:   0  Etot: -136.579011236316433  |grad|_K:  2.064e-04  alpha:  1.000e+00

#--- Lowdin population analysis ---
# oxidation-state S -0.634 -0.021 -0.022 -0.634
# oxidation-state Na +0.842 +0.843


Computing DFT-D3 correction:
# coordination-number S 2.830 3.082 3.069 2.812
# coordination-number Na 3.224 3.226
# diagonal-C6 S 125.81 125.81 125.81 125.81
# diagonal-C6 Na 186.11 186.11
EvdW_6 =   -0.000360
EvdW_8 =   -0.004979

-------- Electronic minimization -----------
	Linear fluid (dielectric constant: 7.2) occupying 0.989591 of unit cell:	Completed after 1 iterations at t[s]:   3306.44
ElecMinimize: Iter:   0  Etot: -136.579011205022795  |grad|_K:  2.679e-06  alpha:  1.000e+00
	Linear fluid (dielectric constant: 7.2) occupying 0.989593 of unit cell:	Completed after 1 iterations at t[s]:   3325.04
	Linear fluid (dielectric constant: 7.2) occupying 0.989592 of unit cell:	Completed after 0 iterations at t[s]:   3336.94
ElecMinimize: Iter:   1  Etot: -136.579020304077801  |grad|_K:  6.731e-07  alpha:  5.440e-01  linmin:  2.507e-03  t[s]:   3344.05
	Linear fluid (dielectric constant: 7.2) occupying 0.989593 of unit cell:	Completed after 0 iterations at t[s]:   3353.33
	Linear fluid (dielectric constant: 7.2) occupying 0.989593 of unit cell:	Completed after 0 iterations at t[s]:   3365.30
ElecMinimize: Iter:   2  Etot: -136.579021344953787  |grad|_K:  6.151e-07  alpha:  9.932e-01  linmin: -1.080e-02  t[s]:   3372.45
	Linear fluid (dielectric constant: 7.2) occupying 0.989595 of unit cell:	Completed after 1 iterations at t[s]:   3383.13
	Linear fluid (dielectric constant: 7.2) occupying 0.989595 of unit cell:	Completed after 0 iterations at t[s]:   3393.55
ElecMinimize: Iter:   3  Etot: -136.579022218831511  |grad|_K:  6.275e-07  alpha:  9.864e-01  linmin:  1.118e-03  t[s]:   3400.68
	Linear fluid (dielectric constant: 7.2) occupying 0.989598 of unit cell:	Completed after 1 iterations at t[s]:   3411.50
	Linear fluid (dielectric constant: 7.2) occupying 0.989597 of unit cell:	Completed after 0 iterations at t[s]:   3421.98
ElecMinimize: Iter:   4  Etot: -136.579022987900629  |grad|_K:  5.494e-07  alpha:  8.471e-01  linmin:  7.530e-03  t[s]:   3429.07
	Linear fluid (dielectric constant: 7.2) occupying 0.989600 of unit cell:	Completed after 1 iterations at t[s]:   3439.87
	Linear fluid (dielectric constant: 7.2) occupying 0.989600 of unit cell:	Completed after 0 iterations at t[s]:   3450.30
ElecMinimize: Iter:   5  Etot: -136.579023530958807  |grad|_K:  5.254e-07  alpha:  7.984e-01  linmin: -1.747e-03  t[s]:   3457.39
	Linear fluid (dielectric constant: 7.2) occupying 0.989602 of unit cell:	Completed after 0 iterations at t[s]:   3466.66
	Linear fluid (dielectric constant: 7.2) occupying 0.989602 of unit cell:	Completed after 0 iterations at t[s]:   3477.04
ElecMinimize: Iter:   6  Etot: -136.579024018831433  |grad|_K:  4.852e-07  alpha:  7.634e-01  linmin:  7.281e-04  t[s]:   3484.16
	Linear fluid (dielectric constant: 7.2) occupying 0.989604 of unit cell:	Completed after 1 iterations at t[s]:   3494.95
	Linear fluid (dielectric constant: 7.2) occupying 0.989604 of unit cell:	Completed after 0 iterations at t[s]:   3505.31
ElecMinimize: Iter:   7  Etot: -136.579024453525619  |grad|_K:  3.886e-07  alpha:  8.027e-01  linmin: -5.026e-03  t[s]:   3512.44
	Linear fluid (dielectric constant: 7.2) occupying 0.989606 of unit cell:	Completed after 0 iterations at t[s]:   3520.19
	Linear fluid (dielectric constant: 7.2) occupying 0.989607 of unit cell:	Completed after 0 iterations at t[s]:   3532.17
ElecMinimize: Iter:   8  Etot: -136.579024801638980  |grad|_K:  3.394e-07  alpha:  1.023e+00  linmin:  9.829e-03  t[s]:   3539.34
	Linear fluid (dielectric constant: 7.2) occupying 0.989609 of unit cell:	Completed after 0 iterations at t[s]:   3548.61
	Linear fluid (dielectric constant: 7.2) occupying 0.989609 of unit cell:	Completed after 0 iterations at t[s]:   3559.04
ElecMinimize: Iter:   9  Etot: -136.579025038805241  |grad|_K:  3.059e-07  alpha:  9.213e-01  linmin: -1.252e-03  t[s]:   3566.15
	Linear fluid (dielectric constant: 7.2) occupying 0.989611 of unit cell:	Completed after 1 iterations at t[s]:   3576.82
	Linear fluid (dielectric constant: 7.2) occupying 0.989611 of unit cell:	Completed after 0 iterations at t[s]:   3587.36
ElecMinimize: Iter:  10  Etot: -136.579025197540318  |grad|_K:  2.832e-07  alpha:  7.268e-01  linmin:  1.141e-02  t[s]:   3594.46
	Linear fluid (dielectric constant: 7.2) occupying 0.989612 of unit cell:	Completed after 0 iterations at t[s]:   3603.75
	Linear fluid (dielectric constant: 7.2) occupying 0.989612 of unit cell:	Completed after 0 iterations at t[s]:   3614.25
ElecMinimize: Iter:  11  Etot: -136.579025321676170  |grad|_K:  2.349e-07  alpha:  7.025e-01  linmin: -1.420e-02  t[s]:   3621.36
	Linear fluid (dielectric constant: 7.2) occupying 0.989613 of unit cell:	Completed after 0 iterations at t[s]:   3630.70
	Linear fluid (dielectric constant: 7.2) occupying 0.989613 of unit cell:	Completed after 0 iterations at t[s]:   3641.32
ElecMinimize: Iter:  12  Etot: -136.579025425257441  |grad|_K:  1.955e-07  alpha:  7.742e-01  linmin: -2.090e-02  t[s]:   3648.50
	Linear fluid (dielectric constant: 7.2) occupying 0.989614 of unit cell:	Completed after 0 iterations at t[s]:   3657.87
	Linear fluid (dielectric constant: 7.2) occupying 0.989614 of unit cell:	Completed after 0 iterations at t[s]:   3668.27
ElecMinimize: Iter:  13  Etot: -136.579025494387508  |grad|_K:  1.895e-07  alpha:  7.475e-01  linmin: -2.124e-02  t[s]:   3675.40
	Linear fluid (dielectric constant: 7.2) occupying 0.989615 of unit cell:	Completed after 0 iterations at t[s]:   3684.72
	Linear fluid (dielectric constant: 7.2) occupying 0.989615 of unit cell:	Completed after 0 iterations at t[s]:   3695.13
ElecMinimize: Iter:  14  Etot: -136.579025550708081  |grad|_K:  1.537e-07  alpha:  6.399e-01  linmin: -5.191e-03  t[s]:   3702.25
	Linear fluid (dielectric constant: 7.2) occupying 0.989616 of unit cell:	Completed after 0 iterations at t[s]:   3709.99
	Linear fluid (dielectric constant: 7.2) occupying 0.989616 of unit cell:	Completed after 0 iterations at t[s]:   3720.42
ElecMinimize: Iter:  15  Etot: -136.579025593151158  |grad|_K:  1.428e-07  alpha:  7.669e-01  linmin: -2.072e-04  t[s]:   3727.56
	Linear fluid (dielectric constant: 7.2) occupying 0.989617 of unit cell:	Completed after 0 iterations at t[s]:   3736.91
	Linear fluid (dielectric constant: 7.2) occupying 0.989617 of unit cell:	Completed after 0 iterations at t[s]:   3747.41
ElecMinimize: Iter:  16  Etot: -136.579025618105106  |grad|_K:  1.164e-07  alpha:  5.964e-01  linmin: -5.012e-02  t[s]:   3754.48
	Linear fluid (dielectric constant: 7.2) occupying 0.989617 of unit cell:	Completed after 0 iterations at t[s]:   3762.18
	Linear fluid (dielectric constant: 7.2) occupying 0.989617 of unit cell:	Completed after 0 iterations at t[s]:   3772.59
ElecMinimize: Iter:  17  Etot: -136.579025642544480  |grad|_K:  1.200e-07  alpha:  6.865e-01  linmin:  2.133e-04  t[s]:   3779.67
	Linear fluid (dielectric constant: 7.2) occupying 0.989617 of unit cell:	Completed after 0 iterations at t[s]:   3788.91
	Linear fluid (dielectric constant: 7.2) occupying 0.989617 of unit cell:	Completed after 0 iterations at t[s]:   3799.38
ElecMinimize: Iter:  18  Etot: -136.579025651448177  |grad|_K:  1.221e-07  alpha:  4.138e-01  linmin: -2.323e-02  t[s]:   3806.51
	Linear fluid (dielectric constant: 7.2) occupying 0.989617 of unit cell:	Completed after 0 iterations at t[s]:   3814.18
	Linear fluid (dielectric constant: 7.2) occupying 0.989617 of unit cell:	Completed after 0 iterations at t[s]:   3824.52
ElecMinimize: Iter:  19  Etot: -136.579025668235630  |grad|_K:  1.075e-07  alpha:  4.455e-01  linmin: -7.100e-05  t[s]:   3831.61
	Linear fluid (dielectric constant: 7.2) occupying 0.989618 of unit cell:	Completed after 0 iterations at t[s]:   3840.93
	Linear fluid (dielectric constant: 7.2) occupying 0.989618 of unit cell:	Completed after 0 iterations at t[s]:   3851.32
ElecMinimize: Iter:  20  Etot: -136.579025673305210  |grad|_K:  1.004e-07  alpha:  2.953e-01  linmin: -5.106e-02  t[s]:   3858.37
	Linear fluid (dielectric constant: 7.2) occupying 0.989618 of unit cell:	Completed after 0 iterations at t[s]:   3866.08
	Linear fluid (dielectric constant: 7.2) occupying 0.989618 of unit cell:	Completed after 0 iterations at t[s]:   3876.47
ElecMinimize: Iter:  21  Etot: -136.579025685594019  |grad|_K:  9.251e-08  alpha:  4.311e-01  linmin:  6.405e-04  t[s]:   3883.65
	Linear fluid (dielectric constant: 7.2) occupying 0.989618 of unit cell:	Completed after 0 iterations at t[s]:   3893.04
	Linear fluid (dielectric constant: 7.2) occupying 0.989618 of unit cell:	Completed after 0 iterations at t[s]:   3903.52
ElecMinimize: Iter:  22  Etot: -136.579025688839664  |grad|_K:  8.232e-08  alpha:  2.592e-01  linmin: -1.522e-02  t[s]:   3910.65
	Linear fluid (dielectric constant: 7.2) occupying 0.989618 of unit cell:	Completed after 0 iterations at t[s]:   3918.39
	Linear fluid (dielectric constant: 7.2) occupying 0.989618 of unit cell:	Completed after 0 iterations at t[s]:   3928.82
ElecMinimize: Iter:  23  Etot: -136.579025697171602  |grad|_K:  6.996e-08  alpha:  5.016e-01  linmin:  8.148e-05  t[s]:   3935.90
ElecMinimize: Converged (|Delta Etot|<1.000000e-08 for 2 iters).
Setting wave functions to eigenvectors of Hamiltonian
IonicMinimize: 	Wrong curvature in test step, increasing alphaT to 3.000000e+00.

Computing DFT-D3 correction:
# coordination-number S 2.830 3.082 3.069 2.812
# coordination-number Na 3.224 3.226
# diagonal-C6 S 125.81 125.81 125.81 125.81
# diagonal-C6 Na 186.11 186.11
EvdW_6 =   -0.000360
EvdW_8 =   -0.004979

-------- Electronic minimization -----------
	Linear fluid (dielectric constant: 7.2) occupying 0.989618 of unit cell:	Completed after 0 iterations at t[s]:   3943.05
ElecMinimize: Iter:   0  Etot: -136.579025697171687  |grad|_K:  6.996e-08  alpha:  1.000e+00
	Linear fluid (dielectric constant: 7.2) occupying 0.989618 of unit cell:	Completed after 0 iterations at t[s]:   3958.59
	Linear fluid (dielectric constant: 7.2) occupying 0.989618 of unit cell:	Completed after 0 iterations at t[s]:   3968.90
ElecMinimize: Iter:   1  Etot: -136.579025704549963  |grad|_K:  5.135e-08  alpha:  6.548e-01  linmin: -3.195e-04  t[s]:   3976.03
	Linear fluid (dielectric constant: 7.2) occupying 0.989618 of unit cell:	Completed after 0 iterations at t[s]:   3983.74
ElecMinimize: 	Predicted alpha/alphaT>3.000000, increasing alphaT to 1.964332e+00.
	Linear fluid (dielectric constant: 7.2) occupying 0.989618 of unit cell:	Completed after 0 iterations at t[s]:   3995.70
	Linear fluid (dielectric constant: 7.2) occupying 0.989618 of unit cell:	Completed after 0 iterations at t[s]:   4007.58
ElecMinimize: 	Step increased Etot by 5.061167e-09, reducing alpha to 5.321418e-02.
	Linear fluid (dielectric constant: 7.2) occupying 0.989618 of unit cell:	Completed after 0 iterations at t[s]:   4021.73
ElecMinimize: 	Step increased Etot by 2.642764e-09, reducing alpha to 5.321418e-03.
	Linear fluid (dielectric constant: 7.2) occupying 0.989618 of unit cell:	Completed after 0 iterations at t[s]:   4035.90
ElecMinimize: 	Step increased Etot by 2.450349e-09, reducing alpha to 5.321418e-04.
ElecMinimize: 	Step failed to reduce Etot after 3 attempts. Quitting step.
ElecMinimize: 	Undoing step.
	Linear fluid (dielectric constant: 7.2) occupying 0.989618 of unit cell:	Completed after 0 iterations at t[s]:   4050.12
ElecMinimize: 	Step failed: resetting search direction.
ElecMinimize: Iter:   2  Etot: -136.579025702100580  |grad|_K:  8.524e-08  alpha:  5.321e-04
	Linear fluid (dielectric constant: 7.2) occupying 0.989618 of unit cell:	Completed after 0 iterations at t[s]:   4066.52
	Linear fluid (dielectric constant: 7.2) occupying 0.989618 of unit cell:	Completed after 0 iterations at t[s]:   4076.92
ElecMinimize: Iter:   3  Etot: -136.579025705310585  |grad|_K:  4.651e-08  alpha:  3.368e-01  linmin:  2.977e-01  t[s]:   4084.01
	Linear fluid (dielectric constant: 7.2) occupying 0.989618 of unit cell:	Completed after 0 iterations at t[s]:   4091.73
ElecMinimize: 	Predicted alpha/alphaT>3.000000, increasing alphaT to 1.010405e+00.
	Linear fluid (dielectric constant: 7.2) occupying 0.989618 of unit cell:	Completed after 0 iterations at t[s]:   4102.09
	Linear fluid (dielectric constant: 7.2) occupying 0.989618 of unit cell:	Completed after 0 iterations at t[s]:   4112.50
ElecMinimize: Iter:   4  Etot: -136.579025709918710  |grad|_K:  5.030e-08  alpha:  1.152e+00  linmin: -2.591e-04  t[s]:   4119.69
ElecMinimize: Converged (|Delta Etot|<1.000000e-08 for 2 iters).
Setting wave functions to eigenvectors of Hamiltonian

Computing DFT-D3 correction:
# coordination-number S 2.830 3.082 3.069 2.812
# coordination-number Na 3.224 3.226
# diagonal-C6 S 125.81 125.81 125.81 125.81
# diagonal-C6 Na 186.11 186.11
EvdW_6 =   -0.000360
EvdW_8 =   -0.004979

# Ionic positions in cartesian coordinates:
ion S   4.969438620042327  14.001748430116528  25.385524329340903 1
ion S   7.136543406984187  13.288519688655500  28.606657132671135 1
ion S   8.182359557246814   9.471162748014866  28.628023328324730 1
ion S  10.349157312796777   8.730505682773961  25.410459854871000 1
ion Na   5.113063289264048   8.779345556261621  24.118624745637764 1
ion Na  10.185228980185837  13.976199680917535  24.108243755034465 1

# Forces in Cartesian coordinates:
force S   0.000105465464015  -0.000155821299877   0.000027473346256 1
force S   0.000048470122469  -0.000095885472657  -0.000060573970310 1
force S   0.000005308004412  -0.000084950985253   0.000057569091151 1
force S   0.000233125333599  -0.000263850362247  -0.000145394634431 1
force Na   0.000057863736900  -0.000134002229071  -0.000097210011069 1
force Na   0.000116470146219  -0.000238567416707  -0.000090919869998 1

# Energy components:
   A_diel =       -0.0656983950093562
   Eewald =       90.0586140179301538
       EH =      203.1440328507290474
     Eloc =     -301.2437573421482284
      Enl =     -136.6844012734860598
     EvdW =       -0.0053387857912942
      Exc =      -31.2085572837163134
 Exc_core =        7.0709170442392537
       KE =       32.3551634573340792
-------------------------------------
     Etot =     -136.5790257099187102

IonicMinimize: Iter:   1  Etot: -136.579025709918710  |grad|_K:  7.043e-05  alpha: -2.799e-02  linmin: -8.349e-02  t[s]:   4129.51
IonicMinimize: Converged (|grad|_K<1.000000e-04).

#--- Lowdin population analysis ---
# oxidation-state S -0.634 -0.021 -0.022 -0.634
# oxidation-state Na +0.842 +0.842


Dumping 'Na2S4-glyme-vdw.wfns' ... done
Dumping 'Na2S4-glyme-vdw.fluidState' ... done
Dumping 'Na2S4-glyme-vdw.ionpos' ... done
End date and time: Sat Oct  5 20:25:13 2024  (Duration: 0-1:08:50.81)
Done!
