
*************** JDFTx 1.7.0  ***************

Start date and time: Fri Sep 27 05:13:55 2024
Executable jdftx_gpu with command-line: -i /home/akim2/JDFTx/Na2S8-glyme-vdw/Na2S8-glyme-vdw.in -o /home/akim2/JDFTx/Na2S8-glyme-vdw/Na2S8-glyme-vdw.out
Running on hosts (process indices):  exp-1-60 (0)
Divided in process groups (process indices):  0 (0)
gpuInit: Found compatible cuda device 0 'Tesla V100-SXM2-32GB'
gpuInit: Selected device 0
Resource initialization completed at t[s]:      0.37
Run totals: 1 processes, 1 threads, 1 GPUs


Input parsed successfully to the following command list (including defaults):

basis kpoint-dependent
coords-type Cartesian
core-overlap-check vector
coulomb-interaction Isolated
coulomb-truncation-embed 5.2244 10.9463 20.5025
davidson-band-ratio 1.1
dump End State
dump-name Na2S8-glyme-vdw.$VAR
elec-cutoff 20 100
elec-eigen-algo Davidson
elec-ex-corr gga-PBE
electronic-minimize  \
	dirUpdateScheme      FletcherReeves \
	linminMethod         DirUpdateRecommended \
	nIterations          100 \
	history              15 \
	knormThreshold       0 \
	energyDiffThreshold  1e-08 \
	nEnergyDiff          2 \
	alphaTstart          1 \
	alphaTmin            1e-10 \
	updateTestStepSize   yes \
	alphaTreduceFactor   0.1 \
	alphaTincreaseFactor 3 \
	nAlphaAdjustMax      3 \
	wolfeEnergy          0.0001 \
	wolfeGradient        0.9 \
	fdTest               no
electronic-scf  \
	nIterations	50 \
	energyDiffThreshold	1e-08 \
	residualThreshold	1e-07 \
	mixFraction	0.5 \
	qMetric	0.8 \
	history	10 \
	nEigSteps	2 \
	eigDiffThreshold	1e-08 \
	mixedVariable	Density \
	qKerker	0.8 \
	qKappa	-1 \
	verbose	no \
	mixFractionMag	1.5
exchange-regularization None
fluid LinearPCM 298.000000 1.013250
fluid-ex-corr lda-TF lda-PZ
fluid-gummel-loop 10 1.000000e-05
fluid-minimize  \
	dirUpdateScheme      PolakRibiere \
	linminMethod         DirUpdateRecommended \
	nIterations          400 \
	history              15 \
	knormThreshold       1e-11 \
	energyDiffThreshold  0 \
	nEnergyDiff          2 \
	alphaTstart          1 \
	alphaTmin            1e-10 \
	updateTestStepSize   yes \
	alphaTreduceFactor   0.1 \
	alphaTincreaseFactor 3 \
	nAlphaAdjustMax      6 \
	wolfeEnergy          0.0001 \
	wolfeGradient        0.9 \
	fdTest               no
fluid-solvent Glyme 9.62137 ScalarEOS \
	epsBulk 7.2 \
	pMol 0 \
	epsInf 1.9 \
	Pvap 0 \
	sigmaBulk 0 \
	Rvdw 0 \
	Res 0 \
	tauNuc 343133
forces-output-coords Positions
ion S   5.169234478189731  10.967621438538947  20.522239084148630 1
ion S   4.411321126437112   8.294617710479709  23.990395583349599 1
ion S   4.507744139949803  10.271406038119808  27.165350716703916 1
ion S   8.627189124613848   8.749737905301158  28.655273642525785 1
ion S  10.048262854141093  10.423634902019437  31.727575858261918 1
ion S  11.908540218035403  13.694916865039547  31.161392138925237 1
ion S   6.522639758027863  14.242358774549276  21.793066377255567 1
ion S  10.407724490682956  14.154445545985332  22.318264821497522 1
ion Na   8.900432668605006  14.750844397164466  27.184733137980480 1
ion Na   9.953760823437186   9.172923831562310  23.384025797121346 1
ion-species GBRV/$ID_pbe.uspp
ion-width Ecut
ionic-minimize  \
	dirUpdateScheme      FletcherReeves \
	linminMethod         DirUpdateRecommended \
	nIterations          200 \
	history              15 \
	knormThreshold       0.0001 \
	energyDiffThreshold  1e-06 \
	nEnergyDiff          2 \
	alphaTstart          1 \
	alphaTmin            1e-10 \
	updateTestStepSize   yes \
	alphaTreduceFactor   0.1 \
	alphaTincreaseFactor 3 \
	nAlphaAdjustMax      3 \
	wolfeEnergy          0.0001 \
	wolfeGradient        0.9 \
	fdTest               no
kpoint   0.000000000000   0.000000000000   0.000000000000  1.00000000000000
kpoint-folding 1 1 1 
latt-move-scale 1 1 1
latt-scale 1 1 1 
lattice Triclinic 28.0058 28.0058 37.7946 90 90 120
lattice-minimize  \
	dirUpdateScheme      L-BFGS \
	linminMethod         DirUpdateRecommended \
	nIterations          0 \
	history              15 \
	knormThreshold       0 \
	energyDiffThreshold  1e-06 \
	nEnergyDiff          2 \
	alphaTstart          1 \
	alphaTmin            1e-10 \
	updateTestStepSize   yes \
	alphaTreduceFactor   0.1 \
	alphaTincreaseFactor 3 \
	nAlphaAdjustMax      3 \
	wolfeEnergy          0.0001 \
	wolfeGradient        0.9 \
	fdTest               no
lcao-params -1 1e-06 0.001
pcm-variant GLSSA13
spintype no-spin
subspace-rotation-factor 1 yes
symmetries automatic
symmetry-threshold 0.0001
van-der-waals D3



---------- Setting up symmetries ----------

Found 24 point-group symmetries of the bravais lattice
Found 1 space-group symmetries with basis
Applied RMS atom displacement 0 bohrs to make symmetries exact.

---------- Initializing the Grid ----------
R = 
[      28.0058     -14.0029            0  ]
[            0      24.2537            0  ]
[            0            0      37.7946  ]
unit cell volume = 25671.8
G =
[   0.224353    0.12953         -0  ]
[          0   0.259061          0  ]
[          0         -0   0.166246  ]
Minimum fftbox size, Smin = [  128  128  172  ]
Chosen fftbox size, S = [  128  128  180  ]

---------- Initializing tighter grid for wavefunction operations ----------
R = 
[      28.0058     -14.0029            0  ]
[            0      24.2537            0  ]
[            0            0      37.7946  ]
unit cell volume = 25671.8
G =
[   0.224353    0.12953         -0  ]
[          0   0.259061          0  ]
[          0         -0   0.166246  ]
Minimum fftbox size, Smin = [  116  116  156  ]
Chosen fftbox size, S = [  120  120  160  ]

---------- Exchange Correlation functional ----------
Initalized PBE GGA exchange.
Initalized PBE GGA correlation.

---------- Setting up pseudopotentials ----------
Width of ionic core gaussian charges (only for fluid interactions / plotting) set to 0.397384

Reading pseudopotential file '/home/akim2/jdftx_install/build/pseudopotentials/GBRV/s_pbe.uspp':
  Title: S.  Created by USPP 7.3.6 on 1-4-15
  Reference state energy: -11.898476.  6 valence electrons in orbitals:
    |300>  occupation: 2  eigenvalue: -0.634167
    |310>  occupation: 4  eigenvalue: -0.257568
  lMax: 2  lLocal: 3  QijEcut: 6
  6 projectors sampled on a log grid with 635 points:
    l: 0  eig: -0.634161  rCut: 1.5
    l: 0  eig: 1.500000  rCut: 1.5
    l: 1  eig: -0.257567  rCut: 1.5
    l: 1  eig: 1.500000  rCut: 1.5
    l: 2  eig: -1.000000  rCut: 1.5
    l: 2  eig: 1.500000  rCut: 1.5
  Partial core density with radius 1.15
  Transforming core density to a uniform radial grid of dG=0.02 with 1625 points.
  Transforming local potential to a uniform radial grid of dG=0.02 with 1625 points.
  Transforming nonlocal projectors to a uniform radial grid of dG=0.02 with 432 points.
  Transforming density augmentations to a uniform radial grid of dG=0.02 with 1625 points.
  Transforming atomic orbitals to a uniform radial grid of dG=0.02 with 432 points.
  Core radius for overlap checks: 1.50 bohrs.

Reading pseudopotential file '/home/akim2/jdftx_install/build/pseudopotentials/GBRV/na_pbe.uspp':
  Title: Na.  Created by USPP 7.3.6 on 23-9-15
  Reference state energy: -47.625620.  9 valence electrons in orbitals:
    |200>  occupation: 2  eigenvalue: -2.085638
    |210>  occupation: 6  eigenvalue: -1.053708
    |300>  occupation: 1  eigenvalue: -0.100838
  lMax: 2  lLocal: 0  QijEcut: 6
  5 projectors sampled on a log grid with 657 points:
    l: 0  eig: -2.085640  rCut: 1.37
    l: 0  eig: -0.100839  rCut: 1.37
    l: 1  eig: -1.053708  rCut: 1.47
    l: 1  eig: 0.500000  rCut: 1.47
    l: 2  eig: 0.750000  rCut: 2
  Transforming local potential to a uniform radial grid of dG=0.02 with 1625 points.
  Transforming nonlocal projectors to a uniform radial grid of dG=0.02 with 432 points.
  Transforming density augmentations to a uniform radial grid of dG=0.02 with 1625 points.
  Transforming atomic orbitals to a uniform radial grid of dG=0.02 with 432 points.
  Core radius for overlap checks: 2.00 bohrs.

Initialized 2 species with 10 total atoms.

Folded 1 k-points by 1x1x1 to 1 k-points.

---------- Setting up k-points, bands, fillings ----------
No reducable k-points. 
Computing the number of bands and number of electrons
Calculating initial fillings.
nElectrons:  66.000000   nBands: 33   nStates: 1

----- Setting up reduced wavefunction bases (one per k-point) -----
average nbasis = 109673.000 , ideal nbasis = 109671.883

---------- Setting up coulomb interaction ----------
Fluid mode embedding: using embedded box, but periodic Coulomb kernel.
(Fluid response is responsible for (approximate) separation between periodic images.)
Setting up double-sized grid for truncated Coulomb potentials:
R = 
[      56.0116     -28.0058            0  ]
[            0      48.5075            0  ]
[            0            0      75.5892  ]
unit cell volume = 205374
G =
[   0.112177  0.0647651         -0  ]
[          0    0.12953          0  ]
[          0         -0  0.0831228  ]
Chosen fftbox size, S = [  256  256  360  ]
Integer grid location selected as the embedding center:
   Grid: [  53  58  98  ]
   Lattice: [  0.41221  0.451325  0.542471  ]
   Cartesian: [  5.2244  10.9463  20.5025  ]
Constructing Wigner-Seitz cell: 8 faces (6 quadrilaterals, 2 hexagons)
Range-separation parameter for embedded mesh potentials due to point charges: 0.590105 bohrs.

Initializing DFT-D3 calculator:
	Parameters set for gga-PBE functional
	s6:  1.000  s_r6:  1.217
	s8:  0.722  s_r8:  1.000
	Per-atom parameters loaded for:
	 S:  sqrtQ[a0]:  4.041  Rcov[a0]:  1.928  CN: [ 0.00 0.99 1.99 ]
	Na:  sqrtQ[a0]:  6.586  Rcov[a0]:  2.646  CN: [ 0.00 0.97 ]

---------- Setting up ewald sum ----------
Optimum gaussian width for ewald sums = 16.035857 bohr.
Real space sum over 1089 unit cells with max indices [  5  5  4  ]
Reciprocal space sum over 4275 terms with max indices [  7  7  9  ]

Computing DFT-D3 correction:
# coordination-number S 2.657 2.792 2.473 3.251 2.348 2.000 3.012 2.951
# coordination-number Na 4.347 4.456
# diagonal-C6 S 125.81 125.81 125.81 125.81 125.82 125.90 125.81 125.81
# diagonal-C6 Na 186.11 186.11
EvdW_6 =   -0.002897
EvdW_8 =   -0.011005

---------- Allocating electronic variables ----------
Initializing wave functions:  linear combination of atomic orbitals
S pseudo-atom occupations:   s ( 2 )  p ( 4 )
Na pseudo-atom occupations:   s ( 2 1 )  p ( 6 )
	FillingsUpdate:  mu: -0.155902056  nElectrons: 66.000000
LCAOMinimize: Iter:   0  Etot: -177.0418145824957037  |grad|_K:  1.723e-02  alpha:  1.000e+00
	FillingsUpdate:  mu: -0.155035785  nElectrons: 66.000000
LCAOMinimize: Iter:   1  Etot: -177.0703324089457453  |grad|_K:  1.529e-02  alpha:  5.351e-02  linmin: -3.229e-01  cgtest:  9.430e-01  t[s]:      4.02
LCAOMinimize: Encountered beta<0, resetting CG.
LCAOMinimize: 	Predicted alpha/alphaT>3.000000, increasing alphaT to 1.605173e-01.
LCAOMinimize: 	Predicted alpha/alphaT>3.000000, increasing alphaT to 4.815518e-01.
	FillingsUpdate:  mu: -0.164464631  nElectrons: 66.000000
LCAOMinimize: Iter:   2  Etot: -177.1079928349720660  |grad|_K:  1.175e-02  alpha:  9.359e-02  linmin: -3.474e-01  cgtest:  8.963e-01  t[s]:      4.72
LCAOMinimize: Encountered beta<0, resetting CG.
LCAOMinimize: 	Predicted alpha/alphaT>3.000000, increasing alphaT to 2.807683e-01.
	FillingsUpdate:  mu: -0.168942156  nElectrons: 66.000000
LCAOMinimize: Iter:   3  Etot: -177.1437812351495893  |grad|_K:  9.232e-03  alpha:  2.675e-01  linmin:  9.766e-02  cgtest: -1.218e-01  t[s]:      5.28
LCAOMinimize: None of the convergence criteria satisfied after 3 iterations.
----- createFluidSolver() ----- (Fluid-side solver setup)
   Initializing fluid molecule 'Glyme'
     Net charge: 0   dipole magnitude: 0
     Initializing spherical shell mfKernel with radius 0 Bohr
     deltaS corrections:

Correction to mu due to finite nuclear width = -0.000318858
   Cavity determined by nc: 8.36e-05 and sigma: 0.6
   Effective cavity tension: -8.03e-06 Eh/bohr^2 to account for cavitation and dispersion.


---- Citations for features of the code used in this run ----

   Software package:
      R. Sundararaman, K. Letchworth-Weaver, K.A. Schwarz, D. Gunceler, Y. Ozhabes and T.A. Arias, 'JDFTx: software for joint density-functional theory', SoftwareX 6, 278 (2017)

   gga-PBE exchange-correlation functional:
      J.P. Perdew, K. Burke and M. Ernzerhof, Phys. Rev. Lett. 77, 3865 (1996)

   Pseudopotentials:
      KF Garrity, JW Bennett, KM Rabe and D Vanderbilt, Comput. Mater. Sci. 81, 446 (2014)

   Truncated Coulomb potentials:
      R. Sundararaman and T.A. Arias, Phys. Rev. B 87, 165122 (2013)

   DFT-D3 dispersion correction:
      S. Grimme, J. Antony, S. Ehrlich and H. Krieg, J. Chem. Phys. 132, 154104 (2010)

   Linear/nonlinear dielectric/ionic fluid model with effective cavity tension:
      D. Gunceler, K. Letchworth-Weaver, R. Sundararaman, K.A. Schwarz and T.A. Arias, Modelling Simul. Mater. Sci. Eng. 21, 074005 (2013)

This list may not be complete. Please suggest additional citations or
report any other bugs at https://github.com/shankar1729/jdftx/issues

Initialization completed successfully at t[s]:      5.30


Computing DFT-D3 correction:
# coordination-number S 2.657 2.792 2.473 3.251 2.348 2.000 3.012 2.951
# coordination-number Na 4.347 4.456
# diagonal-C6 S 125.81 125.81 125.81 125.81 125.82 125.90 125.81 125.81
# diagonal-C6 Na 186.11 186.11
EvdW_6 =   -0.002897
EvdW_8 =   -0.011005
Fluid solver invoked on fresh (random / LCAO) wavefunctions
Running a vacuum solve first:

-------- Initial electronic minimization -----------
Will mix electronic density at each iteration.
SCF: Cycle:  0   Etot: -177.401655763835805   dEtot: -2.579e-01   |Residual|: 3.325e-01   |deigs|: 1.375e-02  t[s]:      5.98
SCF: Cycle:  1   Etot: -177.557138830602184   dEtot: -1.555e-01   |Residual|: 1.784e-01   |deigs|: 1.711e-02  t[s]:      6.48
SCF: Cycle:  2   Etot: -177.652813685131520   dEtot: -9.567e-02   |Residual|: 8.153e-02   |deigs|: 1.859e-02  t[s]:      6.98
SCF: Cycle:  3   Etot: -177.658525838685676   dEtot: -5.712e-03   |Residual|: 4.110e-02   |deigs|: 5.166e-03  t[s]:      7.47
SCF: Cycle:  4   Etot: -177.665098043065598   dEtot: -6.572e-03   |Residual|: 2.907e-02   |deigs|: 8.263e-03  t[s]:      7.96
SCF: Cycle:  5   Etot: -177.667998620255901   dEtot: -2.901e-03   |Residual|: 1.431e-02   |deigs|: 2.055e-03  t[s]:      8.44
SCF: Cycle:  6   Etot: -177.668418444998053   dEtot: -4.198e-04   |Residual|: 1.029e-02   |deigs|: 5.074e-03  t[s]:      8.94
SCF: Cycle:  7   Etot: -177.668724728554253   dEtot: -3.063e-04   |Residual|: 8.955e-03   |deigs|: 1.818e-03  t[s]:      9.43
SCF: Cycle:  8   Etot: -177.669320864529396   dEtot: -5.961e-04   |Residual|: 7.597e-03   |deigs|: 4.569e-03  t[s]:      9.91
SCF: Cycle:  9   Etot: -177.669404483637862   dEtot: -8.362e-05   |Residual|: 5.254e-03   |deigs|: 1.273e-03  t[s]:     10.37
SCF: Cycle: 10   Etot: -177.669394440897776   dEtot: +1.004e-05   |Residual|: 5.625e-03   |deigs|: 1.049e-03  t[s]:     10.85
SCF: Cycle: 11   Etot: -177.669455265039119   dEtot: -6.082e-05   |Residual|: 2.579e-03   |deigs|: 1.278e-03  t[s]:     11.31
SCF: Cycle: 12   Etot: -177.669413795329604   dEtot: +4.147e-05   |Residual|: 5.661e-03   |deigs|: 1.160e-03  t[s]:     11.80
SCF: Cycle: 13   Etot: -177.669493837001539   dEtot: -8.004e-05   |Residual|: 1.818e-03   |deigs|: 3.340e-04  t[s]:     12.27
SCF: Cycle: 14   Etot: -177.669519791341401   dEtot: -2.595e-05   |Residual|: 1.138e-03   |deigs|: 3.393e-04  t[s]:     12.69
SCF: Cycle: 15   Etot: -177.669529823595269   dEtot: -1.003e-05   |Residual|: 1.090e-03   |deigs|: 3.310e-04  t[s]:     13.11
SCF: Cycle: 16   Etot: -177.669534857411179   dEtot: -5.034e-06   |Residual|: 7.804e-04   |deigs|: 2.895e-04  t[s]:     13.53
SCF: Cycle: 17   Etot: -177.669537052427188   dEtot: -2.195e-06   |Residual|: 6.349e-04   |deigs|: 4.012e-04  t[s]:     13.95
SCF: Cycle: 18   Etot: -177.669538217621323   dEtot: -1.165e-06   |Residual|: 5.489e-04   |deigs|: 3.186e-04  t[s]:     14.37
SCF: Cycle: 19   Etot: -177.669538766340480   dEtot: -5.487e-07   |Residual|: 6.150e-04   |deigs|: 2.575e-04  t[s]:     14.83
SCF: Cycle: 20   Etot: -177.669539176130741   dEtot: -4.098e-07   |Residual|: 4.013e-04   |deigs|: 5.821e-05  t[s]:     15.25
SCF: Cycle: 21   Etot: -177.669538892881604   dEtot: +2.832e-07   |Residual|: 5.738e-04   |deigs|: 5.711e-05  t[s]:     15.67
SCF: Cycle: 22   Etot: -177.669539865744781   dEtot: -9.729e-07   |Residual|: 2.529e-04   |deigs|: 7.395e-05  t[s]:     16.08
SCF: Cycle: 23   Etot: -177.669540241175298   dEtot: -3.754e-07   |Residual|: 3.125e-04   |deigs|: 6.583e-05  t[s]:     16.50
SCF: Cycle: 24   Etot: -177.669540724923024   dEtot: -4.837e-07   |Residual|: 1.912e-04   |deigs|: 4.209e-05  t[s]:     16.92
SCF: Cycle: 25   Etot: -177.669541182320188   dEtot: -4.574e-07   |Residual|: 1.363e-04   |deigs|: 2.095e-05  t[s]:     17.34
SCF: Cycle: 26   Etot: -177.669541438586634   dEtot: -2.563e-07   |Residual|: 1.301e-04   |deigs|: 4.678e-05  t[s]:     17.75
SCF: Cycle: 27   Etot: -177.669541542280484   dEtot: -1.037e-07   |Residual|: 9.884e-05   |deigs|: 2.948e-05  t[s]:     18.18
SCF: Cycle: 28   Etot: -177.669541607617163   dEtot: -6.534e-08   |Residual|: 5.538e-05   |deigs|: 1.668e-05  t[s]:     18.60
SCF: Cycle: 29   Etot: -177.669541680154055   dEtot: -7.254e-08   |Residual|: 4.422e-05   |deigs|: 3.096e-06  t[s]:     19.08
SCF: Cycle: 30   Etot: -177.669541712973142   dEtot: -3.282e-08   |Residual|: 3.053e-05   |deigs|: 3.577e-06  t[s]:     19.50
SCF: Cycle: 31   Etot: -177.669541749958114   dEtot: -3.698e-08   |Residual|: 3.017e-05   |deigs|: 6.833e-06  t[s]:     19.99
SCF: Cycle: 32   Etot: -177.669541765589656   dEtot: -1.563e-08   |Residual|: 2.004e-05   |deigs|: 3.147e-06  t[s]:     20.40
SCF: Cycle: 33   Etot: -177.669541786595801   dEtot: -2.101e-08   |Residual|: 1.848e-05   |deigs|: 3.838e-06  t[s]:     20.89
SCF: Cycle: 34   Etot: -177.669541796412517   dEtot: -9.817e-09   |Residual|: 2.610e-05   |deigs|: 4.579e-06  t[s]:     21.31
SCF: Cycle: 35   Etot: -177.669541808364954   dEtot: -1.195e-08   |Residual|: 1.674e-05   |deigs|: 3.288e-06  t[s]:     21.80
SCF: Cycle: 36   Etot: -177.669541812274076   dEtot: -3.909e-09   |Residual|: 1.198e-05   |deigs|: 1.890e-06  t[s]:     22.21
SCF: Cycle: 37   Etot: -177.669541817479825   dEtot: -5.206e-09   |Residual|: 1.335e-05   |deigs|: 3.111e-06  t[s]:     22.70
SCF: Converged (|Delta E|<1.000000e-08 for 2 iters).

Setting wave functions to eigenvectors of Hamiltonian
Vacuum energy after initial minimize, Etot = -177.669541817479825


-------- Electronic minimization -----------
Will mix electronic density at each iteration.
	Linear fluid (dielectric constant: 7.2) occupying 0.983911 of unit cell:	Completed after 9 iterations at t[s]:     23.49
	Linear fluid (dielectric constant: 7.2) occupying 0.983990 of unit cell:	Completed after 7 iterations at t[s]:     24.76
SCF: Cycle:  0   Etot: -177.700695916828465   dEtot: -5.676e-03   |Residual|: 1.358e-02   |deigs|: 1.379e-04  t[s]:     24.96
	Linear fluid (dielectric constant: 7.2) occupying 0.983969 of unit cell:	Completed after 6 iterations at t[s]:     25.63
	Linear fluid (dielectric constant: 7.2) occupying 0.984043 of unit cell:	Completed after 7 iterations at t[s]:     26.83
SCF: Cycle:  1   Etot: -177.701611692991008   dEtot: -9.158e-04   |Residual|: 9.542e-03   |deigs|: 7.540e-04  t[s]:     27.08
	Linear fluid (dielectric constant: 7.2) occupying 0.983997 of unit cell:	Completed after 6 iterations at t[s]:     27.77
	Linear fluid (dielectric constant: 7.2) occupying 0.984105 of unit cell:	Completed after 7 iterations at t[s]:     29.08
SCF: Cycle:  2   Etot: -177.702369807737796   dEtot: -7.581e-04   |Residual|: 7.730e-03   |deigs|: 1.675e-03  t[s]:     29.34
	Linear fluid (dielectric constant: 7.2) occupying 0.983973 of unit cell:	Completed after 6 iterations at t[s]:     30.03
	Linear fluid (dielectric constant: 7.2) occupying 0.984096 of unit cell:	Completed after 7 iterations at t[s]:     31.34
SCF: Cycle:  3   Etot: -177.702502225333802   dEtot: -1.324e-04   |Residual|: 5.521e-03   |deigs|: 1.083e-03  t[s]:     31.61
	Linear fluid (dielectric constant: 7.2) occupying 0.983944 of unit cell:	Completed after 6 iterations at t[s]:     32.30
	Linear fluid (dielectric constant: 7.2) occupying 0.984140 of unit cell:	Completed after 7 iterations at t[s]:     33.61
SCF: Cycle:  4   Etot: -177.703142824590714   dEtot: -6.406e-04   |Residual|: 6.103e-03   |deigs|: 1.040e-03  t[s]:     33.88
	Linear fluid (dielectric constant: 7.2) occupying 0.983954 of unit cell:	Completed after 6 iterations at t[s]:     34.56
	Linear fluid (dielectric constant: 7.2) occupying 0.984146 of unit cell:	Completed after 7 iterations at t[s]:     35.87
SCF: Cycle:  5   Etot: -177.703334172362474   dEtot: -1.913e-04   |Residual|: 4.043e-03   |deigs|: 2.825e-04  t[s]:     36.13
	Linear fluid (dielectric constant: 7.2) occupying 0.983989 of unit cell:	Completed after 5 iterations at t[s]:     36.76
	Linear fluid (dielectric constant: 7.2) occupying 0.984151 of unit cell:	Completed after 6 iterations at t[s]:     38.01
SCF: Cycle:  6   Etot: -177.703799944316302   dEtot: -4.658e-04   |Residual|: 2.635e-03   |deigs|: 1.613e-03  t[s]:     38.27
	Linear fluid (dielectric constant: 7.2) occupying 0.984030 of unit cell:	Completed after 5 iterations at t[s]:     38.90
	Linear fluid (dielectric constant: 7.2) occupying 0.984152 of unit cell:	Completed after 6 iterations at t[s]:     40.15
SCF: Cycle:  7   Etot: -177.704147035257336   dEtot: -3.471e-04   |Residual|: 2.457e-03   |deigs|: 1.822e-03  t[s]:     40.39
	Linear fluid (dielectric constant: 7.2) occupying 0.984068 of unit cell:	Completed after 5 iterations at t[s]:     41.03
	Linear fluid (dielectric constant: 7.2) occupying 0.984145 of unit cell:	Completed after 6 iterations at t[s]:     42.29
SCF: Cycle:  8   Etot: -177.704326885845717   dEtot: -1.799e-04   |Residual|: 2.347e-03   |deigs|: 1.291e-03  t[s]:     42.53
	Linear fluid (dielectric constant: 7.2) occupying 0.984055 of unit cell:	Completed after 5 iterations at t[s]:     43.16
	Linear fluid (dielectric constant: 7.2) occupying 0.984133 of unit cell:	Completed after 5 iterations at t[s]:     44.39
SCF: Cycle:  9   Etot: -177.704448337858821   dEtot: -1.215e-04   |Residual|: 1.101e-03   |deigs|: 1.231e-03  t[s]:     44.59
	Linear fluid (dielectric constant: 7.2) occupying 0.984018 of unit cell:	Completed after 5 iterations at t[s]:     45.23
	Linear fluid (dielectric constant: 7.2) occupying 0.984127 of unit cell:	Completed after 5 iterations at t[s]:     46.36
SCF: Cycle: 10   Etot: -177.704449846285740   dEtot: -1.508e-06   |Residual|: 1.398e-03   |deigs|: 2.432e-04  t[s]:     46.57
	Linear fluid (dielectric constant: 7.2) occupying 0.983979 of unit cell:	Completed after 5 iterations at t[s]:     47.21
	Linear fluid (dielectric constant: 7.2) occupying 0.984112 of unit cell:	Completed after 5 iterations at t[s]:     48.42
SCF: Cycle: 11   Etot: -177.704463115219085   dEtot: -1.327e-05   |Residual|: 1.516e-03   |deigs|: 7.924e-04  t[s]:     48.62
	Linear fluid (dielectric constant: 7.2) occupying 0.983988 of unit cell:	Completed after 5 iterations at t[s]:     49.26
	Linear fluid (dielectric constant: 7.2) occupying 0.984112 of unit cell:	Completed after 5 iterations at t[s]:     50.48
SCF: Cycle: 12   Etot: -177.704457797775547   dEtot: +5.317e-06   |Residual|: 1.087e-03   |deigs|: 3.160e-04  t[s]:     50.70
	Linear fluid (dielectric constant: 7.2) occupying 0.984013 of unit cell:	Completed after 4 iterations at t[s]:     51.30
	Linear fluid (dielectric constant: 7.2) occupying 0.984114 of unit cell:	Completed after 4 iterations at t[s]:     52.37
SCF: Cycle: 13   Etot: -177.704465195261093   dEtot: -7.397e-06   |Residual|: 8.734e-04   |deigs|: 3.724e-04  t[s]:     52.56
	Linear fluid (dielectric constant: 7.2) occupying 0.984027 of unit cell:	Completed after 4 iterations at t[s]:     53.16
	Linear fluid (dielectric constant: 7.2) occupying 0.984113 of unit cell:	Completed after 3 iterations at t[s]:     54.15
SCF: Cycle: 14   Etot: -177.704472001896960   dEtot: -6.807e-06   |Residual|: 5.370e-04   |deigs|: 3.985e-04  t[s]:     54.34
	Linear fluid (dielectric constant: 7.2) occupying 0.984027 of unit cell:	Completed after 3 iterations at t[s]:     54.90
	Linear fluid (dielectric constant: 7.2) occupying 0.984114 of unit cell:	Completed after 3 iterations at t[s]:     55.89
SCF: Cycle: 15   Etot: -177.704474148485133   dEtot: -2.147e-06   |Residual|: 3.481e-04   |deigs|: 8.142e-05  t[s]:     56.08
	Linear fluid (dielectric constant: 7.2) occupying 0.984042 of unit cell:	Completed after 3 iterations at t[s]:     56.65
	Linear fluid (dielectric constant: 7.2) occupying 0.984114 of unit cell:	Completed after 3 iterations at t[s]:     57.64
SCF: Cycle: 16   Etot: -177.704474374291578   dEtot: -2.258e-07   |Residual|: 4.827e-04   |deigs|: 7.541e-05  t[s]:     57.83
	Linear fluid (dielectric constant: 7.2) occupying 0.984074 of unit cell:	Completed after 4 iterations at t[s]:     58.43
	Linear fluid (dielectric constant: 7.2) occupying 0.984117 of unit cell:	Completed after 3 iterations at t[s]:     59.50
SCF: Cycle: 17   Etot: -177.704475229414925   dEtot: -8.551e-07   |Residual|: 3.522e-04   |deigs|: 2.042e-04  t[s]:     59.69
	Linear fluid (dielectric constant: 7.2) occupying 0.984103 of unit cell:	Completed after 3 iterations at t[s]:     60.26
	Linear fluid (dielectric constant: 7.2) occupying 0.984118 of unit cell:	Completed after 2 iterations at t[s]:     61.21
SCF: Cycle: 18   Etot: -177.704474942775221   dEtot: +2.866e-07   |Residual|: 2.977e-04   |deigs|: 2.908e-05  t[s]:     61.40
	Linear fluid (dielectric constant: 7.2) occupying 0.984116 of unit cell:	Completed after 3 iterations at t[s]:     61.97
	Linear fluid (dielectric constant: 7.2) occupying 0.984120 of unit cell:	Completed after 2 iterations at t[s]:     63.00
SCF: Cycle: 19   Etot: -177.704475251955955   dEtot: -3.092e-07   |Residual|: 2.874e-04   |deigs|: 1.003e-04  t[s]:     63.19
	Linear fluid (dielectric constant: 7.2) occupying 0.984114 of unit cell:	Completed after 2 iterations at t[s]:     63.72
	Linear fluid (dielectric constant: 7.2) occupying 0.984121 of unit cell:	Completed after 2 iterations at t[s]:     64.70
SCF: Cycle: 20   Etot: -177.704475333613061   dEtot: -8.166e-08   |Residual|: 3.766e-04   |deigs|: 3.794e-05  t[s]:     64.89
	Linear fluid (dielectric constant: 7.2) occupying 0.984129 of unit cell:	Completed after 2 iterations at t[s]:     65.42
	Linear fluid (dielectric constant: 7.2) occupying 0.984122 of unit cell:	Completed after 2 iterations at t[s]:     66.35
SCF: Cycle: 21   Etot: -177.704475846187449   dEtot: -5.126e-07   |Residual|: 1.632e-04   |deigs|: 4.023e-05  t[s]:     66.54
	Linear fluid (dielectric constant: 7.2) occupying 0.984132 of unit cell:	Completed after 2 iterations at t[s]:     67.07
	Linear fluid (dielectric constant: 7.2) occupying 0.984123 of unit cell:	Completed after 1 iterations at t[s]:     67.92
SCF: Cycle: 22   Etot: -177.704475970127845   dEtot: -1.239e-07   |Residual|: 1.952e-04   |deigs|: 7.517e-05  t[s]:     68.11
	Linear fluid (dielectric constant: 7.2) occupying 0.984129 of unit cell:	Completed after 1 iterations at t[s]:     68.58
	Linear fluid (dielectric constant: 7.2) occupying 0.984122 of unit cell:	Completed after 1 iterations at t[s]:     69.44
SCF: Cycle: 23   Etot: -177.704476281904988   dEtot: -3.118e-07   |Residual|: 1.014e-04   |deigs|: 1.767e-05  t[s]:     69.63
	Linear fluid (dielectric constant: 7.2) occupying 0.984127 of unit cell:	Completed after 2 iterations at t[s]:     70.14
	Linear fluid (dielectric constant: 7.2) occupying 0.984122 of unit cell:	Completed after 2 iterations at t[s]:     71.03
SCF: Cycle: 24   Etot: -177.704476310653405   dEtot: -2.875e-08   |Residual|: 9.087e-05   |deigs|: 1.041e-05  t[s]:     71.22
	Linear fluid (dielectric constant: 7.2) occupying 0.984125 of unit cell:	Completed after 2 iterations at t[s]:     71.74
	Linear fluid (dielectric constant: 7.2) occupying 0.984122 of unit cell:	Completed after 2 iterations at t[s]:     72.68
SCF: Cycle: 25   Etot: -177.704476392365081   dEtot: -8.171e-08   |Residual|: 5.959e-05   |deigs|: 7.269e-06  t[s]:     72.86
	Linear fluid (dielectric constant: 7.2) occupying 0.984124 of unit cell:	Completed after 1 iterations at t[s]:     73.35
	Linear fluid (dielectric constant: 7.2) occupying 0.984122 of unit cell:	Completed after 1 iterations at t[s]:     74.18
SCF: Cycle: 26   Etot: -177.704476457410777   dEtot: -6.505e-08   |Residual|: 4.754e-05   |deigs|: 2.003e-05  t[s]:     74.37
	Linear fluid (dielectric constant: 7.2) occupying 0.984123 of unit cell:	Completed after 0 iterations at t[s]:     74.80
	Linear fluid (dielectric constant: 7.2) occupying 0.984122 of unit cell:	Completed after 0 iterations at t[s]:     75.58
SCF: Cycle: 27   Etot: -177.704476513736608   dEtot: -5.633e-08   |Residual|: 3.800e-05   |deigs|: 2.170e-05  t[s]:     75.77
	Linear fluid (dielectric constant: 7.2) occupying 0.984121 of unit cell:	Completed after 0 iterations at t[s]:     76.17
	Linear fluid (dielectric constant: 7.2) occupying 0.984121 of unit cell:	Completed after 0 iterations at t[s]:     76.95
SCF: Cycle: 28   Etot: -177.704476530701868   dEtot: -1.697e-08   |Residual|: 3.423e-05   |deigs|: 1.424e-05  t[s]:     77.14
	Linear fluid (dielectric constant: 7.2) occupying 0.984120 of unit cell:	Completed after 0 iterations at t[s]:     77.54
	Linear fluid (dielectric constant: 7.2) occupying 0.984121 of unit cell:	Completed after 0 iterations at t[s]:     78.32
SCF: Cycle: 29   Etot: -177.704476538125732   dEtot: -7.424e-09   |Residual|: 2.121e-05   |deigs|: 4.369e-06  t[s]:     78.51
	Linear fluid (dielectric constant: 7.2) occupying 0.984119 of unit cell:	Completed after 0 iterations at t[s]:     78.88
	Linear fluid (dielectric constant: 7.2) occupying 0.984121 of unit cell:	Completed after 0 iterations at t[s]:     79.62
SCF: Cycle: 30   Etot: -177.704476544252827   dEtot: -6.127e-09   |Residual|: 1.712e-05   |deigs|: 7.205e-06  t[s]:     79.81
SCF: Converged (|Delta E|<1.000000e-08 for 2 iters).

Setting wave functions to eigenvectors of Hamiltonian
Single-point solvation energy estimate, DeltaEtot = -0.034934726773002

Computing DFT-D3 correction:
# coordination-number S 2.657 2.792 2.473 3.251 2.348 2.000 3.012 2.951
# coordination-number Na 4.347 4.456
# diagonal-C6 S 125.81 125.81 125.81 125.81 125.82 125.90 125.81 125.81
# diagonal-C6 Na 186.11 186.11
EvdW_6 =   -0.002897
EvdW_8 =   -0.011005

# Ionic positions in cartesian coordinates:
ion S   5.169234478189731  10.967621438538947  20.522239084148630 1
ion S   4.411321126437112   8.294617710479709  23.990395583349599 1
ion S   4.507744139949803  10.271406038119808  27.165350716703916 1
ion S   8.627189124613848   8.749737905301158  28.655273642525785 1
ion S  10.048262854141093  10.423634902019437  31.727575858261918 1
ion S  11.908540218035403  13.694916865039547  31.161392138925237 1
ion S   6.522639758027863  14.242358774549276  21.793066377255567 1
ion S  10.407724490682956  14.154445545985332  22.318264821497522 1
ion Na   8.900432668605006  14.750844397164466  27.184733137980480 1
ion Na   9.953760823437186   9.172923831562310  23.384025797121346 1

# Forces in Cartesian coordinates:
force S  -0.001484242375358  -0.000227656603652  -0.000069095550070 1
force S  -0.002585266030698  -0.000461283519838  -0.000527153791074 1
force S   0.000792282190324  -0.001125441123206   0.000012568378007 1
force S  -0.002336036604097   0.001669846454565   0.001595424480764 1
force S  -0.000176365243802  -0.000873499568226   0.001302571495776 1
force S   0.002476078924493  -0.001228356463020   0.001117958391078 1
force S   0.002662841937281   0.000668990957504   0.000429855520318 1
force S  -0.002820091284344   0.002799148496357  -0.002183593137367 1
force Na  -0.002481999534917   0.005117287405486   0.000927065206732 1
force Na   0.006152157910385  -0.006403786332248  -0.003292709760768 1

# Energy components:
   A_diel =       -0.0461933377245236
   Eewald =      201.3256648030495057
       EH =      346.6480393973597529
     Eloc =     -609.7348444129406744
      Enl =     -129.6508870355648924
     EvdW =       -0.0139020960341984
      Exc =      -47.9838686484467942
 Exc_core =       14.1418398070570106
       KE =       47.6096749789920324
-------------------------------------
     Etot =     -177.7044765442528274

IonicMinimize: Iter:   0  Etot: -177.704476544252827  |grad|_K:  2.481e-03  alpha:  1.000e+00

#--- Lowdin population analysis ---
# oxidation-state S -0.063 -0.022 -0.050 -0.132 +0.236 -0.466 +0.164 -0.556
# oxidation-state Na +0.779 +0.801


Computing DFT-D3 correction:
# coordination-number S 2.653 2.788 2.471 3.248 2.345 1.999 3.009 2.949
# coordination-number Na 4.333 4.431
# diagonal-C6 S 125.81 125.81 125.81 125.81 125.82 125.90 125.81 125.81
# diagonal-C6 Na 186.11 186.11
EvdW_6 =   -0.002899
EvdW_8 =   -0.011027

-------- Electronic minimization -----------
Will mix electronic density at each iteration.
	Linear fluid (dielectric constant: 7.2) occupying 0.984118 of unit cell:	Completed after 4 iterations at t[s]:     80.89
	Linear fluid (dielectric constant: 7.2) occupying 0.984118 of unit cell:	Completed after 2 iterations at t[s]:     81.88
SCF: Cycle:  0   Etot: -177.704652400185779   dEtot: -6.977e-06   |Residual|: 9.037e-04   |deigs|: 1.831e-07  t[s]:     82.08
	Linear fluid (dielectric constant: 7.2) occupying 0.984123 of unit cell:	Completed after 2 iterations at t[s]:     82.59
	Linear fluid (dielectric constant: 7.2) occupying 0.984115 of unit cell:	Completed after 1 iterations at t[s]:     83.45
SCF: Cycle:  1   Etot: -177.704654558141698   dEtot: -2.158e-06   |Residual|: 4.961e-04   |deigs|: 2.442e-05  t[s]:     83.63
	Linear fluid (dielectric constant: 7.2) occupying 0.984126 of unit cell:	Completed after 1 iterations at t[s]:     84.09
	Linear fluid (dielectric constant: 7.2) occupying 0.984117 of unit cell:	Completed after 1 iterations at t[s]:     84.92
SCF: Cycle:  2   Etot: -177.704655288286489   dEtot: -7.301e-07   |Residual|: 1.462e-04   |deigs|: 3.947e-05  t[s]:     85.11
	Linear fluid (dielectric constant: 7.2) occupying 0.984125 of unit cell:	Completed after 1 iterations at t[s]:     85.56
	Linear fluid (dielectric constant: 7.2) occupying 0.984117 of unit cell:	Completed after 1 iterations at t[s]:     86.39
SCF: Cycle:  3   Etot: -177.704655461984714   dEtot: -1.737e-07   |Residual|: 1.048e-04   |deigs|: 1.108e-05  t[s]:     86.58
	Linear fluid (dielectric constant: 7.2) occupying 0.984122 of unit cell:	Completed after 0 iterations at t[s]:     87.00
	Linear fluid (dielectric constant: 7.2) occupying 0.984118 of unit cell:	Completed after 0 iterations at t[s]:     87.78
SCF: Cycle:  4   Etot: -177.704655548491360   dEtot: -8.651e-08   |Residual|: 4.722e-05   |deigs|: 3.737e-05  t[s]:     87.96
	Linear fluid (dielectric constant: 7.2) occupying 0.984120 of unit cell:	Completed after 0 iterations at t[s]:     88.36
	Linear fluid (dielectric constant: 7.2) occupying 0.984117 of unit cell:	Completed after 0 iterations at t[s]:     89.14
SCF: Cycle:  5   Etot: -177.704655587487593   dEtot: -3.900e-08   |Residual|: 3.497e-05   |deigs|: 6.347e-06  t[s]:     89.33
	Linear fluid (dielectric constant: 7.2) occupying 0.984116 of unit cell:	Completed after 0 iterations at t[s]:     89.72
	Linear fluid (dielectric constant: 7.2) occupying 0.984117 of unit cell:	Completed after 0 iterations at t[s]:     90.50
SCF: Cycle:  6   Etot: -177.704655606776043   dEtot: -1.929e-08   |Residual|: 2.127e-05   |deigs|: 5.555e-06  t[s]:     90.69
	Linear fluid (dielectric constant: 7.2) occupying 0.984116 of unit cell:	Completed after 0 iterations at t[s]:     91.08
	Linear fluid (dielectric constant: 7.2) occupying 0.984117 of unit cell:	Completed after 0 iterations at t[s]:     91.87
SCF: Cycle:  7   Etot: -177.704655622922274   dEtot: -1.615e-08   |Residual|: 1.914e-05   |deigs|: 2.006e-06  t[s]:     92.05
	Linear fluid (dielectric constant: 7.2) occupying 0.984115 of unit cell:	Completed after 0 iterations at t[s]:     92.45
	Linear fluid (dielectric constant: 7.2) occupying 0.984117 of unit cell:	Completed after 0 iterations at t[s]:     93.23
SCF: Cycle:  8   Etot: -177.704655636404141   dEtot: -1.348e-08   |Residual|: 1.430e-05   |deigs|: 3.203e-06  t[s]:     93.42
	Linear fluid (dielectric constant: 7.2) occupying 0.984114 of unit cell:	Completed after 0 iterations at t[s]:     93.78
	Linear fluid (dielectric constant: 7.2) occupying 0.984117 of unit cell:	Completed after 0 iterations at t[s]:     94.53
SCF: Cycle:  9   Etot: -177.704655652642032   dEtot: -1.624e-08   |Residual|: 1.392e-05   |deigs|: 8.131e-06  t[s]:     94.72
	Linear fluid (dielectric constant: 7.2) occupying 0.984115 of unit cell:	Completed after 0 iterations at t[s]:     95.09
	Linear fluid (dielectric constant: 7.2) occupying 0.984117 of unit cell:	Completed after 0 iterations at t[s]:     95.87
SCF: Cycle: 10   Etot: -177.704655655610452   dEtot: -2.968e-09   |Residual|: 1.005e-05   |deigs|: 4.942e-06  t[s]:     96.06
	Linear fluid (dielectric constant: 7.2) occupying 0.984115 of unit cell:	Completed after 0 iterations at t[s]:     96.46
	Linear fluid (dielectric constant: 7.2) occupying 0.984117 of unit cell:	Completed after 0 iterations at t[s]:     97.27
SCF: Cycle: 11   Etot: -177.704655660873499   dEtot: -5.263e-09   |Residual|: 1.033e-05   |deigs|: 1.564e-06  t[s]:     97.46
SCF: Converged (|Delta E|<1.000000e-08 for 2 iters).

Setting wave functions to eigenvectors of Hamiltonian
IonicMinimize: 	Predicted alpha/alphaT>3.000000, increasing alphaT to 3.000000e+00.

Computing DFT-D3 correction:
# coordination-number S 2.644 2.779 2.466 3.242 2.340 1.998 3.003 2.946
# coordination-number Na 4.305 4.380
# diagonal-C6 S 125.81 125.81 125.81 125.81 125.82 125.90 125.81 125.81
# diagonal-C6 Na 186.11 186.11
EvdW_6 =   -0.002903
EvdW_8 =   -0.011072

-------- Electronic minimization -----------
Will mix electronic density at each iteration.
	Linear fluid (dielectric constant: 7.2) occupying 0.984112 of unit cell:	Completed after 5 iterations at t[s]:     98.23
	Linear fluid (dielectric constant: 7.2) occupying 0.984105 of unit cell:	Completed after 3 iterations at t[s]:     99.32
SCF: Cycle:  0   Etot: -177.704974309798359   dEtot: -3.127e-05   |Residual|: 1.980e-03   |deigs|: 8.480e-07  t[s]:     99.51
	Linear fluid (dielectric constant: 7.2) occupying 0.984121 of unit cell:	Completed after 2 iterations at t[s]:    100.04
	Linear fluid (dielectric constant: 7.2) occupying 0.984106 of unit cell:	Completed after 2 iterations at t[s]:    100.94
SCF: Cycle:  1   Etot: -177.704979578034653   dEtot: -5.268e-06   |Residual|: 1.131e-03   |deigs|: 4.523e-05  t[s]:    101.13
	Linear fluid (dielectric constant: 7.2) occupying 0.984130 of unit cell:	Completed after 2 iterations at t[s]:    101.65
	Linear fluid (dielectric constant: 7.2) occupying 0.984107 of unit cell:	Completed after 2 iterations at t[s]:    102.54
SCF: Cycle:  2   Etot: -177.704982920776331   dEtot: -3.343e-06   |Residual|: 3.656e-04   |deigs|: 6.700e-05  t[s]:    102.72
	Linear fluid (dielectric constant: 7.2) occupying 0.984124 of unit cell:	Completed after 1 iterations at t[s]:    103.21
	Linear fluid (dielectric constant: 7.2) occupying 0.984108 of unit cell:	Completed after 1 iterations at t[s]:    104.03
SCF: Cycle:  3   Etot: -177.704983509536362   dEtot: -5.888e-07   |Residual|: 2.207e-04   |deigs|: 3.742e-05  t[s]:    104.22
	Linear fluid (dielectric constant: 7.2) occupying 0.984115 of unit cell:	Completed after 1 iterations at t[s]:    104.68
	Linear fluid (dielectric constant: 7.2) occupying 0.984109 of unit cell:	Completed after 1 iterations at t[s]:    105.51
SCF: Cycle:  4   Etot: -177.704983731221262   dEtot: -2.217e-07   |Residual|: 2.011e-04   |deigs|: 6.186e-05  t[s]:    105.69
	Linear fluid (dielectric constant: 7.2) occupying 0.984116 of unit cell:	Completed after 1 iterations at t[s]:    106.15
	Linear fluid (dielectric constant: 7.2) occupying 0.984109 of unit cell:	Completed after 1 iterations at t[s]:    106.98
SCF: Cycle:  5   Etot: -177.704983889213963   dEtot: -1.580e-07   |Residual|: 8.462e-05   |deigs|: 7.865e-06  t[s]:    107.17
	Linear fluid (dielectric constant: 7.2) occupying 0.984109 of unit cell:	Completed after 1 iterations at t[s]:    107.63
	Linear fluid (dielectric constant: 7.2) occupying 0.984109 of unit cell:	Completed after 1 iterations at t[s]:    108.46
SCF: Cycle:  6   Etot: -177.704983966887880   dEtot: -7.767e-08   |Residual|: 1.007e-04   |deigs|: 1.199e-05  t[s]:    108.65
	Linear fluid (dielectric constant: 7.2) occupying 0.984104 of unit cell:	Completed after 1 iterations at t[s]:    109.11
	Linear fluid (dielectric constant: 7.2) occupying 0.984109 of unit cell:	Completed after 1 iterations at t[s]:    109.93
SCF: Cycle:  7   Etot: -177.704984019973040   dEtot: -5.309e-08   |Residual|: 6.418e-05   |deigs|: 1.476e-05  t[s]:    110.12
	Linear fluid (dielectric constant: 7.2) occupying 0.984103 of unit cell:	Completed after 0 iterations at t[s]:    110.55
	Linear fluid (dielectric constant: 7.2) occupying 0.984109 of unit cell:	Completed after 0 iterations at t[s]:    111.33
SCF: Cycle:  8   Etot: -177.704984066820231   dEtot: -4.685e-08   |Residual|: 2.835e-05   |deigs|: 3.951e-06  t[s]:    111.53
	Linear fluid (dielectric constant: 7.2) occupying 0.984102 of unit cell:	Completed after 0 iterations at t[s]:    111.92
	Linear fluid (dielectric constant: 7.2) occupying 0.984109 of unit cell:	Completed after 0 iterations at t[s]:    112.71
SCF: Cycle:  9   Etot: -177.704984108438509   dEtot: -4.162e-08   |Residual|: 2.856e-05   |deigs|: 1.013e-05  t[s]:    112.90
	Linear fluid (dielectric constant: 7.2) occupying 0.984103 of unit cell:	Completed after 0 iterations at t[s]:    113.30
	Linear fluid (dielectric constant: 7.2) occupying 0.984109 of unit cell:	Completed after 0 iterations at t[s]:    114.08
SCF: Cycle: 10   Etot: -177.704984134885166   dEtot: -2.645e-08   |Residual|: 3.209e-05   |deigs|: 6.176e-06  t[s]:    114.27
	Linear fluid (dielectric constant: 7.2) occupying 0.984105 of unit cell:	Completed after 0 iterations at t[s]:    114.67
	Linear fluid (dielectric constant: 7.2) occupying 0.984109 of unit cell:	Completed after 0 iterations at t[s]:    115.46
SCF: Cycle: 11   Etot: -177.704984148610180   dEtot: -1.373e-08   |Residual|: 1.798e-05   |deigs|: 6.149e-06  t[s]:    115.65
	Linear fluid (dielectric constant: 7.2) occupying 0.984108 of unit cell:	Completed after 0 iterations at t[s]:    116.02
	Linear fluid (dielectric constant: 7.2) occupying 0.984109 of unit cell:	Completed after 0 iterations at t[s]:    116.76
SCF: Cycle: 12   Etot: -177.704984164983955   dEtot: -1.637e-08   |Residual|: 1.534e-05   |deigs|: 8.697e-06  t[s]:    116.95
	Linear fluid (dielectric constant: 7.2) occupying 0.984109 of unit cell:	Completed after 0 iterations at t[s]:    117.32
	Linear fluid (dielectric constant: 7.2) occupying 0.984109 of unit cell:	Completed after 0 iterations at t[s]:    118.11
SCF: Cycle: 13   Etot: -177.704984161621439   dEtot: +3.363e-09   |Residual|: 1.881e-05   |deigs|: 4.548e-06  t[s]:    118.29
	Linear fluid (dielectric constant: 7.2) occupying 0.984110 of unit cell:	Completed after 0 iterations at t[s]:    118.66
	Linear fluid (dielectric constant: 7.2) occupying 0.984109 of unit cell:	Completed after 0 iterations at t[s]:    119.48
SCF: Cycle: 14   Etot: -177.704984170441463   dEtot: -8.820e-09   |Residual|: 1.316e-05   |deigs|: 5.722e-06  t[s]:    119.67
	Linear fluid (dielectric constant: 7.2) occupying 0.984111 of unit cell:	Completed after 0 iterations at t[s]:    120.01
	Linear fluid (dielectric constant: 7.2) occupying 0.984109 of unit cell:	Completed after 0 iterations at t[s]:    120.79
SCF: Cycle: 15   Etot: -177.704984159992307   dEtot: +1.045e-08   |Residual|: 1.190e-05   |deigs|: 2.822e-07  t[s]:    120.98
	Linear fluid (dielectric constant: 7.2) occupying 0.984111 of unit cell:	Completed after 0 iterations at t[s]:    121.34
	Linear fluid (dielectric constant: 7.2) occupying 0.984110 of unit cell:	Completed after 0 iterations at t[s]:    122.09
SCF: Cycle: 16   Etot: -177.704984166811016   dEtot: -6.819e-09   |Residual|: 1.000e-05   |deigs|: 3.506e-06  t[s]:    122.28
	Linear fluid (dielectric constant: 7.2) occupying 0.984111 of unit cell:	Completed after 0 iterations at t[s]:    122.61
	Linear fluid (dielectric constant: 7.2) occupying 0.984110 of unit cell:	Completed after 0 iterations at t[s]:    123.36
SCF: Cycle: 17   Etot: -177.704984169122667   dEtot: -2.312e-09   |Residual|: 9.922e-06   |deigs|: 1.102e-07  t[s]:    123.55
SCF: Converged (|Delta E|<1.000000e-08 for 2 iters).

Setting wave functions to eigenvectors of Hamiltonian
IonicMinimize: 	Predicted alpha/alphaT>3.000000, increasing alphaT to 9.000000e+00.

Computing DFT-D3 correction:
# coordination-number S 2.618 2.750 2.455 3.221 2.325 1.993 2.986 2.935
# coordination-number Na 4.221 4.223
# diagonal-C6 S 125.81 125.81 125.81 125.81 125.82 125.90 125.81 125.81
# diagonal-C6 Na 186.11 186.11
EvdW_6 =   -0.002913
EvdW_8 =   -0.011207

-------- Electronic minimization -----------
Will mix electronic density at each iteration.
	Linear fluid (dielectric constant: 7.2) occupying 0.984109 of unit cell:	Completed after 7 iterations at t[s]:    124.37
	Linear fluid (dielectric constant: 7.2) occupying 0.983914 of unit cell:	Completed after 8 iterations at t[s]:    125.68
SCF: Cycle:  0   Etot: -177.694111485333707   dEtot: -7.884e-02   |Residual|: 1.358e-01   |deigs|: 3.688e-03  t[s]:    125.87
	Linear fluid (dielectric constant: 7.2) occupying 0.984348 of unit cell:	Completed after 12 iterations at t[s]:    126.82
	Linear fluid (dielectric constant: 7.2) occupying 0.983967 of unit cell:	Completed after 10 iterations at t[s]:    128.36
SCF: Cycle:  1   Etot: -177.699456187900950   dEtot: -5.345e-03   |Residual|: 6.773e-02   |deigs|: 4.101e-03  t[s]:    128.63
	Linear fluid (dielectric constant: 7.2) occupying 0.984478 of unit cell:	Completed after 15 iterations at t[s]:    129.99
	Linear fluid (dielectric constant: 7.2) occupying 0.984099 of unit cell:	Completed after 10 iterations at t[s]:    131.50
SCF: Cycle:  2   Etot: -177.703157119084324   dEtot: -3.701e-03   |Residual|: 1.257e-02   |deigs|: 2.309e-03  t[s]:    131.77
	Linear fluid (dielectric constant: 7.2) occupying 0.984451 of unit cell:	Completed after 13 iterations at t[s]:    132.95
	Linear fluid (dielectric constant: 7.2) occupying 0.984107 of unit cell:	Completed after 9 iterations at t[s]:    134.37
SCF: Cycle:  3   Etot: -177.704024828426725   dEtot: -8.677e-04   |Residual|: 9.063e-03   |deigs|: 6.561e-04  t[s]:    134.66
	Linear fluid (dielectric constant: 7.2) occupying 0.984369 of unit cell:	Completed after 9 iterations at t[s]:    135.57
	Linear fluid (dielectric constant: 7.2) occupying 0.984082 of unit cell:	Completed after 8 iterations at t[s]:    136.94
SCF: Cycle:  4   Etot: -177.705003733639245   dEtot: -9.789e-04   |Residual|: 4.854e-03   |deigs|: 2.041e-03  t[s]:    137.22
	Linear fluid (dielectric constant: 7.2) occupying 0.984302 of unit cell:	Completed after 9 iterations at t[s]:    138.11
	Linear fluid (dielectric constant: 7.2) occupying 0.984086 of unit cell:	Completed after 7 iterations at t[s]:    139.45
SCF: Cycle:  5   Etot: -177.705240785937889   dEtot: -2.371e-04   |Residual|: 3.138e-03   |deigs|: 1.506e-03  t[s]:    139.72
	Linear fluid (dielectric constant: 7.2) occupying 0.984117 of unit cell:	Completed after 6 iterations at t[s]:    140.39
	Linear fluid (dielectric constant: 7.2) occupying 0.984088 of unit cell:	Completed after 6 iterations at t[s]:    141.68
SCF: Cycle:  6   Etot: -177.705531502208288   dEtot: -2.907e-04   |Residual|: 1.988e-03   |deigs|: 2.372e-03  t[s]:    141.90
	Linear fluid (dielectric constant: 7.2) occupying 0.984017 of unit cell:	Completed after 5 iterations at t[s]:    142.54
	Linear fluid (dielectric constant: 7.2) occupying 0.984088 of unit cell:	Completed after 6 iterations at t[s]:    143.81
SCF: Cycle:  7   Etot: -177.705625492202898   dEtot: -9.399e-05   |Residual|: 1.514e-03   |deigs|: 1.126e-03  t[s]:    144.02
	Linear fluid (dielectric constant: 7.2) occupying 0.983884 of unit cell:	Completed after 4 iterations at t[s]:    144.62
	Linear fluid (dielectric constant: 7.2) occupying 0.984078 of unit cell:	Completed after 5 iterations at t[s]:    145.81
SCF: Cycle:  8   Etot: -177.705702370944550   dEtot: -7.688e-05   |Residual|: 1.322e-03   |deigs|: 8.451e-04  t[s]:    146.05
	Linear fluid (dielectric constant: 7.2) occupying 0.983849 of unit cell:	Completed after 4 iterations at t[s]:    146.65
	Linear fluid (dielectric constant: 7.2) occupying 0.984077 of unit cell:	Completed after 4 iterations at t[s]:    147.80
SCF: Cycle:  9   Etot: -177.705716042115938   dEtot: -1.367e-05   |Residual|: 9.010e-04   |deigs|: 3.485e-04  t[s]:    148.00
	Linear fluid (dielectric constant: 7.2) occupying 0.983844 of unit cell:	Completed after 5 iterations at t[s]:    148.64
	Linear fluid (dielectric constant: 7.2) occupying 0.984075 of unit cell:	Completed after 4 iterations at t[s]:    149.77
SCF: Cycle: 10   Etot: -177.705722282700549   dEtot: -6.241e-06   |Residual|: 9.545e-04   |deigs|: 6.102e-04  t[s]:    149.96
	Linear fluid (dielectric constant: 7.2) occupying 0.983861 of unit cell:	Completed after 4 iterations at t[s]:    150.56
	Linear fluid (dielectric constant: 7.2) occupying 0.984074 of unit cell:	Completed after 4 iterations at t[s]:    151.60
SCF: Cycle: 11   Etot: -177.705723449997180   dEtot: -1.167e-06   |Residual|: 5.493e-04   |deigs|: 7.449e-05  t[s]:    151.80
	Linear fluid (dielectric constant: 7.2) occupying 0.983953 of unit cell:	Completed after 4 iterations at t[s]:    152.40
	Linear fluid (dielectric constant: 7.2) occupying 0.984074 of unit cell:	Completed after 4 iterations at t[s]:    153.52
SCF: Cycle: 12   Etot: -177.705720831155418   dEtot: +2.619e-06   |Residual|: 1.050e-03   |deigs|: 1.304e-04  t[s]:    153.71
	Linear fluid (dielectric constant: 7.2) occupying 0.983983 of unit cell:	Completed after 4 iterations at t[s]:    154.31
	Linear fluid (dielectric constant: 7.2) occupying 0.984075 of unit cell:	Completed after 4 iterations at t[s]:    155.36
SCF: Cycle: 13   Etot: -177.705721626766376   dEtot: -7.956e-07   |Residual|: 6.692e-04   |deigs|: 1.057e-04  t[s]:    155.55
	Linear fluid (dielectric constant: 7.2) occupying 0.984034 of unit cell:	Completed after 4 iterations at t[s]:    156.16
	Linear fluid (dielectric constant: 7.2) occupying 0.984079 of unit cell:	Completed after 4 iterations at t[s]:    157.30
SCF: Cycle: 14   Etot: -177.705723861411684   dEtot: -2.235e-06   |Residual|: 4.162e-04   |deigs|: 7.862e-05  t[s]:    157.51
	Linear fluid (dielectric constant: 7.2) occupying 0.984071 of unit cell:	Completed after 3 iterations at t[s]:    158.07
	Linear fluid (dielectric constant: 7.2) occupying 0.984080 of unit cell:	Completed after 4 iterations at t[s]:    159.10
SCF: Cycle: 15   Etot: -177.705725293626301   dEtot: -1.432e-06   |Residual|: 2.666e-04   |deigs|: 1.078e-04  t[s]:    159.28
	Linear fluid (dielectric constant: 7.2) occupying 0.984090 of unit cell:	Completed after 2 iterations at t[s]:    159.81
	Linear fluid (dielectric constant: 7.2) occupying 0.984082 of unit cell:	Completed after 3 iterations at t[s]:    160.80
SCF: Cycle: 16   Etot: -177.705726618083020   dEtot: -1.324e-06   |Residual|: 1.944e-04   |deigs|: 7.644e-05  t[s]:    160.99
	Linear fluid (dielectric constant: 7.2) occupying 0.984091 of unit cell:	Completed after 2 iterations at t[s]:    161.53
	Linear fluid (dielectric constant: 7.2) occupying 0.984083 of unit cell:	Completed after 2 iterations at t[s]:    162.49
SCF: Cycle: 17   Etot: -177.705727184590842   dEtot: -5.665e-07   |Residual|: 2.028e-04   |deigs|: 5.467e-05  t[s]:    162.69
	Linear fluid (dielectric constant: 7.2) occupying 0.984082 of unit cell:	Completed after 2 iterations at t[s]:    163.22
	Linear fluid (dielectric constant: 7.2) occupying 0.984084 of unit cell:	Completed after 2 iterations at t[s]:    164.18
SCF: Cycle: 18   Etot: -177.705727402099740   dEtot: -2.175e-07   |Residual|: 1.830e-04   |deigs|: 4.152e-05  t[s]:    164.36
	Linear fluid (dielectric constant: 7.2) occupying 0.984080 of unit cell:	Completed after 2 iterations at t[s]:    164.89
	Linear fluid (dielectric constant: 7.2) occupying 0.984085 of unit cell:	Completed after 2 iterations at t[s]:    165.85
SCF: Cycle: 19   Etot: -177.705727507689744   dEtot: -1.056e-07   |Residual|: 1.131e-04   |deigs|: 4.264e-05  t[s]:    166.05
	Linear fluid (dielectric constant: 7.2) occupying 0.984078 of unit cell:	Completed after 2 iterations at t[s]:    166.57
	Linear fluid (dielectric constant: 7.2) occupying 0.984084 of unit cell:	Completed after 2 iterations at t[s]:    167.55
SCF: Cycle: 20   Etot: -177.705727560546734   dEtot: -5.286e-08   |Residual|: 1.422e-04   |deigs|: 2.052e-05  t[s]:    167.75
	Linear fluid (dielectric constant: 7.2) occupying 0.984073 of unit cell:	Completed after 2 iterations at t[s]:    168.27
	Linear fluid (dielectric constant: 7.2) occupying 0.984084 of unit cell:	Completed after 2 iterations at t[s]:    169.24
SCF: Cycle: 21   Etot: -177.705727604571166   dEtot: -4.402e-08   |Residual|: 1.044e-04   |deigs|: 1.890e-05  t[s]:    169.42
	Linear fluid (dielectric constant: 7.2) occupying 0.984077 of unit cell:	Completed after 1 iterations at t[s]:    169.92
	Linear fluid (dielectric constant: 7.2) occupying 0.984083 of unit cell:	Completed after 1 iterations at t[s]:    170.83
SCF: Cycle: 22   Etot: -177.705727720746609   dEtot: -1.162e-07   |Residual|: 1.061e-04   |deigs|: 1.470e-05  t[s]:    171.02
	Linear fluid (dielectric constant: 7.2) occupying 0.984085 of unit cell:	Completed after 1 iterations at t[s]:    171.48
	Linear fluid (dielectric constant: 7.2) occupying 0.984083 of unit cell:	Completed after 1 iterations at t[s]:    172.39
SCF: Cycle: 23   Etot: -177.705727856200099   dEtot: -1.355e-07   |Residual|: 5.382e-05   |deigs|: 1.683e-05  t[s]:    172.60
	Linear fluid (dielectric constant: 7.2) occupying 0.984089 of unit cell:	Completed after 1 iterations at t[s]:    173.05
	Linear fluid (dielectric constant: 7.2) occupying 0.984084 of unit cell:	Completed after 1 iterations at t[s]:    173.88
SCF: Cycle: 24   Etot: -177.705727906944816   dEtot: -5.074e-08   |Residual|: 5.134e-05   |deigs|: 3.334e-05  t[s]:    174.07
	Linear fluid (dielectric constant: 7.2) occupying 0.984091 of unit cell:	Completed after 0 iterations at t[s]:    174.50
	Linear fluid (dielectric constant: 7.2) occupying 0.984084 of unit cell:	Completed after 0 iterations at t[s]:    175.28
SCF: Cycle: 25   Etot: -177.705727964288087   dEtot: -5.734e-08   |Residual|: 3.725e-05   |deigs|: 2.017e-05  t[s]:    175.47
	Linear fluid (dielectric constant: 7.2) occupying 0.984087 of unit cell:	Completed after 0 iterations at t[s]:    175.87
	Linear fluid (dielectric constant: 7.2) occupying 0.984084 of unit cell:	Completed after 0 iterations at t[s]:    176.74
SCF: Cycle: 26   Etot: -177.705728004890716   dEtot: -4.060e-08   |Residual|: 3.156e-05   |deigs|: 1.157e-05  t[s]:    176.94
	Linear fluid (dielectric constant: 7.2) occupying 0.984085 of unit cell:	Completed after 1 iterations at t[s]:    177.37
	Linear fluid (dielectric constant: 7.2) occupying 0.984084 of unit cell:	Completed after 0 iterations at t[s]:    178.16
SCF: Cycle: 27   Etot: -177.705728004096329   dEtot: +7.944e-10   |Residual|: 2.983e-05   |deigs|: 1.561e-05  t[s]:    178.35
	Linear fluid (dielectric constant: 7.2) occupying 0.984083 of unit cell:	Completed after 0 iterations at t[s]:    178.75
	Linear fluid (dielectric constant: 7.2) occupying 0.984084 of unit cell:	Completed after 0 iterations at t[s]:    183.52
SCF: Cycle: 28   Etot: -177.705728021277736   dEtot: -1.718e-08   |Residual|: 1.651e-05   |deigs|: 4.522e-06  t[s]:    183.71
	Linear fluid (dielectric constant: 7.2) occupying 0.984082 of unit cell:	Completed after 0 iterations at t[s]:    184.11
	Linear fluid (dielectric constant: 7.2) occupying 0.984084 of unit cell:	Completed after 0 iterations at t[s]:    184.94
SCF: Cycle: 29   Etot: -177.705728033149910   dEtot: -1.187e-08   |Residual|: 1.647e-05   |deigs|: 1.254e-05  t[s]:    185.15
	Linear fluid (dielectric constant: 7.2) occupying 0.984083 of unit cell:	Completed after 0 iterations at t[s]:    185.47
	Linear fluid (dielectric constant: 7.2) occupying 0.984084 of unit cell:	Completed after 0 iterations at t[s]:    186.33
SCF: Cycle: 30   Etot: -177.705728033387743   dEtot: -2.378e-10   |Residual|: 1.639e-05   |deigs|: 4.214e-07  t[s]:    186.52
	Linear fluid (dielectric constant: 7.2) occupying 0.984084 of unit cell:	Completed after 0 iterations at t[s]:    186.88
	Linear fluid (dielectric constant: 7.2) occupying 0.984084 of unit cell:	Completed after 0 iterations at t[s]:    187.71
SCF: Cycle: 31   Etot: -177.705728040256844   dEtot: -6.869e-09   |Residual|: 1.154e-05   |deigs|: 7.986e-06  t[s]:    187.91
SCF: Converged (|Delta E|<1.000000e-08 for 2 iters).

Setting wave functions to eigenvectors of Hamiltonian

Computing DFT-D3 correction:
# coordination-number S 2.576 2.703 2.437 3.186 2.302 1.985 2.962 2.915
# coordination-number Na 4.091 3.975
# diagonal-C6 S 125.81 125.81 125.81 125.81 125.82 125.91 125.81 125.81
# diagonal-C6 Na 186.11 186.11
EvdW_6 =   -0.002931
EvdW_8 =   -0.011416

-------- Electronic minimization -----------
Will mix electronic density at each iteration.
	Linear fluid (dielectric constant: 7.2) occupying 0.984083 of unit cell:	Completed after 8 iterations at t[s]:    188.77
	Linear fluid (dielectric constant: 7.2) occupying 0.983795 of unit cell:	Completed after 9 iterations at t[s]:    190.12
SCF: Cycle:  0   Etot: -177.678648831903899   dEtot: -1.877e-01   |Residual|: 2.133e-01   |deigs|: 8.766e-03  t[s]:    190.31
	Linear fluid (dielectric constant: 7.2) occupying 0.984352 of unit cell:	Completed after 15 iterations at t[s]:    191.57
	Linear fluid (dielectric constant: 7.2) occupying 0.983918 of unit cell:	Completed after 11 iterations at t[s]:    193.15
SCF: Cycle:  1   Etot: -177.691190929413892   dEtot: -1.254e-02   |Residual|: 1.063e-01   |deigs|: 5.912e-03  t[s]:    193.44
	Linear fluid (dielectric constant: 7.2) occupying 0.984459 of unit cell:	Completed after 16 iterations at t[s]:    194.85
	Linear fluid (dielectric constant: 7.2) occupying 0.984100 of unit cell:	Completed after 11 iterations at t[s]:    199.53
SCF: Cycle:  2   Etot: -177.699814471008608   dEtot: -8.624e-03   |Residual|: 1.986e-02   |deigs|: 2.867e-03  t[s]:    199.72
	Linear fluid (dielectric constant: 7.2) occupying 0.984399 of unit cell:	Completed after 16 iterations at t[s]:    204.18
	Linear fluid (dielectric constant: 7.2) occupying 0.984129 of unit cell:	Completed after 11 iterations at t[s]:    210.65
SCF: Cycle:  3   Etot: -177.701234334378142   dEtot: -1.420e-03   |Residual|: 1.258e-02   |deigs|: 1.169e-03  t[s]:    210.84
	Linear fluid (dielectric constant: 7.2) occupying 0.984332 of unit cell:	Completed after 9 iterations at t[s]:    211.64
	Linear fluid (dielectric constant: 7.2) occupying 0.984059 of unit cell:	Completed after 8 iterations at t[s]:    213.04
SCF: Cycle:  4   Etot: -177.704343329676760   dEtot: -3.109e-03   |Residual|: 8.082e-03   |deigs|: 1.632e-03  t[s]:    213.30
	Linear fluid (dielectric constant: 7.2) occupying 0.984289 of unit cell:	Completed after 9 iterations at t[s]:    214.22
	Linear fluid (dielectric constant: 7.2) occupying 0.984054 of unit cell:	Completed after 8 iterations at t[s]:    215.58
SCF: Cycle:  5   Etot: -177.704898789210205   dEtot: -5.555e-04   |Residual|: 5.783e-03   |deigs|: 1.772e-03  t[s]:    215.85
	Linear fluid (dielectric constant: 7.2) occupying 0.984116 of unit cell:	Completed after 7 iterations at t[s]:    216.63
	Linear fluid (dielectric constant: 7.2) occupying 0.984047 of unit cell:	Completed after 7 iterations at t[s]:    217.92
SCF: Cycle:  6   Etot: -177.705755239117138   dEtot: -8.564e-04   |Residual|: 3.611e-03   |deigs|: 3.809e-03  t[s]:    218.20
	Linear fluid (dielectric constant: 7.2) occupying 0.983959 of unit cell:	Completed after 6 iterations at t[s]:    218.90
	Linear fluid (dielectric constant: 7.2) occupying 0.984051 of unit cell:	Completed after 6 iterations at t[s]:    220.18
SCF: Cycle:  7   Etot: -177.706009349116243   dEtot: -2.541e-04   |Residual|: 2.914e-03   |deigs|: 2.507e-03  t[s]:    220.40
	Linear fluid (dielectric constant: 7.2) occupying 0.983883 of unit cell:	Completed after 6 iterations at t[s]:    221.11
	Linear fluid (dielectric constant: 7.2) occupying 0.984037 of unit cell:	Completed after 6 iterations at t[s]:    222.37
SCF: Cycle:  8   Etot: -177.706067034118263   dEtot: -5.769e-05   |Residual|: 3.022e-03   |deigs|: 4.295e-04  t[s]:    222.62
	Linear fluid (dielectric constant: 7.2) occupying 0.983752 of unit cell:	Completed after 5 iterations at t[s]:    223.26
	Linear fluid (dielectric constant: 7.2) occupying 0.984035 of unit cell:	Completed after 5 iterations at t[s]:    224.49
SCF: Cycle:  9   Etot: -177.706143936004395   dEtot: -7.690e-05   |Residual|: 1.769e-03   |deigs|: 1.454e-03  t[s]:    224.68
	Linear fluid (dielectric constant: 7.2) occupying 0.983718 of unit cell:	Completed after 5 iterations at t[s]:    225.32
	Linear fluid (dielectric constant: 7.2) occupying 0.984034 of unit cell:	Completed after 5 iterations at t[s]:    226.53
SCF: Cycle: 10   Etot: -177.706172865432507   dEtot: -2.893e-05   |Residual|: 1.094e-03   |deigs|: 6.985e-04  t[s]:    226.73
	Linear fluid (dielectric constant: 7.2) occupying 0.983682 of unit cell:	Completed after 5 iterations at t[s]:    227.37
	Linear fluid (dielectric constant: 7.2) occupying 0.984029 of unit cell:	Completed after 4 iterations at t[s]:    228.55
SCF: Cycle: 11   Etot: -177.706184596356252   dEtot: -1.173e-05   |Residual|: 8.339e-04   |deigs|: 6.573e-04  t[s]:    228.74
	Linear fluid (dielectric constant: 7.2) occupying 0.983735 of unit cell:	Completed after 5 iterations at t[s]:    229.38
	Linear fluid (dielectric constant: 7.2) occupying 0.984029 of unit cell:	Completed after 4 iterations at t[s]:    230.48
SCF: Cycle: 12   Etot: -177.706181929781422   dEtot: +2.667e-06   |Residual|: 9.654e-04   |deigs|: 2.631e-04  t[s]:    230.67
	Linear fluid (dielectric constant: 7.2) occupying 0.983865 of unit cell:	Completed after 5 iterations at t[s]:    231.31
	Linear fluid (dielectric constant: 7.2) occupying 0.984033 of unit cell:	Completed after 5 iterations at t[s]:    232.49
SCF: Cycle: 13   Etot: -177.706181141618742   dEtot: +7.882e-07   |Residual|: 7.137e-04   |deigs|: 4.180e-04  t[s]:    232.70
	Linear fluid (dielectric constant: 7.2) occupying 0.983913 of unit cell:	Completed after 5 iterations at t[s]:    233.34
	Linear fluid (dielectric constant: 7.2) occupying 0.984034 of unit cell:	Completed after 5 iterations at t[s]:    234.46
SCF: Cycle: 14   Etot: -177.706182953560130   dEtot: -1.812e-06   |Residual|: 4.278e-04   |deigs|: 9.274e-05  t[s]:    234.68
	Linear fluid (dielectric constant: 7.2) occupying 0.984034 of unit cell:	Completed after 4 iterations at t[s]:    235.28
	Linear fluid (dielectric constant: 7.2) occupying 0.984039 of unit cell:	Completed after 4 iterations at t[s]:    236.34
SCF: Cycle: 15   Etot: -177.706186611006729   dEtot: -3.657e-06   |Residual|: 3.043e-04   |deigs|: 9.147e-05  t[s]:    236.53
	Linear fluid (dielectric constant: 7.2) occupying 0.984055 of unit cell:	Completed after 3 iterations at t[s]:    237.09
	Linear fluid (dielectric constant: 7.2) occupying 0.984043 of unit cell:	Completed after 4 iterations at t[s]:    238.12
SCF: Cycle: 16   Etot: -177.706188838422804   dEtot: -2.227e-06   |Residual|: 2.415e-04   |deigs|: 1.080e-04  t[s]:    238.31
	Linear fluid (dielectric constant: 7.2) occupying 0.984058 of unit cell:	Completed after 2 iterations at t[s]:    238.84
	Linear fluid (dielectric constant: 7.2) occupying 0.984045 of unit cell:	Completed after 3 iterations at t[s]:    239.82
SCF: Cycle: 17   Etot: -177.706190017659452   dEtot: -1.179e-06   |Residual|: 2.577e-04   |deigs|: 8.324e-05  t[s]:    240.01
	Linear fluid (dielectric constant: 7.2) occupying 0.984042 of unit cell:	Completed after 2 iterations at t[s]:    240.54
	Linear fluid (dielectric constant: 7.2) occupying 0.984046 of unit cell:	Completed after 2 iterations at t[s]:    241.49
SCF: Cycle: 18   Etot: -177.706190880975953   dEtot: -8.633e-07   |Residual|: 1.962e-04   |deigs|: 9.687e-05  t[s]:    241.68
	Linear fluid (dielectric constant: 7.2) occupying 0.984029 of unit cell:	Completed after 2 iterations at t[s]:    242.21
	Linear fluid (dielectric constant: 7.2) occupying 0.984047 of unit cell:	Completed after 2 iterations at t[s]:    243.16
SCF: Cycle: 19   Etot: -177.706191027965900   dEtot: -1.470e-07   |Residual|: 1.891e-04   |deigs|: 6.369e-05  t[s]:    243.35
	Linear fluid (dielectric constant: 7.2) occupying 0.984020 of unit cell:	Completed after 2 iterations at t[s]:    243.88
	Linear fluid (dielectric constant: 7.2) occupying 0.984046 of unit cell:	Completed after 2 iterations at t[s]:    244.89
SCF: Cycle: 20   Etot: -177.706191189366479   dEtot: -1.614e-07   |Residual|: 1.285e-04   |deigs|: 3.934e-05  t[s]:    245.08
	Linear fluid (dielectric constant: 7.2) occupying 0.984023 of unit cell:	Completed after 2 iterations at t[s]:    245.61
	Linear fluid (dielectric constant: 7.2) occupying 0.984046 of unit cell:	Completed after 2 iterations at t[s]:    246.50
SCF: Cycle: 21   Etot: -177.706191098867123   dEtot: +9.050e-08   |Residual|: 1.340e-04   |deigs|: 2.914e-05  t[s]:    246.69
	Linear fluid (dielectric constant: 7.2) occupying 0.984033 of unit cell:	Completed after 2 iterations at t[s]:    247.21
	Linear fluid (dielectric constant: 7.2) occupying 0.984045 of unit cell:	Completed after 2 iterations at t[s]:    248.10
SCF: Cycle: 22   Etot: -177.706191263194313   dEtot: -1.643e-07   |Residual|: 1.038e-04   |deigs|: 9.608e-06  t[s]:    248.29
	Linear fluid (dielectric constant: 7.2) occupying 0.984047 of unit cell:	Completed after 1 iterations at t[s]:    248.78
	Linear fluid (dielectric constant: 7.2) occupying 0.984045 of unit cell:	Completed after 1 iterations at t[s]:    249.61
SCF: Cycle: 23   Etot: -177.706191438535029   dEtot: -1.753e-07   |Residual|: 8.105e-05   |deigs|: 4.994e-05  t[s]:    249.80
	Linear fluid (dielectric constant: 7.2) occupying 0.984049 of unit cell:	Completed after 2 iterations at t[s]:    250.30
	Linear fluid (dielectric constant: 7.2) occupying 0.984045 of unit cell:	Completed after 1 iterations at t[s]:    251.16
SCF: Cycle: 24   Etot: -177.706191541097610   dEtot: -1.026e-07   |Residual|: 7.219e-05   |deigs|: 4.570e-05  t[s]:    251.35
	Linear fluid (dielectric constant: 7.2) occupying 0.984047 of unit cell:	Completed after 2 iterations at t[s]:    251.85
	Linear fluid (dielectric constant: 7.2) occupying 0.984045 of unit cell:	Completed after 1 iterations at t[s]:    252.78
SCF: Cycle: 25   Etot: -177.706191588932256   dEtot: -4.783e-08   |Residual|: 5.686e-05   |deigs|: 3.657e-05  t[s]:    252.97
	Linear fluid (dielectric constant: 7.2) occupying 0.984050 of unit cell:	Completed after 0 iterations at t[s]:    253.40
	Linear fluid (dielectric constant: 7.2) occupying 0.984046 of unit cell:	Completed after 0 iterations at t[s]:    254.18
SCF: Cycle: 26   Etot: -177.706191611025531   dEtot: -2.209e-08   |Residual|: 4.026e-05   |deigs|: 4.089e-06  t[s]:    254.37
	Linear fluid (dielectric constant: 7.2) occupying 0.984051 of unit cell:	Completed after 0 iterations at t[s]:    254.77
	Linear fluid (dielectric constant: 7.2) occupying 0.984046 of unit cell:	Completed after 0 iterations at t[s]:    255.63
SCF: Cycle: 27   Etot: -177.706191638003446   dEtot: -2.698e-08   |Residual|: 3.114e-05   |deigs|: 1.328e-05  t[s]:    255.82
	Linear fluid (dielectric constant: 7.2) occupying 0.984053 of unit cell:	Completed after 1 iterations at t[s]:    256.26
	Linear fluid (dielectric constant: 7.2) occupying 0.984046 of unit cell:	Completed after 0 iterations at t[s]:    257.13
SCF: Cycle: 28   Etot: -177.706191647785346   dEtot: -9.782e-09   |Residual|: 2.849e-05   |deigs|: 3.261e-05  t[s]:    257.32
	Linear fluid (dielectric constant: 7.2) occupying 0.984053 of unit cell:	Completed after 0 iterations at t[s]:    257.72
	Linear fluid (dielectric constant: 7.2) occupying 0.984046 of unit cell:	Completed after 0 iterations at t[s]:    258.50
SCF: Cycle: 29   Etot: -177.706191647186301   dEtot: +5.990e-10   |Residual|: 2.141e-05   |deigs|: 5.361e-06  t[s]:    258.69
	Linear fluid (dielectric constant: 7.2) occupying 0.984050 of unit cell:	Completed after 0 iterations at t[s]:    259.09
	Linear fluid (dielectric constant: 7.2) occupying 0.984046 of unit cell:	Completed after 0 iterations at t[s]:    259.95
SCF: Cycle: 30   Etot: -177.706191655482542   dEtot: -8.296e-09   |Residual|: 1.786e-05   |deigs|: 1.046e-05  t[s]:    260.14
	Linear fluid (dielectric constant: 7.2) occupying 0.984048 of unit cell:	Completed after 0 iterations at t[s]:    260.51
	Linear fluid (dielectric constant: 7.2) occupying 0.984046 of unit cell:	Completed after 0 iterations at t[s]:    261.25
SCF: Cycle: 31   Etot: -177.706191662611076   dEtot: -7.129e-09   |Residual|: 1.393e-05   |deigs|: 1.207e-05  t[s]:    261.44
SCF: Converged (|Delta E|<1.000000e-08 for 2 iters).

Setting wave functions to eigenvectors of Hamiltonian

Computing DFT-D3 correction:
# coordination-number S 2.576 2.703 2.437 3.186 2.302 1.985 2.962 2.915
# coordination-number Na 4.091 3.975
# diagonal-C6 S 125.81 125.81 125.81 125.81 125.82 125.91 125.81 125.81
# diagonal-C6 Na 186.11 186.11
EvdW_6 =   -0.002931
EvdW_8 =   -0.011416

# Ionic positions in cartesian coordinates:
ion S   5.141814583263450  10.963589486169877  20.522232071878857 1
ion S   4.363830504755546   8.286326937716817  23.982038558118163 1
ion S   4.521823355681047  10.251008235943875  27.166832368531651 1
ion S   8.584241743848500   8.780295823198820  28.685609417675284 1
ion S  10.044684449276936  10.407829780558203  31.752573172050798 1
ion S  11.953313619126838  13.672643003567064  31.183024112503784 1
ion S   6.570817690329379  14.254671946200457  21.802154819519814 1
ion S  10.355953203932740  14.205589681622339  22.279712312867591 1
ion Na   8.854824507495225  14.844246237620325  27.202885290826867 1
ion Na  10.065546024410342   9.056306276162214  23.325255033797202 1

# Forces in Cartesian coordinates:
force S   0.001685092880387   0.003959681192148   0.001637636463140 1
force S  -0.000616299545297   0.000356330140357   0.000909244455163 1
force S  -0.001419288098185  -0.000306697232439   0.000073269179302 1
force S  -0.000953346139724  -0.001478973336582  -0.002368362044307 1
force S   0.000638468006611   0.003019170759916   0.002219379796883 1
force S   0.000569931278722  -0.002899718831880   0.000400011644905 1
force S  -0.014459539229339  -0.002778829229962  -0.002885731343735 1
force S   0.011269663538304  -0.000415792811980   0.000886028253290 1
force Na  -0.001249204040112   0.004073076352835   0.001431000977245 1
force Na   0.004723537532168  -0.003638755010896  -0.001489862149763 1

# Energy components:
   A_diel =       -0.0506897445627954
   Eewald =      198.8776544674459501
       EH =      344.1904901301838891
     Eloc =     -604.8362006529913515
      Enl =     -129.6442426860413377
     EvdW =       -0.0143465464442775
      Exc =      -47.9853190179729907
 Exc_core =       14.1418398066105606
       KE =       47.6146225811612211
-------------------------------------
     Etot =     -177.7061916626110758

IonicMinimize: Iter:   1  Etot: -177.706191662611076  |grad|_K:  3.948e-03  alpha:  1.823e+01  linmin: -1.464e-02  t[s]:    261.86

#--- Lowdin population analysis ---
# oxidation-state S -0.088 -0.023 -0.045 -0.126 +0.226 -0.483 +0.167 -0.528
# oxidation-state Na +0.786 +0.814


Computing DFT-D3 correction:
# coordination-number S 2.527 2.646 2.411 3.141 2.279 1.975 2.902 2.882
# coordination-number Na 3.914 3.683
# diagonal-C6 S 125.81 125.81 125.81 125.81 125.82 125.92 125.81 125.81
# diagonal-C6 Na 186.11 186.11
EvdW_6 =   -0.002954
EvdW_8 =   -0.011674

-------- Electronic minimization -----------
Will mix electronic density at each iteration.
	Linear fluid (dielectric constant: 7.2) occupying 0.984044 of unit cell:	Completed after 8 iterations at t[s]:    262.66
	Linear fluid (dielectric constant: 7.2) occupying 0.983609 of unit cell:	Completed after 9 iterations at t[s]:    264.00
SCF: Cycle:  0   Etot: -177.671171089331665   dEtot: -2.494e-01   |Residual|: 2.475e-01   |deigs|: 1.175e-02  t[s]:    264.19
	Linear fluid (dielectric constant: 7.2) occupying 0.984408 of unit cell:	Completed after 15 iterations at t[s]:    265.44
	Linear fluid (dielectric constant: 7.2) occupying 0.983813 of unit cell:	Completed after 11 iterations at t[s]:    267.04
SCF: Cycle:  1   Etot: -177.687140376539986   dEtot: -1.597e-02   |Residual|: 1.229e-01   |deigs|: 7.203e-03  t[s]:    267.32
	Linear fluid (dielectric constant: 7.2) occupying 0.984584 of unit cell:	Completed after 16 iterations at t[s]:    268.73
	Linear fluid (dielectric constant: 7.2) occupying 0.984059 of unit cell:	Completed after 10 iterations at t[s]:    270.23
SCF: Cycle:  2   Etot: -177.699074770451318   dEtot: -1.193e-02   |Residual|: 2.427e-02   |deigs|: 4.433e-03  t[s]:    270.51
	Linear fluid (dielectric constant: 7.2) occupying 0.984460 of unit cell:	Completed after 15 iterations at t[s]:    271.85
	Linear fluid (dielectric constant: 7.2) occupying 0.984090 of unit cell:	Completed after 11 iterations at t[s]:    273.43
SCF: Cycle:  3   Etot: -177.701040868464759   dEtot: -1.966e-03   |Residual|: 1.333e-02   |deigs|: 7.999e-04  t[s]:    273.70
	Linear fluid (dielectric constant: 7.2) occupying 0.984332 of unit cell:	Completed after 10 iterations at t[s]:    274.68
	Linear fluid (dielectric constant: 7.2) occupying 0.984015 of unit cell:	Completed after 9 iterations at t[s]:    276.13
SCF: Cycle:  4   Etot: -177.705038673318370   dEtot: -3.998e-03   |Residual|: 9.007e-03   |deigs|: 1.260e-03  t[s]:    276.41
	Linear fluid (dielectric constant: 7.2) occupying 0.984279 of unit cell:	Completed after 10 iterations at t[s]:    277.39
	Linear fluid (dielectric constant: 7.2) occupying 0.984003 of unit cell:	Completed after 8 iterations at t[s]:    278.76
SCF: Cycle:  5   Etot: -177.705828707160123   dEtot: -7.900e-04   |Residual|: 7.149e-03   |deigs|: 2.238e-03  t[s]:    279.04
	Linear fluid (dielectric constant: 7.2) occupying 0.984150 of unit cell:	Completed after 9 iterations at t[s]:    279.94
	Linear fluid (dielectric constant: 7.2) occupying 0.983989 of unit cell:	Completed after 8 iterations at t[s]:    281.33
SCF: Cycle:  6   Etot: -177.706771367732756   dEtot: -9.427e-04   |Residual|: 4.732e-03   |deigs|: 3.299e-03  t[s]:    281.60
	Linear fluid (dielectric constant: 7.2) occupying 0.983910 of unit cell:	Completed after 6 iterations at t[s]:    282.29
	Linear fluid (dielectric constant: 7.2) occupying 0.983991 of unit cell:	Completed after 6 iterations at t[s]:    283.57
SCF: Cycle:  7   Etot: -177.707225875750908   dEtot: -4.545e-04   |Residual|: 3.629e-03   |deigs|: 4.383e-03  t[s]:    283.79
	Linear fluid (dielectric constant: 7.2) occupying 0.983833 of unit cell:	Completed after 6 iterations at t[s]:    284.49
	Linear fluid (dielectric constant: 7.2) occupying 0.983978 of unit cell:	Completed after 6 iterations at t[s]:    285.77
SCF: Cycle:  8   Etot: -177.707311983461949   dEtot: -8.611e-05   |Residual|: 2.320e-03   |deigs|: 4.094e-04  t[s]:    286.02
	Linear fluid (dielectric constant: 7.2) occupying 0.983644 of unit cell:	Completed after 5 iterations at t[s]:    286.66
	Linear fluid (dielectric constant: 7.2) occupying 0.983974 of unit cell:	Completed after 5 iterations at t[s]:    287.86
SCF: Cycle:  9   Etot: -177.707395637946945   dEtot: -8.365e-05   |Residual|: 1.709e-03   |deigs|: 1.506e-03  t[s]:    288.06
	Linear fluid (dielectric constant: 7.2) occupying 0.983559 of unit cell:	Completed after 5 iterations at t[s]:    288.70
	Linear fluid (dielectric constant: 7.2) occupying 0.983972 of unit cell:	Completed after 5 iterations at t[s]:    289.93
SCF: Cycle: 10   Etot: -177.707425785147052   dEtot: -3.015e-05   |Residual|: 1.138e-03   |deigs|: 1.055e-03  t[s]:    290.14
	Linear fluid (dielectric constant: 7.2) occupying 0.983525 of unit cell:	Completed after 5 iterations at t[s]:    290.78
	Linear fluid (dielectric constant: 7.2) occupying 0.983969 of unit cell:	Completed after 5 iterations at t[s]:    291.99
SCF: Cycle: 11   Etot: -177.707427834780788   dEtot: -2.050e-06   |Residual|: 8.581e-04   |deigs|: 8.581e-04  t[s]:    292.19
	Linear fluid (dielectric constant: 7.2) occupying 0.983664 of unit cell:	Completed after 4 iterations at t[s]:    292.79
	Linear fluid (dielectric constant: 7.2) occupying 0.983969 of unit cell:	Completed after 4 iterations at t[s]:    293.85
SCF: Cycle: 12   Etot: -177.707427656063402   dEtot: +1.787e-07   |Residual|: 1.004e-03   |deigs|: 2.001e-04  t[s]:    294.04
	Linear fluid (dielectric constant: 7.2) occupying 0.983819 of unit cell:	Completed after 5 iterations at t[s]:    294.68
	Linear fluid (dielectric constant: 7.2) occupying 0.983974 of unit cell:	Completed after 5 iterations at t[s]:    295.89
SCF: Cycle: 13   Etot: -177.707427866332409   dEtot: -2.103e-07   |Residual|: 5.789e-04   |deigs|: 4.198e-04  t[s]:    296.11
	Linear fluid (dielectric constant: 7.2) occupying 0.983921 of unit cell:	Completed after 4 iterations at t[s]:    296.71
	Linear fluid (dielectric constant: 7.2) occupying 0.983977 of unit cell:	Completed after 4 iterations at t[s]:    297.85
SCF: Cycle: 14   Etot: -177.707432277269959   dEtot: -4.411e-06   |Residual|: 4.179e-04   |deigs|: 2.300e-04  t[s]:    298.04
	Linear fluid (dielectric constant: 7.2) occupying 0.983989 of unit cell:	Completed after 4 iterations at t[s]:    298.64
	Linear fluid (dielectric constant: 7.2) occupying 0.983981 of unit cell:	Completed after 4 iterations at t[s]:    299.68
SCF: Cycle: 15   Etot: -177.707433627242182   dEtot: -1.350e-06   |Residual|: 2.799e-04   |deigs|: 9.467e-05  t[s]:    299.89
	Linear fluid (dielectric constant: 7.2) occupying 0.984002 of unit cell:	Completed after 3 iterations at t[s]:    300.46
	Linear fluid (dielectric constant: 7.2) occupying 0.983986 of unit cell:	Completed after 4 iterations at t[s]:    301.48
SCF: Cycle: 16   Etot: -177.707436283027960   dEtot: -2.656e-06   |Residual|: 2.300e-04   |deigs|: 1.536e-04  t[s]:    301.67
	Linear fluid (dielectric constant: 7.2) occupying 0.983993 of unit cell:	Completed after 2 iterations at t[s]:    305.66
	Linear fluid (dielectric constant: 7.2) occupying 0.983988 of unit cell:	Completed after 2 iterations at t[s]:    306.59
SCF: Cycle: 17   Etot: -177.707437764270281   dEtot: -1.481e-06   |Residual|: 1.906e-04   |deigs|: 1.294e-04  t[s]:    306.78
	Linear fluid (dielectric constant: 7.2) occupying 0.983983 of unit cell:	Completed after 2 iterations at t[s]:    308.93
	Linear fluid (dielectric constant: 7.2) occupying 0.983989 of unit cell:	Completed after 2 iterations at t[s]:    309.82
SCF: Cycle: 18   Etot: -177.707438409185244   dEtot: -6.449e-07   |Residual|: 1.456e-04   |deigs|: 7.462e-05  t[s]:    310.03
	Linear fluid (dielectric constant: 7.2) occupying 0.983960 of unit cell:	Completed after 3 iterations at t[s]:    310.58
	Linear fluid (dielectric constant: 7.2) occupying 0.983987 of unit cell:	Completed after 2 iterations at t[s]:    311.58
SCF: Cycle: 19   Etot: -177.707438770027807   dEtot: -3.608e-07   |Residual|: 1.496e-04   |deigs|: 8.151e-05  t[s]:    311.77
[...]
SCF: Cycle: 10   Etot: -177.711553559466125   dEtot: -1.609e-05   |Residual|: 7.031e-04   |deigs|: 1.236e-04  t[s]:   1875.81
	Linear fluid (dielectric constant: 7.2) occupying 0.983924 of unit cell:	Completed after 4 iterations at t[s]:   1876.42
	Linear fluid (dielectric constant: 7.2) occupying 0.983886 of unit cell:	Completed after 3 iterations at t[s]:   1877.44
SCF: Cycle: 11   Etot: -177.711555164024986   dEtot: -1.605e-06   |Residual|: 4.170e-04   |deigs|: 4.949e-05  t[s]:   1877.63
	Linear fluid (dielectric constant: 7.2) occupying 0.983910 of unit cell:	Completed after 3 iterations at t[s]:   1878.21
	Linear fluid (dielectric constant: 7.2) occupying 0.983885 of unit cell:	Completed after 3 iterations at t[s]:   1879.26
SCF: Cycle: 12   Etot: -177.711553942315390   dEtot: +1.222e-06   |Residual|: 1.104e-03   |deigs|: 7.792e-05  t[s]:   1879.46
	Linear fluid (dielectric constant: 7.2) occupying 0.983903 of unit cell:	Completed after 4 iterations at t[s]:   1880.07
	Linear fluid (dielectric constant: 7.2) occupying 0.983884 of unit cell:	Completed after 3 iterations at t[s]:   1881.06
SCF: Cycle: 13   Etot: -177.711554792733608   dEtot: -8.504e-07   |Residual|: 6.912e-04   |deigs|: 5.160e-05  t[s]:   1881.26
	Linear fluid (dielectric constant: 7.2) occupying 0.983901 of unit cell:	Completed after 3 iterations at t[s]:   1881.83
	Linear fluid (dielectric constant: 7.2) occupying 0.983884 of unit cell:	Completed after 3 iterations at t[s]:   1882.79
SCF: Cycle: 14   Etot: -177.711557513984900   dEtot: -2.721e-06   |Residual|: 3.558e-04   |deigs|: 4.635e-05  t[s]:   1882.99
	Linear fluid (dielectric constant: 7.2) occupying 0.983901 of unit cell:	Completed after 3 iterations at t[s]:   1883.56
	Linear fluid (dielectric constant: 7.2) occupying 0.983884 of unit cell:	Completed after 3 iterations at t[s]:   1884.52
SCF: Cycle: 15   Etot: -177.711558238670733   dEtot: -7.247e-07   |Residual|: 3.055e-04   |deigs|: 1.961e-05  t[s]:   1884.72
	Linear fluid (dielectric constant: 7.2) occupying 0.983902 of unit cell:	Completed after 3 iterations at t[s]:   1885.30
	Linear fluid (dielectric constant: 7.2) occupying 0.983883 of unit cell:	Completed after 2 iterations at t[s]:   1886.30
SCF: Cycle: 16   Etot: -177.711560201836221   dEtot: -1.963e-06   |Residual|: 2.161e-04   |deigs|: 2.570e-05  t[s]:   1886.49
	Linear fluid (dielectric constant: 7.2) occupying 0.983906 of unit cell:	Completed after 2 iterations at t[s]:   1887.03
	Linear fluid (dielectric constant: 7.2) occupying 0.983884 of unit cell:	Completed after 2 iterations at t[s]:   1887.92
SCF: Cycle: 17   Etot: -177.711561035717182   dEtot: -8.339e-07   |Residual|: 2.015e-04   |deigs|: 1.528e-05  t[s]:   1888.12
	Linear fluid (dielectric constant: 7.2) occupying 0.983909 of unit cell:	Completed after 3 iterations at t[s]:   1888.68
	Linear fluid (dielectric constant: 7.2) occupying 0.983882 of unit cell:	Completed after 2 iterations at t[s]:   1889.68
SCF: Cycle: 18   Etot: -177.711561317646556   dEtot: -2.819e-07   |Residual|: 2.200e-04   |deigs|: 2.589e-05  t[s]:   1889.88
	Linear fluid (dielectric constant: 7.2) occupying 0.983907 of unit cell:	Completed after 2 iterations at t[s]:   1890.41
	Linear fluid (dielectric constant: 7.2) occupying 0.983882 of unit cell:	Completed after 2 iterations at t[s]:   1891.41
SCF: Cycle: 19   Etot: -177.711561465579791   dEtot: -1.479e-07   |Residual|: 1.508e-04   |deigs|: 2.005e-05  t[s]:   1891.61
	Linear fluid (dielectric constant: 7.2) occupying 0.983902 of unit cell:	Completed after 2 iterations at t[s]:   1892.13
	Linear fluid (dielectric constant: 7.2) occupying 0.983882 of unit cell:	Completed after 2 iterations at t[s]:   1893.10
SCF: Cycle: 20   Etot: -177.711561673034112   dEtot: -2.075e-07   |Residual|: 1.677e-04   |deigs|: 1.336e-05  t[s]:   1893.29
	Linear fluid (dielectric constant: 7.2) occupying 0.983893 of unit cell:	Completed after 2 iterations at t[s]:   1893.82
	Linear fluid (dielectric constant: 7.2) occupying 0.983881 of unit cell:	Completed after 2 iterations at t[s]:   1894.80
SCF: Cycle: 21   Etot: -177.711562149762273   dEtot: -4.767e-07   |Residual|: 1.256e-04   |deigs|: 1.984e-05  t[s]:   1895.00
	Linear fluid (dielectric constant: 7.2) occupying 0.983887 of unit cell:	Completed after 2 iterations at t[s]:   1895.52
	Linear fluid (dielectric constant: 7.2) occupying 0.983881 of unit cell:	Completed after 2 iterations at t[s]:   1896.49
SCF: Cycle: 22   Etot: -177.711562600279223   dEtot: -4.505e-07   |Residual|: 7.208e-05   |deigs|: 2.012e-05  t[s]:   1896.70
	Linear fluid (dielectric constant: 7.2) occupying 0.983884 of unit cell:	Completed after 1 iterations at t[s]:   1897.18
	Linear fluid (dielectric constant: 7.2) occupying 0.983880 of unit cell:	Completed after 1 iterations at t[s]:   1898.10
SCF: Cycle: 23   Etot: -177.711562956584999   dEtot: -3.563e-07   |Residual|: 1.034e-04   |deigs|: 1.594e-05  t[s]:   1898.29
	Linear fluid (dielectric constant: 7.2) occupying 0.983882 of unit cell:	Completed after 1 iterations at t[s]:   1898.76
	Linear fluid (dielectric constant: 7.2) occupying 0.983880 of unit cell:	Completed after 1 iterations at t[s]:   1899.70
SCF: Cycle: 24   Etot: -177.711563218605221   dEtot: -2.620e-07   |Residual|: 8.472e-05   |deigs|: 1.312e-05  t[s]:   1899.90
	Linear fluid (dielectric constant: 7.2) occupying 0.983881 of unit cell:	Completed after 0 iterations at t[s]:   1900.32
	Linear fluid (dielectric constant: 7.2) occupying 0.983879 of unit cell:	Completed after 1 iterations at t[s]:   1901.22
SCF: Cycle: 25   Etot: -177.711563441902143   dEtot: -2.233e-07   |Residual|: 3.473e-05   |deigs|: 9.377e-06  t[s]:   1901.42
	Linear fluid (dielectric constant: 7.2) occupying 0.983880 of unit cell:	Completed after 0 iterations at t[s]:   1901.84
	Linear fluid (dielectric constant: 7.2) occupying 0.983879 of unit cell:	Completed after 1 iterations at t[s]:   1902.76
SCF: Cycle: 26   Etot: -177.711563571877207   dEtot: -1.300e-07   |Residual|: 3.520e-05   |deigs|: 1.154e-05  t[s]:   1902.96
	Linear fluid (dielectric constant: 7.2) occupying 0.983880 of unit cell:	Completed after 0 iterations at t[s]:   1903.38
	Linear fluid (dielectric constant: 7.2) occupying 0.983879 of unit cell:	Completed after 0 iterations at t[s]:   1904.25
SCF: Cycle: 27   Etot: -177.711563691804429   dEtot: -1.199e-07   |Residual|: 1.940e-05   |deigs|: 1.067e-05  t[s]:   1904.45
	Linear fluid (dielectric constant: 7.2) occupying 0.983880 of unit cell:	Completed after 0 iterations at t[s]:   1904.85
	Linear fluid (dielectric constant: 7.2) occupying 0.983879 of unit cell:	Completed after 1 iterations at t[s]:   1905.77
SCF: Cycle: 28   Etot: -177.711563753574836   dEtot: -6.177e-08   |Residual|: 1.661e-05   |deigs|: 4.174e-06  t[s]:   1905.97
	Linear fluid (dielectric constant: 7.2) occupying 0.983880 of unit cell:	Completed after 0 iterations at t[s]:   1906.39
	Linear fluid (dielectric constant: 7.2) occupying 0.983879 of unit cell:	Completed after 0 iterations at t[s]:   1907.18
SCF: Cycle: 29   Etot: -177.711563773470061   dEtot: -1.990e-08   |Residual|: 1.415e-05   |deigs|: 1.061e-05  t[s]:   1907.38
	Linear fluid (dielectric constant: 7.2) occupying 0.983879 of unit cell:	Completed after 0 iterations at t[s]:   1907.74
	Linear fluid (dielectric constant: 7.2) occupying 0.983879 of unit cell:	Completed after 0 iterations at t[s]:   1908.57
SCF: Cycle: 30   Etot: -177.711563795591502   dEtot: -2.212e-08   |Residual|: 1.223e-05   |deigs|: 8.959e-06  t[s]:   1908.78
	Linear fluid (dielectric constant: 7.2) occupying 0.983879 of unit cell:	Completed after 0 iterations at t[s]:   1909.14
	Linear fluid (dielectric constant: 7.2) occupying 0.983879 of unit cell:	Completed after 0 iterations at t[s]:   1909.94
SCF: Cycle: 31   Etot: -177.711563787037903   dEtot: +8.554e-09   |Residual|: 9.970e-06   |deigs|: 6.033e-06  t[s]:   1910.13
	Linear fluid (dielectric constant: 7.2) occupying 0.983879 of unit cell:	Completed after 0 iterations at t[s]:   1910.49
	Linear fluid (dielectric constant: 7.2) occupying 0.983879 of unit cell:	Completed after 0 iterations at t[s]:   1911.34
SCF: Cycle: 32   Etot: -177.711563795396245   dEtot: -8.358e-09   |Residual|: 8.183e-06   |deigs|: 8.931e-06  t[s]:   1911.53
	Linear fluid (dielectric constant: 7.2) occupying 0.983879 of unit cell:	Completed after 0 iterations at t[s]:   1911.90
	Linear fluid (dielectric constant: 7.2) occupying 0.983879 of unit cell:	Completed after 0 iterations at t[s]:   1912.77
SCF: Cycle: 33   Etot: -177.711563784920742   dEtot: +1.048e-08   |Residual|: 1.147e-05   |deigs|: 6.795e-06  t[s]:   1912.96
	Linear fluid (dielectric constant: 7.2) occupying 0.983879 of unit cell:	Completed after 0 iterations at t[s]:   1913.32
	Linear fluid (dielectric constant: 7.2) occupying 0.983879 of unit cell:	Completed after 0 iterations at t[s]:   1914.08
SCF: Cycle: 34   Etot: -177.711563786074009   dEtot: -1.153e-09   |Residual|: 7.367e-06   |deigs|: 1.003e-05  t[s]:   1914.27
	Linear fluid (dielectric constant: 7.2) occupying 0.983879 of unit cell:	Completed after 0 iterations at t[s]:   1914.60
	Linear fluid (dielectric constant: 7.2) occupying 0.983879 of unit cell:	Completed after 0 iterations at t[s]:   1915.44
SCF: Cycle: 35   Etot: -177.711563788167666   dEtot: -2.094e-09   |Residual|: 5.932e-06   |deigs|: 1.552e-07  t[s]:   1915.64
SCF: Converged (|Delta E|<1.000000e-08 for 2 iters).

Setting wave functions to eigenvectors of Hamiltonian

Computing DFT-D3 correction:
# coordination-number S 2.145 2.054 2.160 2.685 2.211 1.983 2.569 2.875
# coordination-number Na 2.703 1.989
# diagonal-C6 S 125.84 125.87 125.84 125.81 125.83 125.91 125.81 125.81
# diagonal-C6 Na 186.11 186.11
EvdW_6 =   -0.003332
EvdW_8 =   -0.012422

-------- Electronic minimization -----------
Will mix electronic density at each iteration.
	Linear fluid (dielectric constant: 7.2) occupying 0.983877 of unit cell:	Completed after 4 iterations at t[s]:   1916.37
	Linear fluid (dielectric constant: 7.2) occupying 0.983877 of unit cell:	Completed after 2 iterations at t[s]:   1917.37
SCF: Cycle:  0   Etot: -177.711563764444122   dEtot: -2.117e-05   |Residual|: 1.400e-03   |deigs|: 4.818e-07  t[s]:   1917.57
	Linear fluid (dielectric constant: 7.2) occupying 0.983877 of unit cell:	Completed after 2 iterations at t[s]:   1918.08
	Linear fluid (dielectric constant: 7.2) occupying 0.983877 of unit cell:	Completed after 1 iterations at t[s]:   1918.95
SCF: Cycle:  1   Etot: -177.711568575874168   dEtot: -4.811e-06   |Residual|: 7.573e-04   |deigs|: 1.812e-05  t[s]:   1919.14
	Linear fluid (dielectric constant: 7.2) occupying 0.983877 of unit cell:	Completed after 1 iterations at t[s]:   1919.60
	Linear fluid (dielectric constant: 7.2) occupying 0.983877 of unit cell:	Completed after 1 iterations at t[s]:   1920.45
SCF: Cycle:  2   Etot: -177.711569965653638   dEtot: -1.390e-06   |Residual|: 1.977e-04   |deigs|: 1.708e-05  t[s]:   1920.65
	Linear fluid (dielectric constant: 7.2) occupying 0.983876 of unit cell:	Completed after 0 iterations at t[s]:   1921.06
	Linear fluid (dielectric constant: 7.2) occupying 0.983877 of unit cell:	Completed after 0 iterations at t[s]:   1921.86
SCF: Cycle:  3   Etot: -177.711570408530292   dEtot: -4.429e-07   |Residual|: 1.211e-04   |deigs|: 1.326e-05  t[s]:   1922.06
	Linear fluid (dielectric constant: 7.2) occupying 0.983876 of unit cell:	Completed after 0 iterations at t[s]:   1922.44
	Linear fluid (dielectric constant: 7.2) occupying 0.983877 of unit cell:	Completed after 0 iterations at t[s]:   1923.26
SCF: Cycle:  4   Etot: -177.711570624350884   dEtot: -2.158e-07   |Residual|: 5.551e-05   |deigs|: 6.296e-06  t[s]:   1923.46
	Linear fluid (dielectric constant: 7.2) occupying 0.983877 of unit cell:	Completed after 0 iterations at t[s]:   1923.85
	Linear fluid (dielectric constant: 7.2) occupying 0.983877 of unit cell:	Completed after 0 iterations at t[s]:   1924.64
SCF: Cycle:  5   Etot: -177.711570747838266   dEtot: -1.235e-07   |Residual|: 2.980e-05   |deigs|: 4.514e-06  t[s]:   1924.85
	Linear fluid (dielectric constant: 7.2) occupying 0.983877 of unit cell:	Completed after 0 iterations at t[s]:   1925.24
	Linear fluid (dielectric constant: 7.2) occupying 0.983877 of unit cell:	Completed after 0 iterations at t[s]:   1926.05
SCF: Cycle:  6   Etot: -177.711570820151564   dEtot: -7.231e-08   |Residual|: 2.793e-05   |deigs|: 3.418e-06  t[s]:   1926.25
	Linear fluid (dielectric constant: 7.2) occupying 0.983877 of unit cell:	Completed after 0 iterations at t[s]:   1926.64
	Linear fluid (dielectric constant: 7.2) occupying 0.983877 of unit cell:	Completed after 0 iterations at t[s]:   1927.43
SCF: Cycle:  7   Etot: -177.711570867228176   dEtot: -4.708e-08   |Residual|: 1.882e-05   |deigs|: 3.260e-06  t[s]:   1927.64
	Linear fluid (dielectric constant: 7.2) occupying 0.983877 of unit cell:	Completed after 0 iterations at t[s]:   1928.02
	Linear fluid (dielectric constant: 7.2) occupying 0.983877 of unit cell:	Completed after 0 iterations at t[s]:   1928.84
SCF: Cycle:  8   Etot: -177.711570898439902   dEtot: -3.121e-08   |Residual|: 1.164e-05   |deigs|: 3.766e-06  t[s]:   1929.04
	Linear fluid (dielectric constant: 7.2) occupying 0.983877 of unit cell:	Completed after 0 iterations at t[s]:   1929.39
	Linear fluid (dielectric constant: 7.2) occupying 0.983877 of unit cell:	Completed after 0 iterations at t[s]:   1930.15
SCF: Cycle:  9   Etot: -177.711570919285094   dEtot: -2.085e-08   |Residual|: 1.816e-05   |deigs|: 4.637e-06  t[s]:   1930.34
	Linear fluid (dielectric constant: 7.2) occupying 0.983877 of unit cell:	Completed after 0 iterations at t[s]:   1930.70
	Linear fluid (dielectric constant: 7.2) occupying 0.983877 of unit cell:	Completed after 0 iterations at t[s]:   1931.49
SCF: Cycle: 10   Etot: -177.711570942705606   dEtot: -2.342e-08   |Residual|: 1.908e-05   |deigs|: 1.948e-07  t[s]:   1931.69
	Linear fluid (dielectric constant: 7.2) occupying 0.983877 of unit cell:	Completed after 0 iterations at t[s]:   1932.02
	Linear fluid (dielectric constant: 7.2) occupying 0.983877 of unit cell:	Completed after 0 iterations at t[s]:   1932.77
SCF: Cycle: 11   Etot: -177.711570953103120   dEtot: -1.040e-08   |Residual|: 2.406e-05   |deigs|: 2.240e-08  t[s]:   1932.96
	Linear fluid (dielectric constant: 7.2) occupying 0.983877 of unit cell:	Completed after 0 iterations at t[s]:   1933.30
	Linear fluid (dielectric constant: 7.2) occupying 0.983877 of unit cell:	Completed after 0 iterations at t[s]:   1934.06
SCF: Cycle: 12   Etot: -177.711570958134075   dEtot: -5.031e-09   |Residual|: 3.068e-05   |deigs|: 2.429e-08  t[s]:   1934.26
	Linear fluid (dielectric constant: 7.2) occupying 0.983877 of unit cell:	Completed after 0 iterations at t[s]:   1934.59
	Linear fluid (dielectric constant: 7.2) occupying 0.983877 of unit cell:	Completed after 0 iterations at t[s]:   1935.42
SCF: Cycle: 13   Etot: -177.711570950185660   dEtot: +7.948e-09   |Residual|: 2.996e-05   |deigs|: 1.789e-07  t[s]:   1935.61
	Linear fluid (dielectric constant: 7.2) occupying 0.983877 of unit cell:	Completed after 0 iterations at t[s]:   1935.97
	Linear fluid (dielectric constant: 7.2) occupying 0.983877 of unit cell:	Completed after 0 iterations at t[s]:   1936.76
SCF: Cycle: 14   Etot: -177.711570954209378   dEtot: -4.024e-09   |Residual|: 2.198e-05   |deigs|: 9.940e-06  t[s]:   1936.96
	Linear fluid (dielectric constant: 7.2) occupying 0.983877 of unit cell:	Completed after 0 iterations at t[s]:   1937.36
	Linear fluid (dielectric constant: 7.2) occupying 0.983877 of unit cell:	Completed after 0 iterations at t[s]:   1938.16
SCF: Cycle: 15   Etot: -177.711570961103916   dEtot: -6.895e-09   |Residual|: 2.019e-05   |deigs|: 4.307e-06  t[s]:   1938.36
SCF: Converged (|Delta E|<1.000000e-08 for 2 iters).

Setting wave functions to eigenvectors of Hamiltonian

Computing DFT-D3 correction:
# coordination-number S 2.145 2.054 2.160 2.685 2.211 1.983 2.569 2.875
# coordination-number Na 2.703 1.989
# diagonal-C6 S 125.84 125.87 125.84 125.81 125.83 125.91 125.81 125.81
# diagonal-C6 Na 186.11 186.11
EvdW_6 =   -0.003332
EvdW_8 =   -0.012422

# Ionic positions in cartesian coordinates:
ion S   5.085137474313369  10.871221926434227  20.571770259899772 1
ion S   3.877374132421370   8.265312807689741  24.032498154967008 1
ion S   4.622685736524837  10.228692484518797  27.105715920184217 1
ion S   8.435496051998268   8.586722878275344  28.503606021776232 1
ion S   9.689086416937485  10.509794213315944  31.552345886962065 1
ion S  12.105918290717431  13.410227424172987  30.848245314208214 1
ion S   6.382486485698307  14.059346309643397  22.069902958256286 1
ion S  10.237259755828980  14.104066178326379  22.585924608544225 1
ion Na   8.984977558912108  15.789280419381786  27.467335108303558 1
ion Na  11.036427778767816   8.897842767001395  23.164972924668454 1

# Forces in Cartesian coordinates:
force S   0.000083409332730  -0.000313130578389   0.000377100152898 1
force S   0.000415513760552   0.000527134661643   0.000056646534696 1
force S   0.001263543240050  -0.001185773318939  -0.000162054375163 1
force S  -0.001899566656687   0.000296249777700  -0.000157190396993 1
force S   0.001028642893447  -0.000309056571714   0.000567203033960 1
force S   0.000008901210508  -0.000521965586192  -0.000439563108461 1
force S  -0.001098113278151   0.000703267444368  -0.001959412089416 1
force S   0.000200005518119  -0.000171445447793   0.000799290572179 1
force Na   0.000249354289114   0.000242025274775  -0.000104070912413 1
force Na  -0.000245339440808   0.000741395730459   0.000825443118173 1

# Energy components:
   A_diel =       -0.0690392111105126
   Eewald =      190.0666497257418541
       EH =      335.8759483748700632
     Eloc =     -587.6457859175905014
      Enl =     -129.6743252787676113
     EvdW =       -0.0157543518998385
      Exc =      -47.9757585021995894
 Exc_core =       14.1418389346419886
       KE =       47.5846552652102446
-------------------------------------
     Etot =     -177.7115709611039165

IonicMinimize: Iter:  16  Etot: -177.711570961103916  |grad|_K:  7.541e-04  alpha:  3.479e+00  linmin:  1.679e-02  t[s]:   1938.79

#--- Lowdin population analysis ---
# oxidation-state S -0.090 -0.041 +0.021 -0.096 +0.153 -0.532 +0.171 -0.564
# oxidation-state Na +0.817 +0.851


Computing DFT-D3 correction:
# coordination-number S 2.145 2.052 2.162 2.692 2.210 1.983 2.563 2.877
# coordination-number Na 2.693 1.994
# diagonal-C6 S 125.84 125.87 125.84 125.81 125.83 125.91 125.81 125.81
# diagonal-C6 Na 186.11 186.11
EvdW_6 =   -0.003335
EvdW_8 =   -0.012417

-------- Electronic minimization -----------
Will mix electronic density at each iteration.
	Linear fluid (dielectric constant: 7.2) occupying 0.983883 of unit cell:	Completed after 5 iterations at t[s]:   1939.50
	Linear fluid (dielectric constant: 7.2) occupying 0.983883 of unit cell:	Completed after 2 iterations at t[s]:   1940.59
SCF: Cycle:  0   Etot: -177.711607290149203   dEtot: -6.277e-05   |Residual|: 2.213e-03   |deigs|: 1.394e-06  t[s]:   1940.78
	Linear fluid (dielectric constant: 7.2) occupying 0.983884 of unit cell:	Completed after 2 iterations at t[s]:   1941.30
	Linear fluid (dielectric constant: 7.2) occupying 0.983883 of unit cell:	Completed after 2 iterations at t[s]:   1942.20
SCF: Cycle:  1   Etot: -177.711613311941790   dEtot: -6.022e-06   |Residual|: 1.262e-03   |deigs|: 2.971e-05  t[s]:   1942.41
	Linear fluid (dielectric constant: 7.2) occupying 0.983885 of unit cell:	Completed after 2 iterations at t[s]:   1942.91
	Linear fluid (dielectric constant: 7.2) occupying 0.983883 of unit cell:	Completed after 1 iterations at t[s]:   1943.77
SCF: Cycle:  2   Etot: -177.711616236699996   dEtot: -2.925e-06   |Residual|: 3.268e-04   |deigs|: 3.469e-05  t[s]:   1943.96
	Linear fluid (dielectric constant: 7.2) occupying 0.983885 of unit cell: