CRYSTAL
PRIMVEC
 14.820031   0.000000   0.000000
 -7.410015  12.834505   0.000000
  0.000000   0.000000  20.000041
PRIMCOORD
4 1
16   4.923246   6.534712  14.673473
16   3.199821   5.374459  14.713542
11   5.511229   3.753946  13.217478
11   2.528002   8.190349  13.362704
