
*************** JDFTx 1.7.0  ***************

Start date and time: Sun Sep 22 11:07:33 2024
Executable jdftx with command-line: -i Na2S6-PC-vdw.in -o Na2S6-PC-vdw.out
Running on hosts (process indices):  DESKTOP-H9SOOLG (0)
Divided in process groups (process indices):  0 (0)
Resource initialization completed at t[s]:      0.00
Run totals: 1 processes, 4 threads, 0 GPUs


Input parsed successfully to the following command list (including defaults):

basis kpoint-dependent
coords-type Cartesian
core-overlap-check vector
coulomb-interaction Isolated
coulomb-truncation-embed 3.92133 11.8496 23.1275
davidson-band-ratio 1.1
dump End State
dump-name Na2S6-PC-vdw.$VAR
elec-cutoff 20 100
elec-eigen-algo Davidson
elec-ex-corr gga-PBE
electronic-minimize  \
	dirUpdateScheme      FletcherReeves \
	linminMethod         DirUpdateRecommended \
	nIterations          100 \
	history              15 \
	knormThreshold       0 \
	energyDiffThreshold  1e-08 \
	nEnergyDiff          2 \
	alphaTstart          1 \
	alphaTmin            1e-10 \
	updateTestStepSize   yes \
	alphaTreduceFactor   0.1 \
	alphaTincreaseFactor 3 \
	nAlphaAdjustMax      3 \
	wolfeEnergy          0.0001 \
	wolfeGradient        0.9 \
	fdTest               no
electronic-scf  \
	nIterations	50 \
	energyDiffThreshold	1e-08 \
	residualThreshold	1e-07 \
	mixFraction	0.5 \
	qMetric	0.8 \
	history	10 \
	nEigSteps	2 \
	eigDiffThreshold	1e-08 \
	mixedVariable	Density \
	qKerker	0.8 \
	qKappa	-1 \
	verbose	no \
	mixFractionMag	1.5
exchange-regularization None
fluid LinearPCM 298.000000 1.013250
fluid-ex-corr lda-TF lda-PZ
fluid-gummel-loop 10 1.000000e-05
fluid-minimize  \
	dirUpdateScheme      PolakRibiere \
	linminMethod         DirUpdateRecommended \
	nIterations          400 \
	history              15 \
	knormThreshold       1e-11 \
	energyDiffThreshold  0 \
	nEnergyDiff          2 \
	alphaTstart          1 \
	alphaTmin            1e-10 \
	updateTestStepSize   yes \
	alphaTreduceFactor   0.1 \
	alphaTincreaseFactor 3 \
	nAlphaAdjustMax      6 \
	wolfeEnergy          0.0001 \
	wolfeGradient        0.9 \
	fdTest               no
fluid-solvent PC 11.6429 ScalarEOS \
	epsBulk 64 \
	pMol 2.95 \
	epsInf 2.02 \
	Pvap 1.53277e-13 \
	sigmaBulk 2.88e-05 \
	Rvdw 0 \
	Res 0 \
	tauNuc 343133
forces-output-coords Positions
ion S   3.921331479750000  11.849557634189999  23.127532414739999 1
ion S   7.567480476899996  11.351192369400000  23.945456691719997 1
ion S   8.668781105760003   7.743174344189998  23.234262475409999 1
ion S   6.502139520210000   7.687128731849999  29.705151530609999 1
ion S   7.556913106740001  11.318358310649998  29.045040495659997 1
ion S  11.194673592419999  11.852526400019999  29.882693553839999 1
ion Na   3.832890226020000   7.182347833710000  25.239470096249999 1
ion Na  11.349661688099999   7.228066071600000  27.689512600169998 1
ion-species GBRV/$ID_pbe.uspp
ion-width Ecut
ionic-minimize  \
	dirUpdateScheme      FletcherReeves \
	linminMethod         DirUpdateRecommended \
	nIterations          200 \
	history              15 \
	knormThreshold       0.0001 \
	energyDiffThreshold  1e-06 \
	nEnergyDiff          2 \
	alphaTstart          1 \
	alphaTmin            1e-10 \
	updateTestStepSize   yes \
	alphaTreduceFactor   0.1 \
	alphaTincreaseFactor 3 \
	nAlphaAdjustMax      3 \
	wolfeEnergy          0.0001 \
	wolfeGradient        0.9 \
	fdTest               no
kpoint   0.000000000000   0.000000000000   0.000000000000  1.00000000000000
kpoint-folding 1 1 1 
latt-move-scale 1 1 1
latt-scale 1 1 1 
lattice Triclinic 28.0058 28.0058 37.7946 90 90 120
lattice-minimize  \
	dirUpdateScheme      L-BFGS \
	linminMethod         DirUpdateRecommended \
	nIterations          0 \
	history              15 \
	knormThreshold       0 \
	energyDiffThreshold  1e-06 \
	nEnergyDiff          2 \
	alphaTstart          1 \
	alphaTmin            1e-10 \
	updateTestStepSize   yes \
	alphaTreduceFactor   0.1 \
	alphaTincreaseFactor 3 \
	nAlphaAdjustMax      3 \
	wolfeEnergy          0.0001 \
	wolfeGradient        0.9 \
	fdTest               no
lcao-params -1 1e-06 0.001
pcm-variant GLSSA13
spintype no-spin
subspace-rotation-factor 1 yes
symmetries automatic
symmetry-threshold 0.0001
van-der-waals D3



---------- Setting up symmetries ----------

Found 24 point-group symmetries of the bravais lattice
Found 1 space-group symmetries with basis
Applied RMS atom displacement 0 bohrs to make symmetries exact.

---------- Initializing the Grid ----------
R = 
[      28.0058     -14.0029            0  ]
[            0      24.2537            0  ]
[            0            0      37.7946  ]
unit cell volume = 25671.8
G =
[   0.224353    0.12953         -0  ]
[          0   0.259061          0  ]
[          0         -0   0.166246  ]
Minimum fftbox size, Smin = [  128  128  172  ]
Chosen fftbox size, S = [  128  128  180  ]

---------- Initializing tighter grid for wavefunction operations ----------
R = 
[      28.0058     -14.0029            0  ]
[            0      24.2537            0  ]
[            0            0      37.7946  ]
unit cell volume = 25671.8
G =
[   0.224353    0.12953         -0  ]
[          0   0.259061          0  ]
[          0         -0   0.166246  ]
Minimum fftbox size, Smin = [  116  116  156  ]
Chosen fftbox size, S = [  120  120  160  ]

---------- Exchange Correlation functional ----------
Initalized PBE GGA exchange.
Initalized PBE GGA correlation.

---------- Setting up pseudopotentials ----------
Width of ionic core gaussian charges (only for fluid interactions / plotting) set to 0.397384

Reading pseudopotential file '/home/danielkim/jdftx_install/build/pseudopotentials/GBRV/s_pbe.uspp':
  Title: S.  Created by USPP 7.3.6 on 1-4-15
  Reference state energy: -11.898476.  6 valence electrons in orbitals:
    |300>  occupation: 2  eigenvalue: -0.634167
    |310>  occupation: 4  eigenvalue: -0.257568
  lMax: 2  lLocal: 3  QijEcut: 6
  6 projectors sampled on a log grid with 635 points:
    l: 0  eig: -0.634161  rCut: 1.5
    l: 0  eig: 1.500000  rCut: 1.5
    l: 1  eig: -0.257567  rCut: 1.5
    l: 1  eig: 1.500000  rCut: 1.5
    l: 2  eig: -1.000000  rCut: 1.5
    l: 2  eig: 1.500000  rCut: 1.5
  Partial core density with radius 1.15
  Transforming core density to a uniform radial grid of dG=0.02 with 1625 points.
  Transforming local potential to a uniform radial grid of dG=0.02 with 1625 points.
  Transforming nonlocal projectors to a uniform radial grid of dG=0.02 with 432 points.
  Transforming density augmentations to a uniform radial grid of dG=0.02 with 1625 points.
  Transforming atomic orbitals to a uniform radial grid of dG=0.02 with 432 points.
  Core radius for overlap checks: 1.50 bohrs.

Reading pseudopotential file '/home/danielkim/jdftx_install/build/pseudopotentials/GBRV/na_pbe.uspp':
  Title: Na.  Created by USPP 7.3.6 on 23-9-15
  Reference state energy: -47.625620.  9 valence electrons in orbitals:
    |200>  occupation: 2  eigenvalue: -2.085638
    |210>  occupation: 6  eigenvalue: -1.053708
    |300>  occupation: 1  eigenvalue: -0.100838
  lMax: 2  lLocal: 0  QijEcut: 6
  5 projectors sampled on a log grid with 657 points:
    l: 0  eig: -2.085640  rCut: 1.37
    l: 0  eig: -0.100839  rCut: 1.37
    l: 1  eig: -1.053708  rCut: 1.47
    l: 1  eig: 0.500000  rCut: 1.47
    l: 2  eig: 0.750000  rCut: 2
  Transforming local potential to a uniform radial grid of dG=0.02 with 1625 points.
  Transforming nonlocal projectors to a uniform radial grid of dG=0.02 with 432 points.
  Transforming density augmentations to a uniform radial grid of dG=0.02 with 1625 points.
  Transforming atomic orbitals to a uniform radial grid of dG=0.02 with 432 points.
  Core radius for overlap checks: 2.00 bohrs.

Initialized 2 species with 8 total atoms.

Folded 1 k-points by 1x1x1 to 1 k-points.

---------- Setting up k-points, bands, fillings ----------
No reducable k-points. 
Computing the number of bands and number of electrons
Calculating initial fillings.
nElectrons:  54.000000   nBands: 27   nStates: 1

----- Setting up reduced wavefunction bases (one per k-point) -----
average nbasis = 109673.000 , ideal nbasis = 109671.883

---------- Setting up coulomb interaction ----------
Fluid mode embedding: using embedded box, but periodic Coulomb kernel.
(Fluid response is responsible for (approximate) separation between periodic images.)
Setting up double-sized grid for truncated Coulomb potentials:
R = 
[      56.0116     -28.0058            0  ]
[            0      48.5075            0  ]
[            0            0      75.5892  ]
unit cell volume = 205374
G =
[   0.112177  0.0647651         -0  ]
[          0    0.12953          0  ]
[          0         -0  0.0831228  ]
Chosen fftbox size, S = [  256  256  360  ]
Integer grid location selected as the embedding center:
   Grid: [  49  63  110  ]
   Lattice: [  0.384302  0.488566  0.611927  ]
   Cartesian: [  3.92133  11.8496  23.1275  ]
Constructing Wigner-Seitz cell: 8 faces (6 quadrilaterals, 2 hexagons)
Range-separation parameter for embedded mesh potentials due to point charges: 0.590105 bohrs.

Initializing DFT-D3 calculator:
	Parameters set for gga-PBE functional
	s6:  1.000  s_r6:  1.217
	s8:  0.722  s_r8:  1.000
	Per-atom parameters loaded for:
	 S:  sqrtQ[a0]:  4.041  Rcov[a0]:  1.928  CN: [ 0.00 0.99 1.99 ]
	Na:  sqrtQ[a0]:  6.586  Rcov[a0]:  2.646  CN: [ 0.00 0.97 ]

---------- Setting up ewald sum ----------
Optimum gaussian width for ewald sums = 16.643468 bohr.
Real space sum over 1089 unit cells with max indices [  5  5  4  ]
Reciprocal space sum over 3825 terms with max indices [  7  7  8  ]

Computing DFT-D3 correction:
# coordination-number S 2.024 3.464 2.947 2.946 3.463 2.024
# coordination-number Na 3.875 3.880
# diagonal-C6 S 125.88 125.81 125.81 125.81 125.81 125.88
# diagonal-C6 Na 186.11 186.11
EvdW_6 =   -0.001208
EvdW_8 =   -0.007715

---------- Allocating electronic variables ----------
Initializing wave functions:  linear combination of atomic orbitals
S pseudo-atom occupations:   s ( 2 )  p ( 4 )
Na pseudo-atom occupations:   s ( 2 1 )  p ( 6 )
	FillingsUpdate:  mu: -0.164955365  nElectrons: 54.000000
LCAOMinimize: Iter:   0  Etot: -156.5684252419386837  |grad|_K:  2.735e-02  alpha:  1.000e+00
	FillingsUpdate:  mu: -0.148280260  nElectrons: 54.000000
LCAOMinimize: Iter:   1  Etot: -156.7063077388862382  |grad|_K:  7.073e-03  alpha:  3.525e-01  linmin:  3.116e-01  cgtest: -7.197e-01  t[s]:     43.75
	FillingsUpdate:  mu: -0.152264760  nElectrons: 54.000000
LCAOMinimize: Iter:   2  Etot: -156.7091604733899999  |grad|_K:  7.228e-03  alpha:  3.169e-01  linmin:  3.447e-03  cgtest:  8.448e-01  t[s]:     56.91
	FillingsUpdate:  mu: -0.166441425  nElectrons: 54.000000
LCAOMinimize: Iter:   3  Etot: -156.7191345881330733  |grad|_K:  7.707e-04  alpha:  3.123e-01  linmin:  3.211e-02  cgtest: -2.577e-01  t[s]:     70.26
LCAOMinimize: None of the convergence criteria satisfied after 3 iterations.
----- createFluidSolver() ----- (Fluid-side solver setup)
   Initializing fluid molecule 'PC'
     Net charge: 0   dipole magnitude: 0
     Initializing spherical shell mfKernel with radius 0 Bohr
     deltaS corrections:

Correction to mu due to finite nuclear width = -0.000260884
   Cavity determined by nc: 0.00098 and sigma: 0.6
   Effective cavity tension: 9.53e-06 Eh/bohr^2 to account for cavitation and dispersion.


---- Citations for features of the code used in this run ----

   Software package:
      R. Sundararaman, K. Letchworth-Weaver, K.A. Schwarz, D. Gunceler, Y. Ozhabes and T.A. Arias, 'JDFTx: software for joint density-functional theory', SoftwareX 6, 278 (2017)

   gga-PBE exchange-correlation functional:
      J.P. Perdew, K. Burke and M. Ernzerhof, Phys. Rev. Lett. 77, 3865 (1996)

   Pseudopotentials:
      KF Garrity, JW Bennett, KM Rabe and D Vanderbilt, Comput. Mater. Sci. 81, 446 (2014)

   Truncated Coulomb potentials:
      R. Sundararaman and T.A. Arias, Phys. Rev. B 87, 165122 (2013)

   DFT-D3 dispersion correction:
      S. Grimme, J. Antony, S. Ehrlich and H. Krieg, J. Chem. Phys. 132, 154104 (2010)

   Linear/nonlinear dielectric/ionic fluid model with effective cavity tension:
      D. Gunceler, K. Letchworth-Weaver, R. Sundararaman, K.A. Schwarz and T.A. Arias, Modelling Simul. Mater. Sci. Eng. 21, 074005 (2013)

This list may not be complete. Please suggest additional citations or
report any other bugs at https://github.com/shankar1729/jdftx/issues

Initialization completed successfully at t[s]:     71.42


Computing DFT-D3 correction:
# coordination-number S 2.024 3.464 2.947 2.946 3.463 2.024
# coordination-number Na 3.875 3.880
# diagonal-C6 S 125.88 125.81 125.81 125.81 125.81 125.88
# diagonal-C6 Na 186.11 186.11
EvdW_6 =   -0.001208
EvdW_8 =   -0.007715
Fluid solver invoked on fresh (random / LCAO) wavefunctions
Running a vacuum solve first:

-------- Initial electronic minimization -----------
Will mix electronic density at each iteration.
SCF: Cycle:  0   Etot: -156.915885882409867   dEtot: -1.968e-01   |Residual|: 2.743e-01   |deigs|: 1.230e-02  t[s]:     93.29
SCF: Cycle:  1   Etot: -157.051122638579159   dEtot: -1.352e-01   |Residual|: 1.407e-01   |deigs|: 1.583e-02  t[s]:    109.58
SCF: Cycle:  2   Etot: -157.100104348511081   dEtot: -4.898e-02   |Residual|: 5.628e-02   |deigs|: 1.500e-02  t[s]:    125.96
SCF: Cycle:  3   Etot: -157.103905689426966   dEtot: -3.801e-03   |Residual|: 3.193e-02   |deigs|: 5.117e-03  t[s]:    141.65
SCF: Cycle:  4   Etot: -157.106480209324673   dEtot: -2.575e-03   |Residual|: 1.594e-02   |deigs|: 6.370e-03  t[s]:    157.60
SCF: Cycle:  5   Etot: -157.107135807693680   dEtot: -6.556e-04   |Residual|: 1.293e-02   |deigs|: 1.699e-03  t[s]:    173.56
SCF: Cycle:  6   Etot: -157.107234419747016   dEtot: -9.861e-05   |Residual|: 8.497e-03   |deigs|: 4.015e-03  t[s]:    189.46
SCF: Cycle:  7   Etot: -157.107208108938835   dEtot: +2.631e-05   |Residual|: 9.046e-03   |deigs|: 7.061e-04  t[s]:    204.92
SCF: Cycle:  8   Etot: -157.107481892220619   dEtot: -2.738e-04   |Residual|: 3.802e-03   |deigs|: 3.308e-03  t[s]:    220.35
SCF: Cycle:  9   Etot: -157.107474226662589   dEtot: +7.666e-06   |Residual|: 4.200e-03   |deigs|: 1.408e-03  t[s]:    235.29
SCF: Cycle: 10   Etot: -157.107504491373106   dEtot: -3.026e-05   |Residual|: 3.099e-03   |deigs|: 1.398e-03  t[s]:    250.20
SCF: Cycle: 11   Etot: -157.107503221995472   dEtot: +1.269e-06   |Residual|: 3.018e-03   |deigs|: 4.720e-04  t[s]:    265.12
SCF: Cycle: 12   Etot: -157.107526315953237   dEtot: -2.309e-05   |Residual|: 3.110e-03   |deigs|: 2.504e-04  t[s]:    281.05
SCF: Cycle: 13   Etot: -157.107538946100419   dEtot: -1.263e-05   |Residual|: 2.003e-03   |deigs|: 5.327e-04  t[s]:    296.17
SCF: Cycle: 14   Etot: -157.107547179745325   dEtot: -8.234e-06   |Residual|: 1.389e-03   |deigs|: 1.691e-04  t[s]:    308.77
SCF: Cycle: 15   Etot: -157.107556188856535   dEtot: -9.009e-06   |Residual|: 8.456e-04   |deigs|: 2.577e-04  t[s]:    321.50
SCF: Cycle: 16   Etot: -157.107560259572097   dEtot: -4.071e-06   |Residual|: 6.896e-04   |deigs|: 1.511e-04  t[s]:    334.34
SCF: Cycle: 17   Etot: -157.107561586987828   dEtot: -1.327e-06   |Residual|: 6.443e-04   |deigs|: 1.372e-04  t[s]:    347.16
SCF: Cycle: 18   Etot: -157.107562444652160   dEtot: -8.577e-07   |Residual|: 5.044e-04   |deigs|: 1.792e-04  t[s]:    359.93
SCF: Cycle: 19   Etot: -157.107561546492235   dEtot: +8.982e-07   |Residual|: 6.595e-04   |deigs|: 1.259e-04  t[s]:    372.75
SCF: Cycle: 20   Etot: -157.107562470804226   dEtot: -9.243e-07   |Residual|: 3.958e-04   |deigs|: 2.246e-04  t[s]:    385.51
SCF: Cycle: 21   Etot: -157.107562807076675   dEtot: -3.363e-07   |Residual|: 3.104e-04   |deigs|: 2.571e-05  t[s]:    398.31
SCF: Cycle: 22   Etot: -157.107562864066381   dEtot: -5.699e-08   |Residual|: 2.732e-04   |deigs|: 9.858e-05  t[s]:    411.01
SCF: Cycle: 23   Etot: -157.107563079324848   dEtot: -2.153e-07   |Residual|: 1.448e-04   |deigs|: 6.712e-05  t[s]:    427.05
SCF: Cycle: 24   Etot: -157.107563374082190   dEtot: -2.948e-07   |Residual|: 1.152e-04   |deigs|: 2.915e-05  t[s]:    439.77
SCF: Cycle: 25   Etot: -157.107563544732130   dEtot: -1.706e-07   |Residual|: 1.040e-04   |deigs|: 2.619e-05  t[s]:    452.60
SCF: Cycle: 26   Etot: -157.107563646535027   dEtot: -1.018e-07   |Residual|: 9.928e-05   |deigs|: 6.774e-05  t[s]:    465.41
SCF: Cycle: 27   Etot: -157.107563704558203   dEtot: -5.802e-08   |Residual|: 7.264e-05   |deigs|: 1.921e-05  t[s]:    478.12
SCF: Cycle: 28   Etot: -157.107563730576175   dEtot: -2.602e-08   |Residual|: 7.979e-05   |deigs|: 1.081e-05  t[s]:    491.09
SCF: Cycle: 29   Etot: -157.107563775126948   dEtot: -4.455e-08   |Residual|: 3.078e-05   |deigs|: 8.528e-06  t[s]:    507.03
SCF: Cycle: 30   Etot: -157.107563787173575   dEtot: -1.205e-08   |Residual|: 2.947e-05   |deigs|: 4.195e-06  t[s]:    519.84
SCF: Cycle: 31   Etot: -157.107563799620777   dEtot: -1.245e-08   |Residual|: 1.909e-05   |deigs|: 4.022e-06  t[s]:    535.81
SCF: Cycle: 32   Etot: -157.107563803147173   dEtot: -3.526e-09   |Residual|: 1.664e-05   |deigs|: 1.138e-05  t[s]:    548.59
SCF: Cycle: 33   Etot: -157.107563810686059   dEtot: -7.539e-09   |Residual|: 8.023e-06   |deigs|: 3.228e-06  t[s]:    564.65
SCF: Converged (|Delta E|<1.000000e-08 for 2 iters).

Setting wave functions to eigenvectors of Hamiltonian
Vacuum energy after initial minimize, Etot = -157.107563810686059


-------- Electronic minimization -----------
Will mix electronic density at each iteration.
	Linear fluid (dielectric constant: 64) occupying 0.992772 of unit cell:	Completed after 28 iterations at t[s]:    624.01
	Linear fluid (dielectric constant: 64) occupying 0.992803 of unit cell:	Completed after 23 iterations at t[s]:    679.95
SCF: Cycle:  0   Etot: -157.234570600655417   dEtot: -3.380e-02   |Residual|: 4.331e-02   |deigs|: 9.269e-04  t[s]:    682.40
	Linear fluid (dielectric constant: 64) occupying 0.992785 of unit cell:	Completed after 20 iterations at t[s]:    714.41
	Linear fluid (dielectric constant: 64) occupying 0.992800 of unit cell:	Completed after 23 iterations at t[s]:    768.70
SCF: Cycle:  1   Etot: -157.237017387027691   dEtot: -2.447e-03   |Residual|: 3.161e-02   |deigs|: 3.299e-03  t[s]:    771.18
	Linear fluid (dielectric constant: 64) occupying 0.992791 of unit cell:	Completed after 17 iterations at t[s]:    798.98
	Linear fluid (dielectric constant: 64) occupying 0.992798 of unit cell:	Completed after 21 iterations at t[s]:    850.79
SCF: Cycle:  2   Etot: -157.239229815245977   dEtot: -2.212e-03   |Residual|: 1.667e-02   |deigs|: 5.248e-03  t[s]:    853.19
	Linear fluid (dielectric constant: 64) occupying 0.992782 of unit cell:	Completed after 18 iterations at t[s]:    882.68
	Linear fluid (dielectric constant: 64) occupying 0.992796 of unit cell:	Completed after 20 iterations at t[s]:    932.31
SCF: Cycle:  3   Etot: -157.239485235388088   dEtot: -2.554e-04   |Residual|: 1.241e-02   |deigs|: 2.740e-04  t[s]:    934.78
	Linear fluid (dielectric constant: 64) occupying 0.992779 of unit cell:	Completed after 13 iterations at t[s]:    957.60
	Linear fluid (dielectric constant: 64) occupying 0.992783 of unit cell:	Completed after 13 iterations at t[s]:    998.25
SCF: Cycle:  4   Etot: -157.239900744975671   dEtot: -4.155e-04   |Residual|: 9.823e-03   |deigs|: 5.240e-03  t[s]:   1000.73
	Linear fluid (dielectric constant: 64) occupying 0.992775 of unit cell:	Completed after 12 iterations at t[s]:   1021.91
	Linear fluid (dielectric constant: 64) occupying 0.992781 of unit cell:	Completed after 12 iterations at t[s]:   1059.80
SCF: Cycle:  5   Etot: -157.240069800262859   dEtot: -1.691e-04   |Residual|: 5.917e-03   |deigs|: 7.790e-04  t[s]:   1062.28
	Linear fluid (dielectric constant: 64) occupying 0.992749 of unit cell:	Completed after 12 iterations at t[s]:   1083.76
	Linear fluid (dielectric constant: 64) occupying 0.992772 of unit cell:	Completed after 10 iterations at t[s]:   1120.53
SCF: Cycle:  6   Etot: -157.240197960033782   dEtot: -1.282e-04   |Residual|: 6.558e-03   |deigs|: 1.625e-03  t[s]:   1122.91
	Linear fluid (dielectric constant: 64) occupying 0.992746 of unit cell:	Completed after 8 iterations at t[s]:   1138.82
	Linear fluid (dielectric constant: 64) occupying 0.992772 of unit cell:	Completed after 10 iterations at t[s]:   1174.45
SCF: Cycle:  7   Etot: -157.240204852132933   dEtot: -6.892e-06   |Residual|: 5.965e-03   |deigs|: 3.998e-04  t[s]:   1176.82
	Linear fluid (dielectric constant: 64) occupying 0.992726 of unit cell:	Completed after 10 iterations at t[s]:   1195.28
	Linear fluid (dielectric constant: 64) occupying 0.992773 of unit cell:	Completed after 10 iterations at t[s]:   1230.75
SCF: Cycle:  8   Etot: -157.240212383702954   dEtot: -7.532e-06   |Residual|: 7.115e-03   |deigs|: 5.860e-04  t[s]:   1233.13
	Linear fluid (dielectric constant: 64) occupying 0.992734 of unit cell:	Completed after 9 iterations at t[s]:   1250.47
	Linear fluid (dielectric constant: 64) occupying 0.992772 of unit cell:	Completed after 9 iterations at t[s]:   1284.56
SCF: Cycle:  9   Etot: -157.240304719377747   dEtot: -9.234e-05   |Residual|: 3.049e-03   |deigs|: 3.447e-04  t[s]:   1286.99
	Linear fluid (dielectric constant: 64) occupying 0.992756 of unit cell:	Completed after 6 iterations at t[s]:   1300.47
	Linear fluid (dielectric constant: 64) occupying 0.992771 of unit cell:	Completed after 4 iterations at t[s]:   1326.89
SCF: Cycle: 10   Etot: -157.240328162697665   dEtot: -2.344e-05   |Residual|: 2.127e-03   |deigs|: 1.512e-04  t[s]:   1329.28
	Linear fluid (dielectric constant: 64) occupying 0.992761 of unit cell:	Completed after 3 iterations at t[s]:   1338.39
	Linear fluid (dielectric constant: 64) occupying 0.992772 of unit cell:	Completed after 4 iterations at t[s]:   1363.26
SCF: Cycle: 11   Etot: -157.240336872572982   dEtot: -8.710e-06   |Residual|: 1.303e-03   |deigs|: 6.391e-05  t[s]:   1365.67
	Linear fluid (dielectric constant: 64) occupying 0.992773 of unit cell:	Completed after 3 iterations at t[s]:   1374.78
	Linear fluid (dielectric constant: 64) occupying 0.992773 of unit cell:	Completed after 3 iterations at t[s]:   1398.49
SCF: Cycle: 12   Etot: -157.240338236074507   dEtot: -1.364e-06   |Residual|: 1.327e-03   |deigs|: 1.130e-04  t[s]:   1401.00
	Linear fluid (dielectric constant: 64) occupying 0.992777 of unit cell:	Completed after 3 iterations at t[s]:   1410.23
	Linear fluid (dielectric constant: 64) occupying 0.992772 of unit cell:	Completed after 3 iterations at t[s]:   1435.68
SCF: Cycle: 13   Etot: -157.240338996819389   dEtot: -7.607e-07   |Residual|: 1.008e-03   |deigs|: 9.206e-05  t[s]:   1438.13
	Linear fluid (dielectric constant: 64) occupying 0.992769 of unit cell:	Completed after 3 iterations at t[s]:   1447.54
	Linear fluid (dielectric constant: 64) occupying 0.992771 of unit cell:	Completed after 3 iterations at t[s]:   1473.13
SCF: Cycle: 14   Etot: -157.240339516282148   dEtot: -5.195e-07   |Residual|: 1.231e-03   |deigs|: 1.645e-04  t[s]:   1475.64
	Linear fluid (dielectric constant: 64) occupying 0.992766 of unit cell:	Completed after 0 iterations at t[s]:   1480.98
	Linear fluid (dielectric constant: 64) occupying 0.992773 of unit cell:	Completed after 3 iterations at t[s]:   1506.82
SCF: Cycle: 15   Etot: -157.240338925503693   dEtot: +5.908e-07   |Residual|: 9.433e-04   |deigs|: 1.582e-04  t[s]:   1509.27
	Linear fluid (dielectric constant: 64) occupying 0.992766 of unit cell:	Completed after 1 iterations at t[s]:   1515.90
	Linear fluid (dielectric constant: 64) occupying 0.992771 of unit cell:	Completed after 3 iterations at t[s]:   1541.97
SCF: Cycle: 16   Etot: -157.240339007385472   dEtot: -8.188e-08   |Residual|: 8.813e-04   |deigs|: 1.195e-04  t[s]:   1544.46
	Linear fluid (dielectric constant: 64) occupying 0.992767 of unit cell:	Completed after 1 iterations at t[s]:   1551.07
	Linear fluid (dielectric constant: 64) occupying 0.992772 of unit cell:	Completed after 1 iterations at t[s]:   1575.60
SCF: Cycle: 17   Etot: -157.240340686840796   dEtot: -1.679e-06   |Residual|: 4.295e-04   |deigs|: 1.002e-04  t[s]:   1578.03
	Linear fluid (dielectric constant: 64) occupying 0.992769 of unit cell:	Completed after 0 iterations at t[s]:   1583.11
	Linear fluid (dielectric constant: 64) occupying 0.992772 of unit cell:	Completed after 0 iterations at t[s]:   1601.19
SCF: Cycle: 18   Etot: -157.240340876236303   dEtot: -1.894e-07   |Residual|: 3.472e-04   |deigs|: 2.480e-05  t[s]:   1603.58
	Linear fluid (dielectric constant: 64) occupying 0.992770 of unit cell:	Completed after 0 iterations at t[s]:   1608.77
	Linear fluid (dielectric constant: 64) occupying 0.992772 of unit cell:	Completed after 0 iterations at t[s]:   1628.63
SCF: Cycle: 19   Etot: -157.240341167001191   dEtot: -2.908e-07   |Residual|: 2.739e-04   |deigs|: 1.832e-05  t[s]:   1631.01
	Linear fluid (dielectric constant: 64) occupying 0.992771 of unit cell:	Completed after 1 iterations at t[s]:   1637.40
	Linear fluid (dielectric constant: 64) occupying 0.992773 of unit cell:	Completed after 0 iterations at t[s]:   1658.51
SCF: Cycle: 20   Etot: -157.240341500348507   dEtot: -3.333e-07   |Residual|: 4.256e-04   |deigs|: 7.631e-05  t[s]:   1660.94
	Linear fluid (dielectric constant: 64) occupying 0.992770 of unit cell:	Completed after 0 iterations at t[s]:   1666.06
	Linear fluid (dielectric constant: 64) occupying 0.992772 of unit cell:	Completed after 0 iterations at t[s]:   1683.87
SCF: Cycle: 21   Etot: -157.240341711832883   dEtot: -2.115e-07   |Residual|: 2.337e-04   |deigs|: 2.689e-05  t[s]:   1686.22
	Linear fluid (dielectric constant: 64) occupying 0.992771 of unit cell:	Completed after 2 iterations at t[s]:   1694.12
	Linear fluid (dielectric constant: 64) occupying 0.992773 of unit cell:	Completed after 2 iterations at t[s]:   1718.13
SCF: Cycle: 22   Etot: -157.240341530639427   dEtot: +1.812e-07   |Residual|: 6.748e-04   |deigs|: 1.171e-04  t[s]:   1720.55
	Linear fluid (dielectric constant: 64) occupying 0.992772 of unit cell:	Completed after 0 iterations at t[s]:   1725.58
	Linear fluid (dielectric constant: 64) occupying 0.992773 of unit cell:	Completed after 0 iterations at t[s]:   1746.16
SCF: Cycle: 23   Etot: -157.240341990209856   dEtot: -4.596e-07   |Residual|: 1.415e-04   |deigs|: 5.186e-05  t[s]:   1748.67
	Linear fluid (dielectric constant: 64) occupying 0.992772 of unit cell:	Completed after 0 iterations at t[s]:   1752.56
	Linear fluid (dielectric constant: 64) occupying 0.992773 of unit cell:	Completed after 1 iterations at t[s]:   1773.18
SCF: Cycle: 24   Etot: -157.240341763232266   dEtot: +2.270e-07   |Residual|: 1.510e-04   |deigs|: 5.242e-06  t[s]:   1775.59
	Linear fluid (dielectric constant: 64) occupying 0.992773 of unit cell:	Completed after 0 iterations at t[s]:   1779.27
	Linear fluid (dielectric constant: 64) occupying 0.992773 of unit cell:	Completed after 0 iterations at t[s]:   1797.16
SCF: Cycle: 25   Etot: -157.240341881849190   dEtot: -1.186e-07   |Residual|: 1.362e-04   |deigs|: 4.701e-05  t[s]:   1799.58
	Linear fluid (dielectric constant: 64) occupying 0.992773 of unit cell:	Completed after 0 iterations at t[s]:   1803.42
	Linear fluid (dielectric constant: 64) occupying 0.992773 of unit cell:	Completed after 0 iterations at t[s]:   1821.75
SCF: Cycle: 26   Etot: -157.240341952641216   dEtot: -7.079e-08   |Residual|: 1.441e-04   |deigs|: 3.997e-07  t[s]:   1824.13
	Linear fluid (dielectric constant: 64) occupying 0.992773 of unit cell:	Completed after 0 iterations at t[s]:   1827.86
	Linear fluid (dielectric constant: 64) occupying 0.992773 of unit cell:	Completed after 0 iterations at t[s]:   1846.01
SCF: Cycle: 27   Etot: -157.240342035154498   dEtot: -8.251e-08   |Residual|: 6.505e-05   |deigs|: 2.413e-06  t[s]:   1848.49
	Linear fluid (dielectric constant: 64) occupying 0.992773 of unit cell:	Completed after 0 iterations at t[s]:   1852.31
	Linear fluid (dielectric constant: 64) occupying 0.992773 of unit cell:	Completed after 0 iterations at t[s]:   1870.39
SCF: Cycle: 28   Etot: -157.240342076765671   dEtot: -4.161e-08   |Residual|: 5.143e-05   |deigs|: 1.000e-06  t[s]:   1872.76
	Linear fluid (dielectric constant: 64) occupying 0.992773 of unit cell:	Completed after 0 iterations at t[s]:   1876.55
	Linear fluid (dielectric constant: 64) occupying 0.992773 of unit cell:	Completed after 0 iterations at t[s]:   1894.62
SCF: Cycle: 29   Etot: -157.240342103422421   dEtot: -2.666e-08   |Residual|: 5.323e-05   |deigs|: 1.159e-06  t[s]:   1897.05
	Linear fluid (dielectric constant: 64) occupying 0.992773 of unit cell:	Completed after 0 iterations at t[s]:   1900.83
	Linear fluid (dielectric constant: 64) occupying 0.992773 of unit cell:	Completed after 0 iterations at t[s]:   1918.89
SCF: Cycle: 30   Etot: -157.240342139085556   dEtot: -3.566e-08   |Residual|: 6.640e-05   |deigs|: 2.049e-06  t[s]:   1921.34
	Linear fluid (dielectric constant: 64) occupying 0.992773 of unit cell:	Completed after 0 iterations at t[s]:   1925.20
	Linear fluid (dielectric constant: 64) occupying 0.992773 of unit cell:	Completed after 0 iterations at t[s]:   1943.38
SCF: Cycle: 31   Etot: -157.240342158011629   dEtot: -1.893e-08   |Residual|: 5.323e-05   |deigs|: 5.222e-07  t[s]:   1945.75
	Linear fluid (dielectric constant: 64) occupying 0.992773 of unit cell:	Completed after 0 iterations at t[s]:   1949.55
	Linear fluid (dielectric constant: 64) occupying 0.992773 of unit cell:	Completed after 0 iterations at t[s]:   1967.87
SCF: Cycle: 32   Etot: -157.240342154451810   dEtot: +3.560e-09   |Residual|: 4.986e-05   |deigs|: 3.892e-07  t[s]:   1970.27
	Linear fluid (dielectric constant: 64) occupying 0.992773 of unit cell:	Completed after 0 iterations at t[s]:   1974.12
	Linear fluid (dielectric constant: 64) occupying 0.992773 of unit cell:	Completed after 0 iterations at t[s]:   1992.26
SCF: Cycle: 33   Etot: -157.240342155969870   dEtot: -1.518e-09   |Residual|: 5.600e-05   |deigs|: 1.770e-07  t[s]:   1994.65
	Linear fluid (dielectric constant: 64) occupying 0.992773 of unit cell:	Completed after 0 iterations at t[s]:   1998.49
	Linear fluid (dielectric constant: 64) occupying 0.992773 of unit cell:	Completed after 0 iterations at t[s]:   2019.90
SCF: Cycle: 34   Etot: -157.240342171032978   dEtot: -1.506e-08   |Residual|: 4.885e-05   |deigs|: 1.144e-06  t[s]:   2022.28
	Linear fluid (dielectric constant: 64) occupying 0.992773 of unit cell:	Completed after 0 iterations at t[s]:   2026.05
	Linear fluid (dielectric constant: 64) occupying 0.992773 of unit cell:	Completed after 0 iterations at t[s]:   2044.07
SCF: Cycle: 35   Etot: -157.240342159773945   dEtot: +1.126e-08   |Residual|: 5.495e-05   |deigs|: 1.111e-06  t[s]:   2046.43
	Linear fluid (dielectric constant: 64) occupying 0.992773 of unit cell:	Completed after 0 iterations at t[s]:   2050.26
	Linear fluid (dielectric constant: 64) occupying 0.992773 of unit cell:	Completed after 0 iterations at t[s]:   2068.11
SCF: Cycle: 36   Etot: -157.240342162137125   dEtot: -2.363e-09   |Residual|: 4.872e-05   |deigs|: 2.096e-07  t[s]:   2070.45
	Linear fluid (dielectric constant: 64) occupying 0.992773 of unit cell:	Completed after 0 iterations at t[s]:   2074.27
	Linear fluid (dielectric constant: 64) occupying 0.992773 of unit cell:	Completed after 0 iterations at t[s]:   2092.47
SCF: Cycle: 37   Etot: -157.240342167727306   dEtot: -5.590e-09   |Residual|: 4.210e-05   |deigs|: 4.001e-07  t[s]:   2094.87
SCF: Converged (|Delta E|<1.000000e-08 for 2 iters).

Setting wave functions to eigenvectors of Hamiltonian
Single-point solvation energy estimate, DeltaEtot = -0.132778357041246

Computing DFT-D3 correction:
# coordination-number S 2.024 3.464 2.947 2.946 3.463 2.024
# coordination-number Na 3.875 3.880
# diagonal-C6 S 125.88 125.81 125.81 125.81 125.81 125.88
# diagonal-C6 Na 186.11 186.11
EvdW_6 =   -0.001208
EvdW_8 =   -0.007715

# Ionic positions in cartesian coordinates:
ion S   3.921331479750000  11.849557634189999  23.127532414739999 1
ion S   7.567480476899996  11.351192369400000  23.945456691719997 1
ion S   8.668781105760003   7.743174344189998  23.234262475409999 1
ion S   6.502139520210000   7.687128731849999  29.705151530609999 1
ion S   7.556913106740001  11.318358310649998  29.045040495659997 1
ion S  11.194673592419999  11.852526400019999  29.882693553839999 1
ion Na   3.832890226020000   7.182347833710000  25.239470096249999 1
ion Na  11.349661688099999   7.228066071600000  27.689512600169998 1

# Forces in Cartesian coordinates:
force S  -0.002792481540282   0.012326911211231  -0.004918053644474 1
force S   0.007361767941564  -0.005858047279579  -0.002111360594335 1
force S  -0.000207860379270   0.010383626209985  -0.006341967774162 1
force S   0.000043003626482   0.010275318134224   0.006438054316885 1
force S  -0.007098974303628  -0.006018433919562   0.002053203428983 1
force S   0.002445677285921   0.012351282592958   0.005060455621448 1
force Na  -0.017563953265584  -0.017007341165269  -0.000432608922949 1
force Na   0.017686791150755  -0.016660878173161   0.000295468835425 1

# Energy components:
   A_diel =       -0.1866565032762027
   Eewald =      146.4436344602262920
       EH =      275.0632688599698099
     Eloc =     -456.2246287896961121
      Enl =     -133.3719609923178382
     EvdW =       -0.0089227127969592
      Exc =      -39.6400966203907075
 Exc_core =       10.6063786150839778
       KE =       40.0786415154704230
-------------------------------------
     Etot =     -157.2403421677273059

IonicMinimize: Iter:   0  Etot: -157.240342167727306  |grad|_K:  9.209e-03  alpha:  1.000e+00

#--- Lowdin population analysis ---
# oxidation-state S -0.486 +0.363 -0.449 -0.449 +0.363 -0.486
# oxidation-state Na +0.823 +0.823


Computing DFT-D3 correction:
# coordination-number S 2.018 3.442 2.937 2.936 3.441 2.018
# coordination-number Na 3.834 3.840
# diagonal-C6 S 125.89 125.81 125.81 125.81 125.81 125.89
# diagonal-C6 Na 186.11 186.11
EvdW_6 =   -0.001213
EvdW_8 =   -0.007778

-------- Electronic minimization -----------
Will mix electronic density at each iteration.
	Linear fluid (dielectric constant: 64) occupying 0.992772 of unit cell:	Completed after 17 iterations at t[s]:   2144.91
	Linear fluid (dielectric constant: 64) occupying 0.992734 of unit cell:	Completed after 19 iterations at t[s]:   2194.81
SCF: Cycle:  0   Etot: -157.240428068184997   dEtot: -2.222e-02   |Residual|: 6.900e-02   |deigs|: 9.911e-04  t[s]:   2197.19
	Linear fluid (dielectric constant: 64) occupying 0.992787 of unit cell:	Completed after 19 iterations at t[s]:   2227.95
	Linear fluid (dielectric constant: 64) occupying 0.992739 of unit cell:	Completed after 18 iterations at t[s]:   2275.18
SCF: Cycle:  1   Etot: -157.241475760479602   dEtot: -1.048e-03   |Residual|: 3.452e-02   |deigs|: 8.502e-04  t[s]:   2277.62
	Linear fluid (dielectric constant: 64) occupying 0.992787 of unit cell:	Completed after 17 iterations at t[s]:   2305.56
	Linear fluid (dielectric constant: 64) occupying 0.992756 of unit cell:	Completed after 17 iterations at t[s]:   2351.54
SCF: Cycle:  2   Etot: -157.242166388781555   dEtot: -6.906e-04   |Residual|: 7.088e-03   |deigs|: 2.106e-03  t[s]:   2353.98
	Linear fluid (dielectric constant: 64) occupying 0.992773 of unit cell:	Completed after 14 iterations at t[s]:   2378.13
	Linear fluid (dielectric constant: 64) occupying 0.992758 of unit cell:	Completed after 14 iterations at t[s]:   2416.47
SCF: Cycle:  3   Etot: -157.242215345521288   dEtot: -4.896e-05   |Residual|: 4.203e-03   |deigs|: 1.006e-03  t[s]:   2418.90
	Linear fluid (dielectric constant: 64) occupying 0.992752 of unit cell:	Completed after 6 iterations at t[s]:   2432.03
	Linear fluid (dielectric constant: 64) occupying 0.992760 of unit cell:	Completed after 6 iterations at t[s]:   2463.47
SCF: Cycle:  4   Etot: -157.242261039477086   dEtot: -4.569e-05   |Residual|: 1.935e-03   |deigs|: 1.276e-03  t[s]:   2465.94
	Linear fluid (dielectric constant: 64) occupying 0.992751 of unit cell:	Completed after 6 iterations at t[s]:   2479.05
	Linear fluid (dielectric constant: 64) occupying 0.992760 of unit cell:	Completed after 6 iterations at t[s]:   2506.53
SCF: Cycle:  5   Etot: -157.242271783079417   dEtot: -1.074e-05   |Residual|: 1.205e-03   |deigs|: 1.253e-04  t[s]:   2508.89
	Linear fluid (dielectric constant: 64) occupying 0.992746 of unit cell:	Completed after 7 iterations at t[s]:   2523.29
	Linear fluid (dielectric constant: 64) occupying 0.992760 of unit cell:	Completed after 4 iterations at t[s]:   2548.23
SCF: Cycle:  6   Etot: -157.242282478851564   dEtot: -1.070e-05   |Residual|: 7.760e-04   |deigs|: 1.364e-04  t[s]:   2550.67
	Linear fluid (dielectric constant: 64) occupying 0.992746 of unit cell:	Completed after 4 iterations at t[s]:   2560.96
	Linear fluid (dielectric constant: 64) occupying 0.992760 of unit cell:	Completed after 4 iterations at t[s]:   2585.84
SCF: Cycle:  7   Etot: -157.242286351211817   dEtot: -3.872e-06   |Residual|: 6.510e-04   |deigs|: 4.656e-05  t[s]:   2588.27
	Linear fluid (dielectric constant: 64) occupying 0.992748 of unit cell:	Completed after 4 iterations at t[s]:   2598.85
	Linear fluid (dielectric constant: 64) occupying 0.992761 of unit cell:	Completed after 3 iterations at t[s]:   2622.21
SCF: Cycle:  8   Etot: -157.242288369845397   dEtot: -2.019e-06   |Residual|: 5.060e-04   |deigs|: 1.287e-04  t[s]:   2624.64
	Linear fluid (dielectric constant: 64) occupying 0.992753 of unit cell:	Completed after 1 iterations at t[s]:   2631.04
	Linear fluid (dielectric constant: 64) occupying 0.992761 of unit cell:	Completed after 3 iterations at t[s]:   2654.59
SCF: Cycle:  9   Etot: -157.242289961302134   dEtot: -1.591e-06   |Residual|: 5.122e-04   |deigs|: 6.290e-05  t[s]:   2657.11
	Linear fluid (dielectric constant: 64) occupying 0.992759 of unit cell:	Completed after 3 iterations at t[s]:   2666.51
	Linear fluid (dielectric constant: 64) occupying 0.992761 of unit cell:	Completed after 2 iterations at t[s]:   2688.44
SCF: Cycle: 10   Etot: -157.242290427611692   dEtot: -4.663e-07   |Residual|: 7.121e-04   |deigs|: 3.252e-04  t[s]:   2690.89
	Linear fluid (dielectric constant: 64) occupying 0.992759 of unit cell:	Completed after 0 iterations at t[s]:   2696.02
	Linear fluid (dielectric constant: 64) occupying 0.992761 of unit cell:	Completed after 0 iterations at t[s]:   2715.55
SCF: Cycle: 11   Etot: -157.242290684649532   dEtot: -2.570e-07   |Residual|: 2.978e-04   |deigs|: 5.482e-05  t[s]:   2717.96
	Linear fluid (dielectric constant: 64) occupying 0.992760 of unit cell:	Completed after 0 iterations at t[s]:   2721.88
	Linear fluid (dielectric constant: 64) occupying 0.992761 of unit cell:	Completed after 0 iterations at t[s]:   2740.24
SCF: Cycle: 12   Etot: -157.242291297311141   dEtot: -6.127e-07   |Residual|: 2.573e-04   |deigs|: 3.744e-05  t[s]:   2742.61
	Linear fluid (dielectric constant: 64) occupying 0.992760 of unit cell:	Completed after 3 iterations at t[s]:   2751.83
	Linear fluid (dielectric constant: 64) occupying 0.992761 of unit cell:	Completed after 0 iterations at t[s]:   2771.32
SCF: Cycle: 13   Etot: -157.242291231422826   dEtot: +6.589e-08   |Residual|: 6.202e-04   |deigs|: 1.954e-04  t[s]:   2773.71
	Linear fluid (dielectric constant: 64) occupying 0.992760 of unit cell:	Completed after 0 iterations at t[s]:   2777.54
	Linear fluid (dielectric constant: 64) occupying 0.992761 of unit cell:	Completed after 0 iterations at t[s]:   2795.61
SCF: Cycle: 14   Etot: -157.242291277951324   dEtot: -4.653e-08   |Residual|: 4.421e-04   |deigs|: 4.939e-05  t[s]:   2797.97
	Linear fluid (dielectric constant: 64) occupying 0.992761 of unit cell:	Completed after 0 iterations at t[s]:   2801.65
	Linear fluid (dielectric constant: 64) occupying 0.992761 of unit cell:	Completed after 0 iterations at t[s]:   2823.61
SCF: Cycle: 15   Etot: -157.242291428514648   dEtot: -1.506e-07   |Residual|: 3.086e-04   |deigs|: 2.411e-06  t[s]:   2826.00
	Linear fluid (dielectric constant: 64) occupying 0.992761 of unit cell:	Completed after 0 iterations at t[s]:   2829.70
	Linear fluid (dielectric constant: 64) occupying 0.992761 of unit cell:	Completed after 0 iterations at t[s]:   2847.92
SCF: Cycle: 16   Etot: -157.242291536083371   dEtot: -1.076e-07   |Residual|: 1.747e-04   |deigs|: 2.089e-06  t[s]:   2850.29
	Linear fluid (dielectric constant: 64) occupying 0.992761 of unit cell:	Completed after 0 iterations at t[s]:   2854.17
	Linear fluid (dielectric constant: 64) occupying 0.992762 of unit cell:	Completed after 2 iterations at t[s]:   2876.29
SCF: Cycle: 17   Etot: -157.242290911944423   dEtot: +6.241e-07   |Residual|: 1.313e-04   |deigs|: 2.562e-06  t[s]:   2878.74
	Linear fluid (dielectric constant: 64) occupying 0.992762 of unit cell:	Completed after 0 iterations at t[s]:   2882.69
	Linear fluid (dielectric constant: 64) occupying 0.992762 of unit cell:	Completed after 0 iterations at t[s]:   2900.71
SCF: Cycle: 18   Etot: -157.242291026410300   dEtot: -1.145e-07   |Residual|: 6.867e-04   |deigs|: 1.760e-04  t[s]:   2903.11
	Linear fluid (dielectric constant: 64) occupying 0.992762 of unit cell:	Completed after 0 iterations at t[s]:   2906.94
	Linear fluid (dielectric constant: 64) occupying 0.992762 of unit cell:	Completed after 0 iterations at t[s]:   2925.14
SCF: Cycle: 19   Etot: -157.242291033728350   dEtot: -7.318e-09   |Residual|: 6.118e-04   |deigs|: 2.025e-06  t[s]:   2927.53
	Linear fluid (dielectric constant: 64) occupying 0.992762 of unit cell:	Completed after 0 iterations at t[s]:   2931.35
	Linear fluid (dielectric constant: 64) occupying 0.992762 of unit cell:	Completed after 0 iterations at t[s]:   2949.36
SCF: Cycle: 20   Etot: -157.242291076464511   dEtot: -4.274e-08   |Residual|: 6.262e-04   |deigs|: 3.807e-07  t[s]:   2951.78
	Linear fluid (dielectric constant: 64) occupying 0.992762 of unit cell:	Completed after 0 iterations at t[s]:   2957.00
	Linear fluid (dielectric constant: 64) occupying 0.992762 of unit cell:	Completed after 0 iterations at t[s]:   2976.64
SCF: Cycle: 21   Etot: -157.242291039641600   dEtot: +3.682e-08   |Residual|: 7.597e-04   |deigs|: 3.376e-05  t[s]:   2979.08
	Linear fluid (dielectric constant: 64) occupying 0.992762 of unit cell:	Completed after 0 iterations at t[s]:   2982.80
	Linear fluid (dielectric constant: 64) occupying 0.992762 of unit cell:	Completed after 0 iterations at t[s]:   3001.00
SCF: Cycle: 22   Etot: -157.242291089577577   dEtot: -4.994e-08   |Residual|: 5.686e-04   |deigs|: 1.469e-05  t[s]:   3003.36
	Linear fluid (dielectric constant: 64) occupying 0.992762 of unit cell:	Completed after 0 iterations at t[s]:   3007.18
	Linear fluid (dielectric constant: 64) occupying 0.992762 of unit cell:	Completed after 0 iterations at t[s]:   3029.03
SCF: Cycle: 23   Etot: -157.242291362731720   dEtot: -2.732e-07   |Residual|: 3.635e-04   |deigs|: 3.681e-06  t[s]:   3031.42
	Linear fluid (dielectric constant: 64) occupying 0.992762 of unit cell:	Completed after 0 iterations at t[s]:   3035.25
	Linear fluid (dielectric constant: 64) occupying 0.992762 of unit cell:	Completed after 0 iterations at t[s]:   3054.45
SCF: Cycle: 24   Etot: -157.242291353212096   dEtot: +9.520e-09   |Residual|: 3.021e-04   |deigs|: 2.882e-06  t[s]:   3056.87
	Linear fluid (dielectric constant: 64) occupying 0.992762 of unit cell:	Completed after 0 iterations at t[s]:   3062.03
	Linear fluid (dielectric constant: 64) occupying 0.992762 of unit cell:	Completed after 0 iterations at t[s]:   3083.94
SCF: Cycle: 25   Etot: -157.242291239671147   dEtot: +1.135e-07   |Residual|: 2.282e-04   |deigs|: 3.290e-05  t[s]:   3086.31
	Linear fluid (dielectric constant: 64) occupying 0.992762 of unit cell:	Completed after 0 iterations at t[s]:   3090.17
	Linear fluid (dielectric constant: 64) occupying 0.992762 of unit cell:	Completed after 0 iterations at t[s]:   3108.25
SCF: Cycle: 26   Etot: -157.242291179889406   dEtot: +5.978e-08   |Residual|: 2.415e-04   |deigs|: 1.177e-06  t[s]:   3110.63
	Linear fluid (dielectric constant: 64) occupying 0.992762 of unit cell:	Completed after 0 iterations at t[s]:   3114.43
	Linear fluid (dielectric constant: 64) occupying 0.992762 of unit cell:	Completed after 0 iterations at t[s]:   3132.52
SCF: Cycle: 27   Etot: -157.242291200880913   dEtot: -2.099e-08   |Residual|: 2.183e-04   |deigs|: 6.562e-07  t[s]:   3134.91
	Linear fluid (dielectric constant: 64) occupying 0.992762 of unit cell:	Completed after 0 iterations at t[s]:   3138.70
	Linear fluid (dielectric constant: 64) occupying 0.992762 of unit cell:	Completed after 0 iterations at t[s]:   3160.40
SCF: Cycle: 28   Etot: -157.242291295317841   dEtot: -9.444e-08   |Residual|: 2.251e-04   |deigs|: 2.544e-06  t[s]:   3162.77
	Linear fluid (dielectric constant: 64) occupying 0.992762 of unit cell:	Completed after 0 iterations at t[s]:   3166.59
	Linear fluid (dielectric constant: 64) occupying 0.992762 of unit cell:	Completed after 0 iterations at t[s]:   3184.76
SCF: Cycle: 29   Etot: -157.242291206997891   dEtot: +8.832e-08   |Residual|: 3.280e-04   |deigs|: 3.122e-06  t[s]:   3187.26
	Linear fluid (dielectric constant: 64) occupying 0.992762 of unit cell:	Completed after 0 iterations at t[s]:   3190.98
	Linear fluid (dielectric constant: 64) occupying 0.992762 of unit cell:	Completed after 0 iterations at t[s]:   3209.21
SCF: Cycle: 30   Etot: -157.242291225021660   dEtot: -1.802e-08   |Residual|: 2.936e-04   |deigs|: 1.293e-06  t[s]:   3211.57
	Linear fluid (dielectric constant: 64) occupying 0.992762 of unit cell:	Completed after 0 iterations at t[s]:   3215.39
	Linear fluid (dielectric constant: 64) occupying 0.992762 of unit cell:	Completed after 0 iterations at t[s]:   3236.87
SCF: Cycle: 31   Etot: -157.242291179319352   dEtot: +4.570e-08   |Residual|: 2.395e-04   |deigs|: 3.247e-06  t[s]:   3239.24
	Linear fluid (dielectric constant: 64) occupying 0.992763 of unit cell:	Completed after 2 iterations at t[s]:   3247.10
	Linear fluid (dielectric constant: 64) occupying 0.992762 of unit cell:	Completed after 1 iterations at t[s]:   3267.94
SCF: Cycle: 32   Etot: -157.242291180259315   dEtot: -9.400e-10   |Residual|: 7.042e-04   |deigs|: 1.264e-04  t[s]:   3270.32
	Linear fluid (dielectric constant: 64) occupying 0.992762 of unit cell:	Completed after 0 iterations at t[s]:   3274.08
	Linear fluid (dielectric constant: 64) occupying 0.992761 of unit cell:	Completed after 0 iterations at t[s]:   3296.16
SCF: Cycle: 33   Etot: -157.242291760731746   dEtot: -5.805e-07   |Residual|: 3.120e-04   |deigs|: 9.456e-05  t[s]:   3298.53
	Linear fluid (dielectric constant: 64) occupying 0.992762 of unit cell:	Completed after 0 iterations at t[s]:   3302.33
	Linear fluid (dielectric constant: 64) occupying 0.992761 of unit cell:	Completed after 2 iterations at t[s]:   3324.21
SCF: Cycle: 34   Etot: -157.242291099004490   dEtot: +6.617e-07   |Residual|: 3.221e-04   |deigs|: 1.583e-06  t[s]:   3326.62
	Linear fluid (dielectric constant: 64) occupying 0.992762 of unit cell:	Completed after 0 iterations at t[s]:   3331.67
	Linear fluid (dielectric constant: 64) occupying 0.992761 of unit cell:	Completed after 0 iterations at t[s]:   3350.81
SCF: Cycle: 35   Etot: -157.242291186681342   dEtot: -8.768e-08   |Residual|: 2.370e-04   |deigs|: 1.145e-04  t[s]:   3353.20
	Linear fluid (dielectric constant: 64) occupying 0.992762 of unit cell:	Completed after 0 iterations at t[s]:   3357.05
	Linear fluid (dielectric constant: 64) occupying 0.992762 of unit cell:	Completed after 0 iterations at t[s]:   3375.08
SCF: Cycle: 36   Etot: -157.242291157336979   dEtot: +2.934e-08   |Residual|: 2.258e-04   |deigs|: 2.583e-05  t[s]:   3377.48
	Linear fluid (dielectric constant: 64) occupying 0.992762 of unit cell:	Completed after 0 iterations at t[s]:   3382.68
	Linear fluid (dielectric constant: 64) occupying 0.992762 of unit cell:	Completed after 0 iterations at t[s]:   3402.07
SCF: Cycle: 37   Etot: -157.242291035174730   dEtot: +1.222e-07   |Residual|: 1.941e-04   |deigs|: 4.928e-05  t[s]:   3404.38
	Linear fluid (dielectric constant: 64) occupying 0.992762 of unit cell:	Completed after 0 iterations at t[s]:   3408.16
	Linear fluid (dielectric constant: 64) occupying 0.992761 of unit cell:	Completed after 0 iterations at t[s]:   3430.07
SCF: Cycle: 38   Etot: -157.242291245469488   dEtot: -2.103e-07   |Residual|: 2.616e-04   |deigs|: 2.585e-05  t[s]:   3432.45
	Linear fluid (dielectric constant: 64) occupying 0.992762 of unit cell:	Completed after 0 iterations at t[s]:   3436.22
	Linear fluid (dielectric constant: 64) occupying 0.992761 of unit cell:	Completed after 0 iterations at t[s]:   3454.52
SCF: Cycle: 39   Etot: -157.242291257093598   dEtot: -1.162e-08   |Residual|: 2.519e-04   |deigs|: 2.818e-07  t[s]:   3456.93
	Linear fluid (dielectric constant: 64) occupying 0.992762 of unit cell:	Completed after 0 iterations at t[s]:   3460.64
	Linear fluid (dielectric constant: 64) occupying 0.992761 of unit cell:	Completed after 0 iterations at t[s]:   3478.72
SCF: Cycle: 40   Etot: -157.242291249273507   dEtot: +7.820e-09   |Residual|: 2.574e-04   |deigs|: 2.066e-07  t[s]:   3481.27
	Linear fluid (dielectric constant: 64) occupying 0.992762 of unit cell:	Completed after 0 iterations at t[s]:   3485.04
	Linear fluid (dielectric constant: 64) occupying 0.992761 of unit cell:	Completed after 0 iterations at t[s]:   3503.26
SCF: Cycle: 41   Etot: -157.242291282425754   dEtot: -3.315e-08   |Residual|: 2.875e-04   |deigs|: 1.287e-06  t[s]:   3505.66
	Linear fluid (dielectric constant: 64) occupying 0.992762 of unit cell:	Completed after 3 iterations at t[s]:   3514.83
	Linear fluid (dielectric constant: 64) occupying 0.992761 of unit cell:	Completed after 2 iterations at t[s]:   3540.82
SCF: Cycle: 42   Etot: -157.242291225812949   dEtot: +5.661e-08   |Residual|: 1.025e-03   |deigs|: 2.752e-04  t[s]:   3543.29
	Linear fluid (dielectric constant: 64) occupying 0.992762 of unit cell:	Completed after 1 iterations at t[s]:   3549.76
	Linear fluid (dielectric constant: 64) occupying 0.992761 of unit cell:	Completed after 0 iterations at t[s]:   3573.16
SCF: Cycle: 43   Etot: -157.242291241187900   dEtot: -1.537e-08   |Residual|: 5.470e-04   |deigs|: 1.322e-04  t[s]:   3575.49
	Linear fluid (dielectric constant: 64) occupying 0.992762 of unit cell:	Completed after 0 iterations at t[s]:   3580.71
	Linear fluid (dielectric constant: 64) occupying 0.992761 of unit cell:	Completed after 0 iterations at t[s]:   3598.84
SCF: Cycle: 44   Etot: -157.242291377035770   dEtot: -1.358e-07   |Residual|: 4.951e-04   |deigs|: 2.342e-05  t[s]:   3601.25
	Linear fluid (dielectric constant: 64) occupying 0.992762 of unit cell:	Completed after 0 iterations at t[s]:   3604.99
	Linear fluid (dielectric constant: 64) occupying 0.992762 of unit cell:	Completed after 0 iterations at t[s]:   3626.98
SCF: Cycle: 45   Etot: -157.242290750582697   dEtot: +6.265e-07   |Residual|: 6.349e-04   |deigs|: 4.148e-06  t[s]:   3629.61
	Linear fluid (dielectric constant: 64) occupying 0.992762 of unit cell:	Completed after 0 iterations at t[s]:   3634.71
	Linear fluid (dielectric constant: 64) occupying 0.992761 of unit cell:	Completed after 0 iterations at t[s]:   3653.94
SCF: Cycle: 46   Etot: -157.242290936969880   dEtot: -1.864e-07   |Residual|: 8.351e-04   |deigs|: 7.132e-05  t[s]:   3656.35
	Linear fluid (dielectric constant: 64) occupying 0.992762 of unit cell:	Completed after 0 iterations at t[s]:   3661.45
	Linear fluid (dielectric constant: 64) occupying 0.992761 of unit cell:	Completed after 0 iterations at t[s]:   3680.77
SCF: Cycle: 47   Etot: -157.242291069326541   dEtot: -1.324e-07   |Residual|: 8.311e-04   |deigs|: 1.453e-05  t[s]:   3683.15
	Linear fluid (dielectric constant: 64) occupying 0.992762 of unit cell:	Completed after 0 iterations at t[s]:   3688.37
	Linear fluid (dielectric constant: 64) occupying 0.992761 of unit cell:	Completed after 0 iterations at t[s]:   3707.52
SCF: Cycle: 48   Etot: -157.242291142494707   dEtot: -7.317e-08   |Residual|: 8.251e-04   |deigs|: 4.699e-06  t[s]:   3709.88
	Linear fluid (dielectric constant: 64) occupying 0.992762 of unit cell:	Completed after 0 iterations at t[s]:   3715.13
	Linear fluid (dielectric constant: 64) occupying 0.992761 of unit cell:	Completed after 0 iterations at t[s]:   3734.69
SCF: Cycle: 49   Etot: -157.242291008435188   dEtot: +1.341e-07   |Residual|: 8.762e-04   |deigs|: 1.586e-05  t[s]:   3737.15
	Linear fluid (dielectric constant: 64) occupying 0.992762 of unit cell:	Completed after 0 iterations at t[s]:   3742.30
Setting wave functions to eigenvectors of Hamiltonian

Computing DFT-D3 correction:
# coordination-number S 2.023 3.462 2.946 2.945 3.462 2.023
# coordination-number Na 3.872 3.877
# diagonal-C6 S 125.88 125.81 125.81 125.81 125.81 125.88
# diagonal-C6 Na 186.11 186.11
EvdW_6 =   -0.001208
EvdW_8 =   -0.007719

-------- Electronic minimization -----------
Will mix electronic density at each iteration.
	Linear fluid (dielectric constant: 64) occupying 0.992769 of unit cell:	Completed after 14 iterations at t[s]:   3781.33
	Linear fluid (dielectric constant: 64) occupying 0.992774 of unit cell:	Completed after 6 iterations at t[s]:   3813.53
SCF: Cycle:  0   Etot: -157.240478073158272   dEtot: -1.106e-04   |Residual|: 4.019e-03   |deigs|: 3.547e-06  t[s]:   3815.97
	Linear fluid (dielectric constant: 64) occupying 0.992769 of unit cell:	Completed after 4 iterations at t[s]:   3826.08
	Linear fluid (dielectric constant: 64) occupying 0.992773 of unit cell:	Completed after 4 iterations at t[s]:   3850.97
SCF: Cycle:  1   Etot: -157.240491824503181   dEtot: -1.375e-05   |Residual|: 2.194e-03   |deigs|: 1.695e-04  t[s]:   3853.41
	Linear fluid (dielectric constant: 64) occupying 0.992770 of unit cell:	Completed after 2 iterations at t[s]:   3860.87
	Linear fluid (dielectric constant: 64) occupying 0.992771 of unit cell:	Completed after 3 iterations at t[s]:   3884.24
SCF: Cycle:  2   Etot: -157.240497445703937   dEtot: -5.621e-06   |Residual|: 6.453e-04   |deigs|: 1.230e-04  t[s]:   3886.64
	Linear fluid (dielectric constant: 64) occupying 0.992771 of unit cell:	Completed after 1 iterations at t[s]:   3892.81
	Linear fluid (dielectric constant: 64) occupying 0.992772 of unit cell:	Completed after 0 iterations at t[s]:   3912.44
SCF: Cycle:  3   Etot: -157.240499253595658   dEtot: -1.808e-06   |Residual|: 3.652e-04   |deigs|: 4.438e-05  t[s]:   3914.88
	Linear fluid (dielectric constant: 64) occupying 0.992772 of unit cell:	Completed after 0 iterations at t[s]:   3918.40
	Linear fluid (dielectric constant: 64) occupying 0.992772 of unit cell:	Completed after 0 iterations at t[s]:   3936.49
SCF: Cycle:  4   Etot: -157.240499711554065   dEtot: -4.580e-07   |Residual|: 2.480e-04   |deigs|: 1.075e-05  t[s]:   3938.87
	Linear fluid (dielectric constant: 64) occupying 0.992772 of unit cell:	Completed after 0 iterations at t[s]:   3942.62
	Linear fluid (dielectric constant: 64) occupying 0.992772 of unit cell:	Completed after 0 iterations at t[s]:   3960.59
SCF: Cycle:  5   Etot: -157.240499956463339   dEtot: -2.449e-07   |Residual|: 1.484e-04   |deigs|: 1.989e-06  t[s]:   3963.00
	Linear fluid (dielectric constant: 64) occupying 0.992772 of unit cell:	Completed after 0 iterations at t[s]:   3966.80
	Linear fluid (dielectric constant: 64) occupying 0.992772 of unit cell:	Completed after 0 iterations at t[s]:   3984.95
SCF: Cycle:  6   Etot: -157.240500129522218   dEtot: -1.731e-07   |Residual|: 1.081e-04   |deigs|: 1.878e-06  t[s]:   3987.31
	Linear fluid (dielectric constant: 64) occupying 0.992773 of unit cell:	Completed after 1 iterations at t[s]:   3993.80
	Linear fluid (dielectric constant: 64) occupying 0.992772 of unit cell:	Completed after 0 iterations at t[s]:   4015.14
SCF: Cycle:  7   Etot: -157.240499988468315   dEtot: +1.411e-07   |Residual|: 3.630e-04   |deigs|: 1.410e-05  t[s]:   4017.45
	Linear fluid (dielectric constant: 64) occupying 0.992773 of unit cell:	Completed after 0 iterations at t[s]:   4021.27
	Linear fluid (dielectric constant: 64) occupying 0.992772 of unit cell:	Completed after 0 iterations at t[s]:   4039.65
SCF: Cycle:  8   Etot: -157.240500024857482   dEtot: -3.639e-08   |Residual|: 3.415e-04   |deigs|: 1.747e-05  t[s]:   4042.03
	Linear fluid (dielectric constant: 64) occupying 0.992773 of unit cell:	Completed after 0 iterations at t[s]:   4045.82
	Linear fluid (dielectric constant: 64) occupying 0.992772 of unit cell:	Completed after 0 iterations at t[s]:   4066.05
SCF: Cycle:  9   Etot: -157.240500070216171   dEtot: -4.536e-08   |Residual|: 3.561e-04   |deigs|: 2.110e-08  t[s]:   4068.45
	Linear fluid (dielectric constant: 64) occupying 0.992773 of unit cell:	Completed after 0 iterations at t[s]:   4072.31
	Linear fluid (dielectric constant: 64) occupying 0.992772 of unit cell:	Completed after 0 iterations at t[s]:   4090.50
SCF: Cycle: 10   Etot: -157.240500096268022   dEtot: -2.605e-08   |Residual|: 3.525e-04   |deigs|: 2.855e-07  t[s]:   4092.87
	Linear fluid (dielectric constant: 64) occupying 0.992773 of unit cell:	Completed after 0 iterations at t[s]:   4096.67
	Linear fluid (dielectric constant: 64) occupying 0.992772 of unit cell:	Completed after 0 iterations at t[s]:   4114.77
SCF: Cycle: 11   Etot: -157.240500114473662   dEtot: -1.821e-08   |Residual|: 3.549e-04   |deigs|: 2.487e-07  t[s]:   4117.19
	Linear fluid (dielectric constant: 64) occupying 0.992772 of unit cell:	Completed after 0 iterations at t[s]:   4122.27
	Linear fluid (dielectric constant: 64) occupying 0.992772 of unit cell:	Completed after 0 iterations at t[s]:   4145.63
SCF: Cycle: 12   Etot: -157.240500053341293   dEtot: +6.113e-08   |Residual|: 5.250e-04   |deigs|: 2.474e-05  t[s]:   4148.02
	Linear fluid (dielectric constant: 64) occupying 0.992773 of unit cell:	Completed after 0 iterations at t[s]:   4151.98
	Linear fluid (dielectric constant: 64) occupying 0.992772 of unit cell:	Completed after 0 iterations at t[s]:   4170.05
SCF: Cycle: 13   Etot: -157.240500034006061   dEtot: +1.934e-08   |Residual|: 5.371e-04   |deigs|: 4.130e-06  t[s]:   4172.44
	Linear fluid (dielectric constant: 64) occupying 0.992773 of unit cell:	Completed after 0 iterations at t[s]:   4176.18
	Linear fluid (dielectric constant: 64) occupying 0.992772 of unit cell:	Completed after 0 iterations at t[s]:   4197.71
SCF: Cycle: 14   Etot: -157.240500067260911   dEtot: -3.325e-08   |Residual|: 4.341e-04   |deigs|: 2.162e-06  t[s]:   4200.06
	Linear fluid (dielectric constant: 64) occupying 0.992773 of unit cell:	Completed after 0 iterations at t[s]:   4203.85
	Linear fluid (dielectric constant: 64) occupying 0.992772 of unit cell:	Completed after 0 iterations at t[s]:   4222.18
SCF: Cycle: 15   Etot: -157.240500065981621   dEtot: +1.279e-09   |Residual|: 3.979e-04   |deigs|: 1.195e-06  t[s]:   4224.54
	Linear fluid (dielectric constant: 64) occupying 0.992773 of unit cell:	Completed after 0 iterations at t[s]:   4228.28
	Linear fluid (dielectric constant: 64) occupying 0.992772 of unit cell:	Completed after 0 iterations at t[s]:   4250.41
SCF: Cycle: 16   Etot: -157.240500075061618   dEtot: -9.080e-09   |Residual|: 3.359e-04   |deigs|: 2.036e-06  t[s]:   4252.81
	Linear fluid (dielectric constant: 64) occupying 0.992773 of unit cell:	Completed after 0 iterations at t[s]:   4256.57
	Linear fluid (dielectric constant: 64) occupying 0.992772 of unit cell:	Completed after 0 iterations at t[s]:   4274.70
SCF: Cycle: 17   Etot: -157.240500072922174   dEtot: +2.139e-09   |Residual|: 3.366e-04   |deigs|: 1.941e-07  t[s]:   4277.10
	Linear fluid (dielectric constant: 64) occupying 0.992772 of unit cell:	Completed after 0 iterations at t[s]:   4280.89
	Linear fluid (dielectric constant: 64) occupying 0.992772 of unit cell:	Completed after 0 iterations at t[s]:   4303.00
SCF: Cycle: 18   Etot: -157.240500108050185   dEtot: -3.513e-08   |Residual|: 3.547e-04   |deigs|: 1.144e-06  t[s]:   4305.39
	Linear fluid (dielectric constant: 64) occupying 0.992772 of unit cell:	Completed after 0 iterations at t[s]:   4309.14
	Linear fluid (dielectric constant: 64) occupying 0.992772 of unit cell:	Completed after 0 iterations at t[s]:   4330.88
SCF: Cycle: 19   Etot: -157.240500154674805   dEtot: -4.662e-08   |Residual|: 2.173e-04   |deigs|: 3.885e-06  t[s]:   4333.28
	Linear fluid (dielectric constant: 64) occupying 0.992772 of unit cell:	Completed after 0 iterations at t[s]:   4337.10
	Linear fluid (dielectric constant: 64) occupying 0.992772 of unit cell:	Completed after 0 iterations at t[s]:   4354.96
SCF: Cycle: 20   Etot: -157.240500189061379   dEtot: -3.439e-08   |Residual|: 1.973e-04   |deigs|: 1.330e-06  t[s]:   4357.35
	Linear fluid (dielectric constant: 64) occupying 0.992772 of unit cell:	Completed after 1 iterations at t[s]:   4363.82
	Linear fluid (dielectric constant: 64) occupying 0.992772 of unit cell:	Completed after 0 iterations at t[s]:   4385.31
SCF: Cycle: 21   Etot: -157.240500133884865   dEtot: +5.518e-08   |Residual|: 1.626e-04   |deigs|: 2.752e-05  t[s]:   4387.71
	Linear fluid (dielectric constant: 64) occupying 0.992772 of unit cell:	Completed after 0 iterations at t[s]:   4391.53
	Linear fluid (dielectric constant: 64) occupying 0.992772 of unit cell:	Completed after 0 iterations at t[s]:   4410.93
SCF: Cycle: 22   Etot: -157.240500011211168   dEtot: +1.227e-07   |Residual|: 1.428e-04   |deigs|: 7.141e-07  t[s]:   4413.33
	Linear fluid (dielectric constant: 64) occupying 0.992772 of unit cell:	Completed after 0 iterations at t[s]:   4417.12
	Linear fluid (dielectric constant: 64) occupying 0.992772 of unit cell:	Completed after 0 iterations at t[s]:   4435.36
SCF: Cycle: 23   Etot: -157.240499989245336   dEtot: +2.197e-08   |Residual|: 1.058e-04   |deigs|: 1.371e-05  t[s]:   4437.73
	Linear fluid (dielectric constant: 64) occupying 0.992772 of unit cell:	Completed after 0 iterations at t[s]:   4441.45
	Linear fluid (dielectric constant: 64) occupying 0.992772 of unit cell:	Completed after 0 iterations at t[s]:   4459.68
SCF: Cycle: 24   Etot: -157.240500033683929   dEtot: -4.444e-08   |Residual|: 8.059e-05   |deigs|: 1.174e-06  t[s]:   4462.09
	Linear fluid (dielectric constant: 64) occupying 0.992772 of unit cell:	Completed after 0 iterations at t[s]:   4465.97
	Linear fluid (dielectric constant: 64) occupying 0.992772 of unit cell:	Completed after 0 iterations at t[s]:   4484.12
SCF: Cycle: 25   Etot: -157.240500061818182   dEtot: -2.813e-08   |Residual|: 8.326e-05   |deigs|: 1.043e-06  t[s]:   4486.52
	Linear fluid (dielectric constant: 64) occupying 0.992772 of unit cell:	Completed after 0 iterations at t[s]:   4490.25
	Linear fluid (dielectric constant: 64) occupying 0.992772 of unit cell:	Completed after 0 iterations at t[s]:   4508.41
SCF: Cycle: 26   Etot: -157.240500131283170   dEtot: -6.946e-08   |Residual|: 6.132e-05   |deigs|: 1.250e-06  t[s]:   4510.82
	Linear fluid (dielectric constant: 64) occupying 0.992772 of unit cell:	Completed after 0 iterations at t[s]:   4514.63
	Linear fluid (dielectric constant: 64) occupying 0.992772 of unit cell:	Completed after 0 iterations at t[s]:   4532.83
SCF: Cycle: 27   Etot: -157.240500195974136   dEtot: -6.469e-08   |Residual|: 4.912e-05   |deigs|: 1.390e-06  t[s]:   4535.18
	Linear fluid (dielectric constant: 64) occupying 0.992772 of unit cell:	Completed after 0 iterations at t[s]:   4538.97
	Linear fluid (dielectric constant: 64) occupying 0.992772 of unit cell:	Completed after 0 iterations at t[s]:   4557.30
SCF: Cycle: 28   Etot: -157.240500249518675   dEtot: -5.354e-08   |Residual|: 4.159e-05   |deigs|: 1.306e-06  t[s]:   4559.66
	Linear fluid (dielectric constant: 64) occupying 0.992772 of unit cell:	Completed after 0 iterations at t[s]:   4563.41
	Linear fluid (dielectric constant: 64) occupying 0.992772 of unit cell:	Completed after 0 iterations at t[s]:   4581.72
SCF: Cycle: 29   Etot: -157.240500282771308   dEtot: -3.325e-08   |Residual|: 3.856e-05   |deigs|: 7.437e-07  t[s]:   4584.09
	Linear fluid (dielectric constant: 64) occupying 0.992772 of unit cell:	Completed after 0 iterations at t[s]:   4587.94
	Linear fluid (dielectric constant: 64) occupying 0.992772 of unit cell:	Completed after 0 iterations at t[s]:   4607.17
SCF: Cycle: 30   Etot: -157.240500147624289   dEtot: +1.351e-07   |Residual|: 3.464e-05   |deigs|: 4.741e-07  t[s]:   4609.63
	Linear fluid (dielectric constant: 64) occupying 0.992772 of unit cell:	Completed after 0 iterations at t[s]:   4613.38
	Linear fluid (dielectric constant: 64) occupying 0.992772 of unit cell:	Completed after 0 iterations at t[s]:   4631.31
SCF: Cycle: 31   Etot: -157.240500156554873   dEtot: -8.931e-09   |Residual|: 5.544e-05   |deigs|: 9.104e-06  t[s]:   4633.77
	Linear fluid (dielectric constant: 64) occupying 0.992772 of unit cell:	Completed after 0 iterations at t[s]:   4637.59
	Linear fluid (dielectric constant: 64) occupying 0.992772 of unit cell:	Completed after 0 iterations at t[s]:   4655.68
SCF: Cycle: 32   Etot: -157.240500160686224   dEtot: -4.131e-09   |Residual|: 5.336e-05   |deigs|: 5.027e-07  t[s]:   4658.11
SCF: Converged (|Delta E|<1.000000e-08 for 2 iters).

Setting wave functions to eigenvectors of Hamiltonian

Computing DFT-D3 correction:
# coordination-number S 2.023 3.462 2.946 2.945 3.462 2.023
# coordination-number Na 3.872 3.877
# diagonal-C6 S 125.88 125.81 125.81 125.81 125.81 125.88
# diagonal-C6 Na 186.11 186.11
EvdW_6 =   -0.001208
EvdW_8 =   -0.007719

# Ionic positions in cartesian coordinates:
ion S   3.921115245069227  11.850519599540490  23.127149006193417 1
ion S   7.568054993423527  11.350738200761214  23.945291851361393 1
ion S   8.668766145658843   7.743984978321202  23.233768181089445 1
ion S   6.502144095872170   7.687930931606856  29.705652466697920 1
ion S   7.556361508589477  11.317891652074961  29.045199966223901 1
ion S  11.194865273696735  11.853490263265504  29.883087210918333 1
ion Na   3.831523678942726   7.181025425859343  25.239435986863509 1
ion Na  11.351040254647291   7.226770644180418  27.689535189052080 1

# Forces in Cartesian coordinates:
force S  -0.002742362199283   0.012320392035971  -0.004895698177254 1
force S   0.007127286137249  -0.005506674832390  -0.002215280813926 1
force S  -0.000122208048947   0.010083824310713  -0.006445080790873 1
force S  -0.000057954004658   0.009982845111014   0.006529332323809 1
force S  -0.006876197337223  -0.005669244070586   0.002163895008326 1
force S   0.002394900208775   0.012364455962474   0.005050237831467 1
force Na  -0.017927510360894  -0.017050743854378  -0.000517754860379 1
force Na   0.017953252061388  -0.016661373471933   0.000379955837681 1

# Energy components:
   A_diel =       -0.1867674534917989
   Eewald =      146.4059395371783410
       EH =      275.0260723270321819
     Eloc =     -456.1513724335811730
      Enl =     -133.3700892084173404
     EvdW =       -0.0089279410967515
      Exc =      -39.6397636830397460
 Exc_core =       10.6063786155816455
       KE =       40.0780300791484265
-------------------------------------
     Etot =     -157.2405001606862243

IonicMinimize: Iter:   1  Etot: -157.240500160686224  |grad|_K:  9.209e-03  alpha:  7.787e-02  linmin: -9.998e-01  t[s]:   4674.60

#--- Lowdin population analysis ---
# oxidation-state S -0.486 +0.363 -0.449 -0.449 +0.363 -0.487
# oxidation-state Na +0.823 +0.823


Computing DFT-D3 correction:
# coordination-number S 2.022 3.459 2.945 2.943 3.458 2.023
# coordination-number Na 3.865 3.871
# diagonal-C6 S 125.89 125.81 125.81 125.81 125.81 125.89
# diagonal-C6 Na 186.11 186.11
EvdW_6 =   -0.001209
EvdW_8 =   -0.007729

-------- Electronic minimization -----------
Will mix electronic density at each iteration.
	Linear fluid (dielectric constant: 64) occupying 0.992770 of unit cell:	Completed after 9 iterations at t[s]:   4697.84
	Linear fluid (dielectric constant: 64) occupying 0.992769 of unit cell:	Completed after 2 iterations at t[s]:   4720.99
SCF: Cycle:  0   Etot: -157.240812177079135   dEtot: -2.901e-06   |Residual|: 6.534e-04   |deigs|: 8.707e-08  t[s]:   4723.37
	Linear fluid (dielectric constant: 64) occupying 0.992770 of unit cell:	Completed after 0 iterations at t[s]:   4728.19
	Linear fluid (dielectric constant: 64) occupying 0.992770 of unit cell:	Completed after 0 iterations at t[s]:   4746.03
SCF: Cycle:  1   Etot: -157.240813028204059   dEtot: -8.511e-07   |Residual|: 2.532e-04   |deigs|: 5.419e-05  t[s]:   4748.48
	Linear fluid (dielectric constant: 64) occupying 0.992770 of unit cell:	Completed after 0 iterations at t[s]:   4752.07
	Linear fluid (dielectric constant: 64) occupying 0.992770 of unit cell:	Completed after 0 iterations at t[s]:   4771.42
SCF: Cycle:  2   Etot: -157.240813148234480   dEtot: -1.200e-07   |Residual|: 2.072e-04   |deigs|: 1.185e-06  t[s]:   4773.76
	Linear fluid (dielectric constant: 64) occupying 0.992770 of unit cell:	Completed after 0 iterations at t[s]:   4777.33
	Linear fluid (dielectric constant: 64) occupying 0.992770 of unit cell:	Completed after 0 iterations at t[s]:   4795.69
SCF: Cycle:  3   Etot: -157.240813237192214   dEtot: -8.896e-08   |Residual|: 1.501e-04   |deigs|: 3.295e-06  t[s]:   4798.00
	Linear fluid (dielectric constant: 64) occupying 0.992770 of unit cell:	Completed after 0 iterations at t[s]:   4801.74
	Linear fluid (dielectric constant: 64) occupying 0.992770 of unit cell:	Completed after 0 iterations at t[s]:   4819.62
SCF: Cycle:  4   Etot: -157.240813309876245   dEtot: -7.268e-08   |Residual|: 7.629e-05   |deigs|: 1.548e-06  t[s]:   4822.04
	Linear fluid (dielectric constant: 64) occupying 0.992770 of unit cell:	Completed after 0 iterations at t[s]:   4825.86
	Linear fluid (dielectric constant: 64) occupying 0.992770 of unit cell:	Completed after 0 iterations at t[s]:   4843.72
SCF: Cycle:  5   Etot: -157.240813351158664   dEtot: -4.128e-08   |Residual|: 5.793e-05   |deigs|: 7.571e-07  t[s]:   4846.15
	Linear fluid (dielectric constant: 64) occupying 0.992770 of unit cell:	Completed after 0 iterations at t[s]:   4850.01
	Linear fluid (dielectric constant: 64) occupying 0.992770 of unit cell:	Completed after 2 iterations at t[s]:   4874.03
SCF: Cycle:  6   Etot: -157.240812353575222   dEtot: +9.976e-07   |Residual|: 5.232e-05   |deigs|: 1.586e-06  t[s]:   4876.41
	Linear fluid (dielectric constant: 64) occupying 0.992770 of unit cell:	Completed after 0 iterations at t[s]:   4880.21
	Linear fluid (dielectric constant: 64) occupying 0.992770 of unit cell:	Completed after 3 iterations at t[s]:   4903.40
SCF: Cycle:  7   Etot: -157.240812227252604   dEtot: +1.263e-07   |Residual|: 5.874e-04   |deigs|: 5.402e-05  t[s]:   4905.82
	Linear fluid (dielectric constant: 64) occupying 0.992770 of unit cell:	Completed after 1 iterations at t[s]:   4912.35
	Linear fluid (dielectric constant: 64) occupying 0.992770 of unit cell:	Completed after 0 iterations at t[s]:   4933.23
SCF: Cycle:  8   Etot: -157.240813195651754   dEtot: -9.684e-07   |Residual|: 2.197e-04   |deigs|: 3.733e-05  t[s]:   4935.64
	Linear fluid (dielectric constant: 64) occupying 0.992770 of unit cell:	Completed after 0 iterations at t[s]:   4939.38
	Linear fluid (dielectric constant: 64) occupying 0.992770 of unit cell:	Completed after 0 iterations at t[s]:   4957.40
SCF: Cycle:  9   Etot: -157.240813218480412   dEtot: -2.283e-08   |Residual|: 1.607e-04   |deigs|: 4.800e-07  t[s]:   4959.86
	Linear fluid (dielectric constant: 64) occupying 0.992770 of unit cell:	Completed after 0 iterations at t[s]:   4963.69
	Linear fluid (dielectric constant: 64) occupying 0.992770 of unit cell:	Completed after 0 iterations at t[s]:   4982.01
SCF: Cycle: 10   Etot: -157.240813229656652   dEtot: -1.118e-08   |Residual|: 1.405e-04   |deigs|: 2.182e-07  t[s]:   4984.43
	Linear fluid (dielectric constant: 64) occupying 0.992770 of unit cell:	Completed after 0 iterations at t[s]:   4988.25
	Linear fluid (dielectric constant: 64) occupying 0.992770 of unit cell:	Completed after 0 iterations at t[s]:   5010.06
SCF: Cycle: 11   Etot: -157.240813200326585   dEtot: +2.933e-08   |Residual|: 1.901e-04   |deigs|: 1.430e-06  t[s]:   5012.42
	Linear fluid (dielectric constant: 64) occupying 0.992770 of unit cell:	Completed after 0 iterations at t[s]:   5016.36
	Linear fluid (dielectric constant: 64) occupying 0.992770 of unit cell:	Completed after 0 iterations at t[s]:   5034.44
SCF: Cycle: 12   Etot: -157.240813163362219   dEtot: +3.696e-08   |Residual|: 2.260e-04   |deigs|: 9.898e-07  t[s]:   5036.83
	Linear fluid (dielectric constant: 64) occupying 0.992770 of unit cell:	Completed after 0 iterations at t[s]:   5040.62
	Linear fluid (dielectric constant: 64) occupying 0.992770 of unit cell:	Completed after 0 iterations at t[s]:   5058.63
SCF: Cycle: 13   Etot: -157.240813211342555   dEtot: -4.798e-08   |Residual|: 1.514e-04   |deigs|: 1.646e-06  t[s]:   5061.02
	Linear fluid (dielectric constant: 64) occupying 0.992770 of unit cell:	Completed after 0 iterations at t[s]:   5064.81
	Linear fluid (dielectric constant: 64) occupying 0.992770 of unit cell:	Completed after 0 iterations at t[s]:   5082.76
SCF: Cycle: 14   Etot: -157.240813207496103   dEtot: +3.846e-09   |Residual|: 1.558e-04   |deigs|: 5.645e-07  t[s]:   5085.15
	Linear fluid (dielectric constant: 64) occupying 0.992770 of unit cell:	Completed after 0 iterations at t[s]:   5088.98
	Linear fluid (dielectric constant: 64) occupying 0.992770 of unit cell:	Completed after 0 iterations at t[s]:   5106.97
SCF: Cycle: 15   Etot: -157.240813195544149   dEtot: +1.195e-08   |Residual|: 1.731e-04   |deigs|: 5.592e-07  t[s]:   5109.33
	Linear fluid (dielectric constant: 64) occupying 0.992770 of unit cell:	Completed after 0 iterations at t[s]:   5113.14
	Linear fluid (dielectric constant: 64) occupying 0.992770 of unit cell:	Completed after 0 iterations at t[s]:   5134.82
SCF: Cycle: 16   Etot: -157.240813161873291   dEtot: +3.367e-08   |Residual|: 2.069e-04   |deigs|: 1.226e-06  t[s]:   5137.19
	Linear fluid (dielectric constant: 64) occupying 0.992770 of unit cell:	Completed after 0 iterations at t[s]:   5142.29
	Linear fluid (dielectric constant: 64) occupying 0.992770 of unit cell:	Completed after 0 iterations at t[s]:   5164.62
SCF: Cycle: 17   Etot: -157.240813124376729   dEtot: +3.750e-08   |Residual|: 1.626e-04   |deigs|: 7.555e-06  t[s]:   5167.00
	Linear fluid (dielectric constant: 64) occupying 0.992770 of unit cell:	Completed after 0 iterations at t[s]:   5170.80
	Linear fluid (dielectric constant: 64) occupying 0.992770 of unit cell:	Completed after 0 iterations at t[s]:   5189.07
SCF: Cycle: 18   Etot: -157.240813126276549   dEtot: -1.900e-09   |Residual|: 1.528e-04   |deigs|: 1.651e-07  t[s]:   5191.44
	Linear fluid (dielectric constant: 64) occupying 0.992770 of unit cell:	Completed after 0 iterations at t[s]:   5195.37
	Linear fluid (dielectric constant: 64) occupying 0.992770 of unit cell:	Completed after 0 iterations at t[s]:   5217.27
SCF: Cycle: 19   Etot: -157.240813119050017   dEtot: +7.227e-09   |Residual|: 1.885e-04   |deigs|: 1.137e-06  t[s]:   5219.65
	Linear fluid (dielectric constant: 64) occupying 0.992770 of unit cell:	Completed after 0 iterations at t[s]:   5223.52
	Linear fluid (dielectric constant: 64) occupying 0.992770 of unit cell:	Completed after 0 iterations at t[s]:   5241.73
SCF: Cycle: 20   Etot: -157.240813123038578   dEtot: -3.989e-09   |Residual|: 1.543e-04   |deigs|: 6.661e-07  t[s]:   5244.13
	Linear fluid (dielectric constant: 64) occupying 0.992770 of unit cell:	Completed after 0 iterations at t[s]:   5247.95
	Linear fluid (dielectric constant: 64) occupying 0.992770 of unit cell:	Completed after 0 iterations at t[s]:   5269.86
SCF: Cycle: 21   Etot: -157.240813133444306   dEtot: -1.041e-08   |Residual|: 8.714e-05   |deigs|: 1.755e-06  t[s]:   5272.28
	Linear fluid (dielectric constant: 64) occupying 0.992770 of unit cell:	Completed after 0 iterations at t[s]:   5276.09
	Linear fluid (dielectric constant: 64) occupying 0.992770 of unit cell:	Completed after 0 iterations at t[s]:   5297.67
SCF: Cycle: 22   Etot: -157.240813141446040   dEtot: -8.002e-09   |Residual|: 2.843e-05   |deigs|: 2.233e-06  t[s]:   5300.05
	Linear fluid (dielectric constant: 64) occupying 0.992770 of unit cell:	Completed after 0 iterations at t[s]:   5303.83
	Linear fluid (dielectric constant: 64) occupying 0.992770 of unit cell:	Completed after 0 iterations at t[s]:   5321.94
SCF: Cycle: 23   Etot: -157.240813144645074   dEtot: -3.199e-09   |Residual|: 2.910e-05   |deigs|: 6.828e-07  t[s]:   5324.32
SCF: Converged (|Delta E|<1.000000e-08 for 2 iters).

Setting wave functions to eigenvectors of Hamiltonian
IonicMinimize: 	Predicted alpha/alphaT>3.000000, increasing alphaT to 2.336218e-01.

Computing DFT-D3 correction:
# coordination-number S 2.021 3.452 2.942 2.940 3.451 2.021
# coordination-number Na 3.853 3.858
# diagonal-C6 S 125.89 125.81 125.81 125.81 125.81 125.89
# diagonal-C6 Na 186.11 186.11
EvdW_6 =   -0.001211
EvdW_8 =   -0.007749

-------- Electronic minimization -----------
Will mix electronic density at each iteration.
	Linear fluid (dielectric constant: 64) occupying 0.992767 of unit cell:	Completed after 10 iterations at t[s]:   5352.59
	Linear fluid (dielectric constant: 64) occupying 0.992765 of unit cell:	Completed after 3 iterations at t[s]:   5377.50
SCF: Cycle:  0   Etot: -157.241422544447545   dEtot: -1.014e-05   |Residual|: 1.276e-03   |deigs|: 3.412e-07  t[s]:   5379.92
	Linear fluid (dielectric constant: 64) occupying 0.992767 of unit cell:	Completed after 3 iterations at t[s]:   5388.85
	Linear fluid (dielectric constant: 64) occupying 0.992766 of unit cell:	Completed after 1 iterations at t[s]:   5409.55
SCF: Cycle:  1   Etot: -157.241426026418310   dEtot: -3.482e-06   |Residual|: 6.011e-04   |deigs|: 1.130e-04  t[s]:   5411.98
	Linear fluid (dielectric constant: 64) occupying 0.992767 of unit cell:	Completed after 0 iterations at t[s]:   5416.82
	Linear fluid (dielectric constant: 64) occupying 0.992766 of unit cell:	Completed after 0 iterations at t[s]:   5435.11
SCF: Cycle:  2   Etot: -157.241426530639700   dEtot: -5.042e-07   |Residual|: 2.812e-04   |deigs|: 3.993e-05  t[s]:   5437.73
	Linear fluid (dielectric constant: 64) occupying 0.992767 of unit cell:	Completed after 0 iterations at t[s]:   5441.10
	Linear fluid (dielectric constant: 64) occupying 0.992766 of unit cell:	Completed after 0 iterations at t[s]:   5459.00
SCF: Cycle:  3   Etot: -157.241426763646928   dEtot: -2.330e-07   |Residual|: 1.304e-04   |deigs|: 1.769e-06  t[s]:   5461.35
	Linear fluid (dielectric constant: 64) occupying 0.992766 of unit cell:	Completed after 0 iterations at t[s]:   5465.01
	Linear fluid (dielectric constant: 64) occupying 0.992766 of unit cell:	Completed after 0 iterations at t[s]:   5482.84
SCF: Cycle:  4   Etot: -157.241426898906269   dEtot: -1.353e-07   |Residual|: 8.275e-05   |deigs|: 1.225e-06  t[s]:   5485.17
	Linear fluid (dielectric constant: 64) occupying 0.992766 of unit cell:	Completed after 0 iterations at t[s]:   5488.80
	Linear fluid (dielectric constant: 64) occupying 0.992766 of unit cell:	Completed after 0 iterations at t[s]:   5506.58
SCF: Cycle:  5   Etot: -157.241426977869196   dEtot: -7.896e-08   |Residual|: 5.663e-05   |deigs|: 1.117e-06  t[s]:   5509.05
	Linear fluid (dielectric constant: 64) occupying 0.992766 of unit cell:	Completed after 0 iterations at t[s]:   5512.74
	Linear fluid (dielectric constant: 64) occupying 0.992766 of unit cell:	Completed after 0 iterations at t[s]:   5532.55
SCF: Cycle:  6   Etot: -157.241427052578501   dEtot: -7.471e-08   |Residual|: 8.042e-05   |deigs|: 7.088e-07  t[s]:   5534.99
	Linear fluid (dielectric constant: 64) occupying 0.992766 of unit cell:	Completed after 0 iterations at t[s]:   5538.67
[...]

Computing DFT-D3 correction:
# coordination-number S 1.320 2.582 1.781 1.783 2.584 1.324
# coordination-number Na 1.127 1.137
# diagonal-C6 S 129.94 125.81 126.28 126.27 125.81 129.92
# diagonal-C6 Na 190.49 190.18
EvdW_6 =   -0.001997
EvdW_8 =   -0.011712

# Ionic positions in cartesian coordinates:
ion S   4.071488979600521  12.348890778580769  22.963691487678069 1
ion S   7.616912276883817  11.458645122126345  23.885964910423223 1
ion S   8.689542183935842   7.977458904594903  22.868425844538535 1
ion S   6.479328973808284   7.914702291815311  30.071602686157579 1
ion S   7.507118860954167  11.423831243279043  29.104895527066152 1
ion S  11.038663618338243  12.350845207919159  30.051877937419953 1
ion Na   2.931027693875471   6.337828171863471  25.199161908857246 1
ion Na  12.259788608503666   6.400149975430983  27.723499556259245 1

# Forces in Cartesian coordinates:
force S  -0.005022336194678   0.002588947476910  -0.001611324032027 1
force S   0.008611135403254   0.002561865933028   0.003456551092063 1
force S  -0.001167015408643  -0.000085080980539  -0.002520977082312 1
force S   0.001156663974171  -0.000128453764277   0.002564420655929 1
force S  -0.008379877656458   0.002559742083101  -0.003343714609923 1
force S   0.004708637276839   0.002600563840289   0.001576296567518 1
force Na  -0.006240172725053  -0.004888894320840  -0.000900496550138 1
force Na   0.006440726396637  -0.004948403478451   0.000942583267655 1

# Energy components:
   A_diel =       -0.2841275577082386
   Eewald =      124.4561026908603480
       EH =      253.8046301745003177
     Eloc =     -412.8407356634399434
      Enl =     -133.4078795304459106
     EvdW =       -0.0137092897841670
      Exc =      -39.5981176251759237
 Exc_core =       10.6063791305558794
       KE =       39.9890052979356625
-------------------------------------
     Etot =     -157.2884523727019541

IonicMinimize: Iter:   7  Etot: -157.288452372701954  |grad|_K:  4.045e-03  alpha: -4.869e+00  linmin: -5.036e-01  t[s]:  27372.74

#--- Lowdin population analysis ---
# oxidation-state S -0.517 +0.349 -0.469 -0.469 +0.348 -0.518
# oxidation-state Na +0.900 +0.899


Computing DFT-D3 correction:
# coordination-number S 1.314 2.582 1.762 1.764 2.583 1.317
# coordination-number Na 1.095 1.103
# diagonal-C6 S 129.99 125.81 126.35 126.34 125.81 129.97
# diagonal-C6 Na 191.76 191.39
EvdW_6 =   -0.002013
EvdW_8 =   -0.011777

-------- Electronic minimization -----------
Will mix electronic density at each iteration.
	Linear fluid (dielectric constant: 64) occupying 0.992288 of unit cell:	Completed after 15 iterations at t[s]:  27403.86
	Linear fluid (dielectric constant: 64) occupying 0.992283 of unit cell:	Completed after 5 iterations at t[s]:  27434.49
SCF: Cycle:  0   Etot: -157.289007415410708   dEtot: -8.532e-05   |Residual|: 3.605e-03   |deigs|: 2.822e-06  t[s]:  27436.86
	Linear fluid (dielectric constant: 64) occupying 0.992288 of unit cell:	Completed after 4 iterations at t[s]:  27447.33
	Linear fluid (dielectric constant: 64) occupying 0.992285 of unit cell:	Completed after 4 iterations at t[s]:  27472.35
SCF: Cycle:  1   Etot: -157.289019064988224   dEtot: -1.165e-05   |Residual|: 1.918e-03   |deigs|: 1.594e-04  t[s]:  27474.79
	Linear fluid (dielectric constant: 64) occupying 0.992287 of unit cell:	Completed after 2 iterations at t[s]:  27482.40
	Linear fluid (dielectric constant: 64) occupying 0.992286 of unit cell:	Completed after 3 iterations at t[s]:  27506.14
SCF: Cycle:  2   Etot: -157.289023710285647   dEtot: -4.645e-06   |Residual|: 6.044e-04   |deigs|: 1.202e-04  t[s]:  27508.57
	Linear fluid (dielectric constant: 64) occupying 0.992286 of unit cell:	Completed after 0 iterations at t[s]:  27512.28
	Linear fluid (dielectric constant: 64) occupying 0.992286 of unit cell:	Completed after 1 iterations at t[s]:  27533.49
SCF: Cycle:  3   Etot: -157.289025106058688   dEtot: -1.396e-06   |Residual|: 2.933e-04   |deigs|: 5.191e-05  t[s]:  27535.99
	Linear fluid (dielectric constant: 64) occupying 0.992286 of unit cell:	Completed after 0 iterations at t[s]:  27539.53
	Linear fluid (dielectric constant: 64) occupying 0.992286 of unit cell:	Completed after 0 iterations at t[s]:  27557.93
SCF: Cycle:  4   Etot: -157.289025540397574   dEtot: -4.343e-07   |Residual|: 1.801e-04   |deigs|: 3.097e-05  t[s]:  27560.32
	Linear fluid (dielectric constant: 64) occupying 0.992286 of unit cell:	Completed after 0 iterations at t[s]:  27564.04
	Linear fluid (dielectric constant: 64) occupying 0.992286 of unit cell:	Completed after 0 iterations at t[s]:  27582.14
SCF: Cycle:  5   Etot: -157.289025732230698   dEtot: -1.918e-07   |Residual|: 1.373e-04   |deigs|: 1.334e-06  t[s]:  27584.53
	Linear fluid (dielectric constant: 64) occupying 0.992286 of unit cell:	Completed after 0 iterations at t[s]:  27588.33
	Linear fluid (dielectric constant: 64) occupying 0.992286 of unit cell:	Completed after 0 iterations at t[s]:  27608.04
SCF: Cycle:  6   Etot: -157.289025719003490   dEtot: +1.323e-08   |Residual|: 8.004e-05   |deigs|: 2.110e-06  t[s]:  27610.49
	Linear fluid (dielectric constant: 64) occupying 0.992286 of unit cell:	Completed after 0 iterations at t[s]:  27614.15
	Linear fluid (dielectric constant: 64) occupying 0.992286 of unit cell:	Completed after 0 iterations at t[s]:  27635.57
SCF: Cycle:  7   Etot: -157.289025860866644   dEtot: -1.419e-07   |Residual|: 1.097e-04   |deigs|: 2.351e-05  t[s]:  27637.96
	Linear fluid (dielectric constant: 64) occupying 0.992286 of unit cell:	Completed after 0 iterations at t[s]:  27641.80
	Linear fluid (dielectric constant: 64) occupying 0.992286 of unit cell:	Completed after 0 iterations at t[s]:  27660.06
SCF: Cycle:  8   Etot: -157.289025886726989   dEtot: -2.586e-08   |Residual|: 1.146e-04   |deigs|: 8.668e-08  t[s]:  27662.50
	Linear fluid (dielectric constant: 64) occupying 0.992286 of unit cell:	Completed after 0 iterations at t[s]:  27666.22
	Linear fluid (dielectric constant: 64) occupying 0.992286 of unit cell:	Completed after 0 iterations at t[s]:  27686.59
SCF: Cycle:  9   Etot: -157.289025919477808   dEtot: -3.275e-08   |Residual|: 1.249e-04   |deigs|: 4.374e-07  t[s]:  27689.02
	Linear fluid (dielectric constant: 64) occupying 0.992286 of unit cell:	Completed after 0 iterations at t[s]:  27694.11
	Linear fluid (dielectric constant: 64) occupying 0.992286 of unit cell:	Completed after 0 iterations at t[s]:  27712.39
SCF: Cycle: 10   Etot: -157.289025845339097   dEtot: +7.414e-08   |Residual|: 1.690e-04   |deigs|: 1.559e-05  t[s]:  27714.79
	Linear fluid (dielectric constant: 64) occupying 0.992286 of unit cell:	Completed after 0 iterations at t[s]:  27718.64
	Linear fluid (dielectric constant: 64) occupying 0.992286 of unit cell:	Completed after 0 iterations at t[s]:  27736.74
SCF: Cycle: 11   Etot: -157.289025861045673   dEtot: -1.571e-08   |Residual|: 1.477e-04   |deigs|: 5.375e-07  t[s]:  27739.13
	Linear fluid (dielectric constant: 64) occupying 0.992286 of unit cell:	Completed after 0 iterations at t[s]:  27743.02
	Linear fluid (dielectric constant: 64) occupying 0.992286 of unit cell:	Completed after 0 iterations at t[s]:  27760.84
SCF: Cycle: 12   Etot: -157.289025871084846   dEtot: -1.004e-08   |Residual|: 1.307e-04   |deigs|: 4.554e-07  t[s]:  27763.27
	Linear fluid (dielectric constant: 64) occupying 0.992286 of unit cell:	Completed after 0 iterations at t[s]:  27767.08
	Linear fluid (dielectric constant: 64) occupying 0.992286 of unit cell:	Completed after 0 iterations at t[s]:  27787.39
SCF: Cycle: 13   Etot: -157.289025900405051   dEtot: -2.932e-08   |Residual|: 9.862e-05   |deigs|: 5.717e-07  t[s]:  27789.75
	Linear fluid (dielectric constant: 64) occupying 0.992286 of unit cell:	Completed after 0 iterations at t[s]:  27793.53
	Linear fluid (dielectric constant: 64) occupying 0.992286 of unit cell:	Completed after 0 iterations at t[s]:  27811.64
SCF: Cycle: 14   Etot: -157.289025914012910   dEtot: -1.361e-08   |Residual|: 8.000e-05   |deigs|: 5.536e-07  t[s]:  27814.00
	Linear fluid (dielectric constant: 64) occupying 0.992286 of unit cell:	Completed after 0 iterations at t[s]:  27817.78
	Linear fluid (dielectric constant: 64) occupying 0.992286 of unit cell:	Completed after 0 iterations at t[s]:  27836.05
SCF: Cycle: 15   Etot: -157.289025933122673   dEtot: -1.911e-08   |Residual|: 5.642e-05   |deigs|: 9.840e-07  t[s]:  27838.47
	Linear fluid (dielectric constant: 64) occupying 0.992286 of unit cell:	Completed after 0 iterations at t[s]:  27842.31
	Linear fluid (dielectric constant: 64) occupying 0.992286 of unit cell:	Completed after 0 iterations at t[s]:  27860.59
SCF: Cycle: 16   Etot: -157.289025953855230   dEtot: -2.073e-08   |Residual|: 2.448e-05   |deigs|: 1.454e-06  t[s]:  27862.97
	Linear fluid (dielectric constant: 64) occupying 0.992286 of unit cell:	Completed after 0 iterations at t[s]:  27866.90
	Linear fluid (dielectric constant: 64) occupying 0.992286 of unit cell:	Completed after 0 iterations at t[s]:  27886.36
SCF: Cycle: 17   Etot: -157.289025829949622   dEtot: +1.239e-07   |Residual|: 1.574e-05   |deigs|: 9.579e-07  t[s]:  27888.71
	Linear fluid (dielectric constant: 64) occupying 0.992286 of unit cell:	Completed after 0 iterations at t[s]:  27892.55
	Linear fluid (dielectric constant: 64) occupying 0.992286 of unit cell:	Completed after 0 iterations at t[s]:  27910.69
SCF: Cycle: 18   Etot: -157.289025856196162   dEtot: -2.625e-08   |Residual|: 8.101e-05   |deigs|: 2.355e-05  t[s]:  27913.06
	Linear fluid (dielectric constant: 64) occupying 0.992286 of unit cell:	Completed after 0 iterations at t[s]:  27916.91
	Linear fluid (dielectric constant: 64) occupying 0.992286 of unit cell:	Completed after 0 iterations at t[s]:  27934.91
SCF: Cycle: 19   Etot: -157.289025863778676   dEtot: -7.583e-09   |Residual|: 7.309e-05   |deigs|: 3.325e-07  t[s]:  27937.25
	Linear fluid (dielectric constant: 64) occupying 0.992286 of unit cell:	Completed after 0 iterations at t[s]:  27940.95
	Linear fluid (dielectric constant: 64) occupying 0.992286 of unit cell:	Completed after 0 iterations at t[s]:  27959.34
SCF: Cycle: 20   Etot: -157.289025864537166   dEtot: -7.585e-10   |Residual|: 6.812e-05   |deigs|: 4.536e-08  t[s]:  27961.71
SCF: Converged (|Delta E|<1.000000e-08 for 2 iters).

Setting wave functions to eigenvectors of Hamiltonian
IonicMinimize: 	Predicted alpha/alphaT>3.000000, increasing alphaT to 3.000000e+00.

Computing DFT-D3 correction:
# coordination-number S 1.300 2.582 1.723 1.725 2.583 1.303
# coordination-number Na 1.031 1.039
# diagonal-C6 S 130.07 125.81 126.52 126.51 125.81 130.05
# diagonal-C6 Na 195.37 194.83
EvdW_6 =   -0.002046
EvdW_8 =   -0.011915

-------- Electronic minimization -----------
Will mix electronic density at each iteration.
	Linear fluid (dielectric constant: 64) occupying 0.992285 of unit cell:	Completed after 20 iterations at t[s]:  28003.28
	Linear fluid (dielectric constant: 64) occupying 0.992253 of unit cell:	Completed after 17 iterations at t[s]:  28051.37
SCF: Cycle:  0   Etot: -157.287217439456015   dEtot: -5.645e-02   |Residual|: 1.059e-01   |deigs|: 2.441e-03  t[s]:  28053.76
	Linear fluid (dielectric constant: 64) occupying 0.992285 of unit cell:	Completed after 16 iterations at t[s]:  28080.30
	Linear fluid (dielectric constant: 64) occupying 0.992259 of unit cell:	Completed after 16 iterations at t[s]:  28125.17
SCF: Cycle:  1   Etot: -157.288746989328189   dEtot: -1.530e-03   |Residual|: 5.265e-02   |deigs|: 1.737e-03  t[s]:  28127.59
	Linear fluid (dielectric constant: 64) occupying 0.992274 of unit cell:	Completed after 18 iterations at t[s]:  28156.81
	Linear fluid (dielectric constant: 64) occupying 0.992269 of unit cell:	Completed after 18 iterations at t[s]:  28204.44
SCF: Cycle:  2   Etot: -157.289561340049602   dEtot: -8.144e-04   |Residual|: 1.033e-02   |deigs|: 6.347e-04  t[s]:  28206.79
	Linear fluid (dielectric constant: 64) occupying 0.992264 of unit cell:	Completed after 16 iterations at t[s]:  28233.57
	Linear fluid (dielectric constant: 64) occupying 0.992269 of unit cell:	Completed after 14 iterations at t[s]:  28275.65
SCF: Cycle:  3   Etot: -157.289738826999439   dEtot: -1.775e-04   |Residual|: 6.396e-03   |deigs|: 7.599e-04  t[s]:  28278.02
	Linear fluid (dielectric constant: 64) occupying 0.992252 of unit cell:	Completed after 9 iterations at t[s]:  28295.06
	Linear fluid (dielectric constant: 64) occupying 0.992270 of unit cell:	Completed after 11 iterations at t[s]:  28333.22
SCF: Cycle:  4   Etot: -157.289879238407110   dEtot: -1.404e-04   |Residual|: 3.204e-03   |deigs|: 3.564e-04  t[s]:  28335.59
	Linear fluid (dielectric constant: 64) occupying 0.992250 of unit cell:	Completed after 7 iterations at t[s]:  28350.05
	Linear fluid (dielectric constant: 64) occupying 0.992272 of unit cell:	Completed after 7 iterations at t[s]:  28382.51
SCF: Cycle:  5   Etot: -157.289912136420469   dEtot: -3.290e-05   |Residual|: 1.791e-03   |deigs|: 3.657e-04  t[s]:  28384.94
	Linear fluid (dielectric constant: 64) occupying 0.992248 of unit cell:	Completed after 9 iterations at t[s]:  28402.05
	Linear fluid (dielectric constant: 64) occupying 0.992272 of unit cell:	Completed after 8 iterations at t[s]:  28435.98
SCF: Cycle:  6   Etot: -157.289921653434874   dEtot: -9.517e-06   |Residual|: 1.358e-03   |deigs|: 7.473e-05  t[s]:  28438.43
	Linear fluid (dielectric constant: 64) occupying 0.992255 of unit cell:	Completed after 4 iterations at t[s]:  28448.90
	Linear fluid (dielectric constant: 64) occupying 0.992273 of unit cell:	Completed after 4 iterations at t[s]:  28474.01
SCF: Cycle:  7   Etot: -157.289926264062530   dEtot: -4.611e-06   |Residual|: 8.384e-04   |deigs|: 1.894e-04  t[s]:  28476.44
	Linear fluid (dielectric constant: 64) occupying 0.992260 of unit cell:	Completed after 2 iterations at t[s]:  28483.98
	Linear fluid (dielectric constant: 64) occupying 0.992274 of unit cell:	Completed after 2 iterations at t[s]:  28506.31
SCF: Cycle:  8   Etot: -157.289928977891378   dEtot: -2.714e-06   |Residual|: 7.495e-04   |deigs|: 6.370e-05  t[s]:  28508.77
	Linear fluid (dielectric constant: 64) occupying 0.992266 of unit cell:	Completed after 3 iterations at t[s]:  28517.99
	Linear fluid (dielectric constant: 64) occupying 0.992274 of unit cell:	Completed after 3 iterations at t[s]:  28541.77
SCF: Cycle:  9   Etot: -157.289929692696688   dEtot: -7.148e-07   |Residual|: 7.075e-04   |deigs|: 1.429e-04  t[s]:  28544.27
	Linear fluid (dielectric constant: 64) occupying 0.992270 of unit cell:	Completed after 2 iterations at t[s]:  28552.19
	Linear fluid (dielectric constant: 64) occupying 0.992274 of unit cell:	Completed after 1 iterations at t[s]:  28573.09
SCF: Cycle: 10   Etot: -157.289930335122961   dEtot: -6.424e-07   |Residual|: 4.266e-04   |deigs|: 5.933e-05  t[s]:  28575.51
	Linear fluid (dielectric constant: 64) occupying 0.992273 of unit cell:	Completed after 0 iterations at t[s]:  28579.26
	Linear fluid (dielectric constant: 64) occupying 0.992275 of unit cell:	Completed after 0 iterations at t[s]:  28597.62
SCF: Cycle: 11   Etot: -157.289931348804089   dEtot: -1.014e-06   |Residual|: 3.473e-04   |deigs|: 2.755e-05  t[s]:  28600.02
	Linear fluid (dielectric constant: 64) occupying 0.992274 of unit cell:	Completed after 0 iterations at t[s]:  28603.81
	Linear fluid (dielectric constant: 64) occupying 0.992275 of unit cell:	Completed after 1 iterations at t[s]:  28624.59
SCF: Cycle: 12   Etot: -157.289931697265501   dEtot: -3.485e-07   |Residual|: 2.034e-04   |deigs|: 5.803e-06  t[s]:  28627.13
	Linear fluid (dielectric constant: 64) occupying 0.992275 of unit cell:	Completed after 0 iterations at t[s]:  28630.84
	Linear fluid (dielectric constant: 64) occupying 0.992275 of unit cell:	Completed after 0 iterations at t[s]:  28649.03
SCF: Cycle: 13   Etot: -157.289931894186793   dEtot: -1.969e-07   |Residual|: 1.496e-04   |deigs|: 1.405e-05  t[s]:  28651.42
	Linear fluid (dielectric constant: 64) occupying 0.992275 of unit cell:	Completed after 0 iterations at t[s]:  28655.31
	Linear fluid (dielectric constant: 64) occupying 0.992275 of unit cell:	Completed after 0 iterations at t[s]:  28673.46
SCF: Cycle: 14   Etot: -157.289932242616061   dEtot: -3.484e-07   |Residual|: 1.343e-04   |deigs|: 2.948e-06  t[s]:  28675.86
	Linear fluid (dielectric constant: 64) occupying 0.992275 of unit cell:	Completed after 1 iterations at t[s]:  28682.46
	Linear fluid (dielectric constant: 64) occupying 0.992275 of unit cell:	Completed after 0 iterations at t[s]:  28700.49
SCF: Cycle: 15   Etot: -157.289932109704296   dEtot: +1.329e-07   |Residual|: 1.301e-04   |deigs|: 3.618e-05  t[s]:  28702.91
	Linear fluid (dielectric constant: 64) occupying 0.992275 of unit cell:	Completed after 0 iterations at t[s]:  28706.75
	Linear fluid (dielectric constant: 64) occupying 0.992275 of unit cell:	Completed after 0 iterations at t[s]:  28724.71
SCF: Cycle: 16   Etot: -157.289932130535647   dEtot: -2.083e-08   |Residual|: 1.212e-04   |deigs|: 6.027e-07  t[s]:  28727.08
	Linear fluid (dielectric constant: 64) occupying 0.992275 of unit cell:	Completed after 0 iterations at t[s]:  28730.88
	Linear fluid (dielectric constant: 64) occupying 0.992275 of unit cell:	Completed after 0 iterations at t[s]:  28752.69
SCF: Cycle: 17   Etot: -157.289932114221131   dEtot: +1.631e-08   |Residual|: 7.470e-05   |deigs|: 3.224e-06  t[s]:  28755.05
	Linear fluid (dielectric constant: 64) occupying 0.992275 of unit cell:	Completed after 0 iterations at t[s]:  28758.85
	Linear fluid (dielectric constant: 64) occupying 0.992275 of unit cell:	Completed after 0 iterations at t[s]:  28778.67
SCF: Cycle: 18   Etot: -157.289932160832620   dEtot: -4.661e-08   |Residual|: 6.285e-05   |deigs|: 9.532e-07  t[s]:  28781.09
	Linear fluid (dielectric constant: 64) occupying 0.992275 of unit cell:	Completed after 0 iterations at t[s]:  28784.94
	Linear fluid (dielectric constant: 64) occupying 0.992275 of unit cell:	Completed after 0 iterations at t[s]:  28807.02
SCF: Cycle: 19   Etot: -157.289932223343357   dEtot: -6.251e-08   |Residual|: 5.602e-05   |deigs|: 1.298e-06  t[s]:  28809.47
	Linear fluid (dielectric constant: 64) occupying 0.992275 of unit cell:	Completed after 0 iterations at t[s]:  28813.25
	Linear fluid (dielectric constant: 64) occupying 0.992275 of unit cell:	Completed after 0 iterations at t[s]:  28831.58
SCF: Cycle: 20   Etot: -157.289932254215614   dEtot: -3.087e-08   |Residual|: 3.706e-05   |deigs|: 9.369e-07  t[s]:  28833.98
	Linear fluid (dielectric constant: 64) occupying 0.992275 of unit cell:	Completed after 0 iterations at t[s]:  28837.91
	Linear fluid (dielectric constant: 64) occupying 0.992275 of unit cell:	Completed after 0 iterations at t[s]:  28856.06
SCF: Cycle: 21   Etot: -157.289932267025620   dEtot: -1.281e-08   |Residual|: 2.476e-05   |deigs|: 5.883e-07  t[s]:  28858.46
	Linear fluid (dielectric constant: 64) occupying 0.992275 of unit cell:	Completed after 0 iterations at t[s]:  28862.29
	Linear fluid (dielectric constant: 64) occupying 0.992275 of unit cell:	Completed after 0 iterations at t[s]:  28880.65
SCF: Cycle: 22   Etot: -157.289932271739303   dEtot: -4.714e-09   |Residual|: 2.213e-05   |deigs|: 4.909e-07  t[s]:  28883.03
	Linear fluid (dielectric constant: 64) occupying 0.992275 of unit cell:	Completed after 0 iterations at t[s]:  28886.84
	Linear fluid (dielectric constant: 64) occupying 0.992275 of unit cell:	Completed after 0 iterations at t[s]:  28908.73
SCF: Cycle: 23   Etot: -157.289932281246166   dEtot: -9.507e-09   |Residual|: 1.601e-05   |deigs|: 1.589e-06  t[s]:  28911.10
SCF: Converged (|Delta E|<1.000000e-08 for 2 iters).

Setting wave functions to eigenvectors of Hamiltonian
Atom 8 lies within the margin of 5 bohrs from the truncation boundary.
Expand unit cell, or if absolutely sure, reduce coulomb-truncation-ion-margin.
End date and time: Sun Sep 22 19:09:30 2024  (Duration: 0-8:01:56.91)
Failed.
