CRYSTAL
PRIMVEC
 14.820031   0.000000   0.000000
 -7.410015  12.834505   0.000000
  0.000000   0.000000  20.000041
PRIMCOORD
4 1
16   4.964554   6.555613  15.090371
16   3.172315   5.344373  15.076993
11   5.918601   3.162561  12.805158
11   2.106828   8.790920  12.994676
