
*************** JDFTx 1.7.0  ***************

Start date and time: Sat Dec 28 18:24:48 2024
Executable jdftx_gpu with command-line: -i /home/akim2/JDFTx/Na2S6-PC/Na2S6-PC.in -o /home/akim2/JDFTx/Na2S6-PC/Na2S6-PC.out
Running on hosts (process indices):  exp-7-57 (0)
Divided in process groups (process indices):  0 (0)
gpuInit: Found compatible cuda device 0 'Tesla V100-SXM2-32GB'
gpuInit: Selected device 0
Resource initialization completed at t[s]:      0.39
Run totals: 1 processes, 1 threads, 1 GPUs


Input parsed successfully to the following command list (including defaults):

basis kpoint-dependent
coords-type Cartesian
core-overlap-check vector
coulomb-interaction Isolated
coulomb-truncation-embed 3.92133 11.8496 23.1275
davidson-band-ratio 1.1
dump End State
dump-name Na2S6-PC.$VAR
elec-cutoff 20 100
elec-eigen-algo Davidson
elec-ex-corr gga-PBE
electronic-minimize  \
	dirUpdateScheme      FletcherReeves \
	linminMethod         DirUpdateRecommended \
	nIterations          100 \
	history              15 \
	knormThreshold       0 \
	energyDiffThreshold  1e-08 \
	nEnergyDiff          2 \
	alphaTstart          1 \
	alphaTmin            1e-10 \
	updateTestStepSize   yes \
	alphaTreduceFactor   0.1 \
	alphaTincreaseFactor 3 \
	nAlphaAdjustMax      3 \
	wolfeEnergy          0.0001 \
	wolfeGradient        0.9 \
	fdTest               no
electronic-scf  \
	nIterations	50 \
	energyDiffThreshold	1e-08 \
	residualThreshold	1e-07 \
	mixFraction	0.5 \
	qMetric	0.8 \
	history	10 \
	nEigSteps	2 \
	eigDiffThreshold	1e-08 \
	mixedVariable	Density \
	qKerker	0.8 \
	qKappa	-1 \
	verbose	no \
	mixFractionMag	1.5
exchange-regularization None
fluid LinearPCM 298.000000 1.013250
fluid-ex-corr lda-TF lda-PZ
fluid-gummel-loop 10 1.000000e-05
fluid-minimize  \
	dirUpdateScheme      PolakRibiere \
	linminMethod         DirUpdateRecommended \
	nIterations          400 \
	history              15 \
	knormThreshold       1e-11 \
	energyDiffThreshold  0 \
	nEnergyDiff          2 \
	alphaTstart          1 \
	alphaTmin            1e-10 \
	updateTestStepSize   yes \
	alphaTreduceFactor   0.1 \
	alphaTincreaseFactor 3 \
	nAlphaAdjustMax      6 \
	wolfeEnergy          0.0001 \
	wolfeGradient        0.9 \
	fdTest               no
fluid-solvent PC 11.6429 ScalarEOS \
	epsBulk 64 \
	pMol 2.95 \
	epsInf 2.02 \
	Pvap 1.53277e-13 \
	sigmaBulk 2.88e-05 \
	Rvdw 0 \
	Res 0 \
	tauNuc 343133
forces-output-coords Positions
ion S   3.921331479750000  11.849557634189999  23.127532414739999 1
ion S   7.567480476899996  11.351192369400000  23.945456691719997 1
ion S   8.668781105760003   7.743174344189998  23.234262475409999 1
ion S   6.502139520210000   7.687128731849999  29.705151530609999 1
ion S   7.556913106740001  11.318358310649998  29.045040495659997 1
ion S  11.194673592419999  11.852526400019999  29.882693553839999 1
ion Na   3.832890226020000   7.182347833710000  25.239470096249999 1
ion Na  11.349661688099999   7.228066071600000  27.689512600169998 1
ion-species GBRV/$ID_pbe.uspp
ion-width Ecut
ionic-minimize  \
	dirUpdateScheme      FletcherReeves \
	linminMethod         DirUpdateRecommended \
	nIterations          200 \
	history              15 \
	knormThreshold       0.0001 \
	energyDiffThreshold  1e-06 \
	nEnergyDiff          2 \
	alphaTstart          1 \
	alphaTmin            1e-10 \
	updateTestStepSize   yes \
	alphaTreduceFactor   0.1 \
	alphaTincreaseFactor 3 \
	nAlphaAdjustMax      3 \
	wolfeEnergy          0.0001 \
	wolfeGradient        0.9 \
	fdTest               no
kpoint   0.000000000000   0.000000000000   0.000000000000  1.00000000000000
kpoint-folding 1 1 1 
latt-move-scale 1 1 1
latt-scale 1 1 1 
lattice Triclinic 28.0058 28.0058 37.7946 90 90 120
lattice-minimize  \
	dirUpdateScheme      L-BFGS \
	linminMethod         DirUpdateRecommended \
	nIterations          0 \
	history              15 \
	knormThreshold       0 \
	energyDiffThreshold  1e-06 \
	nEnergyDiff          2 \
	alphaTstart          1 \
	alphaTmin            1e-10 \
	updateTestStepSize   yes \
	alphaTreduceFactor   0.1 \
	alphaTincreaseFactor 3 \
	nAlphaAdjustMax      3 \
	wolfeEnergy          0.0001 \
	wolfeGradient        0.9 \
	fdTest               no
lcao-params -1 1e-06 0.001
pcm-variant GLSSA13
spintype no-spin
subspace-rotation-factor 1 yes
symmetries automatic
symmetry-threshold 0.0001



---------- Setting up symmetries ----------

Found 24 point-group symmetries of the bravais lattice
Found 1 space-group symmetries with basis
Applied RMS atom displacement 0 bohrs to make symmetries exact.

---------- Initializing the Grid ----------
R = 
[      28.0058     -14.0029            0  ]
[            0      24.2537            0  ]
[            0            0      37.7946  ]
unit cell volume = 25671.8
G =
[   0.224353    0.12953         -0  ]
[          0   0.259061          0  ]
[          0         -0   0.166246  ]
Minimum fftbox size, Smin = [  128  128  172  ]
Chosen fftbox size, S = [  128  128  180  ]

---------- Initializing tighter grid for wavefunction operations ----------
R = 
[      28.0058     -14.0029            0  ]
[            0      24.2537            0  ]
[            0            0      37.7946  ]
unit cell volume = 25671.8
G =
[   0.224353    0.12953         -0  ]
[          0   0.259061          0  ]
[          0         -0   0.166246  ]
Minimum fftbox size, Smin = [  116  116  156  ]
Chosen fftbox size, S = [  120  120  160  ]

---------- Exchange Correlation functional ----------
Initalized PBE GGA exchange.
Initalized PBE GGA correlation.

---------- Setting up pseudopotentials ----------
Width of ionic core gaussian charges (only for fluid interactions / plotting) set to 0.397384

Reading pseudopotential file '/home/akim2/jdftx_install/build/pseudopotentials/GBRV/s_pbe.uspp':
  Title: S.  Created by USPP 7.3.6 on 1-4-15
  Reference state energy: -11.898476.  6 valence electrons in orbitals:
    |300>  occupation: 2  eigenvalue: -0.634167
    |310>  occupation: 4  eigenvalue: -0.257568
  lMax: 2  lLocal: 3  QijEcut: 6
  6 projectors sampled on a log grid with 635 points:
    l: 0  eig: -0.634161  rCut: 1.5
    l: 0  eig: 1.500000  rCut: 1.5
    l: 1  eig: -0.257567  rCut: 1.5
    l: 1  eig: 1.500000  rCut: 1.5
    l: 2  eig: -1.000000  rCut: 1.5
    l: 2  eig: 1.500000  rCut: 1.5
  Partial core density with radius 1.15
  Transforming core density to a uniform radial grid of dG=0.02 with 1625 points.
  Transforming local potential to a uniform radial grid of dG=0.02 with 1625 points.
  Transforming nonlocal projectors to a uniform radial grid of dG=0.02 with 432 points.
  Transforming density augmentations to a uniform radial grid of dG=0.02 with 1625 points.
  Transforming atomic orbitals to a uniform radial grid of dG=0.02 with 432 points.
  Core radius for overlap checks: 1.50 bohrs.

Reading pseudopotential file '/home/akim2/jdftx_install/build/pseudopotentials/GBRV/na_pbe.uspp':
  Title: Na.  Created by USPP 7.3.6 on 23-9-15
  Reference state energy: -47.625620.  9 valence electrons in orbitals:
    |200>  occupation: 2  eigenvalue: -2.085638
    |210>  occupation: 6  eigenvalue: -1.053708
    |300>  occupation: 1  eigenvalue: -0.100838
  lMax: 2  lLocal: 0  QijEcut: 6
  5 projectors sampled on a log grid with 657 points:
    l: 0  eig: -2.085640  rCut: 1.37
    l: 0  eig: -0.100839  rCut: 1.37
    l: 1  eig: -1.053708  rCut: 1.47
    l: 1  eig: 0.500000  rCut: 1.47
    l: 2  eig: 0.750000  rCut: 2
  Transforming local potential to a uniform radial grid of dG=0.02 with 1625 points.
  Transforming nonlocal projectors to a uniform radial grid of dG=0.02 with 432 points.
  Transforming density augmentations to a uniform radial grid of dG=0.02 with 1625 points.
  Transforming atomic orbitals to a uniform radial grid of dG=0.02 with 432 points.
  Core radius for overlap checks: 2.00 bohrs.

Initialized 2 species with 8 total atoms.

Folded 1 k-points by 1x1x1 to 1 k-points.

---------- Setting up k-points, bands, fillings ----------
No reducable k-points. 
Computing the number of bands and number of electrons
Calculating initial fillings.
nElectrons:  54.000000   nBands: 27   nStates: 1

----- Setting up reduced wavefunction bases (one per k-point) -----
average nbasis = 109673.000 , ideal nbasis = 109671.883

---------- Setting up coulomb interaction ----------
Fluid mode embedding: using embedded box, but periodic Coulomb kernel.
(Fluid response is responsible for (approximate) separation between periodic images.)
Setting up double-sized grid for truncated Coulomb potentials:
R = 
[      56.0116     -28.0058            0  ]
[            0      48.5075            0  ]
[            0            0      75.5892  ]
unit cell volume = 205374
G =
[   0.112177  0.0647651         -0  ]
[          0    0.12953          0  ]
[          0         -0  0.0831228  ]
Chosen fftbox size, S = [  256  256  360  ]
Integer grid location selected as the embedding center:
   Grid: [  49  63  110  ]
   Lattice: [  0.384302  0.488566  0.611927  ]
   Cartesian: [  3.92133  11.8496  23.1275  ]
Constructing Wigner-Seitz cell: 8 faces (6 quadrilaterals, 2 hexagons)
Range-separation parameter for embedded mesh potentials due to point charges: 0.590105 bohrs.

---------- Setting up ewald sum ----------
Optimum gaussian width for ewald sums = 16.643468 bohr.
Real space sum over 1089 unit cells with max indices [  5  5  4  ]
Reciprocal space sum over 3825 terms with max indices [  7  7  8  ]

---------- Allocating electronic variables ----------
Initializing wave functions:  linear combination of atomic orbitals
S pseudo-atom occupations:   s ( 2 )  p ( 4 )
Na pseudo-atom occupations:   s ( 2 1 )  p ( 6 )
	FillingsUpdate:  mu: -0.164955365  nElectrons: 54.000000
LCAOMinimize: Iter:   0  Etot: -156.5595025291391664  |grad|_K:  2.735e-02  alpha:  1.000e+00
	FillingsUpdate:  mu: -0.148280260  nElectrons: 54.000000
LCAOMinimize: Iter:   1  Etot: -156.6973850260835377  |grad|_K:  7.073e-03  alpha:  3.525e-01  linmin:  3.116e-01  cgtest: -7.197e-01  t[s]:      4.04
	FillingsUpdate:  mu: -0.152264760  nElectrons: 54.000000
LCAOMinimize: Iter:   2  Etot: -156.7002377605796539  |grad|_K:  7.228e-03  alpha:  3.169e-01  linmin:  3.447e-03  cgtest:  8.448e-01  t[s]:      4.42
	FillingsUpdate:  mu: -0.166441425  nElectrons: 54.000000
LCAOMinimize: Iter:   3  Etot: -156.7102118753117281  |grad|_K:  7.707e-04  alpha:  3.123e-01  linmin:  3.211e-02  cgtest: -2.577e-01  t[s]:      4.81
LCAOMinimize: None of the convergence criteria satisfied after 3 iterations.
----- createFluidSolver() ----- (Fluid-side solver setup)
   Initializing fluid molecule 'PC'
     Net charge: 0   dipole magnitude: 0
     Initializing spherical shell mfKernel with radius 0 Bohr
     deltaS corrections:

Correction to mu due to finite nuclear width = -0.000260884
   Cavity determined by nc: 0.00098 and sigma: 0.6
   Effective cavity tension: 9.53e-06 Eh/bohr^2 to account for cavitation and dispersion.


---- Citations for features of the code used in this run ----

   Software package:
      R. Sundararaman, K. Letchworth-Weaver, K.A. Schwarz, D. Gunceler, Y. Ozhabes and T.A. Arias, 'JDFTx: software for joint density-functional theory', SoftwareX 6, 278 (2017)

   gga-PBE exchange-correlation functional:
      J.P. Perdew, K. Burke and M. Ernzerhof, Phys. Rev. Lett. 77, 3865 (1996)

   Pseudopotentials:
      KF Garrity, JW Bennett, KM Rabe and D Vanderbilt, Comput. Mater. Sci. 81, 446 (2014)

   Truncated Coulomb potentials:
      R. Sundararaman and T.A. Arias, Phys. Rev. B 87, 165122 (2013)

   Linear/nonlinear dielectric/ionic fluid model with effective cavity tension:
      D. Gunceler, K. Letchworth-Weaver, R. Sundararaman, K.A. Schwarz and T.A. Arias, Modelling Simul. Mater. Sci. Eng. 21, 074005 (2013)

This list may not be complete. Please suggest additional citations or
report any other bugs at https://github.com/shankar1729/jdftx/issues

Initialization completed successfully at t[s]:      4.82

Fluid solver invoked on fresh (random / LCAO) wavefunctions
Running a vacuum solve first:

-------- Initial electronic minimization -----------
Will mix electronic density at each iteration.
SCF: Cycle:  0   Etot: -156.906963169533043   dEtot: -1.968e-01   |Residual|: 2.743e-01   |deigs|: 1.230e-02  t[s]:      5.41
SCF: Cycle:  1   Etot: -157.042199925769864   dEtot: -1.352e-01   |Residual|: 1.407e-01   |deigs|: 1.583e-02  t[s]:      5.86
SCF: Cycle:  2   Etot: -157.091181635722620   dEtot: -4.898e-02   |Residual|: 5.628e-02   |deigs|: 1.500e-02  t[s]:      6.33
SCF: Cycle:  3   Etot: -157.094982976624976   dEtot: -3.801e-03   |Residual|: 3.193e-02   |deigs|: 5.117e-03  t[s]:      6.79
SCF: Cycle:  4   Etot: -157.097557496516401   dEtot: -2.575e-03   |Residual|: 1.594e-02   |deigs|: 6.370e-03  t[s]:      7.23
SCF: Cycle:  5   Etot: -157.098213094877195   dEtot: -6.556e-04   |Residual|: 1.293e-02   |deigs|: 1.699e-03  t[s]:      7.68
SCF: Cycle:  6   Etot: -157.098311706931241   dEtot: -9.861e-05   |Residual|: 8.497e-03   |deigs|: 4.015e-03  t[s]:      8.13
SCF: Cycle:  7   Etot: -157.098285396127750   dEtot: +2.631e-05   |Residual|: 9.046e-03   |deigs|: 7.061e-04  t[s]:      8.56
SCF: Cycle:  8   Etot: -157.098559179430481   dEtot: -2.738e-04   |Residual|: 3.802e-03   |deigs|: 3.308e-03  t[s]:      9.02
SCF: Cycle:  9   Etot: -157.098551513856819   dEtot: +7.666e-06   |Residual|: 4.200e-03   |deigs|: 1.408e-03  t[s]:      9.44
SCF: Cycle: 10   Etot: -157.098581778556053   dEtot: -3.026e-05   |Residual|: 3.099e-03   |deigs|: 1.398e-03  t[s]:      9.87
SCF: Cycle: 11   Etot: -157.098580509175520   dEtot: +1.269e-06   |Residual|: 3.018e-03   |deigs|: 4.720e-04  t[s]:     10.31
SCF: Cycle: 12   Etot: -157.098603603141555   dEtot: -2.309e-05   |Residual|: 3.110e-03   |deigs|: 2.504e-04  t[s]:     10.76
SCF: Cycle: 13   Etot: -157.098616233293626   dEtot: -1.263e-05   |Residual|: 2.003e-03   |deigs|: 5.327e-04  t[s]:     11.19
SCF: Cycle: 14   Etot: -157.098624466938929   dEtot: -8.234e-06   |Residual|: 1.389e-03   |deigs|: 1.691e-04  t[s]:     11.58
SCF: Cycle: 15   Etot: -157.098633476047553   dEtot: -9.009e-06   |Residual|: 8.456e-04   |deigs|: 2.577e-04  t[s]:     11.96
SCF: Cycle: 16   Etot: -157.098637546739496   dEtot: -4.071e-06   |Residual|: 6.896e-04   |deigs|: 1.511e-04  t[s]:     12.35
SCF: Cycle: 17   Etot: -157.098638874168245   dEtot: -1.327e-06   |Residual|: 6.443e-04   |deigs|: 1.372e-04  t[s]:     12.75
SCF: Cycle: 18   Etot: -157.098639731831014   dEtot: -8.577e-07   |Residual|: 5.044e-04   |deigs|: 1.792e-04  t[s]:     13.15
SCF: Cycle: 19   Etot: -157.098638833662960   dEtot: +8.982e-07   |Residual|: 6.595e-04   |deigs|: 1.259e-04  t[s]:     13.54
SCF: Cycle: 20   Etot: -157.098639757975945   dEtot: -9.243e-07   |Residual|: 3.958e-04   |deigs|: 2.246e-04  t[s]:     13.93
SCF: Cycle: 21   Etot: -157.098640094233645   dEtot: -3.363e-07   |Residual|: 3.104e-04   |deigs|: 2.571e-05  t[s]:     14.33
SCF: Cycle: 22   Etot: -157.098640151239096   dEtot: -5.701e-08   |Residual|: 2.732e-04   |deigs|: 9.858e-05  t[s]:     14.74
SCF: Cycle: 23   Etot: -157.098640366515383   dEtot: -2.153e-07   |Residual|: 1.448e-04   |deigs|: 6.712e-05  t[s]:     15.19
SCF: Cycle: 24   Etot: -157.098640661262749   dEtot: -2.947e-07   |Residual|: 1.152e-04   |deigs|: 2.915e-05  t[s]:     15.58
SCF: Cycle: 25   Etot: -157.098640831907232   dEtot: -1.706e-07   |Residual|: 1.040e-04   |deigs|: 2.619e-05  t[s]:     15.98
SCF: Cycle: 26   Etot: -157.098640933710669   dEtot: -1.018e-07   |Residual|: 9.928e-05   |deigs|: 6.774e-05  t[s]:     16.37
SCF: Cycle: 27   Etot: -157.098640991719833   dEtot: -5.801e-08   |Residual|: 7.264e-05   |deigs|: 1.921e-05  t[s]:     16.77
SCF: Cycle: 28   Etot: -157.098641017753295   dEtot: -2.603e-08   |Residual|: 7.979e-05   |deigs|: 1.081e-05  t[s]:     17.17
SCF: Cycle: 29   Etot: -157.098641062298498   dEtot: -4.455e-08   |Residual|: 3.078e-05   |deigs|: 8.528e-06  t[s]:     17.61
SCF: Cycle: 30   Etot: -157.098641074349047   dEtot: -1.205e-08   |Residual|: 2.947e-05   |deigs|: 4.195e-06  t[s]:     18.00
SCF: Cycle: 31   Etot: -157.098641086796022   dEtot: -1.245e-08   |Residual|: 1.909e-05   |deigs|: 4.022e-06  t[s]:     18.45
SCF: Cycle: 32   Etot: -157.098641090333359   dEtot: -3.537e-09   |Residual|: 1.664e-05   |deigs|: 1.138e-05  t[s]:     18.85
SCF: Cycle: 33   Etot: -157.098641097871905   dEtot: -7.539e-09   |Residual|: 8.023e-06   |deigs|: 3.228e-06  t[s]:     19.29
SCF: Converged (|Delta E|<1.000000e-08 for 2 iters).

Setting wave functions to eigenvectors of Hamiltonian
Vacuum energy after initial minimize, Etot = -157.098641097871905


-------- Electronic minimization -----------
Will mix electronic density at each iteration.
	Linear fluid (dielectric constant: 64) occupying 0.992772 of unit cell:	Completed after 28 iterations at t[s]:     21.12
	Linear fluid (dielectric constant: 64) occupying 0.992803 of unit cell:	Completed after 23 iterations at t[s]:     23.56
SCF: Cycle:  0   Etot: -157.225647887877813   dEtot: -3.380e-02   |Residual|: 4.331e-02   |deigs|: 9.269e-04  t[s]:     23.85
	Linear fluid (dielectric constant: 64) occupying 0.992785 of unit cell:	Completed after 20 iterations at t[s]:     25.54
	Linear fluid (dielectric constant: 64) occupying 0.992800 of unit cell:	Completed after 23 iterations at t[s]:     27.96
SCF: Cycle:  1   Etot: -157.228094674238832   dEtot: -2.447e-03   |Residual|: 3.161e-02   |deigs|: 3.299e-03  t[s]:     28.23
	Linear fluid (dielectric constant: 64) occupying 0.992791 of unit cell:	Completed after 17 iterations at t[s]:     29.65
	Linear fluid (dielectric constant: 64) occupying 0.992798 of unit cell:	Completed after 21 iterations at t[s]:     31.94
SCF: Cycle:  2   Etot: -157.230307102465332   dEtot: -2.212e-03   |Residual|: 1.667e-02   |deigs|: 5.248e-03  t[s]:     32.20
	Linear fluid (dielectric constant: 64) occupying 0.992782 of unit cell:	Completed after 18 iterations at t[s]:     33.77
	Linear fluid (dielectric constant: 64) occupying 0.992796 of unit cell:	Completed after 20 iterations at t[s]:     35.92
SCF: Cycle:  3   Etot: -157.230562522616736   dEtot: -2.554e-04   |Residual|: 1.241e-02   |deigs|: 2.740e-04  t[s]:     36.20
	Linear fluid (dielectric constant: 64) occupying 0.992779 of unit cell:	Completed after 13 iterations at t[s]:     37.43
	Linear fluid (dielectric constant: 64) occupying 0.992783 of unit cell:	Completed after 13 iterations at t[s]:     39.08
SCF: Cycle:  4   Etot: -157.230978032184481   dEtot: -4.155e-04   |Residual|: 9.823e-03   |deigs|: 5.240e-03  t[s]:     39.36
	Linear fluid (dielectric constant: 64) occupying 0.992775 of unit cell:	Completed after 12 iterations at t[s]:     40.49
	Linear fluid (dielectric constant: 64) occupying 0.992781 of unit cell:	Completed after 12 iterations at t[s]:     42.06
SCF: Cycle:  5   Etot: -157.231147087467576   dEtot: -1.691e-04   |Residual|: 5.917e-03   |deigs|: 7.790e-04  t[s]:     42.34
	Linear fluid (dielectric constant: 64) occupying 0.992749 of unit cell:	Completed after 12 iterations at t[s]:     43.46
	Linear fluid (dielectric constant: 64) occupying 0.992772 of unit cell:	Completed after 10 iterations at t[s]:     44.92
SCF: Cycle:  6   Etot: -157.231275247234919   dEtot: -1.282e-04   |Residual|: 6.558e-03   |deigs|: 1.625e-03  t[s]:     45.21
	Linear fluid (dielectric constant: 64) occupying 0.992746 of unit cell:	Completed after 8 iterations at t[s]:     46.05
	Linear fluid (dielectric constant: 64) occupying 0.992772 of unit cell:	Completed after 10 iterations at t[s]:     47.51
SCF: Cycle:  7   Etot: -157.231282139347172   dEtot: -6.892e-06   |Residual|: 5.965e-03   |deigs|: 3.998e-04  t[s]:     47.78
	Linear fluid (dielectric constant: 64) occupying 0.992726 of unit cell:	Completed after 10 iterations at t[s]:     48.77
	Linear fluid (dielectric constant: 64) occupying 0.992773 of unit cell:	Completed after 10 iterations at t[s]:     50.21
SCF: Cycle:  8   Etot: -157.231289670913981   dEtot: -7.532e-06   |Residual|: 7.115e-03   |deigs|: 5.860e-04  t[s]:     50.49
	Linear fluid (dielectric constant: 64) occupying 0.992734 of unit cell:	Completed after 9 iterations at t[s]:     51.43
	Linear fluid (dielectric constant: 64) occupying 0.992772 of unit cell:	Completed after 9 iterations at t[s]:     52.77
SCF: Cycle:  9   Etot: -157.231382006584141   dEtot: -9.234e-05   |Residual|: 3.049e-03   |deigs|: 3.447e-04  t[s]:     53.06
	Linear fluid (dielectric constant: 64) occupying 0.992756 of unit cell:	Completed after 6 iterations at t[s]:     53.76
	Linear fluid (dielectric constant: 64) occupying 0.992771 of unit cell:	Completed after 4 iterations at t[s]:     54.89
SCF: Cycle: 10   Etot: -157.231405449900706   dEtot: -2.344e-05   |Residual|: 2.127e-03   |deigs|: 1.512e-04  t[s]:     55.09
	Linear fluid (dielectric constant: 64) occupying 0.992761 of unit cell:	Completed after 3 iterations at t[s]:     55.67
	Linear fluid (dielectric constant: 64) occupying 0.992772 of unit cell:	Completed after 4 iterations at t[s]:     56.67
SCF: Cycle: 11   Etot: -157.231414159790376   dEtot: -8.710e-06   |Residual|: 1.303e-03   |deigs|: 6.391e-05  t[s]:     56.87
	Linear fluid (dielectric constant: 64) occupying 0.992773 of unit cell:	Completed after 3 iterations at t[s]:     57.45
	Linear fluid (dielectric constant: 64) occupying 0.992773 of unit cell:	Completed after 3 iterations at t[s]:     58.42
SCF: Cycle: 12   Etot: -157.231415523284113   dEtot: -1.363e-06   |Residual|: 1.327e-03   |deigs|: 1.130e-04  t[s]:     58.62
	Linear fluid (dielectric constant: 64) occupying 0.992777 of unit cell:	Completed after 3 iterations at t[s]:     59.19
	Linear fluid (dielectric constant: 64) occupying 0.992772 of unit cell:	Completed after 3 iterations at t[s]:     60.19
SCF: Cycle: 13   Etot: -157.231416284017996   dEtot: -7.607e-07   |Residual|: 1.008e-03   |deigs|: 9.206e-05  t[s]:     60.40
	Linear fluid (dielectric constant: 64) occupying 0.992769 of unit cell:	Completed after 3 iterations at t[s]:     60.98
	Linear fluid (dielectric constant: 64) occupying 0.992771 of unit cell:	Completed after 3 iterations at t[s]:     61.99
SCF: Cycle: 14   Etot: -157.231416803491129   dEtot: -5.195e-07   |Residual|: 1.231e-03   |deigs|: 1.645e-04  t[s]:     62.18
	Linear fluid (dielectric constant: 64) occupying 0.992766 of unit cell:	Completed after 0 iterations at t[s]:     62.64
	Linear fluid (dielectric constant: 64) occupying 0.992773 of unit cell:	Completed after 3 iterations at t[s]:     63.57
SCF: Cycle: 15   Etot: -157.231416212702754   dEtot: +5.908e-07   |Residual|: 9.433e-04   |deigs|: 1.582e-04  t[s]:     63.78
	Linear fluid (dielectric constant: 64) occupying 0.992766 of unit cell:	Completed after 1 iterations at t[s]:     64.29
	Linear fluid (dielectric constant: 64) occupying 0.992771 of unit cell:	Completed after 3 iterations at t[s]:     65.21
SCF: Cycle: 16   Etot: -157.231416294602241   dEtot: -8.190e-08   |Residual|: 8.813e-04   |deigs|: 1.195e-04  t[s]:     65.41
	Linear fluid (dielectric constant: 64) occupying 0.992767 of unit cell:	Completed after 1 iterations at t[s]:     65.91
	Linear fluid (dielectric constant: 64) occupying 0.992772 of unit cell:	Completed after 1 iterations at t[s]:     66.77
SCF: Cycle: 17   Etot: -157.231417974041989   dEtot: -1.679e-06   |Residual|: 4.295e-04   |deigs|: 1.002e-04  t[s]:     66.97
	Linear fluid (dielectric constant: 64) occupying 0.992769 of unit cell:	Completed after 0 iterations at t[s]:     67.39
	Linear fluid (dielectric constant: 64) occupying 0.992772 of unit cell:	Completed after 0 iterations at t[s]:     68.12
SCF: Cycle: 18   Etot: -157.231418163453327   dEtot: -1.894e-07   |Residual|: 3.472e-04   |deigs|: 2.480e-05  t[s]:     68.31
	Linear fluid (dielectric constant: 64) occupying 0.992770 of unit cell:	Completed after 0 iterations at t[s]:     68.68
	Linear fluid (dielectric constant: 64) occupying 0.992772 of unit cell:	Completed after 0 iterations at t[s]:     69.43
SCF: Cycle: 19   Etot: -157.231418454222933   dEtot: -2.908e-07   |Residual|: 2.739e-04   |deigs|: 1.832e-05  t[s]:     69.63
	Linear fluid (dielectric constant: 64) occupying 0.992771 of unit cell:	Completed after 1 iterations at t[s]:     70.04
	Linear fluid (dielectric constant: 64) occupying 0.992773 of unit cell:	Completed after 0 iterations at t[s]:     70.83
SCF: Cycle: 20   Etot: -157.231418787553224   dEtot: -3.333e-07   |Residual|: 4.256e-04   |deigs|: 7.631e-05  t[s]:     71.02
	Linear fluid (dielectric constant: 64) occupying 0.992770 of unit cell:	Completed after 0 iterations at t[s]:     71.42
	Linear fluid (dielectric constant: 64) occupying 0.992772 of unit cell:	Completed after 0 iterations at t[s]:     72.15
SCF: Cycle: 21   Etot: -157.231418999033451   dEtot: -2.115e-07   |Residual|: 2.337e-04   |deigs|: 2.689e-05  t[s]:     72.34
	Linear fluid (dielectric constant: 64) occupying 0.992771 of unit cell:	Completed after 2 iterations at t[s]:     72.79
	Linear fluid (dielectric constant: 64) occupying 0.992773 of unit cell:	Completed after 2 iterations at t[s]:     73.69
SCF: Cycle: 22   Etot: -157.231418817854120   dEtot: +1.812e-07   |Residual|: 6.748e-04   |deigs|: 1.171e-04  t[s]:     73.89
	Linear fluid (dielectric constant: 64) occupying 0.992772 of unit cell:	Completed after 0 iterations at t[s]:     74.34
	Linear fluid (dielectric constant: 64) occupying 0.992773 of unit cell:	Completed after 0 iterations at t[s]:     75.11
SCF: Cycle: 23   Etot: -157.231419277411334   dEtot: -4.596e-07   |Residual|: 1.415e-04   |deigs|: 5.186e-05  t[s]:     75.30
	Linear fluid (dielectric constant: 64) occupying 0.992772 of unit cell:	Completed after 0 iterations at t[s]:     75.64
	Linear fluid (dielectric constant: 64) occupying 0.992773 of unit cell:	Completed after 1 iterations at t[s]:     76.43
SCF: Cycle: 24   Etot: -157.231419050422119   dEtot: +2.270e-07   |Residual|: 1.510e-04   |deigs|: 5.242e-06  t[s]:     76.62
	Linear fluid (dielectric constant: 64) occupying 0.992773 of unit cell:	Completed after 0 iterations at t[s]:     77.01
	Linear fluid (dielectric constant: 64) occupying 0.992773 of unit cell:	Completed after 0 iterations at t[s]:     77.73
SCF: Cycle: 25   Etot: -157.231419169047228   dEtot: -1.186e-07   |Residual|: 1.362e-04   |deigs|: 4.701e-05  t[s]:     77.92
	Linear fluid (dielectric constant: 64) occupying 0.992773 of unit cell:	Completed after 0 iterations at t[s]:     78.25
	Linear fluid (dielectric constant: 64) occupying 0.992773 of unit cell:	Completed after 0 iterations at t[s]:     78.98
SCF: Cycle: 26   Etot: -157.231419239832377   dEtot: -7.079e-08   |Residual|: 1.441e-04   |deigs|: 3.997e-07  t[s]:     79.17
	Linear fluid (dielectric constant: 64) occupying 0.992773 of unit cell:	Completed after 0 iterations at t[s]:     79.50
	Linear fluid (dielectric constant: 64) occupying 0.992773 of unit cell:	Completed after 0 iterations at t[s]:     80.22
SCF: Cycle: 27   Etot: -157.231419322343072   dEtot: -8.251e-08   |Residual|: 6.505e-05   |deigs|: 2.413e-06  t[s]:     80.42
	Linear fluid (dielectric constant: 64) occupying 0.992773 of unit cell:	Completed after 0 iterations at t[s]:     80.75
	Linear fluid (dielectric constant: 64) occupying 0.992773 of unit cell:	Completed after 0 iterations at t[s]:     81.47
SCF: Cycle: 28   Etot: -157.231419363969223   dEtot: -4.163e-08   |Residual|: 5.143e-05   |deigs|: 1.000e-06  t[s]:     81.68
	Linear fluid (dielectric constant: 64) occupying 0.992773 of unit cell:	Completed after 0 iterations at t[s]:     82.01
	Linear fluid (dielectric constant: 64) occupying 0.992773 of unit cell:	Completed after 0 iterations at t[s]:     82.72
SCF: Cycle: 29   Etot: -157.231419390625888   dEtot: -2.666e-08   |Residual|: 5.323e-05   |deigs|: 1.159e-06  t[s]:     82.92
	Linear fluid (dielectric constant: 64) occupying 0.992773 of unit cell:	Completed after 0 iterations at t[s]:     83.25
	Linear fluid (dielectric constant: 64) occupying 0.992773 of unit cell:	Completed after 0 iterations at t[s]:     83.97
SCF: Cycle: 30   Etot: -157.231419426288994   dEtot: -3.566e-08   |Residual|: 6.640e-05   |deigs|: 2.049e-06  t[s]:     84.16
	Linear fluid (dielectric constant: 64) occupying 0.992773 of unit cell:	Completed after 0 iterations at t[s]:     84.50
	Linear fluid (dielectric constant: 64) occupying 0.992773 of unit cell:	Completed after 0 iterations at t[s]:     85.21
SCF: Cycle: 31   Etot: -157.231419445218961   dEtot: -1.893e-08   |Residual|: 5.323e-05   |deigs|: 5.222e-07  t[s]:     85.40
	Linear fluid (dielectric constant: 64) occupying 0.992773 of unit cell:	Completed after 0 iterations at t[s]:     85.74
	Linear fluid (dielectric constant: 64) occupying 0.992773 of unit cell:	Completed after 0 iterations at t[s]:     86.46
SCF: Cycle: 32   Etot: -157.231419441657323   dEtot: +3.562e-09   |Residual|: 4.986e-05   |deigs|: 3.892e-07  t[s]:     86.65
	Linear fluid (dielectric constant: 64) occupying 0.992773 of unit cell:	Completed after 0 iterations at t[s]:     86.98
	Linear fluid (dielectric constant: 64) occupying 0.992773 of unit cell:	Completed after 0 iterations at t[s]:     87.71
SCF: Cycle: 33   Etot: -157.231419443189708   dEtot: -1.532e-09   |Residual|: 5.600e-05   |deigs|: 1.770e-07  t[s]:     87.90
	Linear fluid (dielectric constant: 64) occupying 0.992773 of unit cell:	Completed after 0 iterations at t[s]:     88.23
	Linear fluid (dielectric constant: 64) occupying 0.992773 of unit cell:	Completed after 0 iterations at t[s]:     89.00
SCF: Cycle: 34   Etot: -157.231419458247899   dEtot: -1.506e-08   |Residual|: 4.885e-05   |deigs|: 1.144e-06  t[s]:     89.21
	Linear fluid (dielectric constant: 64) occupying 0.992773 of unit cell:	Completed after 0 iterations at t[s]:     89.54
	Linear fluid (dielectric constant: 64) occupying 0.992773 of unit cell:	Completed after 0 iterations at t[s]:     90.26
SCF: Cycle: 35   Etot: -157.231419446983125   dEtot: +1.126e-08   |Residual|: 5.495e-05   |deigs|: 1.111e-06  t[s]:     90.46
	Linear fluid (dielectric constant: 64) occupying 0.992773 of unit cell:	Completed after 0 iterations at t[s]:     90.79
	Linear fluid (dielectric constant: 64) occupying 0.992773 of unit cell:	Completed after 0 iterations at t[s]:     91.50
SCF: Cycle: 36   Etot: -157.231419449344031   dEtot: -2.361e-09   |Residual|: 4.872e-05   |deigs|: 2.096e-07  t[s]:     91.69
	Linear fluid (dielectric constant: 64) occupying 0.992773 of unit cell:	Completed after 0 iterations at t[s]:     92.02
	Linear fluid (dielectric constant: 64) occupying 0.992773 of unit cell:	Completed after 0 iterations at t[s]:     92.75
SCF: Cycle: 37   Etot: -157.231419454946263   dEtot: -5.602e-09   |Residual|: 4.210e-05   |deigs|: 4.001e-07  t[s]:     92.94
SCF: Converged (|Delta E|<1.000000e-08 for 2 iters).

Setting wave functions to eigenvectors of Hamiltonian
Single-point solvation energy estimate, DeltaEtot = -0.132778357074358

# Ionic positions in cartesian coordinates:
ion S   3.921331479750000  11.849557634189999  23.127532414739999 1
ion S   7.567480476899996  11.351192369400000  23.945456691719997 1
ion S   8.668781105760003   7.743174344189998  23.234262475409999 1
ion S   6.502139520210000   7.687128731849999  29.705151530609999 1
ion S   7.556913106740001  11.318358310649998  29.045040495659997 1
ion S  11.194673592419999  11.852526400019999  29.882693553839999 1
ion Na   3.832890226020000   7.182347833710000  25.239470096249999 1
ion Na  11.349661688099999   7.228066071600000  27.689512600169998 1

# Forces in Cartesian coordinates:
force S  -0.002739000537523   0.011981200606758  -0.004936425587479 1
force S   0.007086349394349  -0.006404231644544  -0.001677910378709 1
force S  -0.000665768697511   0.010501243574913  -0.005805616308090 1
force S   0.000501646693753   0.010406180214493   0.005901353537458 1
force S  -0.006812933924225  -0.006544863037985   0.001616276029459 1
force S   0.002398534767392   0.012006129085815   0.005076267312347 1
force Na  -0.016739747063916  -0.016244552898119  -0.000525893122495 1
force Na   0.016844889885179  -0.015908668250231   0.000395139784439 1

# Energy components:
   A_diel =       -0.1866565032901887
   Eewald =      146.4436344602262920
       EH =      275.0632688603120073
     Eloc =     -456.2246287895757177
      Enl =     -133.3719609928097327
      Exc =      -39.6400966204646821
 Exc_core =       10.6063786150841732
       KE =       40.0786415155715829
-------------------------------------
     Etot =     -157.2314194549462627

IonicMinimize: Iter:   0  Etot: -157.231419454946263  |grad|_K:  8.912e-03  alpha:  1.000e+00

#--- Lowdin population analysis ---
# oxidation-state S -0.486 +0.363 -0.449 -0.449 +0.363 -0.486
# oxidation-state Na +0.823 +0.823


-------- Electronic minimization -----------
Will mix electronic density at each iteration.
	Linear fluid (dielectric constant: 64) occupying 0.992772 of unit cell:	Completed after 17 iterations at t[s]:     94.44
	Linear fluid (dielectric constant: 64) occupying 0.992738 of unit cell:	Completed after 19 iterations at t[s]:     96.60
SCF: Cycle:  0   Etot: -157.231557812634577   dEtot: -2.032e-02   |Residual|: 6.600e-02   |deigs|: 8.988e-04  t[s]:     96.87
	Linear fluid (dielectric constant: 64) occupying 0.992786 of unit cell:	Completed after 19 iterations at t[s]:     98.48
	Linear fluid (dielectric constant: 64) occupying 0.992742 of unit cell:	Completed after 18 iterations at t[s]:    100.54
SCF: Cycle:  1   Etot: -157.232513593662446   dEtot: -9.558e-04   |Residual|: 3.302e-02   |deigs|: 7.383e-04  t[s]:    100.81
	Linear fluid (dielectric constant: 64) occupying 0.992786 of unit cell:	Completed after 17 iterations at t[s]:    102.28
	Linear fluid (dielectric constant: 64) occupying 0.992757 of unit cell:	Completed after 16 iterations at t[s]:    104.16
SCF: Cycle:  2   Etot: -157.233124326967300   dEtot: -6.107e-04   |Residual|: 6.777e-03   |deigs|: 1.950e-03  t[s]:    104.43
	Linear fluid (dielectric constant: 64) occupying 0.992773 of unit cell:	Completed after 14 iterations at t[s]:    105.72
	Linear fluid (dielectric constant: 64) occupying 0.992759 of unit cell:	Completed after 14 iterations at t[s]:    107.38
SCF: Cycle:  3   Etot: -157.233169320655207   dEtot: -4.499e-05   |Residual|: 4.006e-03   |deigs|: 9.456e-04  t[s]:    107.66
	Linear fluid (dielectric constant: 64) occupying 0.992754 of unit cell:	Completed after 6 iterations at t[s]:    108.36
	Linear fluid (dielectric constant: 64) occupying 0.992761 of unit cell:	Completed after 6 iterations at t[s]:    109.57
SCF: Cycle:  4   Etot: -157.233211406073536   dEtot: -4.209e-05   |Residual|: 1.874e-03   |deigs|: 1.203e-03  t[s]:    109.84
	Linear fluid (dielectric constant: 64) occupying 0.992753 of unit cell:	Completed after 6 iterations at t[s]:    110.52
	Linear fluid (dielectric constant: 64) occupying 0.992761 of unit cell:	Completed after 6 iterations at t[s]:    111.67
SCF: Cycle:  5   Etot: -157.233220659571543   dEtot: -9.253e-06   |Residual|: 1.164e-03   |deigs|: 1.160e-04  t[s]:    111.90
	Linear fluid (dielectric constant: 64) occupying 0.992748 of unit cell:	Completed after 7 iterations at t[s]:    112.68
	Linear fluid (dielectric constant: 64) occupying 0.992761 of unit cell:	Completed after 4 iterations at t[s]:    113.78
SCF: Cycle:  6   Etot: -157.233230421113944   dEtot: -9.762e-06   |Residual|: 7.490e-04   |deigs|: 1.239e-04  t[s]:    113.97
	Linear fluid (dielectric constant: 64) occupying 0.992748 of unit cell:	Completed after 4 iterations at t[s]:    114.58
	Linear fluid (dielectric constant: 64) occupying 0.992761 of unit cell:	Completed after 4 iterations at t[s]:    115.59
SCF: Cycle:  7   Etot: -157.233233853194122   dEtot: -3.432e-06   |Residual|: 6.327e-04   |deigs|: 4.563e-05  t[s]:    115.80
	Linear fluid (dielectric constant: 64) occupying 0.992750 of unit cell:	Completed after 3 iterations at t[s]:    116.39
	Linear fluid (dielectric constant: 64) occupying 0.992762 of unit cell:	Completed after 3 iterations at t[s]:    117.37
SCF: Cycle:  8   Etot: -157.233235646284413   dEtot: -1.793e-06   |Residual|: 5.164e-04   |deigs|: 1.270e-04  t[s]:    117.57
	Linear fluid (dielectric constant: 64) occupying 0.992755 of unit cell:	Completed after 1 iterations at t[s]:    118.07
	Linear fluid (dielectric constant: 64) occupying 0.992762 of unit cell:	Completed after 3 iterations at t[s]:    119.06
SCF: Cycle:  9   Etot: -157.233237271988827   dEtot: -1.626e-06   |Residual|: 4.985e-04   |deigs|: 6.666e-05  t[s]:    119.26
	Linear fluid (dielectric constant: 64) occupying 0.992759 of unit cell:	Completed after 3 iterations at t[s]:    119.84
	Linear fluid (dielectric constant: 64) occupying 0.992762 of unit cell:	Completed after 1 iterations at t[s]:    120.72
SCF: Cycle: 10   Etot: -157.233237790318015   dEtot: -5.183e-07   |Residual|: 5.157e-04   |deigs|: 2.735e-04  t[s]:    120.92
	Linear fluid (dielectric constant: 64) occupying 0.992761 of unit cell:	Completed after 0 iterations at t[s]:    121.34
	Linear fluid (dielectric constant: 64) occupying 0.992762 of unit cell:	Completed after 0 iterations at t[s]:    122.10
SCF: Cycle: 11   Etot: -157.233237999884324   dEtot: -2.096e-07   |Residual|: 2.598e-04   |deigs|: 1.062e-05  t[s]:    122.32
	Linear fluid (dielectric constant: 64) occupying 0.992761 of unit cell:	Completed after 0 iterations at t[s]:    122.67
	Linear fluid (dielectric constant: 64) occupying 0.992762 of unit cell:	Completed after 0 iterations at t[s]:    123.45
SCF: Cycle: 12   Etot: -157.233238622435351   dEtot: -6.226e-07   |Residual|: 2.223e-04   |deigs|: 3.643e-05  t[s]:    123.64
	Linear fluid (dielectric constant: 64) occupying 0.992761 of unit cell:	Completed after 2 iterations at t[s]:    124.08
	Linear fluid (dielectric constant: 64) occupying 0.992762 of unit cell:	Completed after 0 iterations at t[s]:    124.83
SCF: Cycle: 13   Etot: -157.233238566306227   dEtot: +5.613e-08   |Residual|: 3.712e-04   |deigs|: 1.310e-04  t[s]:    125.03
	Linear fluid (dielectric constant: 64) occupying 0.992762 of unit cell:	Completed after 0 iterations at t[s]:    125.37
	Linear fluid (dielectric constant: 64) occupying 0.992762 of unit cell:	Completed after 0 iterations at t[s]:    126.09
SCF: Cycle: 14   Etot: -157.233238702949734   dEtot: -1.366e-07   |Residual|: 3.520e-04   |deigs|: 1.369e-06  t[s]:    126.29
	Linear fluid (dielectric constant: 64) occupying 0.992762 of unit cell:	Completed after 0 iterations at t[s]:    126.62
	Linear fluid (dielectric constant: 64) occupying 0.992762 of unit cell:	Completed after 0 iterations at t[s]:    127.37
SCF: Cycle: 15   Etot: -157.233238612065946   dEtot: +9.088e-08   |Residual|: 3.111e-04   |deigs|: 2.136e-06  t[s]:    127.56
	Linear fluid (dielectric constant: 64) occupying 0.992763 of unit cell:	Completed after 0 iterations at t[s]:    127.93
	Linear fluid (dielectric constant: 64) occupying 0.992763 of unit cell:	Completed after 0 iterations at t[s]:    128.65
SCF: Cycle: 16   Etot: -157.233238693927547   dEtot: -8.186e-08   |Residual|: 9.627e-05   |deigs|: 3.216e-05  t[s]:    128.85
	Linear fluid (dielectric constant: 64) occupying 0.992763 of unit cell:	Completed after 0 iterations at t[s]:    129.22
	Linear fluid (dielectric constant: 64) occupying 0.992763 of unit cell:	Completed after 0 iterations at t[s]:    129.94
SCF: Cycle: 17   Etot: -157.233238619009455   dEtot: +7.492e-08   |Residual|: 1.717e-04   |deigs|: 3.898e-05  t[s]:    130.14
	Linear fluid (dielectric constant: 64) occupying 0.992763 of unit cell:	Completed after 0 iterations at t[s]:    130.48
	Linear fluid (dielectric constant: 64) occupying 0.992763 of unit cell:	Completed after 0 iterations at t[s]:    131.20
SCF: Cycle: 18   Etot: -157.233238657725451   dEtot: -3.872e-08   |Residual|: 2.049e-04   |deigs|: 8.048e-07  t[s]:    131.40
	Linear fluid (dielectric constant: 64) occupying 0.992763 of unit cell:	Completed after 0 iterations at t[s]:    131.73
	Linear fluid (dielectric constant: 64) occupying 0.992763 of unit cell:	Completed after 0 iterations at t[s]:    132.46
SCF: Cycle: 19   Etot: -157.233238693497128   dEtot: -3.577e-08   |Residual|: 1.154e-04   |deigs|: 1.547e-06  t[s]:    132.65
	Linear fluid (dielectric constant: 64) occupying 0.992763 of unit cell:	Completed after 0 iterations at t[s]:    133.02
	Linear fluid (dielectric constant: 64) occupying 0.992763 of unit cell:	Completed after 0 iterations at t[s]:    133.82
SCF: Cycle: 20   Etot: -157.233238612249920   dEtot: +8.125e-08   |Residual|: 5.196e-05   |deigs|: 1.696e-05  t[s]:    134.02
	Linear fluid (dielectric constant: 64) occupying 0.992763 of unit cell:	Completed after 0 iterations at t[s]:    134.36
	Linear fluid (dielectric constant: 64) occupying 0.992763 of unit cell:	Completed after 0 iterations at t[s]:    135.08
SCF: Cycle: 21   Etot: -157.233238616698031   dEtot: -4.448e-09   |Residual|: 5.331e-05   |deigs|: 7.614e-07  t[s]:    135.28
	Linear fluid (dielectric constant: 64) occupying 0.992763 of unit cell:	Completed after 0 iterations at t[s]:    135.62
	Linear fluid (dielectric constant: 64) occupying 0.992763 of unit cell:	Completed after 0 iterations at t[s]:    136.42
SCF: Cycle: 22   Etot: -157.233238636828389   dEtot: -2.013e-08   |Residual|: 3.681e-05   |deigs|: 2.542e-06  t[s]:    136.61
	Linear fluid (dielectric constant: 64) occupying 0.992763 of unit cell:	Completed after 0 iterations at t[s]:    136.98
	Linear fluid (dielectric constant: 64) occupying 0.992763 of unit cell:	Completed after 0 iterations at t[s]:    137.71
SCF: Cycle: 23   Etot: -157.233238534830519   dEtot: +1.020e-07   |Residual|: 7.032e-05   |deigs|: 3.702e-05  t[s]:    137.92
	Linear fluid (dielectric constant: 64) occupying 0.992763 of unit cell:	Completed after 0 iterations at t[s]:    138.25
	Linear fluid (dielectric constant: 64) occupying 0.992763 of unit cell:	Completed after 0 iterations at t[s]:    138.99
SCF: Cycle: 24   Etot: -157.233238561351186   dEtot: -2.652e-08   |Residual|: 5.226e-05   |deigs|: 8.549e-07  t[s]:    139.18
	Linear fluid (dielectric constant: 64) occupying 0.992763 of unit cell:	Completed after 0 iterations at t[s]:    139.52
	Linear fluid (dielectric constant: 64) occupying 0.992763 of unit cell:	Completed after 0 iterations at t[s]:    140.32
SCF: Cycle: 25   Etot: -157.233238602956249   dEtot: -4.161e-08   |Residual|: 2.810e-05   |deigs|: 1.943e-06  t[s]:    140.51
	Linear fluid (dielectric constant: 64) occupying 0.992763 of unit cell:	Completed after 0 iterations at t[s]:    140.89
	Linear fluid (dielectric constant: 64) occupying 0.992763 of unit cell:	Completed after 0 iterations at t[s]:    141.63
SCF: Cycle: 26   Etot: -157.233238536187457   dEtot: +6.677e-08   |Residual|: 3.113e-05   |deigs|: 1.786e-05  t[s]:    141.83
	Linear fluid (dielectric constant: 64) occupying 0.992762 of unit cell:	Completed after 0 iterations at t[s]:    142.16
	Linear fluid (dielectric constant: 64) occupying 0.992763 of unit cell:	Completed after 0 iterations at t[s]:    142.89
SCF: Cycle: 27   Etot: -157.233238553081264   dEtot: -1.689e-08   |Residual|: 1.988e-05   |deigs|: 1.416e-06  t[s]:    143.08
	Linear fluid (dielectric constant: 64) occupying 0.992762 of unit cell:	Completed after 0 iterations at t[s]:    143.41
	Linear fluid (dielectric constant: 64) occupying 0.992763 of unit cell:	Completed after 0 iterations at t[s]:    144.22
SCF: Cycle: 28   Etot: -157.233238582792666   dEtot: -2.971e-08   |Residual|: 2.958e-05   |deigs|: 2.119e-06  t[s]:    144.41
	Linear fluid (dielectric constant: 64) occupying 0.992762 of unit cell:	Completed after 0 iterations at t[s]:    144.74
	Linear fluid (dielectric constant: 64) occupying 0.992762 of unit cell:	Completed after 0 iterations at t[s]:    145.46
SCF: Cycle: 29   Etot: -157.233238590215706   dEtot: -7.423e-09   |Residual|: 2.492e-05   |deigs|: 4.877e-07  t[s]:    145.66
	Linear fluid (dielectric constant: 64) occupying 0.992762 of unit cell:	Completed after 0 iterations at t[s]:    145.99
	Linear fluid (dielectric constant: 64) occupying 0.992763 of unit cell:	Completed after 0 iterations at t[s]:    146.72
SCF: Cycle: 30   Etot: -157.233238593812388   dEtot: -3.597e-09   |Residual|: 2.012e-05   |deigs|: 3.407e-07  t[s]:    146.91
SCF: Converged (|Delta E|<1.000000e-08 for 2 iters).

Setting wave functions to eigenvectors of Hamiltonian
IonicMinimize: 	Predicted alpha/alphaT>3.000000, increasing alphaT to 3.000000e+00.

-------- Electronic minimization -----------
Will mix electronic density at each iteration.
	Linear fluid (dielectric constant: 64) occupying 0.992761 of unit cell:	Completed after 20 iterations at t[s]:    148.25
	Linear fluid (dielectric constant: 64) occupying 0.992696 of unit cell:	Completed after 22 iterations at t[s]:    150.63
SCF: Cycle:  0   Etot: -157.229536433931401   dEtot: -8.141e-02   |Residual|: 1.338e-01   |deigs|: 3.612e-03  t[s]:    150.91
	Linear fluid (dielectric constant: 64) occupying 0.992788 of unit cell:	Completed after 22 iterations at t[s]:    152.75
	Linear fluid (dielectric constant: 64) occupying 0.992703 of unit cell:	Completed after 21 iterations at t[s]:    155.02
SCF: Cycle:  1   Etot: -157.233439154582811   dEtot: -3.903e-03   |Residual|: 6.624e-02   |deigs|: 2.771e-03  t[s]:    155.30
	Linear fluid (dielectric constant: 64) occupying 0.992787 of unit cell:	Completed after 21 iterations at t[s]:    157.04
	Linear fluid (dielectric constant: 64) occupying 0.992731 of unit cell:	Completed after 19 iterations at t[s]:    159.14
SCF: Cycle:  2   Etot: -157.235891954813667   dEtot: -2.453e-03   |Residual|: 1.380e-02   |deigs|: 3.297e-03  t[s]:    159.41
	Linear fluid (dielectric constant: 64) occupying 0.992762 of unit cell:	Completed after 17 iterations at t[s]:    160.88
	Linear fluid (dielectric constant: 64) occupying 0.992734 of unit cell:	Completed after 17 iterations at t[s]:    162.86
SCF: Cycle:  3   Etot: -157.236095666705324   dEtot: -2.037e-04   |Residual|: 8.094e-03   |deigs|: 2.341e-03  t[s]:    163.14
	Linear fluid (dielectric constant: 64) occupying 0.992726 of unit cell:	Completed after 12 iterations at t[s]:    166.86
	Linear fluid (dielectric constant: 64) occupying 0.992738 of unit cell:	Completed after 13 iterations at t[s]:    168.36
SCF: Cycle:  4   Etot: -157.236250169056746   dEtot: -1.545e-04   |Residual|: 3.470e-03   |deigs|: 2.397e-03  t[s]:    168.65
	Linear fluid (dielectric constant: 64) occupying 0.992722 of unit cell:	Completed after 10 iterations at t[s]:    171.02
	Linear fluid (dielectric constant: 64) occupying 0.992739 of unit cell:	Completed after 9 iterations at t[s]:    172.20
SCF: Cycle:  5   Etot: -157.236291297286442   dEtot: -4.113e-05   |Residual|: 2.147e-03   |deigs|: 1.221e-04  t[s]:    172.40
	Linear fluid (dielectric constant: 64) occupying 0.992709 of unit cell:	Completed after 10 iterations at t[s]:    173.37
	Linear fluid (dielectric constant: 64) occupying 0.992739 of unit cell:	Completed after 9 iterations at t[s]:    174.84
SCF: Cycle:  6   Etot: -157.236330101613277   dEtot: -3.880e-05   |Residual|: 1.464e-03   |deigs|: 3.747e-04  t[s]:    175.04
	Linear fluid (dielectric constant: 64) occupying 0.992711 of unit cell:	Completed after 8 iterations at t[s]:    175.88
	Linear fluid (dielectric constant: 64) occupying 0.992740 of unit cell:	Completed after 8 iterations at t[s]:    177.15
SCF: Cycle:  7   Etot: -157.236336958769812   dEtot: -6.857e-06   |Residual|: 1.220e-03   |deigs|: 8.262e-05  t[s]:    177.42
	Linear fluid (dielectric constant: 64) occupying 0.992722 of unit cell:	Completed after 6 iterations at t[s]:    178.11
	Linear fluid (dielectric constant: 64) occupying 0.992741 of unit cell:	Completed after 4 iterations at t[s]:    179.22
SCF: Cycle:  8   Etot: -157.236344471394062   dEtot: -7.513e-06   |Residual|: 9.970e-04   |deigs|: 4.163e-04  t[s]:    179.42
	Linear fluid (dielectric constant: 64) occupying 0.992729 of unit cell:	Completed after 3 iterations at t[s]:    180.00
	Linear fluid (dielectric constant: 64) occupying 0.992741 of unit cell:	Completed after 3 iterations at t[s]:    180.96
SCF: Cycle:  9   Etot: -157.236347667759503   dEtot: -3.196e-06   |Residual|: 7.849e-04   |deigs|: 1.642e-04  t[s]:    181.16
	Linear fluid (dielectric constant: 64) occupying 0.992738 of unit cell:	Completed after 4 iterations at t[s]:    181.78
	Linear fluid (dielectric constant: 64) occupying 0.992741 of unit cell:	Completed after 3 iterations at t[s]:    182.76
SCF: Cycle: 10   Etot: -157.236347936847039   dEtot: -2.691e-07   |Residual|: 7.316e-04   |deigs|: 6.335e-05  t[s]:    182.95
	Linear fluid (dielectric constant: 64) occupying 0.992739 of unit cell:	Completed after 1 iterations at t[s]:    183.46
	Linear fluid (dielectric constant: 64) occupying 0.992741 of unit cell:	Completed after 0 iterations at t[s]:    184.34
SCF: Cycle: 11   Etot: -157.236349175676821   dEtot: -1.239e-06   |Residual|: 4.258e-04   |deigs|: 6.711e-05  t[s]:    184.53
	Linear fluid (dielectric constant: 64) occupying 0.992740 of unit cell:	Completed after 0 iterations at t[s]:    184.99
	Linear fluid (dielectric constant: 64) occupying 0.992742 of unit cell:	Completed after 0 iterations at t[s]:    185.75
SCF: Cycle: 12   Etot: -157.236349820010958   dEtot: -6.443e-07   |Residual|: 3.062e-04   |deigs|: 4.007e-05  t[s]:    185.95
	Linear fluid (dielectric constant: 64) occupying 0.992740 of unit cell:	Completed after 3 iterations at t[s]:    186.46
	Linear fluid (dielectric constant: 64) occupying 0.992741 of unit cell:	Completed after 0 iterations at t[s]:    187.24
SCF: Cycle: 13   Etot: -157.236350191779451   dEtot: -3.718e-07   |Residual|: 4.634e-04   |deigs|: 1.710e-04  t[s]:    187.44
	Linear fluid (dielectric constant: 64) occupying 0.992740 of unit cell:	Completed after 0 iterations at t[s]:    187.77
	Linear fluid (dielectric constant: 64) occupying 0.992741 of unit cell:	Completed after 0 iterations at t[s]:    188.48
SCF: Cycle: 14   Etot: -157.236350537523265   dEtot: -3.457e-07   |Residual|: 4.393e-04   |deigs|: 2.469e-06  t[s]:    188.68
	Linear fluid (dielectric constant: 64) occupying 0.992742 of unit cell:	Completed after 0 iterations at t[s]:    189.00
	Linear fluid (dielectric constant: 64) occupying 0.992742 of unit cell:	Completed after 2 iterations at t[s]:    189.83
SCF: Cycle: 15   Etot: -157.236349892760302   dEtot: +6.448e-07   |Residual|: 2.958e-04   |deigs|: 3.632e-06  t[s]:    190.03
	Linear fluid (dielectric constant: 64) occupying 0.992742 of unit cell:	Completed after 0 iterations at t[s]:    190.44
	Linear fluid (dielectric constant: 64) occupying 0.992742 of unit cell:	Completed after 0 iterations at t[s]:    191.15
SCF: Cycle: 16   Etot: -157.236350368775106   dEtot: -4.760e-07   |Residual|: 6.033e-04   |deigs|: 1.372e-04  t[s]:    191.34
	Linear fluid (dielectric constant: 64) occupying 0.992742 of unit cell:	Completed after 0 iterations at t[s]:    191.68
	Linear fluid (dielectric constant: 64) occupying 0.992742 of unit cell:	Completed after 0 iterations at t[s]:    192.40
SCF: Cycle: 17   Etot: -157.236350470890329   dEtot: -1.021e-07   |Residual|: 5.557e-04   |deigs|: 1.200e-06  t[s]:    192.59
	Linear fluid (dielectric constant: 64) occupying 0.992742 of unit cell:	Completed after 0 iterations at t[s]:    192.92
	Linear fluid (dielectric constant: 64) occupying 0.992742 of unit cell:	Completed after 0 iterations at t[s]:    193.65
SCF: Cycle: 18   Etot: -157.236350535833992   dEtot: -6.494e-08   |Residual|: 4.819e-04   |deigs|: 1.258e-06  t[s]:    193.85
	Linear fluid (dielectric constant: 64) occupying 0.992742 of unit cell:	Completed after 0 iterations at t[s]:    194.18
	Linear fluid (dielectric constant: 64) occupying 0.992742 of unit cell:	Completed after 0 iterations at t[s]:    194.90
SCF: Cycle: 19   Etot: -157.236350609808397   dEtot: -7.397e-08   |Residual|: 3.857e-04   |deigs|: 1.735e-06  t[s]:    195.10
	Linear fluid (dielectric constant: 64) occupying 0.992741 of unit cell:	Completed after 4 iterations at t[s]:    195.61
	Linear fluid (dielectric constant: 64) occupying 0.992741 of unit cell:	Completed after 4 iterations at t[s]:    196.68
SCF: Cycle: 20   Etot: -157.236347744558941   dEtot: +2.865e-06   |Residual|: 1.787e-03   |deigs|: 4.278e-04  t[s]:    196.87
	Linear fluid (dielectric constant: 64) occupying 0.992741 of unit cell:	Completed after 3 iterations at t[s]:    197.45
	Linear fluid (dielectric constant: 64) occupying 0.992741 of unit cell:	Completed after 4 iterations at t[s]:    198.44
SCF: Cycle: 21   Etot: -157.236348453129949   dEtot: -7.086e-07   |Residual|: 1.535e-03   |deigs|: 7.650e-05  t[s]:    198.63
	Linear fluid (dielectric constant: 64) occupying 0.992742 of unit cell:	Completed after 3 iterations at t[s]:    199.20
	Linear fluid (dielectric constant: 64) occupying 0.992741 of unit cell:	Completed after 3 iterations at t[s]:    200.16
SCF: Cycle: 22   Etot: -157.236348932266196   dEtot: -4.791e-07   |Residual|: 1.485e-03   |deigs|: 1.256e-05  t[s]:    200.37
	Linear fluid (dielectric constant: 64) occupying 0.992742 of unit cell:	Completed after 3 iterations at t[s]:    200.93
	Linear fluid (dielectric constant: 64) occupying 0.992741 of unit cell:	Completed after 3 iterations at t[s]:    201.87
SCF: Cycle: 23   Etot: -157.236348988215582   dEtot: -5.595e-08   |Residual|: 1.364e-03   |deigs|: 1.252e-05  t[s]:    202.07
	Linear fluid (dielectric constant: 64) occupying 0.992742 of unit cell:	Completed after 3 iterations at t[s]:    202.64
	Linear fluid (dielectric constant: 64) occupying 0.992741 of unit cell:	Completed after 3 iterations at t[s]:    203.57
SCF: Cycle: 24   Etot: -157.236349219440569   dEtot: -2.312e-07   |Residual|: 1.338e-03   |deigs|: 1.064e-05  t[s]:    203.76
	Linear fluid (dielectric constant: 64) occupying 0.992742 of unit cell:	Completed after 3 iterations at t[s]:    204.34
	Linear fluid (dielectric constant: 64) occupying 0.992741 of unit cell:	Completed after 3 iterations at t[s]:    205.27
SCF: Cycle: 25   Etot: -157.236349317828228   dEtot: -9.839e-08   |Residual|: 1.282e-03   |deigs|: 1.015e-05  t[s]:    205.47
	Linear fluid (dielectric constant: 64) occupying 0.992742 of unit cell:	Completed after 3 iterations at t[s]:    206.04
	Linear fluid (dielectric constant: 64) occupying 0.992741 of unit cell:	Completed after 3 iterations at t[s]:    206.97
SCF: Cycle: 26   Etot: -157.236349360356343   dEtot: -4.253e-08   |Residual|: 1.308e-03   |deigs|: 3.600e-06  t[s]:    207.16
	Linear fluid (dielectric constant: 64) occupying 0.992742 of unit cell:	Completed after 3 iterations at t[s]:    207.74
	Linear fluid (dielectric constant: 64) occupying 0.992741 of unit cell:	Completed after 3 iterations at t[s]:    208.67
SCF: Cycle: 27   Etot: -157.236349520769238   dEtot: -1.604e-07   |Residual|: 1.038e-03   |deigs|: 4.962e-05  t[s]:    208.86
	Linear fluid (dielectric constant: 64) occupying 0.992742 of unit cell:	Completed after 2 iterations at t[s]:    209.41
	Linear fluid (dielectric constant: 64) occupying 0.992742 of unit cell:	Completed after 1 iterations at t[s]:    210.23
SCF: Cycle: 28   Etot: -157.236350211168997   dEtot: -6.904e-07   |Residual|: 8.549e-04   |deigs|: 4.613e-05  t[s]:    210.43
	Linear fluid (dielectric constant: 64) occupying 0.992743 of unit cell:	Completed after 0 iterations at t[s]:    210.82
	Linear fluid (dielectric constant: 64) occupying 0.992742 of unit cell:	Completed after 0 iterations at t[s]:    211.58
SCF: Cycle: 29   Etot: -157.236350390947280   dEtot: -1.798e-07   |Residual|: 4.308e-04   |deigs|: 8.489e-05  t[s]:    211.77
	Linear fluid (dielectric constant: 64) occupying 0.992743 of unit cell:	Completed after 0 iterations at t[s]:    212.13
	Linear fluid (dielectric constant: 64) occupying 0.992742 of unit cell:	Completed after 0 iterations at t[s]:    212.85
SCF: Cycle: 30   Etot: -157.236350545752828   dEtot: -1.548e-07   |Residual|: 2.175e-04   |deigs|: 3.953e-05  t[s]:    213.04
	Linear fluid (dielectric constant: 64) occupying 0.992742 of unit cell:	Completed after 0 iterations at t[s]:    213.38
	Linear fluid (dielectric constant: 64) occupying 0.992742 of unit cell:	Completed after 0 iterations at t[s]:    214.10
SCF: Cycle: 31   Etot: -157.236350630967934   dEtot: -8.522e-08   |Residual|: 1.209e-04   |deigs|: 3.273e-06  t[s]:    214.30
	Linear fluid (dielectric constant: 64) occupying 0.992742 of unit cell:	Completed after 2 iterations at t[s]:    214.74
	Linear fluid (dielectric constant: 64) occupying 0.992742 of unit cell:	Completed after 3 iterations at t[s]:    215.71
SCF: Cycle: 32   Etot: -157.236349562965415   dEtot: +1.068e-06   |Residual|: 1.608e-03   |deigs|: 3.945e-04  t[s]:    215.90
	Linear fluid (dielectric constant: 64) occupying 0.992742 of unit cell:	Completed after 2 iterations at t[s]:    216.44
	Linear fluid (dielectric constant: 64) occupying 0.992742 of unit cell:	Completed after 1 iterations at t[s]:    217.27
SCF: Cycle: 33   Etot: -157.236350314379592   dEtot: -7.514e-07   |Residual|: 1.111e-03   |deigs|: 1.171e-04  t[s]:    217.47
	Linear fluid (dielectric constant: 64) occupying 0.992742 of unit cell:	Completed after 0 iterations at t[s]:    217.89
	Linear fluid (dielectric constant: 64) occupying 0.992742 of unit cell:	Completed after 0 iterations at t[s]:    218.61
SCF: Cycle: 34   Etot: -157.236350310392055   dEtot: +3.988e-09   |Residual|: 9.096e-04   |deigs|: 6.907e-05  t[s]:    218.82
	Linear fluid (dielectric constant: 64) occupying 0.992742 of unit cell:	Completed after 0 iterations at t[s]:    219.15
	Linear fluid (dielectric constant: 64) occupying 0.992742 of unit cell:	Completed after 0 iterations at t[s]:    219.93
SCF: Cycle: 35   Etot: -157.236350379902404   dEtot: -6.951e-08   |Residual|: 9.323e-04   |deigs|: 1.779e-06  t[s]:    220.13
	Linear fluid (dielectric constant: 64) occupying 0.992742 of unit cell:	Completed after 0 iterations at t[s]:    220.46
	Linear fluid (dielectric constant: 64) occupying 0.992742 of unit cell:	Completed after 0 iterations at t[s]:    221.22
SCF: Cycle: 36   Etot: -157.236350348602087   dEtot: +3.130e-08   |Residual|: 9.495e-04   |deigs|: 1.798e-06  t[s]:    221.41
	Linear fluid (dielectric constant: 64) occupying 0.992742 of unit cell:	Completed after 0 iterations at t[s]:    221.77
	Linear fluid (dielectric constant: 64) occupying 0.992742 of unit cell:	Completed after 0 iterations at t[s]:    222.56
SCF: Cycle: 37   Etot: -157.236350426756189   dEtot: -7.815e-08   |Residual|: 8.537e-04   |deigs|: 3.002e-05  t[s]:    222.76
	Linear fluid (dielectric constant: 64) occupying 0.992742 of unit cell:	Completed after 0 iterations at t[s]:    223.09
	Linear fluid (dielectric constant: 64) occupying 0.992742 of unit cell:	Completed after 0 iterations at t[s]:    223.94
SCF: Cycle: 38   Etot: -157.236350495753584   dEtot: -6.900e-08   |Residual|: 6.865e-04   |deigs|: 2.581e-06  t[s]:    224.14
	Linear fluid (dielectric constant: 64) occupying 0.992741 of unit cell:	Completed after 0 iterations at t[s]:    224.50
	Linear fluid (dielectric constant: 64) occupying 0.992742 of unit cell:	Completed after 0 iterations at t[s]:    225.24
SCF: Cycle: 39   Etot: -157.236350480232375   dEtot: +1.552e-08   |Residual|: 3.786e-04   |deigs|: 4.121e-05  t[s]:    225.43
	Linear fluid (dielectric constant: 64) occupying 0.992741 of unit cell:	Completed after 0 iterations at t[s]:    225.80
	Linear fluid (dielectric constant: 64) occupying 0.992742 of unit cell:	Completed after 0 iterations at t[s]:    226.58
SCF: Cycle: 40   Etot: -157.236350528419905   dEtot: -4.819e-08   |Residual|: 2.218e-04   |deigs|: 1.680e-05  t[s]:    226.77
	Linear fluid (dielectric constant: 64) occupying 0.992742 of unit cell:	Completed after 0 iterations at t[s]:    227.11
	Linear fluid (dielectric constant: 64) occupying 0.992742 of unit cell:	Completed after 0 iterations at t[s]:    227.83
SCF: Cycle: 41   Etot: -157.236350570589366   dEtot: -4.217e-08   |Residual|: 1.665e-04   |deigs|: 2.000e-06  t[s]:    228.02
	Linear fluid (dielectric constant: 64) occupying 0.992741 of unit cell:	Completed after 0 iterations at t[s]:    228.35
	Linear fluid (dielectric constant: 64) occupying 0.992741 of unit cell:	Completed after 0 iterations at t[s]:    229.08
SCF: Cycle: 42   Etot: -157.236350666736200   dEtot: -9.615e-08   |Residual|: 8.370e-05   |deigs|: 2.121e-06  t[s]:    229.28
	Linear fluid (dielectric constant: 64) occupying 0.992741 of unit cell:	Completed after 2 iterations at t[s]:    229.72
	Linear fluid (dielectric constant: 64) occupying 0.992742 of unit cell:	Completed after 0 iterations at t[s]:    230.58
SCF: Cycle: 43   Etot: -157.236350624807244   dEtot: +4.193e-08   |Residual|: 9.187e-04   |deigs|: 2.727e-04  t[s]:    230.77
	Linear fluid (dielectric constant: 64) occupying 0.992741 of unit cell:	Completed after 0 iterations at t[s]:    231.17
	Linear fluid (dielectric constant: 64) occupying 0.992742 of unit cell:	Completed after 0 iterations at t[s]:    231.94
SCF: Cycle: 44   Etot: -157.236350467453690   dEtot: +1.574e-07   |Residual|: 7.751e-04   |deigs|: 3.936e-05  t[s]:    232.14
	Linear fluid (dielectric constant: 64) occupying 0.992741 of unit cell:	Completed after 0 iterations at t[s]:    232.49
	Linear fluid (dielectric constant: 64) occupying 0.992742 of unit cell:	Completed after 0 iterations at t[s]:    233.21
SCF: Cycle: 45   Etot: -157.236350380321767   dEtot: +8.713e-08   |Residual|: 6.846e-04   |deigs|: 3.814e-05  t[s]:    233.41
	Linear fluid (dielectric constant: 64) occupying 0.992741 of unit cell:	Completed after 0 iterations at t[s]:    233.78
	Linear fluid (dielectric constant: 64) occupying 0.992742 of unit cell:	Completed after 0 iterations at t[s]:    234.50
SCF: Cycle: 46   Etot: -157.236350475445704   dEtot: -9.512e-08   |Residual|: 8.393e-04   |deigs|: 3.227e-05  t[s]:    234.69
	Linear fluid (dielectric constant: 64) occupying 0.992741 of unit cell:	Completed after 0 iterations at t[s]:    235.02
	Linear fluid (dielectric constant: 64) occupying 0.992742 of unit cell:	Completed after 0 iterations at t[s]:    235.85
SCF: Cycle: 47   Etot: -157.236350675276981   dEtot: -1.998e-07   |Residual|: 7.474e-04   |deigs|: 3.915e-06  t[s]:    236.05
	Linear fluid (dielectric constant: 64) occupying 0.992742 of unit cell:	Completed after 0 iterations at t[s]:    236.40
	Linear fluid (dielectric constant: 64) occupying 0.992742 of unit cell:	Completed after 0 iterations at t[s]:    237.12
SCF: Cycle: 48   Etot: -157.236350689674595   dEtot: -1.440e-08   |Residual|: 6.403e-04   |deigs|: 5.610e-05  t[s]:    237.32
	Linear fluid (dielectric constant: 64) occupying 0.992742 of unit cell:	Completed after 0 iterations at t[s]:    237.65
	Linear fluid (dielectric constant: 64) occupying 0.992742 of unit cell:	Completed after 0 iterations at t[s]:    238.38
SCF: Cycle: 49   Etot: -157.236350741395796   dEtot: -5.172e-08   |Residual|: 6.243e-04   |deigs|: 6.314e-07  t[s]:    238.57
	Linear fluid (dielectric constant: 64) occupying 0.992742 of unit cell:	Completed after 0 iterations at t[s]:    238.90
Setting wave functions to eigenvectors of Hamiltonian
IonicMinimize: 	Wrong curvature in test step, increasing alphaT to 9.000000e+00.

-------- Electronic minimization -----------
Will mix electronic density at each iteration.
	Linear fluid (dielectric constant: 64) occupying 0.992742 of unit cell:	Completed after 0 iterations at t[s]:    239.60
	Linear fluid (dielectric constant: 64) occupying 0.992742 of unit cell:	Completed after 2 iterations at t[s]:    240.46
SCF: Cycle:  0   Etot: -157.236349920202514   dEtot: +8.212e-07   |Residual|: 2.225e-04   |deigs|: 3.550e-09  t[s]:    240.65
	Linear fluid (dielectric constant: 64) occupying 0.992742 of unit cell:	Completed after 0 iterations at t[s]:    241.07
	Linear fluid (dielectric constant: 64) occupying 0.992742 of unit cell:	Completed after 0 iterations at t[s]:    241.84
SCF: Cycle:  1   Etot: -157.236350627971206   dEtot: -7.078e-07   |Residual|: 7.471e-04   |deigs|: 2.557e-04  t[s]:    242.03
	Linear fluid (dielectric constant: 64) occupying 0.992742 of unit cell:	Completed after 0 iterations at t[s]:    242.39
	Linear fluid (dielectric constant: 64) occupying 0.992742 of unit cell:	Completed after 0 iterations at t[s]:    243.10
SCF: Cycle:  2   Etot: -157.236350585444086   dEtot: +4.253e-08   |Residual|: 5.808e-04   |deigs|: 5.655e-05  t[s]:    243.29
	Linear fluid (dielectric constant: 64) occupying 0.992742 of unit cell:	Completed after 0 iterations at t[s]:    243.62
	Linear fluid (dielectric constant: 64) occupying 0.992742 of unit cell:	Completed after 0 iterations at t[s]:    244.33
SCF: Cycle:  3   Etot: -157.236350592067026   dEtot: -6.623e-09   |Residual|: 6.290e-04   |deigs|: 6.463e-07  t[s]:    244.53
	Linear fluid (dielectric constant: 64) occupying 0.992742 of unit cell:	Completed after 0 iterations at t[s]:    244.85
	Linear fluid (dielectric constant: 64) occupying 0.992742 of unit cell:	Completed after 0 iterations at t[s]:    245.57
SCF: Cycle:  4   Etot: -157.236350597863208   dEtot: -5.796e-09   |Residual|: 5.968e-04   |deigs|: 6.753e-07  t[s]:    245.77
SCF: Converged (|Delta E|<1.000000e-08 for 2 iters).

Setting wave functions to eigenvectors of Hamiltonian

# Ionic positions in cartesian coordinates:
ion S   3.913161739193370  11.885579071891110  23.112706941252469 1
ion S   7.588786786138981  11.332057510347207  23.940406763858775 1
ion S   8.666831060723407   7.774755910795574  23.216829429760633 1
ion S   6.503691721347196   7.718425108374315  29.722839394497274 1
ion S   7.536521566023263  11.298801557416880  29.049873127023275 1
ion S  11.201916457778113  11.888622623158282  29.897906159051942 1
ion Na   3.782718245884189   7.133692010896481  25.237876220157418 1
ion Na  11.400243618811476   7.180417902730143  27.690681822798219 1

# Forces in Cartesian coordinates:
force S   0.002082707590232   0.009607807482424  -0.003311410253187 1
force S   0.000496163228560   0.001559821254053  -0.001186736268311 1
force S   0.000689165077543   0.003524981195008  -0.006197396758202 1
force S  -0.000757110013590   0.003397988757001   0.006200605007269 1
force S  -0.000499602005068   0.001513213559638   0.001212756425675 1
force S  -0.002225463542841   0.009594446104958   0.003455380257788 1
force Na  -0.015400776478203  -0.014295226143965  -0.000821178971385 1
force Na   0.015643202651362  -0.014251418676192   0.000757032439777 1

# Energy components:
   A_diel =       -0.1948172290661624
   Eewald =      145.1090513548666081
       EH =      273.7184799651472531
     Eloc =     -453.5431872903730550
      Enl =     -133.3681492000948765
      Exc =      -39.6375261569329496
 Exc_core =       10.6063788349844366
       KE =       40.0734191236054968
-------------------------------------
     Etot =     -157.2363505978632077

IonicMinimize: Iter:   1  Etot: -157.236350597863208  |grad|_K:  7.121e-03  alpha: -1.149e+00  linmin: -8.989e-01  t[s]:    246.15

#--- Lowdin population analysis ---
# oxidation-state S -0.509 +0.363 -0.429 -0.429 +0.363 -0.509
# oxidation-state Na +0.828 +0.828


-------- Electronic minimization -----------
Will mix electronic density at each iteration.
	Linear fluid (dielectric constant: 64) occupying 0.992741 of unit cell:	Completed after 17 iterations at t[s]:    247.26
	Linear fluid (dielectric constant: 64) occupying 0.992685 of unit cell:	Completed after 21 iterations at t[s]:    249.53
SCF: Cycle:  0   Etot: -157.234759092943307   dEtot: -4.735e-02   |Residual|: 1.000e-01   |deigs|: 2.150e-03  t[s]:    249.80
	Linear fluid (dielectric constant: 64) occupying 0.992764 of unit cell:	Completed after 21 iterations at t[s]:    251.58
	Linear fluid (dielectric constant: 64) occupying 0.992693 of unit cell:	Completed after 20 iterations at t[s]:    253.77
SCF: Cycle:  1   Etot: -157.236752422412451   dEtot: -1.993e-03   |Residual|: 4.966e-02   |deigs|: 1.747e-03  t[s]:    254.04
	Linear fluid (dielectric constant: 64) occupying 0.992764 of unit cell:	Completed after 19 iterations at t[s]:    255.68
	Linear fluid (dielectric constant: 64) occupying 0.992716 of unit cell:	Completed after 18 iterations at t[s]:    257.72
SCF: Cycle:  2   Etot: -157.238110712292610   dEtot: -1.358e-03   |Residual|: 9.787e-03   |deigs|: 2.839e-03  t[s]:    258.01
	Linear fluid (dielectric constant: 64) occupying 0.992742 of unit cell:	Completed after 16 iterations at t[s]:    259.38
	Linear fluid (dielectric constant: 64) occupying 0.992719 of unit cell:	Completed after 16 iterations at t[s]:    261.27
SCF: Cycle:  3   Etot: -157.238219186777258   dEtot: -1.085e-04   |Residual|: 5.764e-03   |deigs|: 1.791e-03  t[s]:    261.55
	Linear fluid (dielectric constant: 64) occupying 0.992710 of unit cell:	Completed after 10 iterations at t[s]:    262.50
	Linear fluid (dielectric constant: 64) occupying 0.992722 of unit cell:	Completed after 10 iterations at t[s]:    263.98
SCF: Cycle:  4   Etot: -157.238310832511615   dEtot: -9.165e-05   |Residual|: 2.483e-03   |deigs|: 1.817e-03  t[s]:    264.26
	Linear fluid (dielectric constant: 64) occupying 0.992707 of unit cell:	Completed after 6 iterations at t[s]:    264.95
	Linear fluid (dielectric constant: 64) occupying 0.992723 of unit cell:	Completed after 6 iterations at t[s]:    266.11
SCF: Cycle:  5   Etot: -157.238338216731819   dEtot: -2.738e-05   |Residual|: 1.548e-03   |deigs|: 2.269e-04  t[s]:    266.35
	Linear fluid (dielectric constant: 64) occupying 0.992699 of unit cell:	Completed after 9 iterations at t[s]:    267.25
	Linear fluid (dielectric constant: 64) occupying 0.992723 of unit cell:	Completed after 7 iterations at t[s]:    268.44
SCF: Cycle:  6   Etot: -157.238357548336381   dEtot: -1.933e-05   |Residual|: 1.083e-03   |deigs|: 2.776e-04  t[s]:    268.71
	Linear fluid (dielectric constant: 64) occupying 0.992701 of unit cell:	Completed after 7 iterations at t[s]:    269.49
	Linear fluid (dielectric constant: 64) occupying 0.992724 of unit cell:	Completed after 8 iterations at t[s]:    270.75
SCF: Cycle:  7   Etot: -157.238365144898751   dEtot: -7.597e-06   |Residual|: 8.835e-04   |deigs|: 1.483e-04  t[s]:    271.03
	Linear fluid (dielectric constant: 64) occupying 0.992711 of unit cell:	Completed after 3 iterations at t[s]:    271.61
	Linear fluid (dielectric constant: 64) occupying 0.992724 of unit cell:	Completed after 3 iterations at t[s]:    272.58
SCF: Cycle:  8   Etot: -157.238369064317908   dEtot: -3.919e-06   |Residual|: 5.753e-04   |deigs|: 3.164e-04  t[s]:    272.78
	Linear fluid (dielectric constant: 64) occupying 0.992717 of unit cell:	Completed after 0 iterations at t[s]:    273.24
	Linear fluid (dielectric constant: 64) occupying 0.992725 of unit cell:	Completed after 3 iterations at t[s]:    274.21
SCF: Cycle:  9   Etot: -157.238369738175152   dEtot: -6.739e-07   |Residual|: 5.471e-04   |deigs|: 5.596e-05  t[s]:    274.40
	Linear fluid (dielectric constant: 64) occupying 0.992721 of unit cell:	Completed after 4 iterations at t[s]:    275.01
	Linear fluid (dielectric constant: 64) occupying 0.992724 of unit cell:	Completed after 3 iterations at t[s]:    275.99
SCF: Cycle: 10   Etot: -157.238370398140546   dEtot: -6.600e-07   |Residual|: 8.935e-04   |deigs|: 3.168e-04  t[s]:    276.18
	Linear fluid (dielectric constant: 64) occupying 0.992722 of unit cell:	Completed after 0 iterations at t[s]:    276.65
	Linear fluid (dielectric constant: 64) occupying 0.992725 of unit cell:	Completed after 0 iterations at t[s]:    277.44
SCF: Cycle: 11   Etot: -157.238370547417787   dEtot: -1.493e-07   |Residual|: 3.332e-04   |deigs|: 1.408e-04  t[s]:    277.65
	Linear fluid (dielectric constant: 64) occupying 0.992723 of unit cell:	Completed after 0 iterations at t[s]:    278.00
	Linear fluid (dielectric constant: 64) occupying 0.992725 of unit cell:	Completed after 0 iterations at t[s]:    278.79
SCF: Cycle: 12   Etot: -157.238371402840414   dEtot: -8.554e-07   |Residual|: 1.943e-04   |deigs|: 4.842e-05  t[s]:    278.98
	Linear fluid (dielectric constant: 64) occupying 0.992724 of unit cell:	Completed after 0 iterations at t[s]:    279.35
	Linear fluid (dielectric constant: 64) occupying 0.992725 of unit cell:	Completed after 0 iterations at t[s]:    280.06
SCF: Cycle: 13   Etot: -157.238371672034759   dEtot: -2.692e-07   |Residual|: 2.520e-04   |deigs|: 4.414e-05  t[s]:    280.26
	Linear fluid (dielectric constant: 64) occupying 0.992724 of unit cell:	Completed after 0 iterations at t[s]:    280.59
	Linear fluid (dielectric constant: 64) occupying 0.992725 of unit cell:	Completed after 2 iterations at t[s]:    281.42
SCF: Cycle: 14   Etot: -157.238370861226315   dEtot: +8.108e-07   |Residual|: 2.055e-04   |deigs|: 3.970e-06  t[s]:    281.61
	Linear fluid (dielectric constant: 64) occupying 0.992724 of unit cell:	Completed after 0 iterations at t[s]:    282.03
	Linear fluid (dielectric constant: 64) occupying 0.992725 of unit cell:	Completed after 0 iterations at t[s]:    282.75
SCF: Cycle: 15   Etot: -157.238371459566679   dEtot: -5.983e-07   |Residual|: 4.985e-04   |deigs|: 1.407e-04  t[s]:    282.94
	Linear fluid (dielectric constant: 64) occupying 0.992725 of unit cell:	Completed after 0 iterations at t[s]:    283.27
	Linear fluid (dielectric constant: 64) occupying 0.992725 of unit cell:	Completed after 1 iterations at t[s]:    284.07
SCF: Cycle: 16   Etot: -157.238371215650290   dEtot: +2.439e-07   |Residual|: 4.789e-04   |deigs|: 1.519e-06  t[s]:    284.27
	Linear fluid (dielectric constant: 64) occupying 0.992725 of unit cell:	Completed after 0 iterations at t[s]:    284.70
	Linear fluid (dielectric constant: 64) occupying 0.992725 of unit cell:	Completed after 0 iterations at t[s]:    285.46
SCF: Cycle: 17   Etot: -157.238371315270882   dEtot: -9.962e-08   |Residual|: 2.808e-04   |deigs|: 3.191e-05  t[s]:    285.66
	Linear fluid (dielectric constant: 64) occupying 0.992725 of unit cell:	Completed after 0 iterations at t[s]:    286.02
	Linear fluid (dielectric constant: 64) occupying 0.992725 of unit cell:	Completed after 0 iterations at t[s]:    286.74
SCF: Cycle: 18   Etot: -157.238371548338989   dEtot: -2.331e-07   |Residual|: 2.295e-04   |deigs|: 2.724e-05  t[s]:    286.93
	Linear fluid (dielectric constant: 64) occupying 0.992726 of unit cell:	Completed after 0 iterations at t[s]:    287.30
	Linear fluid (dielectric constant: 64) occupying 0.992726 of unit cell:	Completed after 0 iterations at t[s]:    288.11
SCF: Cycle: 19   Etot: -157.238371758640483   dEtot: -2.103e-07   |Residual|: 8.849e-05   |deigs|: 5.570e-05  t[s]:    288.31
	Linear fluid (dielectric constant: 64) occupying 0.992726 of unit cell:	Completed after 2 iterations at t[s]:    288.75
	Linear fluid (dielectric constant: 64) occupying 0.992726 of unit cell:	Completed after 1 iterations at t[s]:    289.64
SCF: Cycle: 20   Etot: -157.238371493424609   dEtot: +2.652e-07   |Residual|: 7.911e-04   |deigs|: 2.117e-04  t[s]:    289.83
	Linear fluid (dielectric constant: 64) occupying 0.992726 of unit cell:	Completed after 0 iterations at t[s]:    290.26
	Linear fluid (dielectric constant: 64) occupying 0.992725 of unit cell:	Completed after 0 iterations at t[s]:    290.98
SCF: Cycle: 21   Etot: -157.238371404740946   dEtot: +8.868e-08   |Residual|: 3.891e-04   |deigs|: 8.983e-05  t[s]:    291.17
	Linear fluid (dielectric constant: 64) occupying 0.992725 of unit cell:	Completed after 0 iterations at t[s]:    291.50
	Linear fluid (dielectric constant: 64) occupying 0.992725 of unit cell:	Completed after 0 iterations at t[s]:    292.23
SCF: Cycle: 22   Etot: -157.238371383144795   dEtot: +2.160e-08   |Residual|: 4.200e-04   |deigs|: 1.275e-06  t[s]:    292.43
	Linear fluid (dielectric constant: 64) occupying 0.992725 of unit cell:	Completed after 0 iterations at t[s]:    292.76
	Linear fluid (dielectric constant: 64) occupying 0.992725 of unit cell:	Completed after 0 iterations at t[s]:    293.56
SCF: Cycle: 23   Etot: -157.238371513098514   dEtot: -1.300e-07   |Residual|: 4.598e-04   |deigs|: 3.236e-06  t[s]:    293.77
	Linear fluid (dielectric constant: 64) occupying 0.992725 of unit cell:	Completed after 0 iterations at t[s]:    294.10
	Linear fluid (dielectric constant: 64) occupying 0.992725 of unit cell:	Completed after 0 iterations at t[s]:    294.83
SCF: Cycle: 24   Etot: -157.238371470419594   dEtot: +4.268e-08   |Residual|: 4.266e-04   |deigs|: 1.628e-06  t[s]:    295.03
	Linear fluid (dielectric constant: 64) occupying 0.992725 of unit cell:	Completed after 0 iterations at t[s]:    295.36
	Linear fluid (dielectric constant: 64) occupying 0.992725 of unit cell:	Completed after 0 iterations at t[s]:    296.08
SCF: Cycle: 25   Etot: -157.238371471252606   dEtot: -8.330e-10   |Residual|: 4.432e-04   |deigs|: 2.126e-07  t[s]:    296.28
	Linear fluid (dielectric constant: 64) occupying 0.992725 of unit cell:	Completed after 0 iterations at t[s]:    296.61
	Linear fluid (dielectric constant: 64) occupying 0.992725 of unit cell:	Completed after 0 iterations at t[s]:    297.40
SCF: Cycle: 26   Etot: -157.238371561298607   dEtot: -9.005e-08   |Residual|: 4.457e-04   |deigs|: 1.835e-06  t[s]:    297.59
	Linear fluid (dielectric constant: 64) occupying 0.992725 of unit cell:	Completed after 0 iterations at t[s]:    297.93
	Linear fluid (dielectric constant: 64) occupying 0.992725 of unit cell:	Completed after 0 iterations at t[s]:    298.69
SCF: Cycle: 27   Etot: -157.238371522761156   dEtot: +3.854e-08   |Residual|: 4.443e-04   |deigs|: 9.064e-07  t[s]:    298.89
	Linear fluid (dielectric constant: 64) occupying 0.992725 of unit cell:	Completed after 0 iterations at t[s]:    299.25
	Linear fluid (dielectric constant: 64) occupying 0.992725 of unit cell:	Completed after 0 iterations at t[s]:    299.97
SCF: Cycle: 28   Etot: -157.238371533489897   dEtot: -1.073e-08   |Residual|: 3.667e-04   |deigs|: 2.307e-05  t[s]:    300.17
	Linear fluid (dielectric constant: 64) occupying 0.992725 of unit cell:	Completed after 0 iterations at t[s]:    300.50
	Linear fluid (dielectric constant: 64) occupying 0.992725 of unit cell:	Completed after 0 iterations at t[s]:    301.30
SCF: Cycle: 29   Etot: -157.238371530299958   dEtot: +3.190e-09   |Residual|: 2.956e-04   |deigs|: 2.270e-06  t[s]:    301.49
	Linear fluid (dielectric constant: 64) occupying 0.992725 of unit cell:	Completed after 0 iterations at t[s]:    301.83
	Linear fluid (dielectric constant: 64) occupying 0.992725 of unit cell:	Completed after 0 iterations at t[s]:    302.62
SCF: Cycle: 30   Etot: -157.238371760671043   dEtot: -2.304e-07   |Residual|: 1.301e-04   |deigs|: 3.556e-06  t[s]:    302.81
	Linear fluid (dielectric constant: 64) occupying 0.992725 of unit cell:	Completed after 0 iterations at t[s]:    303.14
	Linear fluid (dielectric constant: 64) occupying 0.992725 of unit cell:	Completed after 2 iterations at t[s]:    303.99
SCF: Cycle: 31   Etot: -157.238371208541992   dEtot: +5.521e-07   |Residual|: 1.519e-04   |deigs|: 4.487e-06  t[s]:    304.19
	Linear fluid (dielectric constant: 64) occupying 0.992725 of unit cell:	Completed after 0 iterations at t[s]:    304.60
	Linear fluid (dielectric constant: 64) occupying 0.992725 of unit cell:	Completed after 0 iterations at t[s]:    305.34
SCF: Cycle: 32   Etot: -157.238371701411552   dEtot: -4.929e-07   |Residual|: 5.872e-04   |deigs|: 1.896e-04  t[s]:    305.54
	Linear fluid (dielectric constant: 64) occupying 0.992725 of unit cell:	Completed after 0 iterations at t[s]:    305.87
	Linear fluid (dielectric constant: 64) occupying 0.992725 of unit cell:	Completed after 0 iterations at t[s]:    306.59
SCF: Cycle: 33   Etot: -157.238371741688354   dEtot: -4.028e-08   |Residual|: 5.276e-04   |deigs|: 1.904e-06  t[s]:    306.78
	Linear fluid (dielectric constant: 64) occupying 0.992725 of unit cell:	Completed after 0 iterations at t[s]:    307.12
	Linear fluid (dielectric constant: 64) occupying 0.992725 of unit cell:	Completed after 0 iterations at t[s]:    307.87
[...]
ion S   7.653542200085344  11.363279138066781  23.889040809423896 1
ion S   8.688084276088215   7.972284388505336  22.931385078717373 1
ion S   6.479011403859162   7.910429845318015  30.007597657772838 1
ion S   7.473540042820635  11.327374895537169  29.100790877102050 1
ion S  11.127613700556626  12.341657593861001  30.066276273226940 1
ion Na   3.054032800856215   6.453501914950561  25.200473632901151 1
ion Na  12.138189478584183   6.504741237434322  27.723819799879166 1

# Forces in Cartesian coordinates:
force S   0.011938285241416  -0.003019086420157   0.002317663865569 1
force S  -0.011867401620395   0.025043258561597   0.004060656180660 1
force S   0.002303626458363  -0.016738774542416  -0.006888588888360 1
force S  -0.002004155503652  -0.016884511882242   0.006718623688344 1
force S   0.011226242662097   0.025288323390832  -0.003736737834959 1
force S  -0.011664482057061  -0.003178089820169  -0.002399741632253 1
force Na  -0.006680589714945  -0.005285602990682  -0.001016495855005 1
force Na   0.006804342938552  -0.005116848184605   0.001025942500862 1

# Energy components:
   A_diel =       -0.2841748982455475
   Eewald =      126.6745855508979304
       EH =      255.7493023639270291
     Eloc =     -416.9841165487773083
      Enl =     -133.4183858249318746
      Exc =      -39.5961614582868364
 Exc_core =       10.6063799606382130
       KE =       39.9842380524226471
-------------------------------------
     Etot =     -157.2683328023557294

IonicMinimize: Iter:   4  Etot: -157.268332802355729  |grad|_K:  1.058e-02  alpha: -1.415e+00  linmin: -3.224e-01  t[s]:    845.36

#--- Lowdin population analysis ---
# oxidation-state S -0.581 +0.344 -0.399 -0.399 +0.344 -0.581
# oxidation-state Na +0.895 +0.895


-------- Electronic minimization -----------
Will mix electronic density at each iteration.
	Linear fluid (dielectric constant: 64) occupying 0.992309 of unit cell:	Completed after 24 iterations at t[s]:    846.94
	Linear fluid (dielectric constant: 64) occupying 0.992215 of unit cell:	Completed after 23 iterations at t[s]:    849.40
SCF: Cycle:  0   Etot: -157.246551547010881   dEtot: -3.633e-01   |Residual|: 2.889e-01   |deigs|: 1.636e-02  t[s]:    849.67
	Linear fluid (dielectric constant: 64) occupying 0.992341 of unit cell:	Completed after 25 iterations at t[s]:    851.71
	Linear fluid (dielectric constant: 64) occupying 0.992213 of unit cell:	Completed after 23 iterations at t[s]:    854.13
SCF: Cycle:  1   Etot: -157.260893130317640   dEtot: -1.434e-02   |Residual|: 1.376e-01   |deigs|: 1.383e-02  t[s]:    854.41
	Linear fluid (dielectric constant: 64) occupying 0.992317 of unit cell:	Completed after 30 iterations at t[s]:    856.79
	Linear fluid (dielectric constant: 64) occupying 0.992242 of unit cell:	Completed after 22 iterations at t[s]:    859.13
SCF: Cycle:  2   Etot: -157.269404283674419   dEtot: -8.511e-03   |Residual|: 3.163e-02   |deigs|: 2.834e-03  t[s]:    859.38
	Linear fluid (dielectric constant: 64) occupying 0.992270 of unit cell:	Completed after 23 iterations at t[s]:    861.29
	Linear fluid (dielectric constant: 64) occupying 0.992252 of unit cell:	Completed after 21 iterations at t[s]:    863.53
SCF: Cycle:  3   Etot: -157.270639355888733   dEtot: -1.235e-03   |Residual|: 1.723e-02   |deigs|: 5.267e-03  t[s]:    863.81
	Linear fluid (dielectric constant: 64) occupying 0.992216 of unit cell:	Completed after 18 iterations at t[s]:    865.37
	Linear fluid (dielectric constant: 64) occupying 0.992260 of unit cell:	Completed after 18 iterations at t[s]:    867.41
SCF: Cycle:  4   Etot: -157.271514181909765   dEtot: -8.748e-04   |Residual|: 9.340e-03   |deigs|: 2.136e-03  t[s]:    867.68
	Linear fluid (dielectric constant: 64) occupying 0.992179 of unit cell:	Completed after 13 iterations at t[s]:    868.84
	Linear fluid (dielectric constant: 64) occupying 0.992262 of unit cell:	Completed after 13 iterations at t[s]:    870.54
SCF: Cycle:  5   Etot: -157.271967286023028   dEtot: -4.531e-04   |Residual|: 4.655e-03   |deigs|: 9.180e-04  t[s]:    870.82
	Linear fluid (dielectric constant: 64) occupying 0.992176 of unit cell:	Completed after 12 iterations at t[s]:    871.94
	Linear fluid (dielectric constant: 64) occupying 0.992264 of unit cell:	Completed after 12 iterations at t[s]:    873.55
SCF: Cycle:  6   Etot: -157.272039213248206   dEtot: -7.193e-05   |Residual|: 3.507e-03   |deigs|: 3.227e-04  t[s]:    873.85
	Linear fluid (dielectric constant: 64) occupying 0.992207 of unit cell:	Completed after 11 iterations at t[s]:    874.89
	Linear fluid (dielectric constant: 64) occupying 0.992269 of unit cell:	Completed after 11 iterations at t[s]:    876.39
SCF: Cycle:  7   Etot: -157.272064103623848   dEtot: -2.489e-05   |Residual|: 3.168e-03   |deigs|: 1.106e-03  t[s]:    876.67
	Linear fluid (dielectric constant: 64) occupying 0.992227 of unit cell:	Completed after 4 iterations at t[s]:    877.28
	Linear fluid (dielectric constant: 64) occupying 0.992271 of unit cell:	Completed after 5 iterations at t[s]:    878.33
SCF: Cycle:  8   Etot: -157.272078360998535   dEtot: -1.426e-05   |Residual|: 1.847e-03   |deigs|: 1.186e-04  t[s]:    878.56
	Linear fluid (dielectric constant: 64) occupying 0.992254 of unit cell:	Completed after 6 iterations at t[s]:    879.26
	Linear fluid (dielectric constant: 64) occupying 0.992273 of unit cell:	Completed after 6 iterations at t[s]:    880.41
SCF: Cycle:  9   Etot: -157.272075946493203   dEtot: +2.415e-06   |Residual|: 2.393e-03   |deigs|: 4.034e-04  t[s]:    880.64
	Linear fluid (dielectric constant: 64) occupying 0.992265 of unit cell:	Completed after 4 iterations at t[s]:    881.26
	Linear fluid (dielectric constant: 64) occupying 0.992273 of unit cell:	Completed after 4 iterations at t[s]:    882.29
SCF: Cycle: 10   Etot: -157.272083834957726   dEtot: -7.888e-06   |Residual|: 1.257e-03   |deigs|: 5.169e-04  t[s]:    882.49
	Linear fluid (dielectric constant: 64) occupying 0.992270 of unit cell:	Completed after 3 iterations at t[s]:    883.06
	Linear fluid (dielectric constant: 64) occupying 0.992275 of unit cell:	Completed after 3 iterations at t[s]:    884.02
SCF: Cycle: 11   Etot: -157.272085269073898   dEtot: -1.434e-06   |Residual|: 1.075e-03   |deigs|: 1.628e-05  t[s]:    884.23
	Linear fluid (dielectric constant: 64) occupying 0.992272 of unit cell:	Completed after 2 iterations at t[s]:    884.76
	Linear fluid (dielectric constant: 64) occupying 0.992275 of unit cell:	Completed after 1 iterations at t[s]:    885.67
SCF: Cycle: 12   Etot: -157.272086511631528   dEtot: -1.243e-06   |Residual|: 4.784e-04   |deigs|: 1.504e-04  t[s]:    885.86
	Linear fluid (dielectric constant: 64) occupying 0.992274 of unit cell:	Completed after 0 iterations at t[s]:    886.33
	Linear fluid (dielectric constant: 64) occupying 0.992276 of unit cell:	Completed after 0 iterations at t[s]:    887.13
SCF: Cycle: 13   Etot: -157.272087127481086   dEtot: -6.158e-07   |Residual|: 3.258e-04   |deigs|: 4.184e-05  t[s]:    887.33
	Linear fluid (dielectric constant: 64) occupying 0.992274 of unit cell:	Completed after 2 iterations at t[s]:    887.80
	Linear fluid (dielectric constant: 64) occupying 0.992275 of unit cell:	Completed after 1 iterations at t[s]:    888.63
SCF: Cycle: 14   Etot: -157.272087690910666   dEtot: -5.634e-07   |Residual|: 4.490e-04   |deigs|: 6.799e-05  t[s]:    888.82
	Linear fluid (dielectric constant: 64) occupying 0.992276 of unit cell:	Completed after 1 iterations at t[s]:    889.28
	Linear fluid (dielectric constant: 64) occupying 0.992276 of unit cell:	Completed after 0 iterations at t[s]:    890.13
SCF: Cycle: 15   Etot: -157.272088129476344   dEtot: -4.386e-07   |Residual|: 2.993e-04   |deigs|: 1.626e-05  t[s]:    890.33
	Linear fluid (dielectric constant: 64) occupying 0.992276 of unit cell:	Completed after 3 iterations at t[s]:    890.83
	Linear fluid (dielectric constant: 64) occupying 0.992276 of unit cell:	Completed after 1 iterations at t[s]:    891.69
SCF: Cycle: 16   Etot: -157.272087820387554   dEtot: +3.091e-07   |Residual|: 6.574e-04   |deigs|: 1.431e-04  t[s]:    891.90
	Linear fluid (dielectric constant: 64) occupying 0.992276 of unit cell:	Completed after 0 iterations at t[s]:    892.28
	Linear fluid (dielectric constant: 64) occupying 0.992276 of unit cell:	Completed after 0 iterations at t[s]:    893.07
SCF: Cycle: 17   Etot: -157.272088307073773   dEtot: -4.867e-07   |Residual|: 3.212e-04   |deigs|: 3.057e-05  t[s]:    893.26
	Linear fluid (dielectric constant: 64) occupying 0.992275 of unit cell:	Completed after 0 iterations at t[s]:    893.59
	Linear fluid (dielectric constant: 64) occupying 0.992276 of unit cell:	Completed after 0 iterations at t[s]:    894.34
SCF: Cycle: 18   Etot: -157.272088274943883   dEtot: +3.213e-08   |Residual|: 2.787e-04   |deigs|: 2.048e-06  t[s]:    894.55
	Linear fluid (dielectric constant: 64) occupying 0.992274 of unit cell:	Completed after 2 iterations at t[s]:    895.01
	Linear fluid (dielectric constant: 64) occupying 0.992276 of unit cell:	Completed after 0 iterations at t[s]:    895.87
SCF: Cycle: 19   Etot: -157.272088145251757   dEtot: +1.297e-07   |Residual|: 5.459e-04   |deigs|: 1.560e-04  t[s]:    896.06
	Linear fluid (dielectric constant: 64) occupying 0.992274 of unit cell:	Completed after 0 iterations at t[s]:    896.43
	Linear fluid (dielectric constant: 64) occupying 0.992276 of unit cell:	Completed after 0 iterations at t[s]:    897.14
SCF: Cycle: 20   Etot: -157.272088209699234   dEtot: -6.445e-08   |Residual|: 4.274e-04   |deigs|: 2.209e-05  t[s]:    897.34
	Linear fluid (dielectric constant: 64) occupying 0.992275 of unit cell:	Completed after 0 iterations at t[s]:    897.71
	Linear fluid (dielectric constant: 64) occupying 0.992276 of unit cell:	Completed after 0 iterations at t[s]:    898.54
SCF: Cycle: 21   Etot: -157.272088302971042   dEtot: -9.327e-08   |Residual|: 1.526e-04   |deigs|: 7.810e-06  t[s]:    898.73
	Linear fluid (dielectric constant: 64) occupying 0.992275 of unit cell:	Completed after 0 iterations at t[s]:    899.09
	Linear fluid (dielectric constant: 64) occupying 0.992276 of unit cell:	Completed after 0 iterations at t[s]:    899.83
SCF: Cycle: 22   Etot: -157.272088330469671   dEtot: -2.750e-08   |Residual|: 9.639e-05   |deigs|: 1.426e-05  t[s]:    900.04
	Linear fluid (dielectric constant: 64) occupying 0.992276 of unit cell:	Completed after 0 iterations at t[s]:    900.38
	Linear fluid (dielectric constant: 64) occupying 0.992276 of unit cell:	Completed after 0 iterations at t[s]:    901.17
SCF: Cycle: 23   Etot: -157.272088481219441   dEtot: -1.507e-07   |Residual|: 8.479e-05   |deigs|: 3.560e-06  t[s]:    901.36
	Linear fluid (dielectric constant: 64) occupying 0.992276 of unit cell:	Completed after 0 iterations at t[s]:    901.69
	Linear fluid (dielectric constant: 64) occupying 0.992276 of unit cell:	Completed after 0 iterations at t[s]:    902.41
SCF: Cycle: 24   Etot: -157.272088546324568   dEtot: -6.511e-08   |Residual|: 1.265e-04   |deigs|: 3.143e-06  t[s]:    902.60
	Linear fluid (dielectric constant: 64) occupying 0.992276 of unit cell:	Completed after 2 iterations at t[s]:    903.05
	Linear fluid (dielectric constant: 64) occupying 0.992276 of unit cell:	Completed after 1 iterations at t[s]:    903.94
SCF: Cycle: 25   Etot: -157.272088310717180   dEtot: +2.356e-07   |Residual|: 7.446e-04   |deigs|: 1.819e-04  t[s]:    904.14
	Linear fluid (dielectric constant: 64) occupying 0.992276 of unit cell:	Completed after 0 iterations at t[s]:    904.56
	Linear fluid (dielectric constant: 64) occupying 0.992276 of unit cell:	Completed after 0 iterations at t[s]:    905.29
SCF: Cycle: 26   Etot: -157.272088285103791   dEtot: +2.561e-08   |Residual|: 5.824e-04   |deigs|: 4.566e-05  t[s]:    905.49
	Linear fluid (dielectric constant: 64) occupying 0.992276 of unit cell:	Completed after 0 iterations at t[s]:    905.82
	Linear fluid (dielectric constant: 64) occupying 0.992276 of unit cell:	Completed after 0 iterations at t[s]:    906.54
SCF: Cycle: 27   Etot: -157.272088303428575   dEtot: -1.832e-08   |Residual|: 5.496e-04   |deigs|: 5.817e-07  t[s]:    906.74
	Linear fluid (dielectric constant: 64) occupying 0.992276 of unit cell:	Completed after 0 iterations at t[s]:    907.07
	Linear fluid (dielectric constant: 64) occupying 0.992276 of unit cell:	Completed after 0 iterations at t[s]:    907.78
SCF: Cycle: 28   Etot: -157.272088313027808   dEtot: -9.599e-09   |Residual|: 5.179e-04   |deigs|: 4.434e-07  t[s]:    907.98
	Linear fluid (dielectric constant: 64) occupying 0.992276 of unit cell:	Completed after 0 iterations at t[s]:    908.31
	Linear fluid (dielectric constant: 64) occupying 0.992276 of unit cell:	Completed after 0 iterations at t[s]:    909.02
SCF: Cycle: 29   Etot: -157.272088307548756   dEtot: +5.479e-09   |Residual|: 5.326e-04   |deigs|: 2.295e-07  t[s]:    909.22
	Linear fluid (dielectric constant: 64) occupying 0.992276 of unit cell:	Completed after 0 iterations at t[s]:    909.55
	Linear fluid (dielectric constant: 64) occupying 0.992276 of unit cell:	Completed after 0 iterations at t[s]:    910.28
SCF: Cycle: 30   Etot: -157.272088314637500   dEtot: -7.089e-09   |Residual|: 5.281e-04   |deigs|: 1.043e-07  t[s]:    910.47
	Linear fluid (dielectric constant: 64) occupying 0.992276 of unit cell:	Completed after 0 iterations at t[s]:    910.80
	Linear fluid (dielectric constant: 64) occupying 0.992276 of unit cell:	Completed after 0 iterations at t[s]:    911.60
SCF: Cycle: 31   Etot: -157.272088392249145   dEtot: -7.761e-08   |Residual|: 4.780e-04   |deigs|: 7.188e-07  t[s]:    911.79
	Linear fluid (dielectric constant: 64) occupying 0.992276 of unit cell:	Completed after 0 iterations at t[s]:    912.12
	Linear fluid (dielectric constant: 64) occupying 0.992276 of unit cell:	Completed after 0 iterations at t[s]:    912.84
SCF: Cycle: 32   Etot: -157.272088346373010   dEtot: +4.588e-08   |Residual|: 5.037e-04   |deigs|: 4.967e-07  t[s]:    913.03
	Linear fluid (dielectric constant: 64) occupying 0.992276 of unit cell:	Completed after 0 iterations at t[s]:    913.37
	Linear fluid (dielectric constant: 64) occupying 0.992276 of unit cell:	Completed after 0 iterations at t[s]:    914.10
SCF: Cycle: 33   Etot: -157.272088416698608   dEtot: -7.033e-08   |Residual|: 4.742e-04   |deigs|: 8.259e-07  t[s]:    914.30
	Linear fluid (dielectric constant: 64) occupying 0.992276 of unit cell:	Completed after 0 iterations at t[s]:    914.63
	Linear fluid (dielectric constant: 64) occupying 0.992276 of unit cell:	Completed after 0 iterations at t[s]:    915.35
SCF: Cycle: 34   Etot: -157.272088337901749   dEtot: +7.880e-08   |Residual|: 5.355e-04   |deigs|: 1.268e-06  t[s]:    915.55
	Linear fluid (dielectric constant: 64) occupying 0.992276 of unit cell:	Completed after 0 iterations at t[s]:    915.91
	Linear fluid (dielectric constant: 64) occupying 0.992276 of unit cell:	Completed after 0 iterations at t[s]:    916.70
SCF: Cycle: 35   Etot: -157.272088446153475   dEtot: -1.083e-07   |Residual|: 2.191e-04   |deigs|: 2.622e-05  t[s]:    916.89
	Linear fluid (dielectric constant: 64) occupying 0.992276 of unit cell:	Completed after 0 iterations at t[s]:    917.23
	Linear fluid (dielectric constant: 64) occupying 0.992276 of unit cell:	Completed after 0 iterations at t[s]:    917.95
SCF: Cycle: 36   Etot: -157.272088495220487   dEtot: -4.907e-08   |Residual|: 2.719e-04   |deigs|: 3.543e-06  t[s]:    918.15
	Linear fluid (dielectric constant: 64) occupying 0.992276 of unit cell:	Completed after 0 iterations at t[s]:    918.49
	Linear fluid (dielectric constant: 64) occupying 0.992276 of unit cell:	Completed after 2 iterations at t[s]:    919.38
SCF: Cycle: 37   Etot: -157.272087691426520   dEtot: +8.038e-07   |Residual|: 1.645e-04   |deigs|: 2.018e-06  t[s]:    919.58
	Linear fluid (dielectric constant: 64) occupying 0.992276 of unit cell:	Completed after 0 iterations at t[s]:    919.99
	Linear fluid (dielectric constant: 64) occupying 0.992276 of unit cell:	Completed after 0 iterations at t[s]:    920.75
SCF: Cycle: 38   Etot: -157.272088486986149   dEtot: -7.956e-07   |Residual|: 6.841e-04   |deigs|: 2.058e-04  t[s]:    920.95
	Linear fluid (dielectric constant: 64) occupying 0.992276 of unit cell:	Completed after 0 iterations at t[s]:    921.31
	Linear fluid (dielectric constant: 64) occupying 0.992276 of unit cell:	Completed after 0 iterations at t[s]:    922.04
SCF: Cycle: 39   Etot: -157.272088728283109   dEtot: -2.413e-07   |Residual|: 3.444e-04   |deigs|: 5.251e-05  t[s]:    922.23
	Linear fluid (dielectric constant: 64) occupying 0.992276 of unit cell:	Completed after 0 iterations at t[s]:    922.57
	Linear fluid (dielectric constant: 64) occupying 0.992276 of unit cell:	Completed after 2 iterations at t[s]:    923.40
SCF: Cycle: 40   Etot: -157.272087917722843   dEtot: +8.106e-07   |Residual|: 2.965e-04   |deigs|: 6.517e-07  t[s]:    923.59
	Linear fluid (dielectric constant: 64) occupying 0.992276 of unit cell:	Completed after 0 iterations at t[s]:    924.01
	Linear fluid (dielectric constant: 64) occupying 0.992276 of unit cell:	Completed after 0 iterations at t[s]:    924.77
SCF: Cycle: 41   Etot: -157.272088421021778   dEtot: -5.033e-07   |Residual|: 3.794e-04   |deigs|: 1.740e-04  t[s]:    924.96
	Linear fluid (dielectric constant: 64) occupying 0.992276 of unit cell:	Completed after 0 iterations at t[s]:    925.32
	Linear fluid (dielectric constant: 64) occupying 0.992276 of unit cell:	Completed after 0 iterations at t[s]:    926.04
SCF: Cycle: 42   Etot: -157.272088452068687   dEtot: -3.105e-08   |Residual|: 2.263e-04   |deigs|: 3.137e-05  t[s]:    926.24
	Linear fluid (dielectric constant: 64) occupying 0.992276 of unit cell:	Completed after 0 iterations at t[s]:    926.57
	Linear fluid (dielectric constant: 64) occupying 0.992276 of unit cell:	Completed after 0 iterations at t[s]:    927.33
SCF: Cycle: 43   Etot: -157.272088370056167   dEtot: +8.201e-08   |Residual|: 2.353e-04   |deigs|: 2.931e-07  t[s]:    927.54
	Linear fluid (dielectric constant: 64) occupying 0.992276 of unit cell:	Completed after 0 iterations at t[s]:    927.89
	Linear fluid (dielectric constant: 64) occupying 0.992276 of unit cell:	Completed after 0 iterations at t[s]:    928.62
SCF: Cycle: 44   Etot: -157.272088394465243   dEtot: -2.441e-08   |Residual|: 2.360e-04   |deigs|: 1.731e-05  t[s]:    928.81
	Linear fluid (dielectric constant: 64) occupying 0.992276 of unit cell:	Completed after 0 iterations at t[s]:    929.15
	Linear fluid (dielectric constant: 64) occupying 0.992276 of unit cell:	Completed after 0 iterations at t[s]:    929.88
SCF: Cycle: 45   Etot: -157.272088387299476   dEtot: +7.166e-09   |Residual|: 2.465e-04   |deigs|: 5.979e-07  t[s]:    930.07
	Linear fluid (dielectric constant: 64) occupying 0.992276 of unit cell:	Completed after 0 iterations at t[s]:    930.40
	Linear fluid (dielectric constant: 64) occupying 0.992276 of unit cell:	Completed after 0 iterations at t[s]:    931.12
SCF: Cycle: 46   Etot: -157.272088388615970   dEtot: -1.316e-09   |Residual|: 2.598e-04   |deigs|: 5.077e-07  t[s]:    931.32
	Linear fluid (dielectric constant: 64) occupying 0.992276 of unit cell:	Completed after 0 iterations at t[s]:    931.65
	Linear fluid (dielectric constant: 64) occupying 0.992276 of unit cell:	Completed after 0 iterations at t[s]:    932.41
SCF: Cycle: 47   Etot: -157.272088395528783   dEtot: -6.913e-09   |Residual|: 2.626e-04   |deigs|: 3.291e-07  t[s]:    932.62
SCF: Converged (|Delta E|<1.000000e-08 for 2 iters).

Setting wave functions to eigenvectors of Hamiltonian
IonicMinimize: 	Predicted alpha/alphaT>3.000000, increasing alphaT to 2.071407e+00.
Atom 8 lies within the margin of 5 bohrs from the truncation boundary.
Expand unit cell, or if absolutely sure, reduce coulomb-truncation-ion-margin.
End date and time: Sat Dec 28 18:40:21 2024  (Duration: 0-0:15:32.74)
Failed.
