
*************** JDFTx 1.7.0  ***************

Start date and time: Fri Sep 20 01:58:35 2024
Executable jdftx with command-line: -i Na2S8-PC-vdw.in -o Na2S8-PC-vdw.out
Running on hosts (process indices):  DESKTOP-H9SOOLG (0)
Divided in process groups (process indices):  0 (0)
Resource initialization completed at t[s]:      0.00
Run totals: 1 processes, 4 threads, 0 GPUs


Input parsed successfully to the following command list (including defaults):

basis kpoint-dependent
coords-type Cartesian
core-overlap-check vector
coulomb-interaction Isolated
coulomb-truncation-embed 5.2244 10.9463 20.5025
davidson-band-ratio 1.1
dump End State
dump-name Na2S8-PC-vdw.$VAR
elec-cutoff 20 100
elec-eigen-algo Davidson
elec-ex-corr gga-PBE
electronic-minimize  \
	dirUpdateScheme      FletcherReeves \
	linminMethod         DirUpdateRecommended \
	nIterations          100 \
	history              15 \
	knormThreshold       0 \
	energyDiffThreshold  1e-08 \
	nEnergyDiff          2 \
	alphaTstart          1 \
	alphaTmin            1e-10 \
	updateTestStepSize   yes \
	alphaTreduceFactor   0.1 \
	alphaTincreaseFactor 3 \
	nAlphaAdjustMax      3 \
	wolfeEnergy          0.0001 \
	wolfeGradient        0.9 \
	fdTest               no
electronic-scf  \
	nIterations	50 \
	energyDiffThreshold	1e-08 \
	residualThreshold	1e-07 \
	mixFraction	0.5 \
	qMetric	0.8 \
	history	10 \
	nEigSteps	2 \
	eigDiffThreshold	1e-08 \
	mixedVariable	Density \
	qKerker	0.8 \
	qKappa	-1 \
	verbose	no \
	mixFractionMag	1.5
exchange-regularization None
fluid LinearPCM 298.000000 1.013250
fluid-ex-corr lda-TF lda-PZ
fluid-gummel-loop 10 1.000000e-05
fluid-minimize  \
	dirUpdateScheme      PolakRibiere \
	linminMethod         DirUpdateRecommended \
	nIterations          400 \
	history              15 \
	knormThreshold       1e-11 \
	energyDiffThreshold  0 \
	nEnergyDiff          2 \
	alphaTstart          1 \
	alphaTmin            1e-10 \
	updateTestStepSize   yes \
	alphaTreduceFactor   0.1 \
	alphaTincreaseFactor 3 \
	nAlphaAdjustMax      6 \
	wolfeEnergy          0.0001 \
	wolfeGradient        0.9 \
	fdTest               no
fluid-solvent PC 11.6429 ScalarEOS \
	epsBulk 64 \
	pMol 2.95 \
	epsInf 2.02 \
	Pvap 1.53277e-13 \
	sigmaBulk 2.88e-05 \
	Rvdw 0 \
	Res 0 \
	tauNuc 343133
forces-output-coords Positions
ion S   5.224404249899997  10.946321496360000  20.502457449030000 1
ion S   4.405930061490001   8.273321088119999  23.990258410559999 1
ion S   4.517822864520001  10.323889787879999  27.113757222690001 1
ion S   8.657034544080000   8.813494739429999  28.671448433579997 1
ion S  10.060045685279999  10.482500495969999  31.757946332309999 1
ion S  11.945089154880002  13.725664570619998  31.194889940430002 1
ion S   6.530742473489992  14.219337635819999  21.830982992549998 1
ion S  10.409702427179997  14.199862078439999  22.327596477629999 1
ion Na   8.885518018920003  14.526203331600000  27.203814195570001 1
ion Na   9.820560202380001   9.211912184519999  23.309165703420000 1
ion-species GBRV/$ID_pbe.uspp
ion-width Ecut
ionic-minimize  \
	dirUpdateScheme      FletcherReeves \
	linminMethod         DirUpdateRecommended \
	nIterations          200 \
	history              15 \
	knormThreshold       0.0001 \
	energyDiffThreshold  1e-06 \
	nEnergyDiff          2 \
	alphaTstart          1 \
	alphaTmin            1e-10 \
	updateTestStepSize   yes \
	alphaTreduceFactor   0.1 \
	alphaTincreaseFactor 3 \
	nAlphaAdjustMax      3 \
	wolfeEnergy          0.0001 \
	wolfeGradient        0.9 \
	fdTest               no
kpoint   0.000000000000   0.000000000000   0.000000000000  1.00000000000000
kpoint-folding 1 1 1 
latt-move-scale 1 1 1
latt-scale 1 1 1 
lattice Triclinic 28.0058 28.0058 37.7946 90 90 120
lattice-minimize  \
	dirUpdateScheme      L-BFGS \
	linminMethod         DirUpdateRecommended \
	nIterations          0 \
	history              15 \
	knormThreshold       0 \
	energyDiffThreshold  1e-06 \
	nEnergyDiff          2 \
	alphaTstart          1 \
	alphaTmin            1e-10 \
	updateTestStepSize   yes \
	alphaTreduceFactor   0.1 \
	alphaTincreaseFactor 3 \
	nAlphaAdjustMax      3 \
	wolfeEnergy          0.0001 \
	wolfeGradient        0.9 \
	fdTest               no
lcao-params -1 1e-06 0.001
pcm-variant GLSSA13
spintype no-spin
subspace-rotation-factor 1 yes
symmetries automatic
symmetry-threshold 0.0001
van-der-waals D3



---------- Setting up symmetries ----------

Found 24 point-group symmetries of the bravais lattice
Found 1 space-group symmetries with basis
Applied RMS atom displacement 0 bohrs to make symmetries exact.

---------- Initializing the Grid ----------
R = 
[      28.0058     -14.0029            0  ]
[            0      24.2537            0  ]
[            0            0      37.7946  ]
unit cell volume = 25671.8
G =
[   0.224353    0.12953         -0  ]
[          0   0.259061          0  ]
[          0         -0   0.166246  ]
Minimum fftbox size, Smin = [  128  128  172  ]
Chosen fftbox size, S = [  128  128  180  ]

---------- Initializing tighter grid for wavefunction operations ----------
R = 
[      28.0058     -14.0029            0  ]
[            0      24.2537            0  ]
[            0            0      37.7946  ]
unit cell volume = 25671.8
G =
[   0.224353    0.12953         -0  ]
[          0   0.259061          0  ]
[          0         -0   0.166246  ]
Minimum fftbox size, Smin = [  116  116  156  ]
Chosen fftbox size, S = [  120  120  160  ]

---------- Exchange Correlation functional ----------
Initalized PBE GGA exchange.
Initalized PBE GGA correlation.

---------- Setting up pseudopotentials ----------
Width of ionic core gaussian charges (only for fluid interactions / plotting) set to 0.397384

Reading pseudopotential file '/home/danielkim/jdftx_install/build/pseudopotentials/GBRV/s_pbe.uspp':
  Title: S.  Created by USPP 7.3.6 on 1-4-15
  Reference state energy: -11.898476.  6 valence electrons in orbitals:
    |300>  occupation: 2  eigenvalue: -0.634167
    |310>  occupation: 4  eigenvalue: -0.257568
  lMax: 2  lLocal: 3  QijEcut: 6
  6 projectors sampled on a log grid with 635 points:
    l: 0  eig: -0.634161  rCut: 1.5
    l: 0  eig: 1.500000  rCut: 1.5
    l: 1  eig: -0.257567  rCut: 1.5
    l: 1  eig: 1.500000  rCut: 1.5
    l: 2  eig: -1.000000  rCut: 1.5
    l: 2  eig: 1.500000  rCut: 1.5
  Partial core density with radius 1.15
  Transforming core density to a uniform radial grid of dG=0.02 with 1625 points.
  Transforming local potential to a uniform radial grid of dG=0.02 with 1625 points.
  Transforming nonlocal projectors to a uniform radial grid of dG=0.02 with 432 points.
  Transforming density augmentations to a uniform radial grid of dG=0.02 with 1625 points.
  Transforming atomic orbitals to a uniform radial grid of dG=0.02 with 432 points.
  Core radius for overlap checks: 1.50 bohrs.

Reading pseudopotential file '/home/danielkim/jdftx_install/build/pseudopotentials/GBRV/na_pbe.uspp':
  Title: Na.  Created by USPP 7.3.6 on 23-9-15
  Reference state energy: -47.625620.  9 valence electrons in orbitals:
    |200>  occupation: 2  eigenvalue: -2.085638
    |210>  occupation: 6  eigenvalue: -1.053708
    |300>  occupation: 1  eigenvalue: -0.100838
  lMax: 2  lLocal: 0  QijEcut: 6
  5 projectors sampled on a log grid with 657 points:
    l: 0  eig: -2.085640  rCut: 1.37
    l: 0  eig: -0.100839  rCut: 1.37
    l: 1  eig: -1.053708  rCut: 1.47
    l: 1  eig: 0.500000  rCut: 1.47
    l: 2  eig: 0.750000  rCut: 2
  Transforming local potential to a uniform radial grid of dG=0.02 with 1625 points.
  Transforming nonlocal projectors to a uniform radial grid of dG=0.02 with 432 points.
  Transforming density augmentations to a uniform radial grid of dG=0.02 with 1625 points.
  Transforming atomic orbitals to a uniform radial grid of dG=0.02 with 432 points.
  Core radius for overlap checks: 2.00 bohrs.

Initialized 2 species with 10 total atoms.

Folded 1 k-points by 1x1x1 to 1 k-points.

---------- Setting up k-points, bands, fillings ----------
No reducable k-points. 
Computing the number of bands and number of electrons
Calculating initial fillings.
nElectrons:  66.000000   nBands: 33   nStates: 1

----- Setting up reduced wavefunction bases (one per k-point) -----
average nbasis = 109673.000 , ideal nbasis = 109671.883

---------- Setting up coulomb interaction ----------
Fluid mode embedding: using embedded box, but periodic Coulomb kernel.
(Fluid response is responsible for (approximate) separation between periodic images.)
Setting up double-sized grid for truncated Coulomb potentials:
R = 
[      56.0116     -28.0058            0  ]
[            0      48.5075            0  ]
[            0            0      75.5892  ]
unit cell volume = 205374
G =
[   0.112177  0.0647651         -0  ]
[          0    0.12953          0  ]
[          0         -0  0.0831228  ]
Chosen fftbox size, S = [  256  256  360  ]
Integer grid location selected as the embedding center:
   Grid: [  53  58  98  ]
   Lattice: [  0.41221  0.451325  0.542471  ]
   Cartesian: [  5.2244  10.9463  20.5025  ]
Constructing Wigner-Seitz cell: 8 faces (6 quadrilaterals, 2 hexagons)
Range-separation parameter for embedded mesh potentials due to point charges: 0.590105 bohrs.

Initializing DFT-D3 calculator:
	Parameters set for gga-PBE functional
	s6:  1.000  s_r6:  1.217
	s8:  0.722  s_r8:  1.000
	Per-atom parameters loaded for:
	 S:  sqrtQ[a0]:  4.041  Rcov[a0]:  1.928  CN: [ 0.00 0.99 1.99 ]
	Na:  sqrtQ[a0]:  6.586  Rcov[a0]:  2.646  CN: [ 0.00 0.97 ]

---------- Setting up ewald sum ----------
Optimum gaussian width for ewald sums = 16.035857 bohr.
Real space sum over 1089 unit cells with max indices [  5  5  4  ]
Reciprocal space sum over 4275 terms with max indices [  7  7  9  ]

Computing DFT-D3 correction:
# coordination-number S 2.769 2.835 2.628 3.396 2.447 2.001 3.134 2.953
# coordination-number Na 4.896 4.826
# diagonal-C6 S 125.81 125.81 125.81 125.81 125.81 125.90 125.81 125.81
# diagonal-C6 Na 186.11 186.11
EvdW_6 =   -0.002824
EvdW_8 =   -0.010324

---------- Allocating electronic variables ----------
Initializing wave functions:  linear combination of atomic orbitals
S pseudo-atom occupations:   s ( 2 )  p ( 4 )
Na pseudo-atom occupations:   s ( 2 1 )  p ( 6 )
	FillingsUpdate:  mu: -0.158636702  nElectrons: 66.000000
LCAOMinimize: Iter:   0  Etot: -177.0373795984098138  |grad|_K:  1.733e-02  alpha:  1.000e+00
	FillingsUpdate:  mu: -0.158283370  nElectrons: 66.000000
LCAOMinimize: Iter:   1  Etot: -177.0667919887955577  |grad|_K:  1.530e-02  alpha:  5.456e-02  linmin: -3.313e-01  cgtest:  9.393e-01  t[s]:     57.77
LCAOMinimize: Encountered beta<0, resetting CG.
LCAOMinimize: 	Predicted alpha/alphaT>3.000000, increasing alphaT to 1.636759e-01.
LCAOMinimize: 	Step increased Etot by 3.594829e-01, reducing alpha to 4.905136e-02.
	FillingsUpdate:  mu: -0.163496192  nElectrons: 66.000000
LCAOMinimize: Iter:   2  Etot: -177.0873328444049548  |grad|_K:  1.355e-02  alpha:  4.905e-02  linmin: -3.334e-01  cgtest:  9.486e-01  t[s]:    101.18
LCAOMinimize: Encountered beta<0, resetting CG.
LCAOMinimize: 	Predicted alpha/alphaT>3.000000, increasing alphaT to 1.471541e-01.
LCAOMinimize: 	Predicted alpha/alphaT>3.000000, increasing alphaT to 4.414623e-01.
	FillingsUpdate:  mu: -0.170630957  nElectrons: 66.000000
LCAOMinimize: Iter:   3  Etot: -177.1223464721614960  |grad|_K:  9.079e-03  alpha:  1.170e-01  linmin: -3.644e-01  cgtest:  8.642e-01  t[s]:    132.12
LCAOMinimize: Encountered beta<0, resetting CG.
LCAOMinimize: None of the convergence criteria satisfied after 3 iterations.
----- createFluidSolver() ----- (Fluid-side solver setup)
   Initializing fluid molecule 'PC'
     Net charge: 0   dipole magnitude: 0
     Initializing spherical shell mfKernel with radius 0 Bohr
     deltaS corrections:

Correction to mu due to finite nuclear width = -0.000318858
   Cavity determined by nc: 0.00098 and sigma: 0.6
   Effective cavity tension: 9.53e-06 Eh/bohr^2 to account for cavitation and dispersion.


---- Citations for features of the code used in this run ----

   Software package:
      R. Sundararaman, K. Letchworth-Weaver, K.A. Schwarz, D. Gunceler, Y. Ozhabes and T.A. Arias, 'JDFTx: software for joint density-functional theory', SoftwareX 6, 278 (2017)

   gga-PBE exchange-correlation functional:
      J.P. Perdew, K. Burke and M. Ernzerhof, Phys. Rev. Lett. 77, 3865 (1996)

   Pseudopotentials:
      KF Garrity, JW Bennett, KM Rabe and D Vanderbilt, Comput. Mater. Sci. 81, 446 (2014)

   Truncated Coulomb potentials:
      R. Sundararaman and T.A. Arias, Phys. Rev. B 87, 165122 (2013)

   DFT-D3 dispersion correction:
      S. Grimme, J. Antony, S. Ehrlich and H. Krieg, J. Chem. Phys. 132, 154104 (2010)

   Linear/nonlinear dielectric/ionic fluid model with effective cavity tension:
      D. Gunceler, K. Letchworth-Weaver, R. Sundararaman, K.A. Schwarz and T.A. Arias, Modelling Simul. Mater. Sci. Eng. 21, 074005 (2013)

This list may not be complete. Please suggest additional citations or
report any other bugs at https://github.com/shankar1729/jdftx/issues

Initialization completed successfully at t[s]:    134.11


Computing DFT-D3 correction:
# coordination-number S 2.769 2.835 2.628 3.396 2.447 2.001 3.134 2.953
# coordination-number Na 4.896 4.826
# diagonal-C6 S 125.81 125.81 125.81 125.81 125.81 125.90 125.81 125.81
# diagonal-C6 Na 186.11 186.11
EvdW_6 =   -0.002824
EvdW_8 =   -0.010324
Fluid solver invoked on fresh (random / LCAO) wavefunctions
Running a vacuum solve first:

-------- Initial electronic minimization -----------
Will mix electronic density at each iteration.
SCF: Cycle:  0   Etot: -177.216555387925951   dEtot: -9.421e-02   |Residual|: 3.862e-01   |deigs|: 1.599e-02  t[s]:    165.87
SCF: Cycle:  1   Etot: -177.487443159049718   dEtot: -2.709e-01   |Residual|: 1.985e-01   |deigs|: 2.191e-02  t[s]:    190.11
SCF: Cycle:  2   Etot: -177.644049282708266   dEtot: -1.566e-01   |Residual|: 1.181e-01   |deigs|: 2.298e-02  t[s]:    213.76
SCF: Cycle:  3   Etot: -177.655809955988730   dEtot: -1.176e-02   |Residual|: 5.450e-02   |deigs|: 8.298e-03  t[s]:    237.68
SCF: Cycle:  4   Etot: -177.661244200574174   dEtot: -5.434e-03   |Residual|: 3.977e-02   |deigs|: 8.845e-03  t[s]:    262.14
SCF: Cycle:  5   Etot: -177.666245695119898   dEtot: -5.001e-03   |Residual|: 1.806e-02   |deigs|: 2.657e-03  t[s]:    289.11
SCF: Cycle:  6   Etot: -177.667053777370541   dEtot: -8.081e-04   |Residual|: 2.438e-02   |deigs|: 7.522e-03  t[s]:    316.35
SCF: Cycle:  7   Etot: -177.667861833513797   dEtot: -8.081e-04   |Residual|: 1.677e-02   |deigs|: 1.003e-03  t[s]:    342.33
SCF: Cycle:  8   Etot: -177.668837730082657   dEtot: -9.759e-04   |Residual|: 6.786e-03   |deigs|: 2.839e-03  t[s]:    364.65
SCF: Cycle:  9   Etot: -177.668875604586901   dEtot: -3.787e-05   |Residual|: 7.390e-03   |deigs|: 1.946e-03  t[s]:    384.45
SCF: Cycle: 10   Etot: -177.669017483389098   dEtot: -1.419e-04   |Residual|: 4.700e-03   |deigs|: 3.219e-03  t[s]:    404.77
SCF: Cycle: 11   Etot: -177.669056629300712   dEtot: -3.915e-05   |Residual|: 3.373e-03   |deigs|: 1.659e-03  t[s]:    421.45
SCF: Cycle: 12   Etot: -177.669113024013996   dEtot: -5.639e-05   |Residual|: 2.458e-03   |deigs|: 2.110e-03  t[s]:    441.01
SCF: Cycle: 13   Etot: -177.669130003644824   dEtot: -1.698e-05   |Residual|: 2.255e-03   |deigs|: 4.738e-04  t[s]:    457.57
SCF: Cycle: 14   Etot: -177.669146792963943   dEtot: -1.679e-05   |Residual|: 2.523e-03   |deigs|: 8.270e-04  t[s]:    476.67
SCF: Cycle: 15   Etot: -177.669161493004793   dEtot: -1.470e-05   |Residual|: 1.274e-03   |deigs|: 2.693e-04  t[s]:    493.28
SCF: Cycle: 16   Etot: -177.669163704880532   dEtot: -2.212e-06   |Residual|: 1.492e-03   |deigs|: 9.958e-05  t[s]:    509.93
SCF: Cycle: 17   Etot: -177.669168930980788   dEtot: -5.226e-06   |Residual|: 9.407e-04   |deigs|: 4.112e-04  t[s]:    526.40
SCF: Cycle: 18   Etot: -177.669171238087785   dEtot: -2.307e-06   |Residual|: 6.433e-04   |deigs|: 3.084e-04  t[s]:    543.03
SCF: Cycle: 19   Etot: -177.669171457839809   dEtot: -2.198e-07   |Residual|: 6.118e-04   |deigs|: 3.002e-04  t[s]:    559.62
SCF: Cycle: 20   Etot: -177.669170599249128   dEtot: +8.586e-07   |Residual|: 6.815e-04   |deigs|: 4.996e-05  t[s]:    581.06
SCF: Cycle: 21   Etot: -177.669171722701662   dEtot: -1.123e-06   |Residual|: 4.282e-04   |deigs|: 4.271e-05  t[s]:    597.84
SCF: Cycle: 22   Etot: -177.669171766695030   dEtot: -4.399e-08   |Residual|: 3.833e-04   |deigs|: 4.728e-05  t[s]:    614.62
SCF: Cycle: 23   Etot: -177.669172088999346   dEtot: -3.223e-07   |Residual|: 2.877e-04   |deigs|: 2.457e-05  t[s]:    636.04
SCF: Cycle: 24   Etot: -177.669172811229828   dEtot: -7.222e-07   |Residual|: 2.387e-04   |deigs|: 6.283e-05  t[s]:    652.76
SCF: Cycle: 25   Etot: -177.669173137679536   dEtot: -3.264e-07   |Residual|: 2.215e-04   |deigs|: 9.149e-05  t[s]:    669.34
SCF: Cycle: 26   Etot: -177.669173466528434   dEtot: -3.288e-07   |Residual|: 1.799e-04   |deigs|: 1.529e-04  t[s]:    685.93
SCF: Cycle: 27   Etot: -177.669173604747215   dEtot: -1.382e-07   |Residual|: 1.589e-04   |deigs|: 2.621e-05  t[s]:    702.58
SCF: Cycle: 28   Etot: -177.669173667761015   dEtot: -6.301e-08   |Residual|: 8.356e-05   |deigs|: 1.078e-05  t[s]:    719.06
SCF: Cycle: 29   Etot: -177.669173714631540   dEtot: -4.687e-08   |Residual|: 7.976e-05   |deigs|: 6.343e-06  t[s]:    735.84
SCF: Cycle: 30   Etot: -177.669173787047725   dEtot: -7.242e-08   |Residual|: 5.900e-05   |deigs|: 1.614e-05  t[s]:    754.81
SCF: Cycle: 31   Etot: -177.669173813676935   dEtot: -2.663e-08   |Residual|: 2.893e-05   |deigs|: 2.249e-06  t[s]:    771.44
SCF: Cycle: 32   Etot: -177.669173829022327   dEtot: -1.535e-08   |Residual|: 2.252e-05   |deigs|: 1.757e-05  t[s]:    788.00
SCF: Cycle: 33   Etot: -177.669173846640689   dEtot: -1.762e-08   |Residual|: 1.474e-05   |deigs|: 1.632e-05  t[s]:    809.77
SCF: Cycle: 34   Etot: -177.669173853686544   dEtot: -7.046e-09   |Residual|: 8.746e-06   |deigs|: 4.410e-06  t[s]:    826.39
SCF: Cycle: 35   Etot: -177.669173862780099   dEtot: -9.094e-09   |Residual|: 8.085e-06   |deigs|: 1.711e-06  t[s]:    847.94
SCF: Converged (|Delta E|<1.000000e-08 for 2 iters).

Setting wave functions to eigenvectors of Hamiltonian
Vacuum energy after initial minimize, Etot = -177.669173862780099


-------- Electronic minimization -----------
Will mix electronic density at each iteration.
	Linear fluid (dielectric constant: 64) occupying 0.990925 of unit cell:	Completed after 30 iterations at t[s]:    912.21
	Linear fluid (dielectric constant: 64) occupying 0.990880 of unit cell:	Completed after 24 iterations at t[s]:    976.27
SCF: Cycle:  0   Etot: -177.788870731120511   dEtot: -3.395e-02   |Residual|: 4.769e-02   |deigs|: 7.489e-04  t[s]:    978.71
	Linear fluid (dielectric constant: 64) occupying 0.990933 of unit cell:	Completed after 20 iterations at t[s]:   1012.04
	Linear fluid (dielectric constant: 64) occupying 0.990877 of unit cell:	Completed after 24 iterations at t[s]:   1074.15
SCF: Cycle:  1   Etot: -177.792040519045656   dEtot: -3.170e-03   |Residual|: 3.449e-02   |deigs|: 2.646e-03  t[s]:   1076.57
	Linear fluid (dielectric constant: 64) occupying 0.990911 of unit cell:	Completed after 17 iterations at t[s]:   1105.52
	Linear fluid (dielectric constant: 64) occupying 0.990883 of unit cell:	Completed after 22 iterations at t[s]:   1165.17
SCF: Cycle:  2   Etot: -177.795085454513412   dEtot: -3.045e-03   |Residual|: 2.166e-02   |deigs|: 4.722e-03  t[s]:   1167.65
	Linear fluid (dielectric constant: 64) occupying 0.990889 of unit cell:	Completed after 19 iterations at t[s]:   1199.03
	Linear fluid (dielectric constant: 64) occupying 0.990875 of unit cell:	Completed after 21 iterations at t[s]:   1256.21
SCF: Cycle:  3   Etot: -177.795606030761491   dEtot: -5.206e-04   |Residual|: 1.414e-02   |deigs|: 7.212e-04  t[s]:   1258.58
	Linear fluid (dielectric constant: 64) occupying 0.990834 of unit cell:	Completed after 15 iterations at t[s]:   1284.88
	Linear fluid (dielectric constant: 64) occupying 0.990860 of unit cell:	Completed after 16 iterations at t[s]:   1336.20
SCF: Cycle:  4   Etot: -177.796291147939399   dEtot: -6.851e-04   |Residual|: 1.322e-02   |deigs|: 4.986e-03  t[s]:   1338.74
	Linear fluid (dielectric constant: 64) occupying 0.990831 of unit cell:	Completed after 15 iterations at t[s]:   1364.46
	Linear fluid (dielectric constant: 64) occupying 0.990857 of unit cell:	Completed after 14 iterations at t[s]:   1410.76
SCF: Cycle:  5   Etot: -177.796721746909583   dEtot: -4.306e-04   |Residual|: 7.200e-03   |deigs|: 4.360e-04  t[s]:   1413.25
	Linear fluid (dielectric constant: 64) occupying 0.990786 of unit cell:	Completed after 14 iterations at t[s]:   1438.33
	Linear fluid (dielectric constant: 64) occupying 0.990842 of unit cell:	Completed after 14 iterations at t[s]:   1486.79
SCF: Cycle:  6   Etot: -177.796996969337840   dEtot: -2.752e-04   |Residual|: 8.490e-03   |deigs|: 2.768e-03  t[s]:   1489.24
	Linear fluid (dielectric constant: 64) occupying 0.990781 of unit cell:	Completed after 12 iterations at t[s]:   1511.02
	Linear fluid (dielectric constant: 64) occupying 0.990845 of unit cell:	Completed after 13 iterations at t[s]:   1556.53
SCF: Cycle:  7   Etot: -177.797138288268968   dEtot: -1.413e-04   |Residual|: 4.523e-03   |deigs|: 4.657e-04  t[s]:   1559.20
	Linear fluid (dielectric constant: 64) occupying 0.990759 of unit cell:	Completed after 10 iterations at t[s]:   1578.25
	Linear fluid (dielectric constant: 64) occupying 0.990847 of unit cell:	Completed after 11 iterations at t[s]:   1622.08
SCF: Cycle:  8   Etot: -177.797178184188937   dEtot: -3.990e-05   |Residual|: 5.928e-03   |deigs|: 5.370e-04  t[s]:   1624.61
	Linear fluid (dielectric constant: 64) occupying 0.990761 of unit cell:	Completed after 11 iterations at t[s]:   1645.35
	Linear fluid (dielectric constant: 64) occupying 0.990849 of unit cell:	Completed after 11 iterations at t[s]:   1686.31
SCF: Cycle:  9   Etot: -177.797208008194787   dEtot: -2.982e-05   |Residual|: 4.873e-03   |deigs|: 2.407e-04  t[s]:   1688.75
	Linear fluid (dielectric constant: 64) occupying 0.990800 of unit cell:	Completed after 11 iterations at t[s]:   1709.25
	Linear fluid (dielectric constant: 64) occupying 0.990850 of unit cell:	Completed after 10 iterations at t[s]:   1749.83
SCF: Cycle: 10   Etot: -177.797259727555826   dEtot: -5.172e-05   |Residual|: 3.583e-03   |deigs|: 2.635e-04  t[s]:   1752.37
	Linear fluid (dielectric constant: 64) occupying 0.990804 of unit cell:	Completed after 9 iterations at t[s]:   1769.92
	Linear fluid (dielectric constant: 64) occupying 0.990850 of unit cell:	Completed after 9 iterations at t[s]:   1805.80
SCF: Cycle: 11   Etot: -177.797269945171365   dEtot: -1.022e-05   |Residual|: 2.536e-03   |deigs|: 3.766e-04  t[s]:   1808.33
	Linear fluid (dielectric constant: 64) occupying 0.990835 of unit cell:	Completed after 6 iterations at t[s]:   1822.20
	Linear fluid (dielectric constant: 64) occupying 0.990853 of unit cell:	Completed after 9 iterations at t[s]:   1857.98
SCF: Cycle: 12   Etot: -177.797246043796548   dEtot: +2.390e-05   |Residual|: 4.200e-03   |deigs|: 2.982e-04  t[s]:   1860.54
	Linear fluid (dielectric constant: 64) occupying 0.990847 of unit cell:	Completed after 7 iterations at t[s]:   1875.53
	Linear fluid (dielectric constant: 64) occupying 0.990852 of unit cell:	Completed after 4 iterations at t[s]:   1904.04
SCF: Cycle: 13   Etot: -177.797272370318950   dEtot: -2.633e-05   |Residual|: 1.915e-03   |deigs|: 1.217e-04  t[s]:   1906.55
	Linear fluid (dielectric constant: 64) occupying 0.990854 of unit cell:	Completed after 4 iterations at t[s]:   1917.34
	Linear fluid (dielectric constant: 64) occupying 0.990854 of unit cell:	Completed after 10 iterations at t[s]:   1957.67
SCF: Cycle: 14   Etot: -177.797232754411851   dEtot: +3.962e-05   |Residual|: 4.271e-03   |deigs|: 1.378e-04  t[s]:   1960.14
	Linear fluid (dielectric constant: 64) occupying 0.990857 of unit cell:	Completed after 9 iterations at t[s]:   1978.01
	Linear fluid (dielectric constant: 64) occupying 0.990853 of unit cell:	Completed after 4 iterations at t[s]:   2009.10
SCF: Cycle: 15   Etot: -177.797275763353014   dEtot: -4.301e-05   |Residual|: 1.540e-03   |deigs|: 1.491e-04  t[s]:   2011.59
	Linear fluid (dielectric constant: 64) occupying 0.990858 of unit cell:	Completed after 4 iterations at t[s]:   2022.14
	Linear fluid (dielectric constant: 64) occupying 0.990854 of unit cell:	Completed after 3 iterations at t[s]:   2049.74
SCF: Cycle: 16   Etot: -177.797283139196225   dEtot: -7.376e-06   |Residual|: 9.697e-04   |deigs|: 6.526e-05  t[s]:   2052.30
	Linear fluid (dielectric constant: 64) occupying 0.990857 of unit cell:	Completed after 2 iterations at t[s]:   2060.49
	Linear fluid (dielectric constant: 64) occupying 0.990855 of unit cell:	Completed after 3 iterations at t[s]:   2088.11
SCF: Cycle: 17   Etot: -177.797283560356703   dEtot: -4.212e-07   |Residual|: 1.023e-03   |deigs|: 5.457e-05  t[s]:   2090.53
	Linear fluid (dielectric constant: 64) occupying 0.990853 of unit cell:	Completed after 4 iterations at t[s]:   2101.51
	Linear fluid (dielectric constant: 64) occupying 0.990855 of unit cell:	Completed after 5 iterations at t[s]:   2135.73
SCF: Cycle: 18   Etot: -177.797281065108336   dEtot: +2.495e-06   |Residual|: 1.524e-03   |deigs|: 2.061e-04  t[s]:   2138.20
	Linear fluid (dielectric constant: 64) occupying 0.990852 of unit cell:	Completed after 4 iterations at t[s]:   2148.92
	Linear fluid (dielectric constant: 64) occupying 0.990855 of unit cell:	Completed after 3 iterations at t[s]:   2176.11
SCF: Cycle: 19   Etot: -177.797284818419570   dEtot: -3.753e-06   |Residual|: 7.527e-04   |deigs|: 5.807e-05  t[s]:   2178.49
	Linear fluid (dielectric constant: 64) occupying 0.990855 of unit cell:	Completed after 3 iterations at t[s]:   2188.07
	Linear fluid (dielectric constant: 64) occupying 0.990855 of unit cell:	Completed after 1 iterations at t[s]:   2212.42
SCF: Cycle: 20   Etot: -177.797286182359983   dEtot: -1.364e-06   |Residual|: 5.510e-04   |deigs|: 2.038e-05  t[s]:   2214.89
	Linear fluid (dielectric constant: 64) occupying 0.990856 of unit cell:	Completed after 0 iterations at t[s]:   2220.04
	Linear fluid (dielectric constant: 64) occupying 0.990855 of unit cell:	Completed after 1 iterations at t[s]:   2244.43
SCF: Cycle: 21   Etot: -177.797287297629396   dEtot: -1.115e-06   |Residual|: 3.931e-04   |deigs|: 3.170e-05  t[s]:   2246.89
	Linear fluid (dielectric constant: 64) occupying 0.990855 of unit cell:	Completed after 2 iterations at t[s]:   2254.74
	Linear fluid (dielectric constant: 64) occupying 0.990855 of unit cell:	Completed after 0 iterations at t[s]:   2277.88
SCF: Cycle: 22   Etot: -177.797288296700600   dEtot: -9.991e-07   |Residual|: 3.374e-04   |deigs|: 1.260e-04  t[s]:   2280.34
	Linear fluid (dielectric constant: 64) occupying 0.990855 of unit cell:	Completed after 0 iterations at t[s]:   2284.21
	Linear fluid (dielectric constant: 64) occupying 0.990854 of unit cell:	Completed after 2 iterations at t[s]:   2310.05
SCF: Cycle: 23   Etot: -177.797288174709479   dEtot: +1.220e-07   |Residual|: 2.391e-04   |deigs|: 2.545e-05  t[s]:   2312.59
	Linear fluid (dielectric constant: 64) occupying 0.990855 of unit cell:	Completed after 0 iterations at t[s]:   2316.48
	Linear fluid (dielectric constant: 64) occupying 0.990854 of unit cell:	Completed after 0 iterations at t[s]:   2340.63
SCF: Cycle: 24   Etot: -177.797288497704415   dEtot: -3.230e-07   |Residual|: 2.593e-04   |deigs|: 9.494e-05  t[s]:   2343.02
	Linear fluid (dielectric constant: 64) occupying 0.990855 of unit cell:	Completed after 0 iterations at t[s]:   2348.27
	Linear fluid (dielectric constant: 64) occupying 0.990854 of unit cell:	Completed after 0 iterations at t[s]:   2370.22
SCF: Cycle: 25   Etot: -177.797288608288881   dEtot: -1.106e-07   |Residual|: 2.012e-04   |deigs|: 3.169e-05  t[s]:   2372.61
	Linear fluid (dielectric constant: 64) occupying 0.990854 of unit cell:	Completed after 0 iterations at t[s]:   2376.49
	Linear fluid (dielectric constant: 64) occupying 0.990854 of unit cell:	Completed after 0 iterations at t[s]:   2399.91
SCF: Cycle: 26   Etot: -177.797288709444842   dEtot: -1.012e-07   |Residual|: 1.419e-04   |deigs|: 1.304e-06  t[s]:   2402.44
	Linear fluid (dielectric constant: 64) occupying 0.990854 of unit cell:	Completed after 0 iterations at t[s]:   2406.32
	Linear fluid (dielectric constant: 64) occupying 0.990854 of unit cell:	Completed after 0 iterations at t[s]:   2428.17
SCF: Cycle: 27   Etot: -177.797289000173123   dEtot: -2.907e-07   |Residual|: 1.185e-04   |deigs|: 3.191e-05  t[s]:   2430.58
	Linear fluid (dielectric constant: 64) occupying 0.990853 of unit cell:	Completed after 0 iterations at t[s]:   2434.34
	Linear fluid (dielectric constant: 64) occupying 0.990854 of unit cell:	Completed after 1 iterations at t[s]:   2459.27
SCF: Cycle: 28   Etot: -177.797288819771154   dEtot: +1.804e-07   |Residual|: 1.398e-04   |deigs|: 5.941e-06  t[s]:   2461.74
	Linear fluid (dielectric constant: 64) occupying 0.990853 of unit cell:	Completed after 0 iterations at t[s]:   2465.82
	Linear fluid (dielectric constant: 64) occupying 0.990854 of unit cell:	Completed after 0 iterations at t[s]:   2487.67
SCF: Cycle: 29   Etot: -177.797288921729944   dEtot: -1.020e-07   |Residual|: 1.577e-04   |deigs|: 8.008e-05  t[s]:   2490.08
	Linear fluid (dielectric constant: 64) occupying 0.990853 of unit cell:	Completed after 0 iterations at t[s]:   2493.90
	Linear fluid (dielectric constant: 64) occupying 0.990854 of unit cell:	Completed after 0 iterations at t[s]:   2515.71
SCF: Cycle: 30   Etot: -177.797288947454149   dEtot: -2.572e-08   |Residual|: 8.938e-05   |deigs|: 2.779e-06  t[s]:   2518.18
	Linear fluid (dielectric constant: 64) occupying 0.990854 of unit cell:	Completed after 0 iterations at t[s]:   2522.13
	Linear fluid (dielectric constant: 64) occupying 0.990854 of unit cell:	Completed after 0 iterations at t[s]:   2549.17
SCF: Cycle: 31   Etot: -177.797289040142346   dEtot: -9.269e-08   |Residual|: 4.250e-05   |deigs|: 2.714e-06  t[s]:   2551.61
	Linear fluid (dielectric constant: 64) occupying 0.990854 of unit cell:	Completed after 0 iterations at t[s]:   2555.46
	Linear fluid (dielectric constant: 64) occupying 0.990854 of unit cell:	Completed after 0 iterations at t[s]:   2577.35
SCF: Cycle: 32   Etot: -177.797289049692750   dEtot: -9.550e-09   |Residual|: 2.822e-05   |deigs|: 1.242e-06  t[s]:   2579.82
	Linear fluid (dielectric constant: 64) occupying 0.990854 of unit cell:	Completed after 0 iterations at t[s]:   2583.73
	Linear fluid (dielectric constant: 64) occupying 0.990854 of unit cell:	Completed after 0 iterations at t[s]:   2607.60
SCF: Cycle: 33   Etot: -177.797289068794385   dEtot: -1.910e-08   |Residual|: 2.753e-05   |deigs|: 5.521e-07  t[s]:   2610.00
	Linear fluid (dielectric constant: 64) occupying 0.990854 of unit cell:	Completed after 0 iterations at t[s]:   2613.94
	Linear fluid (dielectric constant: 64) occupying 0.990854 of unit cell:	Completed after 0 iterations at t[s]:   2635.46
SCF: Cycle: 34   Etot: -177.797289078261315   dEtot: -9.467e-09   |Residual|: 2.200e-05   |deigs|: 6.550e-07  t[s]:   2637.89
	Linear fluid (dielectric constant: 64) occupying 0.990854 of unit cell:	Completed after 0 iterations at t[s]:   2641.76
	Linear fluid (dielectric constant: 64) occupying 0.990854 of unit cell:	Completed after 0 iterations at t[s]:   2668.33
SCF: Cycle: 35   Etot: -177.797289102399191   dEtot: -2.414e-08   |Residual|: 3.443e-05   |deigs|: 1.024e-06  t[s]:   2670.70
	Linear fluid (dielectric constant: 64) occupying 0.990854 of unit cell:	Completed after 0 iterations at t[s]:   2674.56
	Linear fluid (dielectric constant: 64) occupying 0.990854 of unit cell:	Completed after 0 iterations at t[s]:   2696.18
SCF: Cycle: 36   Etot: -177.797289117307912   dEtot: -1.491e-08   |Residual|: 3.709e-05   |deigs|: 5.130e-07  t[s]:   2698.54
	Linear fluid (dielectric constant: 64) occupying 0.990854 of unit cell:	Completed after 0 iterations at t[s]:   2702.40
	Linear fluid (dielectric constant: 64) occupying 0.990854 of unit cell:	Completed after 0 iterations at t[s]:   2723.90
SCF: Cycle: 37   Etot: -177.797289127552688   dEtot: -1.024e-08   |Residual|: 3.765e-05   |deigs|: 3.457e-07  t[s]:   2726.26
	Linear fluid (dielectric constant: 64) occupying 0.990854 of unit cell:	Completed after 0 iterations at t[s]:   2730.09
	Linear fluid (dielectric constant: 64) occupying 0.990854 of unit cell:	Completed after 0 iterations at t[s]:   2751.79
SCF: Cycle: 38   Etot: -177.797289124277171   dEtot: +3.276e-09   |Residual|: 3.878e-05   |deigs|: 1.500e-07  t[s]:   2754.23
	Linear fluid (dielectric constant: 64) occupying 0.990854 of unit cell:	Completed after 0 iterations at t[s]:   2758.01
	Linear fluid (dielectric constant: 64) occupying 0.990854 of unit cell:	Completed after 0 iterations at t[s]:   2782.16
SCF: Cycle: 39   Etot: -177.797289122303340   dEtot: +1.974e-09   |Residual|: 2.935e-05   |deigs|: 9.343e-07  t[s]:   2784.54
	Linear fluid (dielectric constant: 64) occupying 0.990854 of unit cell:	Completed after 0 iterations at t[s]:   2788.29
	Linear fluid (dielectric constant: 64) occupying 0.990854 of unit cell:	Completed after 0 iterations at t[s]:   2812.75
SCF: Cycle: 40   Etot: -177.797289124710176   dEtot: -2.407e-09   |Residual|: 3.199e-05   |deigs|: 1.287e-07  t[s]:   2815.13
	Linear fluid (dielectric constant: 64) occupying 0.990854 of unit cell:	Completed after 0 iterations at t[s]:   2818.91
	Linear fluid (dielectric constant: 64) occupying 0.990854 of unit cell:	Completed after 0 iterations at t[s]:   2840.66
SCF: Cycle: 41   Etot: -177.797289119335687   dEtot: +5.374e-09   |Residual|: 4.046e-05   |deigs|: 3.012e-07  t[s]:   2843.01
	Linear fluid (dielectric constant: 64) occupying 0.990854 of unit cell:	Completed after 0 iterations at t[s]:   2846.79
	Linear fluid (dielectric constant: 64) occupying 0.990854 of unit cell:	Completed after 0 iterations at t[s]:   2868.71
SCF: Cycle: 42   Etot: -177.797289124813631   dEtot: -5.478e-09   |Residual|: 4.159e-05   |deigs|: 2.020e-07  t[s]:   2871.08
	Linear fluid (dielectric constant: 64) occupying 0.990854 of unit cell:	Completed after 0 iterations at t[s]:   2874.86
	Linear fluid (dielectric constant: 64) occupying 0.990854 of unit cell:	Completed after 0 iterations at t[s]:   2901.80
SCF: Cycle: 43   Etot: -177.797289143565877   dEtot: -1.875e-08   |Residual|: 4.208e-05   |deigs|: 5.776e-07  t[s]:   2904.21
	Linear fluid (dielectric constant: 64) occupying 0.990854 of unit cell:	Completed after 0 iterations at t[s]:   2908.00
	Linear fluid (dielectric constant: 64) occupying 0.990854 of unit cell:	Completed after 0 iterations at t[s]:   2929.74
SCF: Cycle: 44   Etot: -177.797289140878519   dEtot: +2.687e-09   |Residual|: 4.291e-05   |deigs|: 1.315e-07  t[s]:   2932.09
	Linear fluid (dielectric constant: 64) occupying 0.990854 of unit cell:	Completed after 0 iterations at t[s]:   2935.86
	Linear fluid (dielectric constant: 64) occupying 0.990854 of unit cell:	Completed after 0 iterations at t[s]:   2962.79
SCF: Cycle: 45   Etot: -177.797289161940654   dEtot: -2.106e-08   |Residual|: 4.687e-05   |deigs|: 6.552e-07  t[s]:   2965.20
	Linear fluid (dielectric constant: 64) occupying 0.990854 of unit cell:	Completed after 0 iterations at t[s]:   2968.96
	Linear fluid (dielectric constant: 64) occupying 0.990854 of unit cell:	Completed after 0 iterations at t[s]:   2990.99
SCF: Cycle: 46   Etot: -177.797289156243153   dEtot: +5.698e-09   |Residual|: 4.635e-05   |deigs|: 2.360e-07  t[s]:   2993.38
	Linear fluid (dielectric constant: 64) occupying 0.990854 of unit cell:	Completed after 0 iterations at t[s]:   2997.07
	Linear fluid (dielectric constant: 64) occupying 0.990854 of unit cell:	Completed after 0 iterations at t[s]:   3024.30
SCF: Cycle: 47   Etot: -177.797289136337412   dEtot: +1.991e-08   |Residual|: 4.664e-05   |deigs|: 6.217e-07  t[s]:   3026.71
	Linear fluid (dielectric constant: 64) occupying 0.990854 of unit cell:	Completed after 0 iterations at t[s]:   3030.43
	Linear fluid (dielectric constant: 64) occupying 0.990854 of unit cell:	Completed after 0 iterations at t[s]:   3052.37
SCF: Cycle: 48   Etot: -177.797289134370601   dEtot: +1.967e-09   |Residual|: 4.412e-05   |deigs|: 1.421e-07  t[s]:   3054.74
	Linear fluid (dielectric constant: 64) occupying 0.990854 of unit cell:	Completed after 0 iterations at t[s]:   3058.40
	Linear fluid (dielectric constant: 64) occupying 0.990854 of unit cell:	Completed after 0 iterations at t[s]:   3080.03
SCF: Cycle: 49   Etot: -177.797289133536310   dEtot: +8.343e-10   |Residual|: 4.489e-05   |deigs|: 7.513e-08  t[s]:   3082.43
	Linear fluid (dielectric constant: 64) occupying 0.990854 of unit cell:	Completed after 0 iterations at t[s]:   3086.10
Setting wave functions to eigenvectors of Hamiltonian
Single-point solvation energy estimate, DeltaEtot = -0.128091798980108

Computing DFT-D3 correction:
# coordination-number S 2.769 2.835 2.628 3.396 2.447 2.001 3.134 2.953
# coordination-number Na 4.896 4.826
# diagonal-C6 S 125.81 125.81 125.81 125.81 125.81 125.90 125.81 125.81
# diagonal-C6 Na 186.11 186.11
EvdW_6 =   -0.002824
EvdW_8 =   -0.010324

# Ionic positions in cartesian coordinates:
ion S   5.224404249899997  10.946321496360000  20.502457449030000 1
ion S   4.405930061490001   8.273321088119999  23.990258410559999 1
ion S   4.517822864520001  10.323889787879999  27.113757222690001 1
ion S   8.657034544080000   8.813494739429999  28.671448433579997 1
ion S  10.060045685279999  10.482500495969999  31.757946332309999 1
ion S  11.945089154880002  13.725664570619998  31.194889940430002 1
ion S   6.530742473489992  14.219337635819999  21.830982992549998 1
ion S  10.409702427179997  14.199862078439999  22.327596477629999 1
ion Na   8.885518018920003  14.526203331600000  27.203814195570001 1
ion Na   9.820560202380001   9.211912184519999  23.309165703420000 1

# Forces in Cartesian coordinates:
force S  -0.005138453726820   0.000149010403730  -0.000521566125004 1
force S  -0.009074913139501  -0.000582012546339  -0.000495397320221 1
force S   0.001512408994154  -0.006727562453998   0.000993047137833 1
force S  -0.005971529904759  -0.001006840226072   0.007647319280210 1
force S  -0.004731832494322  -0.006969655444124   0.003863845419493 1
force S   0.011259929192052   0.001907120199685   0.008176257601803 1
force S   0.004037641140236   0.002113933489726  -0.002743173106194 1
force S  -0.002256977827928   0.011256716233274  -0.014744027827453 1
force Na  -0.005913218318839   0.015790769924645   0.003740090106487 1
force Na   0.016472738560571  -0.015981342619810  -0.006014318277920 1

# Energy components:
   A_diel =       -0.1925816395544379
   Eewald =      203.3873819993915220
       EH =      347.1238256079534494
     Eloc =     -612.0194658027646710
      Enl =     -129.8932615080070718
     EvdW =       -0.0131487667051323
      Exc =      -48.0274322797284370
 Exc_core =       14.1418397609921129
       KE =       47.6955769666625500
-------------------------------------
     Etot =     -177.7972656617602070

IonicMinimize: Iter:   0  Etot: -177.797265661760207  |grad|_K:  7.692e-03  alpha:  1.000e+00

#--- Lowdin population analysis ---
# oxidation-state S -0.081 -0.020 -0.042 -0.112 +0.204 -0.527 +0.163 -0.582
# oxidation-state Na +0.821 +0.834


Computing DFT-D3 correction:
# coordination-number S 2.758 2.823 2.617 3.379 2.437 1.997 3.119 2.945
# coordination-number Na 4.843 4.756
# diagonal-C6 S 125.81 125.81 125.81 125.81 125.81 125.90 125.81 125.81
# diagonal-C6 Na 186.11 186.11
EvdW_6 =   -0.002829
EvdW_8 =   -0.010404

-------- Electronic minimization -----------
Will mix electronic density at each iteration.
	Linear fluid (dielectric constant: 64) occupying 0.990854 of unit cell:	Completed after 16 iterations at t[s]:   3147.37
	Linear fluid (dielectric constant: 64) occupying 0.990812 of unit cell:	Completed after 20 iterations at t[s]:   3205.81
SCF: Cycle:  0   Etot: -177.797381593270131   dEtot: -1.645e-02   |Residual|: 5.963e-02   |deigs|: 6.666e-04  t[s]:   3208.30
	Linear fluid (dielectric constant: 64) occupying 0.990870 of unit cell:	Completed after 20 iterations at t[s]:   3241.05
	Linear fluid (dielectric constant: 64) occupying 0.990821 of unit cell:	Completed after 18 iterations at t[s]:   3294.63
SCF: Cycle:  1   Etot: -177.798254022749347   dEtot: -8.724e-04   |Residual|: 3.002e-02   |deigs|: 7.848e-04  t[s]:   3297.03
	Linear fluid (dielectric constant: 64) occupying 0.990871 of unit cell:	Completed after 17 iterations at t[s]:   3325.68
	Linear fluid (dielectric constant: 64) occupying 0.990840 of unit cell:	Completed after 15 iterations at t[s]:   3375.01
SCF: Cycle:  2   Etot: -177.798834795015949   dEtot: -5.808e-04   |Residual|: 6.501e-03   |deigs|: 2.197e-03  t[s]:   3377.65
	Linear fluid (dielectric constant: 64) occupying 0.990858 of unit cell:	Completed after 13 iterations at t[s]:   3400.59
	Linear fluid (dielectric constant: 64) occupying 0.990841 of unit cell:	Completed after 13 iterations at t[s]:   3441.51
SCF: Cycle:  3   Etot: -177.798888506108199   dEtot: -5.371e-05   |Residual|: 3.986e-03   |deigs|: 6.031e-04  t[s]:   3443.97
	Linear fluid (dielectric constant: 64) occupying 0.990836 of unit cell:	Completed after 6 iterations at t[s]:   3457.17
	Linear fluid (dielectric constant: 64) occupying 0.990840 of unit cell:	Completed after 7 iterations at t[s]:   3495.22
SCF: Cycle:  4   Etot: -177.798952231946544   dEtot: -6.373e-05   |Residual|: 2.238e-03   |deigs|: 6.241e-04  t[s]:   3497.62
	Linear fluid (dielectric constant: 64) occupying 0.990834 of unit cell:	Completed after 6 iterations at t[s]:   3510.96
	Linear fluid (dielectric constant: 64) occupying 0.990841 of unit cell:	Completed after 6 iterations at t[s]:   3542.14
SCF: Cycle:  5   Etot: -177.798967296235389   dEtot: -1.506e-05   |Residual|: 1.819e-03   |deigs|: 5.622e-05  t[s]:   3544.65
	Linear fluid (dielectric constant: 64) occupying 0.990827 of unit cell:	Completed after 8 iterations at t[s]:   3560.69
	Linear fluid (dielectric constant: 64) occupying 0.990841 of unit cell:	Completed after 7 iterations at t[s]:   3598.67
SCF: Cycle:  6   Etot: -177.799000038148506   dEtot: -3.274e-05   |Residual|: 1.182e-03   |deigs|: 1.851e-04  t[s]:   3601.14
	Linear fluid (dielectric constant: 64) occupying 0.990826 of unit cell:	Completed after 6 iterations at t[s]:   3614.46
	Linear fluid (dielectric constant: 64) occupying 0.990841 of unit cell:	Completed after 6 iterations at t[s]:   3645.68
SCF: Cycle:  7   Etot: -177.799006013736573   dEtot: -5.976e-06   |Residual|: 8.669e-04   |deigs|: 1.081e-04  t[s]:   3648.16
	Linear fluid (dielectric constant: 64) occupying 0.990827 of unit cell:	Completed after 4 iterations at t[s]:   3658.99
	Linear fluid (dielectric constant: 64) occupying 0.990840 of unit cell:	Completed after 5 iterations at t[s]:   3691.56
SCF: Cycle:  8   Etot: -177.799011774004668   dEtot: -5.760e-06   |Residual|: 1.362e-03   |deigs|: 2.606e-04  t[s]:   3694.06
	Linear fluid (dielectric constant: 64) occupying 0.990828 of unit cell:	Completed after 4 iterations at t[s]:   3704.73
	Linear fluid (dielectric constant: 64) occupying 0.990840 of unit cell:	Completed after 3 iterations at t[s]:   3732.12
SCF: Cycle:  9   Etot: -177.799014038831444   dEtot: -2.265e-06   |Residual|: 6.618e-04   |deigs|: 1.588e-04  t[s]:   3734.66
	Linear fluid (dielectric constant: 64) occupying 0.990831 of unit cell:	Completed after 1 iterations at t[s]:   3741.42
	Linear fluid (dielectric constant: 64) occupying 0.990842 of unit cell:	Completed after 3 iterations at t[s]:   3768.75
SCF: Cycle: 10   Etot: -177.799015679596749   dEtot: -1.641e-06   |Residual|: 5.119e-04   |deigs|: 1.272e-04  t[s]:   3771.23
	Linear fluid (dielectric constant: 64) occupying 0.990834 of unit cell:	Completed after 3 iterations at t[s]:   3780.69
	Linear fluid (dielectric constant: 64) occupying 0.990841 of unit cell:	Completed after 1 iterations at t[s]:   3805.47
SCF: Cycle: 11   Etot: -177.799016057326099   dEtot: -3.777e-07   |Residual|: 5.076e-04   |deigs|: 1.656e-04  t[s]:   3807.90
	Linear fluid (dielectric constant: 64) occupying 0.990836 of unit cell:	Completed after 0 iterations at t[s]:   3812.93
	Linear fluid (dielectric constant: 64) occupying 0.990841 of unit cell:	Completed after 0 iterations at t[s]:   3836.38
SCF: Cycle: 12   Etot: -177.799016019915911   dEtot: +3.741e-08   |Residual|: 3.330e-04   |deigs|: 7.682e-05  t[s]:   3838.83
	Linear fluid (dielectric constant: 64) occupying 0.990839 of unit cell:	Completed after 3 iterations at t[s]:   3847.92
	Linear fluid (dielectric constant: 64) occupying 0.990842 of unit cell:	Completed after 3 iterations at t[s]:   3881.12
SCF: Cycle: 13   Etot: -177.799016269025913   dEtot: -2.491e-07   |Residual|: 6.942e-04   |deigs|: 1.331e-04  t[s]:   3883.68
	Linear fluid (dielectric constant: 64) occupying 0.990839 of unit cell:	Completed after 0 iterations at t[s]:   3889.05
	Linear fluid (dielectric constant: 64) occupying 0.990841 of unit cell:	Completed after 0 iterations at t[s]:   3912.31
SCF: Cycle: 14   Etot: -177.799016198060741   dEtot: +7.097e-08   |Residual|: 2.912e-04   |deigs|: 8.400e-05  t[s]:   3914.72
	Linear fluid (dielectric constant: 64) occupying 0.990840 of unit cell:	Completed after 0 iterations at t[s]:   3918.66
	Linear fluid (dielectric constant: 64) occupying 0.990841 of unit cell:	Completed after 0 iterations at t[s]:   3946.00
SCF: Cycle: 15   Etot: -177.799016710464457   dEtot: -5.124e-07   |Residual|: 3.300e-04   |deigs|: 4.486e-05  t[s]:   3948.39
	Linear fluid (dielectric constant: 64) occupying 0.990840 of unit cell:	Completed after 0 iterations at t[s]:   3953.63
	Linear fluid (dielectric constant: 64) occupying 0.990841 of unit cell:	Completed after 0 iterations at t[s]:   3980.64
SCF: Cycle: 16   Etot: -177.799017184156241   dEtot: -4.737e-07   |Residual|: 3.784e-04   |deigs|: 3.458e-05  t[s]:   3983.04
	Linear fluid (dielectric constant: 64) occupying 0.990841 of unit cell:	Completed after 2 iterations at t[s]:   3990.80
	Linear fluid (dielectric constant: 64) occupying 0.990841 of unit cell:	Completed after 0 iterations at t[s]:   4014.24
SCF: Cycle: 17   Etot: -177.799016921308720   dEtot: +2.628e-07   |Residual|: 3.139e-04   |deigs|: 9.320e-05  t[s]:   4016.70
	Linear fluid (dielectric constant: 64) occupying 0.990841 of unit cell:	Completed after 0 iterations at t[s]:   4020.47
	Linear fluid (dielectric constant: 64) occupying 0.990842 of unit cell:	Completed after 0 iterations at t[s]:   4042.36
SCF: Cycle: 18   Etot: -177.799016907069870   dEtot: +1.424e-08   |Residual|: 2.183e-04   |deigs|: 2.942e-05  t[s]:   4044.80
	Linear fluid (dielectric constant: 64) occupying 0.990841 of unit cell:	Completed after 0 iterations at t[s]:   4049.86
	Linear fluid (dielectric constant: 64) occupying 0.990842 of unit cell:	Completed after 0 iterations at t[s]:   4077.41
SCF: Cycle: 19   Etot: -177.799016888877134   dEtot: +1.819e-08   |Residual|: 1.736e-04   |deigs|: 1.821e-05  t[s]:   4079.78
	Linear fluid (dielectric constant: 64) occupying 0.990841 of unit cell:	Completed after 0 iterations at t[s]:   4083.47
	Linear fluid (dielectric constant: 64) occupying 0.990842 of unit cell:	Completed after 1 iterations at t[s]:   4113.35
SCF: Cycle: 20   Etot: -177.799016672792334   dEtot: +2.161e-07   |Residual|: 1.361e-04   |deigs|: 2.478e-06  t[s]:   4115.77
	Linear fluid (dielectric constant: 64) occupying 0.990842 of unit cell:	Completed after 0 iterations at t[s]:   4120.82
	Linear fluid (dielectric constant: 64) occupying 0.990842 of unit cell:	Completed after 0 iterations at t[s]:   4142.85
SCF: Cycle: 21   Etot: -177.799016781221098   dEtot: -1.084e-07   |Residual|: 2.268e-04   |deigs|: 4.182e-05  t[s]:   4145.26
	Linear fluid (dielectric constant: 64) occupying 0.990842 of unit cell:	Completed after 0 iterations at t[s]:   4148.99
	Linear fluid (dielectric constant: 64) occupying 0.990842 of unit cell:	Completed after 0 iterations at t[s]:   4171.99
SCF: Cycle: 22   Etot: -177.799016871811489   dEtot: -9.059e-08   |Residual|: 2.688e-04   |deigs|: 3.637e-06  t[s]:   4174.39
	Linear fluid (dielectric constant: 64) occupying 0.990842 of unit cell:	Completed after 0 iterations at t[s]:   4178.21
	Linear fluid (dielectric constant: 64) occupying 0.990842 of unit cell:	Completed after 0 iterations at t[s]:   4205.55
SCF: Cycle: 23   Etot: -177.799016971498389   dEtot: -9.969e-08   |Residual|: 1.883e-04   |deigs|: 2.110e-05  t[s]:   4207.99
	Linear fluid (dielectric constant: 64) occupying 0.990843 of unit cell:	Completed after 0 iterations at t[s]:   4211.67
	Linear fluid (dielectric constant: 64) occupying 0.990842 of unit cell:	Completed after 0 iterations at t[s]:   4233.40
SCF: Cycle: 24   Etot: -177.799017033410450   dEtot: -6.191e-08   |Residual|: 1.347e-04   |deigs|: 1.476e-06  t[s]:   4235.75
	Linear fluid (dielectric constant: 64) occupying 0.990843 of unit cell:	Completed after 1 iterations at t[s]:   4242.31
	Linear fluid (dielectric constant: 64) occupying 0.990842 of unit cell:	Completed after 0 iterations at t[s]:   4265.61
SCF: Cycle: 25   Etot: -177.799016795403816   dEtot: +2.380e-07   |Residual|: 2.753e-04   |deigs|: 7.478e-05  t[s]:   4268.07
	Linear fluid (dielectric constant: 64) occupying 0.990843 of unit cell:	Completed after 0 iterations at t[s]:   4271.74
	Linear fluid (dielectric constant: 64) occupying 0.990842 of unit cell:	Completed after 0 iterations at t[s]:   4293.52
SCF: Cycle: 26   Etot: -177.799016772831578   dEtot: +2.257e-08   |Residual|: 1.428e-04   |deigs|: 1.919e-05  t[s]:   4295.99
	Linear fluid (dielectric constant: 64) occupying 0.990843 of unit cell:	Completed after 0 iterations at t[s]:   4299.76
	Linear fluid (dielectric constant: 64) occupying 0.990842 of unit cell:	Completed after 0 iterations at t[s]:   4321.45
SCF: Cycle: 27   Etot: -177.799016807931110   dEtot: -3.510e-08   |Residual|: 9.236e-05   |deigs|: 1.380e-06  t[s]:   4323.81
	Linear fluid (dielectric constant: 64) occupying 0.990843 of unit cell:	Completed after 0 iterations at t[s]:   4327.50
	Linear fluid (dielectric constant: 64) occupying 0.990842 of unit cell:	Completed after 0 iterations at t[s]:   4354.35
SCF: Cycle: 28   Etot: -177.799016884559364   dEtot: -7.663e-08   |Residual|: 6.341e-05   |deigs|: 1.166e-06  t[s]:   4356.70
	Linear fluid (dielectric constant: 64) occupying 0.990843 of unit cell:	Completed after 0 iterations at t[s]:   4360.36
	Linear fluid (dielectric constant: 64) occupying 0.990842 of unit cell:	Completed after 0 iterations at t[s]:   4387.42
SCF: Cycle: 29   Etot: -177.799017024341254   dEtot: -1.398e-07   |Residual|: 4.821e-05   |deigs|: 1.230e-06  t[s]:   4389.93
	Linear fluid (dielectric constant: 64) occupying 0.990842 of unit cell:	Completed after 0 iterations at t[s]:   4393.70
	Linear fluid (dielectric constant: 64) occupying 0.990842 of unit cell:	Completed after 0 iterations at t[s]:   4415.24
SCF: Cycle: 30   Etot: -177.799017122725957   dEtot: -9.838e-08   |Residual|: 5.171e-05   |deigs|: 1.032e-06  t[s]:   4417.63
	Linear fluid (dielectric constant: 64) occupying 0.990842 of unit cell:	Completed after 0 iterations at t[s]:   4421.32
	Linear fluid (dielectric constant: 64) occupying 0.990842 of unit cell:	Completed after 1 iterations at t[s]:   4445.70
SCF: Cycle: 31   Etot: -177.799016818568305   dEtot: +3.042e-07   |Residual|: 5.300e-05   |deigs|: 9.260e-07  t[s]:   4448.13
	Linear fluid (dielectric constant: 64) occupying 0.990842 of unit cell:	Completed after 0 iterations at t[s]:   4451.87
	Linear fluid (dielectric constant: 64) occupying 0.990842 of unit cell:	Completed after 0 iterations at t[s]:   4473.61
SCF: Cycle: 32   Etot: -177.799016932457334   dEtot: -1.139e-07   |Residual|: 1.043e-04   |deigs|: 4.205e-05  t[s]:   4475.99
	Linear fluid (dielectric constant: 64) occupying 0.990842 of unit cell:	Completed after 0 iterations at t[s]:   4479.66
	Linear fluid (dielectric constant: 64) occupying 0.990842 of unit cell:	Completed after 0 iterations at t[s]:   4501.43
SCF: Cycle: 33   Etot: -177.799016940295161   dEtot: -7.838e-09   |Residual|: 9.097e-05   |deigs|: 1.016e-06  t[s]:   4503.79
	Linear fluid (dielectric constant: 64) occupying 0.990842 of unit cell:	Completed after 0 iterations at t[s]:   4507.52
	Linear fluid (dielectric constant: 64) occupying 0.990842 of unit cell:	Completed after 0 iterations at t[s]:   4534.33
SCF: Cycle: 34   Etot: -177.799016959124231   dEtot: -1.883e-08   |Residual|: 8.287e-05   |deigs|: 6.210e-07  t[s]:   4536.68
	Linear fluid (dielectric constant: 64) occupying 0.990842 of unit cell:	Completed after 0 iterations at t[s]:   4540.33
	Linear fluid (dielectric constant: 64) occupying 0.990842 of unit cell:	Completed after 0 iterations at t[s]:   4562.42
SCF: Cycle: 35   Etot: -177.799016974721610   dEtot: -1.560e-08   |Residual|: 7.937e-05   |deigs|: 4.296e-07  t[s]:   4564.80
	Linear fluid (dielectric constant: 64) occupying 0.990842 of unit cell:	Completed after 0 iterations at t[s]:   4568.67
	Linear fluid (dielectric constant: 64) occupying 0.990842 of unit cell:	Completed after 0 iterations at t[s]:   4595.71
SCF: Cycle: 36   Etot: -177.799017005333781   dEtot: -3.061e-08   |Residual|: 7.386e-05   |deigs|: 1.025e-06  t[s]:   4598.14
	Linear fluid (dielectric constant: 64) occupying 0.990842 of unit cell:	Completed after 0 iterations at t[s]:   4603.24
	Linear fluid (dielectric constant: 64) occupying 0.990842 of unit cell:	Completed after 0 iterations at t[s]:   4625.07
SCF: Cycle: 37   Etot: -177.799016896597379   dEtot: +1.087e-07   |Residual|: 8.237e-05   |deigs|: 2.809e-05  t[s]:   4627.45
	Linear fluid (dielectric constant: 64) occupying 0.990842 of unit cell:	Completed after 0 iterations at t[s]:   4631.19
	Linear fluid (dielectric constant: 64) occupying 0.990842 of unit cell:	Completed after 0 iterations at t[s]:   4652.96
SCF: Cycle: 38   Etot: -177.799016896378532   dEtot: +2.188e-10   |Residual|: 7.797e-05   |deigs|: 2.747e-08  t[s]:   4655.35
	Linear fluid (dielectric constant: 64) occupying 0.990842 of unit cell:	Completed after 0 iterations at t[s]:   4659.11
	Linear fluid (dielectric constant: 64) occupying 0.990842 of unit cell:	Completed after 0 iterations at t[s]:   4686.19
SCF: Cycle: 39   Etot: -177.799016900935669   dEtot: -4.557e-09   |Residual|: 8.155e-05   |deigs|: 1.310e-07  t[s]:   4688.57
	Linear fluid (dielectric constant: 64) occupying 0.990842 of unit cell:	Completed after 0 iterations at t[s]:   4692.31
	Linear fluid (dielectric constant: 64) occupying 0.990842 of unit cell:	Completed after 0 iterations at t[s]:   4714.22
SCF: Cycle: 40   Etot: -177.799016899748125   dEtot: +1.188e-09   |Residual|: 8.229e-05   |deigs|: 9.311e-08  t[s]:   4716.67
	Linear fluid (dielectric constant: 64) occupying 0.990842 of unit cell:	Completed after 0 iterations at t[s]:   4720.47
	Linear fluid (dielectric constant: 64) occupying 0.990842 of unit cell:	Completed after 0 iterations at t[s]:   4742.52
SCF: Cycle: 41   Etot: -177.799016892165412   dEtot: +7.583e-09   |Residual|: 8.247e-05   |deigs|: 2.752e-07  t[s]:   4744.92
	Linear fluid (dielectric constant: 64) occupying 0.990842 of unit cell:	Completed after 0 iterations at t[s]:   4748.74
	Linear fluid (dielectric constant: 64) occupying 0.990842 of unit cell:	Completed after 0 iterations at t[s]:   4770.66
SCF: Cycle: 42   Etot: -177.799016908380565   dEtot: -1.622e-08   |Residual|: 7.178e-05   |deigs|: 3.881e-07  t[s]:   4773.04
	Linear fluid (dielectric constant: 64) occupying 0.990842 of unit cell:	Completed after 0 iterations at t[s]:   4776.83
	Linear fluid (dielectric constant: 64) occupying 0.990842 of unit cell:	Completed after 0 iterations at t[s]:   4804.13
SCF: Cycle: 43   Etot: -177.799016947682475   dEtot: -3.930e-08   |Residual|: 5.798e-05   |deigs|: 1.056e-06  t[s]:   4806.58
	Linear fluid (dielectric constant: 64) occupying 0.990842 of unit cell:	Completed after 0 iterations at t[s]:   4810.38
	Linear fluid (dielectric constant: 64) occupying 0.990842 of unit cell:	Completed after 0 iterations at t[s]:   4837.72
SCF: Cycle: 44   Etot: -177.799017019925060   dEtot: -7.224e-08   |Residual|: 6.799e-05   |deigs|: 2.282e-06  t[s]:   4840.10
	Linear fluid (dielectric constant: 64) occupying 0.990842 of unit cell:	Completed after 0 iterations at t[s]:   4843.83
	Linear fluid (dielectric constant: 64) occupying 0.990842 of unit cell:	Completed after 0 iterations at t[s]:   4867.23
SCF: Cycle: 45   Etot: -177.799016912923292   dEtot: +1.070e-07   |Residual|: 7.347e-05   |deigs|: 1.513e-06  t[s]:   4869.68
	Linear fluid (dielectric constant: 64) occupying 0.990842 of unit cell:	Completed after 0 iterations at t[s]:   4873.34
	Linear fluid (dielectric constant: 64) occupying 0.990842 of unit cell:	Completed after 0 iterations at t[s]:   4895.16
SCF: Cycle: 46   Etot: -177.799016916691357   dEtot: -3.768e-09   |Residual|: 3.481e-05   |deigs|: 3.011e-05  t[s]:   4897.53
	Linear fluid (dielectric constant: 64) occupying 0.990842 of unit cell:	Completed after 0 iterations at t[s]:   4901.38
	Linear fluid (dielectric constant: 64) occupying 0.990842 of unit cell:	Completed after 0 iterations at t[s]:   4923.24
SCF: Cycle: 47   Etot: -177.799016923063846   dEtot: -6.372e-09   |Residual|: 1.851e-05   |deigs|: 5.823e-07  t[s]:   4925.64
SCF: Converged (|Delta E|<1.000000e-08 for 2 iters).

Setting wave functions to eigenvectors of Hamiltonian
IonicMinimize: 	Predicted alpha/alphaT>3.000000, increasing alphaT to 3.000000e+00.

Computing DFT-D3 correction:
# coordination-number S 2.734 2.797 2.596 3.345 2.418 1.990 3.089 2.928
# coordination-number Na 4.735 4.612
# diagonal-C6 S 125.81 125.81 125.81 125.81 125.81 125.91 125.81 125.81
# diagonal-C6 Na 186.11 186.11
EvdW_6 =   -0.002838
EvdW_8 =   -0.010567

-------- Electronic minimization -----------
Will mix electronic density at each iteration.
	Linear fluid (dielectric constant: 64) occupying 0.990840 of unit cell:	Completed after 20 iterations at t[s]:   4970.18
	Linear fluid (dielectric constant: 64) occupying 0.990760 of unit cell:	Completed after 23 iterations at t[s]:   5033.14
SCF: Cycle:  0   Etot: -177.795690087291121   dEtot: -6.590e-02   |Residual|: 1.206e-01   |deigs|: 2.699e-03  t[s]:   5035.61
	Linear fluid (dielectric constant: 64) occupying 0.990872 of unit cell:	Completed after 22 iterations at t[s]:   5071.27
	Linear fluid (dielectric constant: 64) occupying 0.990775 of unit cell:	Completed after 21 iterations at t[s]:   5128.92
SCF: Cycle:  1   Etot: -177.799154672995115   dEtot: -3.465e-03   |Residual|: 6.030e-02   |deigs|: 1.745e-03  t[s]:   5131.38
	Linear fluid (dielectric constant: 64) occupying 0.990875 of unit cell:	Completed after 21 iterations at t[s]:   5165.72
	Linear fluid (dielectric constant: 64) occupying 0.990811 of unit cell:	Completed after 20 iterations at t[s]:   5222.04
SCF: Cycle:  2   Etot: -177.801513169444092   dEtot: -2.358e-03   |Residual|: 1.308e-02   |deigs|: 3.674e-03  t[s]:   5224.52
	Linear fluid (dielectric constant: 64) occupying 0.990848 of unit cell:	Completed after 17 iterations at t[s]:   5253.03
	Linear fluid (dielectric constant: 64) occupying 0.990813 of unit cell:	Completed after 17 iterations at t[s]:   5304.55
SCF: Cycle:  3   Etot: -177.801743955107838   dEtot: -2.308e-04   |Residual|: 8.021e-03   |deigs|: 1.658e-03  t[s]:   5307.00
	Linear fluid (dielectric constant: 64) occupying 0.990807 of unit cell:	Completed after 11 iterations at t[s]:   5327.48
	Linear fluid (dielectric constant: 64) occupying 0.990815 of unit cell:	Completed after 10 iterations at t[s]:   5370.07
SCF: Cycle:  4   Etot: -177.801980739068000   dEtot: -2.368e-04   |Residual|: 4.090e-03   |deigs|: 1.618e-03  t[s]:   5372.50
	Linear fluid (dielectric constant: 64) occupying 0.990801 of unit cell:	Completed after 9 iterations at t[s]:   5390.07
	Linear fluid (dielectric constant: 64) occupying 0.990816 of unit cell:	Completed after 9 iterations at t[s]:   5425.47
SCF: Cycle:  5   Etot: -177.802055654112451   dEtot: -7.492e-05   |Residual|: 2.886e-03   |deigs|: 2.169e-04  t[s]:   5427.90
	Linear fluid (dielectric constant: 64) occupying 0.990780 of unit cell:	Completed after 11 iterations at t[s]:   5448.70
	Linear fluid (dielectric constant: 64) occupying 0.990814 of unit cell:	Completed after 11 iterations at t[s]:   5492.35
SCF: Cycle:  6   Etot: -177.802172753880797   dEtot: -1.171e-04   |Residual|: 2.152e-03   |deigs|: 2.977e-04  t[s]:   5494.83
	Linear fluid (dielectric constant: 64) occupying 0.990780 of unit cell:	Completed after 10 iterations at t[s]:   5513.77
	Linear fluid (dielectric constant: 64) occupying 0.990815 of unit cell:	Completed after 11 iterations at t[s]:   5552.35
SCF: Cycle:  7   Etot: -177.802187556170423   dEtot: -1.480e-05   |Residual|: 1.895e-03   |deigs|: 1.946e-04  t[s]:   5554.86
	Linear fluid (dielectric constant: 64) occupying 0.990791 of unit cell:	Completed after 9 iterations at t[s]:   5572.52
	Linear fluid (dielectric constant: 64) occupying 0.990813 of unit cell:	Completed after 7 iterations at t[s]:   5611.64
SCF: Cycle:  8   Etot: -177.802210056291244   dEtot: -2.250e-05   |Residual|: 1.594e-03   |deigs|: 9.532e-04  t[s]:   5614.10
	Linear fluid (dielectric constant: 64) occupying 0.990791 of unit cell:	Completed after 6 iterations at t[s]:   5627.56
	Linear fluid (dielectric constant: 64) occupying 0.990813 of unit cell:	Completed after 6 iterations at t[s]:   5659.16
SCF: Cycle:  9   Etot: -177.802211670151479   dEtot: -1.614e-06   |Residual|: 1.213e-03   |deigs|: 1.063e-04  t[s]:   5661.56
	Linear fluid (dielectric constant: 64) occupying 0.990798 of unit cell:	Completed after 3 iterations at t[s]:   5671.14
	Linear fluid (dielectric constant: 64) occupying 0.990815 of unit cell:	Completed after 5 iterations at t[s]:   5707.00
SCF: Cycle: 10   Etot: -177.802214798814646   dEtot: -3.129e-06   |Residual|: 1.439e-03   |deigs|: 1.641e-04  t[s]:   5709.52
	Linear fluid (dielectric constant: 64) occupying 0.990800 of unit cell:	Completed after 3 iterations at t[s]:   5718.96
	Linear fluid (dielectric constant: 64) occupying 0.990815 of unit cell:	Completed after 3 iterations at t[s]:   5746.29
SCF: Cycle: 11   Etot: -177.802216738688060   dEtot: -1.940e-06   |Residual|: 9.597e-04   |deigs|: 1.184e-04  t[s]:   5748.79
	Linear fluid (dielectric constant: 64) occupying 0.990805 of unit cell:	Completed after 3 iterations at t[s]:   5758.19
	Linear fluid (dielectric constant: 64) occupying 0.990815 of unit cell:	Completed after 3 iterations at t[s]:   5785.83
SCF: Cycle: 12   Etot: -177.802217451483614   dEtot: -7.128e-07   |Residual|: 7.771e-04   |deigs|: 4.703e-05  t[s]:   5788.37
	Linear fluid (dielectric constant: 64) occupying 0.990808 of unit cell:	Completed after 2 iterations at t[s]:   5796.21
	Linear fluid (dielectric constant: 64) occupying 0.990815 of unit cell:	Completed after 1 iterations at t[s]:   5823.02
SCF: Cycle: 13   Etot: -177.802218538898671   dEtot: -1.087e-06   |Residual|: 5.517e-04   |deigs|: 5.029e-05  t[s]:   5825.46
	Linear fluid (dielectric constant: 64) occupying 0.990811 of unit cell:	Completed after 0 iterations at t[s]:   5830.59
	Linear fluid (dielectric constant: 64) occupying 0.990816 of unit cell:	Completed after 0 iterations at t[s]:   5853.89
SCF: Cycle: 14   Etot: -177.802218854684497   dEtot: -3.158e-07   |Residual|: 3.977e-04   |deigs|: 1.735e-05  t[s]:   5856.32
	Linear fluid (dielectric constant: 64) occupying 0.990814 of unit cell:	Completed after 3 iterations at t[s]:   5865.60
	Linear fluid (dielectric constant: 64) occupying 0.990816 of unit cell:	Completed after 1 iterations at t[s]:   5895.39
SCF: Cycle: 15   Etot: -177.802218927744377   dEtot: -7.306e-08   |Residual|: 3.515e-04   |deigs|: 5.436e-05  t[s]:   5897.83
	Linear fluid (dielectric constant: 64) occupying 0.990815 of unit cell:	Completed after 0 iterations at t[s]:   5901.70
	Linear fluid (dielectric constant: 64) occupying 0.990817 of unit cell:	Completed after 0 iterations at t[s]:   5928.71
SCF: Cycle: 16   Etot: -177.802219390238520   dEtot: -4.625e-07   |Residual|: 2.854e-04   |deigs|: 5.118e-05  t[s]:   5931.10
	Linear fluid (dielectric constant: 64) occupying 0.990818 of unit cell:	Completed after 0 iterations at t[s]:   5934.96
	Linear fluid (dielectric constant: 64) occupying 0.990817 of unit cell:	Completed after 0 iterations at t[s]:   5956.96
SCF: Cycle: 17   Etot: -177.802219298557560   dEtot: +9.168e-08   |Residual|: 2.138e-04   |deigs|: 5.427e-06  t[s]:   5959.36
	Linear fluid (dielectric constant: 64) occupying 0.990819 of unit cell:	Completed after 1 iterations at t[s]:   5965.96
	Linear fluid (dielectric constant: 64) occupying 0.990817 of unit cell:	Completed after 0 iterations at t[s]:   5994.29
SCF: Cycle: 18   Etot: -177.802219098165722   dEtot: +2.004e-07   |Residual|: 2.363e-04   |deigs|: 2.710e-05  t[s]:   5996.76
	Linear fluid (dielectric constant: 64) occupying 0.990819 of unit cell:	Completed after 0 iterations at t[s]:   6000.53
	Linear fluid (dielectric constant: 64) occupying 0.990817 of unit cell:	Completed after 0 iterations at t[s]:   6022.39
SCF: Cycle: 19   Etot: -177.802219448354123   dEtot: -3.502e-07   |Residual|: 1.739e-04   |deigs|: 1.544e-05  t[s]:   6024.79
	Linear fluid (dielectric constant: 64) occupying 0.990817 of unit cell:	Completed after 1 iterations at t[s]:   6031.31
	Linear fluid (dielectric constant: 64) occupying 0.990817 of unit cell:	Completed after 0 iterations at t[s]:   6057.41
SCF: Cycle: 20   Etot: -177.802219202689457   dEtot: +2.457e-07   |Residual|: 1.778e-04   |deigs|: 4.393e-05  t[s]:   6060.03
	Linear fluid (dielectric constant: 64) occupying 0.990817 of unit cell:	Completed after 0 iterations at t[s]:   6063.83
	Linear fluid (dielectric constant: 64) occupying 0.990817 of unit cell:	Completed after 0 iterations at t[s]:   6085.74
SCF: Cycle: 21   Etot: -177.802219281268179   dEtot: -7.858e-08   |Residual|: 1.535e-04   |deigs|: 1.940e-05  t[s]:   6088.09
	Linear fluid (dielectric constant: 64) occupying 0.990817 of unit cell:	Completed after 1 iterations at t[s]:   6094.50
	Linear fluid (dielectric constant: 64) occupying 0.990817 of unit cell:	Completed after 0 iterations at t[s]:   6122.67
SCF: Cycle: 22   Etot: -177.802219157702098   dEtot: +1.236e-07   |Residual|: 1.357e-04   |deigs|: 3.870e-05  t[s]:   6125.18
	Linear fluid (dielectric constant: 64) occupying 0.990817 of unit cell:	Completed after 0 iterations at t[s]:   6128.97
	Linear fluid (dielectric constant: 64) occupying 0.990817 of unit cell:	Completed after 0 iterations at t[s]:   6150.65
SCF: Cycle: 23   Etot: -177.802219257114132   dEtot: -9.941e-08   |Residual|: 1.090e-04   |deigs|: 1.298e-05  t[s]:   6153.02
	Linear fluid (dielectric constant: 64) occupying 0.990817 of unit cell:	Completed after 0 iterations at t[s]:   6156.71
	Linear fluid (dielectric constant: 64) occupying 0.990817 of unit cell:	Completed after 1 iterations at t[s]:   6186.58
SCF: Cycle: 24   Etot: -177.802219464345001   dEtot: -2.072e-07   |Residual|: 1.015e-04   |deigs|: 3.440e-06  t[s]:   6189.00
	Linear fluid (dielectric constant: 64) occupying 0.990817 of unit cell:	Completed after 0 iterations at t[s]:   6192.69
	Linear fluid (dielectric constant: 64) occupying 0.990817 of unit cell:	Completed after 0 iterations at t[s]:   6214.45
SCF: Cycle: 25   Etot: -177.802219678990753   dEtot: -2.146e-07   |Residual|: 6.709e-05   |deigs|: 2.425e-05  t[s]:   6216.83
	Linear fluid (dielectric constant: 64) occupying 0.990817 of unit cell:	Completed after 0 iterations at t[s]:   6220.62
	Linear fluid (dielectric constant: 64) occupying 0.990817 of unit cell:	Completed after 0 iterations at t[s]:   6242.03
SCF: Cycle: 26   Etot: -177.802219792751259   dEtot: -1.138e-07   |Residual|: 6.025e-05   |deigs|: 1.444e-06  t[s]:   6244.41
	Linear fluid (dielectric constant: 64) occupying 0.990817 of unit cell:	Completed after 0 iterations at t[s]:   6248.08
	Linear fluid (dielectric constant: 64) occupying 0.990817 of unit cell:	Completed after 1 iterations at t[s]:   6277.30
SCF: Cycle: 27   Etot: -177.802219297127294   dEtot: +4.956e-07   |Residual|: 6.416e-05   |deigs|: 3.616e-06  t[s]:   6279.77
	Linear fluid (dielectric constant: 64) occupying 0.990816 of unit cell:	Completed after 0 iterations at t[s]:   6283.53
	Linear fluid (dielectric constant: 64) occupying 0.990817 of unit cell:	Completed after 0 iterations at t[s]:   6306.57
SCF: Cycle: 28   Etot: -177.802219524471127   dEtot: -2.273e-07   |Residual|: 1.273e-04   |deigs|: 5.354e-05  t[s]:   6308.94
	Linear fluid (dielectric constant: 64) occupying 0.990816 of unit cell:	Completed after 0 iterations at t[s]:   6312.71
	Linear fluid (dielectric constant: 64) occupying 0.990817 of unit cell:	Completed after 0 iterations at t[s]:   6334.38
SCF: Cycle: 29   Etot: -177.802219440650248   dEtot: +8.382e-08   |Residual|: 8.645e-05   |deigs|: 1.389e-05  t[s]:   6336.75
	Linear fluid (dielectric constant: 64) occupying 0.990817 of unit cell:	Completed after 0 iterations at t[s]:   6340.48
	Linear fluid (dielectric constant: 64) occupying 0.990817 of unit cell:	Completed after 0 iterations at t[s]:   6362.12
SCF: Cycle: 30   Etot: -177.802219454042358   dEtot: -1.339e-08   |Residual|: 9.403e-05   |deigs|: 3.677e-07  t[s]:   6364.51
	Linear fluid (dielectric constant: 64) occupying 0.990817 of unit cell:	Completed after 0 iterations at t[s]:   6368.23
	Linear fluid (dielectric constant: 64) occupying 0.990817 of unit cell:	Completed after 0 iterations at t[s]:   6390.08
SCF: Cycle: 31   Etot: -177.802219480971672   dEtot: -2.693e-08   |Residual|: 8.261e-05   |deigs|: 7.088e-07  t[s]:   6392.47
	Linear fluid (dielectric constant: 64) occupying 0.990817 of unit cell:	Completed after 0 iterations at t[s]:   6396.18
	Linear fluid (dielectric constant: 64) occupying 0.990817 of unit cell:	Completed after 0 iterations at t[s]:   6418.20
SCF: Cycle: 32   Etot: -177.802219595473503   dEtot: -1.145e-07   |Residual|: 7.731e-05   |deigs|: 1.075e-06  t[s]:   6420.63
	Linear fluid (dielectric constant: 64) occupying 0.990817 of unit cell:	Completed after 0 iterations at t[s]:   6424.34
	Linear fluid (dielectric constant: 64) occupying 0.990817 of unit cell:	Completed after 0 iterations at t[s]:   6446.18
SCF: Cycle: 33   Etot: -177.802219637980471   dEtot: -4.251e-08   |Residual|: 8.106e-05   |deigs|: 3.122e-07  t[s]:   6448.60
	Linear fluid (dielectric constant: 64) occupying 0.990817 of unit cell:	Completed after 0 iterations at t[s]:   6452.32
	Linear fluid (dielectric constant: 64) occupying 0.990817 of unit cell:	Completed after 0 iterations at t[s]:   6474.20
SCF: Cycle: 34   Etot: -177.802219657234645   dEtot: -1.925e-08   |Residual|: 7.477e-05   |deigs|: 6.081e-07  t[s]:   6476.58
	Linear fluid (dielectric constant: 64) occupying 0.990817 of unit cell:	Completed after 0 iterations at t[s]:   6480.42
	Linear fluid (dielectric constant: 64) occupying 0.990817 of unit cell:	Completed after 0 iterations at t[s]:   6502.12
SCF: Cycle: 35   Etot: -177.802219649002467   dEtot: +8.232e-09   |Residual|: 7.411e-05   |deigs|: 2.103e-07  t[s]:   6504.52
	Linear fluid (dielectric constant: 64) occupying 0.990817 of unit cell:	Completed after 0 iterations at t[s]:   6508.35
	Linear fluid (dielectric constant: 64) occupying 0.990817 of unit cell:	Completed after 0 iterations at t[s]:   6530.11
SCF: Cycle: 36   Etot: -177.802219657296803   dEtot: -8.294e-09   |Residual|: 7.575e-05   |deigs|: 7.680e-08  t[s]:   6532.55
	Linear fluid (dielectric constant: 64) occupying 0.990817 of unit cell:	Completed after 0 iterations at t[s]:   6536.43
	Linear fluid (dielectric constant: 64) occupying 0.990817 of unit cell:	Completed after 0 iterations at t[s]:   6558.02
SCF: Cycle: 37   Etot: -177.802219720368015   dEtot: -6.307e-08   |Residual|: 8.153e-05   |deigs|: 7.631e-07  t[s]:   6560.41
	Linear fluid (dielectric constant: 64) occupying 0.990817 of unit cell:	Completed after 0 iterations at t[s]:   6564.25
	Linear fluid (dielectric constant: 64) occupying 0.990817 of unit cell:	Completed after 0 iterations at t[s]:   6585.78
SCF: Cycle: 38   Etot: -177.802219614437547   dEtot: +1.059e-07   |Residual|: 7.663e-05   |deigs|: 1.144e-06  t[s]:   6588.25
	Linear fluid (dielectric constant: 64) occupying 0.990817 of unit cell:	Completed after 0 iterations at t[s]:   6592.14
	Linear fluid (dielectric constant: 64) occupying 0.990817 of unit cell:	Completed after 0 iterations at t[s]:   6613.98
SCF: Cycle: 39   Etot: -177.802219556167614   dEtot: +5.827e-08   |Residual|: 7.301e-05   |deigs|: 5.944e-07  t[s]:   6616.34
	Linear fluid (dielectric constant: 64) occupying 0.990817 of unit cell:	Completed after 0 iterations at t[s]:   6620.02
	Linear fluid (dielectric constant: 64) occupying 0.990817 of unit cell:	Completed after 0 iterations at t[s]:   6641.96
SCF: Cycle: 40   Etot: -177.802219441955913   dEtot: +1.142e-07   |Residual|: 6.772e-05   |deigs|: 1.383e-06  t[s]:   6644.34
	Linear fluid (dielectric constant: 64) occupying 0.990816 of unit cell:	Completed after 0 iterations at t[s]:   6648.01
	Linear fluid (dielectric constant: 64) occupying 0.990817 of unit cell:	Completed after 0 iterations at t[s]:   6669.70
SCF: Cycle: 41   Etot: -177.802219348907556   dEtot: +9.305e-08   |Residual|: 6.523e-05   |deigs|: 1.107e-06  t[s]:   6672.11
	Linear fluid (dielectric constant: 64) occupying 0.990816 of unit cell:	Completed after 0 iterations at t[s]:   6675.77
	Linear fluid (dielectric constant: 64) occupying 0.990817 of unit cell:	Completed after 0 iterations at t[s]:   6697.38
SCF: Cycle: 42   Etot: -177.802219364600234   dEtot: -1.569e-08   |Residual|: 6.342e-05   |deigs|: 5.654e-07  t[s]:   6699.79
	Linear fluid (dielectric constant: 64) occupying 0.990817 of unit cell:	Completed after 0 iterations at t[s]:   6703.58
	Linear fluid (dielectric constant: 64) occupying 0.990817 of unit cell:	Completed after 0 iterations at t[s]:   6725.39
SCF: Cycle: 43   Etot: -177.802219397930770   dEtot: -3.333e-08   |Residual|: 6.161e-05   |deigs|: 3.590e-07  t[s]:   6727.75
	Linear fluid (dielectric constant: 64) occupying 0.990817 of unit cell:	Completed after 0 iterations at t[s]:   6731.46
	Linear fluid (dielectric constant: 64) occupying 0.990817 of unit cell:	Completed after 0 iterations at t[s]:   6753.03
SCF: Cycle: 44   Etot: -177.802219415975060   dEtot: -1.804e-08   |Residual|: 6.295e-05   |deigs|: 2.681e-07  t[s]:   6755.42
	Linear fluid (dielectric constant: 64) occupying 0.990817 of unit cell:	Completed after 0 iterations at t[s]:   6759.21
	Linear fluid (dielectric constant: 64) occupying 0.990817 of unit cell:	Completed after 0 iterations at t[s]:   6781.07
SCF: Cycle: 45   Etot: -177.802219422247447   dEtot: -6.272e-09   |Residual|: 5.490e-05   |deigs|: 5.605e-07  t[s]:   6783.53
	Linear fluid (dielectric constant: 64) occupying 0.990817 of unit cell:	Completed after 0 iterations at t[s]:   6787.19
	Linear fluid (dielectric constant: 64) occupying 0.990817 of unit cell:	Completed after 0 iterations at t[s]:   6814.57
SCF: Cycle: 46   Etot: -177.802219525947265   dEtot: -1.037e-07   |Residual|: 4.970e-05   |deigs|: 1.137e-06  t[s]:   6816.98
	Linear fluid (dielectric constant: 64) occupying 0.990817 of unit cell:	Completed after 0 iterations at t[s]:   6820.83
	Linear fluid (dielectric constant: 64) occupying 0.990817 of unit cell:	Completed after 0 iterations at t[s]:   6842.80
SCF: Cycle: 47   Etot: -177.802219659384861   dEtot: -1.334e-07   |Residual|: 4.932e-05   |deigs|: 1.203e-06  t[s]:   6845.34
	Linear fluid (dielectric constant: 64) occupying 0.990817 of unit cell:	Completed after 0 iterations at t[s]:   6849.05
	Linear fluid (dielectric constant: 64) occupying 0.990817 of unit cell:	Completed after 0 iterations at t[s]:   6871.05
SCF: Cycle: 48   Etot: -177.802219636230319   dEtot: +2.315e-08   |Residual|: 4.497e-05   |deigs|: 7.358e-07  t[s]:   6873.44
	Linear fluid (dielectric constant: 64) occupying 0.990817 of unit cell:	Completed after 0 iterations at t[s]:   6877.21
	Linear fluid (dielectric constant: 64) occupying 0.990817 of unit cell:	Completed after 0 iterations at t[s]:   6904.01
SCF: Cycle: 49   Etot: -177.802219527261144   dEtot: +1.090e-07   |Residual|: 5.034e-05   |deigs|: 1.044e-06  t[s]:   6906.47
	Linear fluid (dielectric constant: 64) occupying 0.990817 of unit cell:	Completed after 0 iterations at t[s]:   6910.23
Setting wave functions to eigenvectors of Hamiltonian
IonicMinimize: 	Predicted alpha/alphaT>3.000000, increasing alphaT to 9.000000e+00.

Computing DFT-D3 correction:
# coordination-number S 2.655 2.712 2.537 3.234 2.362 1.963 3.004 2.862
# coordination-number Na 4.394 4.147
# diagonal-C6 S 125.81 125.81 125.81 125.81 125.82 125.93 125.81 125.81
# diagonal-C6 Na 186.11 186.11
EvdW_6 =   -0.002865
EvdW_8 =   -0.011077

-------- Electronic minimization -----------
Will mix electronic density at each iteration.
	Linear fluid (dielectric constant: 64) occupying 0.990811 of unit cell:	Completed after 26 iterations at t[s]:   6969.39
	Linear fluid (dielectric constant: 64) occupying 0.990606 of unit cell:	Completed after 27 iterations at t[s]:   7036.55
SCF: Cycle:  0   Etot: -177.747107815655852   dEtot: -6.022e-01   |Residual|: 3.977e-01   |deigs|: 2.481e-02  t[s]:   7038.94
	Linear fluid (dielectric constant: 64) occupying 0.990900 of unit cell:	Completed after 30 iterations at t[s]:   7084.92
	Linear fluid (dielectric constant: 64) occupying 0.990623 of unit cell:	Completed after 26 iterations at t[s]:   7148.56
SCF: Cycle:  1   Etot: -177.781618740418651   dEtot: -3.451e-02   |Residual|: 1.870e-01   |deigs|: 1.897e-02  t[s]:   7151.02
	Linear fluid (dielectric constant: 64) occupying 0.990894 of unit cell:	Completed after 33 iterations at t[s]:   7201.03
	Linear fluid (dielectric constant: 64) occupying 0.990700 of unit cell:	Completed after 24 iterations at t[s]:   7262.31
SCF: Cycle:  2   Etot: -177.804100990308427   dEtot: -2.248e-02   |Residual|: 4.619e-02   |deigs|: 5.830e-03  t[s]:   7264.79
	Linear fluid (dielectric constant: 64) occupying 0.990823 of unit cell:	Completed after 25 iterations at t[s]:   7304.12
	Linear fluid (dielectric constant: 64) occupying 0.990715 of unit cell:	Completed after 22 iterations at t[s]:   7363.17
SCF: Cycle:  3   Etot: -177.806595888448072   dEtot: -2.495e-03   |Residual|: 2.446e-02   |deigs|: 9.758e-03  t[s]:   7365.58
	Linear fluid (dielectric constant: 64) occupying 0.990716 of unit cell:	Completed after 18 iterations at t[s]:   7395.38
	Linear fluid (dielectric constant: 64) occupying 0.990730 of unit cell:	Completed after 19 iterations at t[s]:   7450.39
SCF: Cycle:  4   Etot: -177.808265003062331   dEtot: -1.669e-03   |Residual|: 1.242e-02   |deigs|: 7.041e-03  t[s]:   7452.78
	Linear fluid (dielectric constant: 64) occupying 0.990649 of unit cell:	Completed after 15 iterations at t[s]:   7478.29
	Linear fluid (dielectric constant: 64) occupying 0.990734 of unit cell:	Completed after 14 iterations at t[s]:   7525.73
SCF: Cycle:  5   Etot: -177.809257116883572   dEtot: -9.921e-04   |Residual|: 7.219e-03   |deigs|: 4.754e-04  t[s]:   7528.16
	Linear fluid (dielectric constant: 64) occupying 0.990607 of unit cell:	Completed after 14 iterations at t[s]:   7552.41
	Linear fluid (dielectric constant: 64) occupying 0.990733 of unit cell:	Completed after 15 iterations at t[s]:   7601.63
SCF: Cycle:  6   Etot: -177.809723229352272   dEtot: -4.661e-04   |Residual|: 6.408e-03   |deigs|: 4.390e-04  t[s]:   7604.13
	Linear fluid (dielectric constant: 64) occupying 0.990614 of unit cell:	Completed after 13 iterations at t[s]:   7627.00
[...]
	Linear fluid (dielectric constant: 64) occupying 0.990352 of unit cell:	Completed after 2 iterations at t[s]:  18637.93
	Linear fluid (dielectric constant: 64) occupying 0.990352 of unit cell:	Completed after 0 iterations at t[s]:  18650.37
ElecMinimize: 	Step increased Etot by 4.635448e-07, reducing alpha to 3.274942e-02.
	Linear fluid (dielectric constant: 64) occupying 0.990352 of unit cell:	Completed after 0 iterations at t[s]:  18669.95
ElecMinimize: 	Step increased Etot by 5.731064e-07, reducing alpha to 3.274942e-03.
	Linear fluid (dielectric constant: 64) occupying 0.990352 of unit cell:	Completed after 0 iterations at t[s]:  18689.45
ElecMinimize: 	Step increased Etot by 5.908954e-07, reducing alpha to 3.274942e-04.
ElecMinimize: 	Step failed to reduce Etot after 3 attempts. Quitting step.
ElecMinimize: 	Undoing step.
	Linear fluid (dielectric constant: 64) occupying 0.990352 of unit cell:	Completed after 0 iterations at t[s]:  18708.90
ElecMinimize: 	Step failed: resetting search direction.
ElecMinimize: Iter:   7  Etot: -177.864675394947511  |grad|_K:  5.264e-07  alpha:  3.275e-04
	Linear fluid (dielectric constant: 64) occupying 0.990352 of unit cell:	Completed after 0 iterations at t[s]:  18729.88
	Linear fluid (dielectric constant: 64) occupying 0.990352 of unit cell:	Completed after 0 iterations at t[s]:  18742.48
ElecMinimize: Iter:   8  Etot: -177.864676131853116  |grad|_K:  4.257e-07  alpha:  7.349e-01  linmin:  1.096e-05  t[s]:  18752.69
	Linear fluid (dielectric constant: 64) occupying 0.990352 of unit cell:	Completed after 1 iterations at t[s]:  18766.52
	Linear fluid (dielectric constant: 64) occupying 0.990352 of unit cell:	Completed after 0 iterations at t[s]:  18778.95
ElecMinimize: 	Step increased Etot by 1.284169e-07, reducing alpha to 3.027365e-02.
	Linear fluid (dielectric constant: 64) occupying 0.990352 of unit cell:	Completed after 0 iterations at t[s]:  18798.53
ElecMinimize: 	Step increased Etot by 2.450042e-07, reducing alpha to 3.027365e-03.
	Linear fluid (dielectric constant: 64) occupying 0.990352 of unit cell:	Completed after 0 iterations at t[s]:  18818.10
ElecMinimize: 	Step increased Etot by 2.637020e-07, reducing alpha to 3.027365e-04.
ElecMinimize: 	Step failed to reduce Etot after 3 attempts. Quitting step.
ElecMinimize: 	Undoing step.
	Linear fluid (dielectric constant: 64) occupying 0.990352 of unit cell:	Completed after 0 iterations at t[s]:  18837.62
ElecMinimize: 	Step failed: resetting search direction.
ElecMinimize: Iter:   9  Etot: -177.864675867906612  |grad|_K:  3.898e-07  alpha:  3.027e-04
	Linear fluid (dielectric constant: 64) occupying 0.990352 of unit cell:	Completed after 0 iterations at t[s]:  18860.29
	Linear fluid (dielectric constant: 64) occupying 0.990352 of unit cell:	Completed after 0 iterations at t[s]:  18872.82
ElecMinimize: Iter:  10  Etot: -177.864675975101534  |grad|_K:  1.581e-07  alpha:  3.432e-01  linmin: -2.450e-01  t[s]:  18883.14
	Linear fluid (dielectric constant: 64) occupying 0.990352 of unit cell:	Completed after 0 iterations at t[s]:  18893.93
ElecMinimize: 	Predicted alpha/alphaT>3.000000, increasing alphaT to 1.029528e+00.
	Linear fluid (dielectric constant: 64) occupying 0.990352 of unit cell:	Completed after 0 iterations at t[s]:  18906.46
	Linear fluid (dielectric constant: 64) occupying 0.990352 of unit cell:	Completed after 0 iterations at t[s]:  18919.09
ElecMinimize: Iter:  11  Etot: -177.864676154447579  |grad|_K:  2.236e-07  alpha:  1.784e+00  linmin: -6.992e-05  t[s]:  18929.36
	Linear fluid (dielectric constant: 64) occupying 0.990352 of unit cell:	Completed after 0 iterations at t[s]:  18940.21
	Linear fluid (dielectric constant: 64) occupying 0.990352 of unit cell:	Completed after 0 iterations at t[s]:  18952.68
ElecMinimize: Iter:  12  Etot: -177.864676277001251  |grad|_K:  1.697e-07  alpha:  6.774e-01  linmin:  1.327e-05  t[s]:  18962.89
	Linear fluid (dielectric constant: 64) occupying 0.990352 of unit cell:	Completed after 0 iterations at t[s]:  18973.59
	Linear fluid (dielectric constant: 64) occupying 0.990352 of unit cell:	Completed after 0 iterations at t[s]:  18986.15
ElecMinimize: Iter:  13  Etot: -177.864676355349388  |grad|_K:  1.349e-07  alpha:  7.520e-01  linmin:  7.434e-05  t[s]:  18996.37
	Linear fluid (dielectric constant: 64) occupying 0.990352 of unit cell:	Completed after 0 iterations at t[s]:  19007.07
	Linear fluid (dielectric constant: 64) occupying 0.990352 of unit cell:	Completed after 0 iterations at t[s]:  19019.63
ElecMinimize: Iter:  14  Etot: -177.864676417985208  |grad|_K:  1.379e-07  alpha:  9.504e-01  linmin: -4.430e-04  t[s]:  19029.87
	Linear fluid (dielectric constant: 64) occupying 0.990352 of unit cell:	Completed after 0 iterations at t[s]:  19040.49
	Linear fluid (dielectric constant: 64) occupying 0.990352 of unit cell:	Completed after 0 iterations at t[s]:  19053.04
ElecMinimize: Iter:  15  Etot: -177.864676468379457  |grad|_K:  1.164e-07  alpha:  7.314e-01  linmin:  7.017e-05  t[s]:  19063.28
	Linear fluid (dielectric constant: 64) occupying 0.990352 of unit cell:	Completed after 0 iterations at t[s]:  19073.86
	Linear fluid (dielectric constant: 64) occupying 0.990352 of unit cell:	Completed after 0 iterations at t[s]:  19086.36
ElecMinimize: Iter:  16  Etot: -177.864676515061774  |grad|_K:  1.067e-07  alpha:  9.535e-01  linmin: -4.287e-05  t[s]:  19096.74
	Linear fluid (dielectric constant: 64) occupying 0.990352 of unit cell:	Completed after 0 iterations at t[s]:  19107.46
	Linear fluid (dielectric constant: 64) occupying 0.990352 of unit cell:	Completed after 0 iterations at t[s]:  19120.04
ElecMinimize: Iter:  17  Etot: -177.864676545321629  |grad|_K:  8.929e-08  alpha:  7.339e-01  linmin:  1.813e-04  t[s]:  19130.34
	Linear fluid (dielectric constant: 64) occupying 0.990352 of unit cell:	Completed after 0 iterations at t[s]:  19141.15
	Linear fluid (dielectric constant: 64) occupying 0.990352 of unit cell:	Completed after 0 iterations at t[s]:  19153.74
ElecMinimize: Iter:  18  Etot: -177.864676566353438  |grad|_K:  6.777e-08  alpha:  7.293e-01  linmin: -3.848e-04  t[s]:  19164.07
	Linear fluid (dielectric constant: 64) occupying 0.990352 of unit cell:	Completed after 0 iterations at t[s]:  19174.79
	Linear fluid (dielectric constant: 64) occupying 0.990352 of unit cell:	Completed after 0 iterations at t[s]:  19187.43
ElecMinimize: Iter:  19  Etot: -177.864676579318655  |grad|_K:  5.921e-08  alpha:  7.783e-01  linmin: -1.074e-04  t[s]:  19197.76
	Linear fluid (dielectric constant: 64) occupying 0.990352 of unit cell:	Completed after 0 iterations at t[s]:  19208.49
	Linear fluid (dielectric constant: 64) occupying 0.990352 of unit cell:	Completed after 0 iterations at t[s]:  19221.08
ElecMinimize: Iter:  20  Etot: -177.864676590494241  |grad|_K:  5.417e-08  alpha:  8.822e-01  linmin:  2.733e-04  t[s]:  19231.38
	Linear fluid (dielectric constant: 64) occupying 0.990352 of unit cell:	Completed after 0 iterations at t[s]:  19242.12
	Linear fluid (dielectric constant: 64) occupying 0.990352 of unit cell:	Completed after 0 iterations at t[s]:  19254.72
ElecMinimize: Iter:  21  Etot: -177.864676597315309  |grad|_K:  3.785e-08  alpha:  6.405e-01  linmin:  9.190e-04  t[s]:  19264.96
	Linear fluid (dielectric constant: 64) occupying 0.990352 of unit cell:	Completed after 0 iterations at t[s]:  19275.68
	Linear fluid (dielectric constant: 64) occupying 0.990352 of unit cell:	Completed after 0 iterations at t[s]:  19288.22
ElecMinimize: Iter:  22  Etot: -177.864676601991107  |grad|_K:  3.474e-08  alpha:  9.024e-01  linmin: -2.082e-03  t[s]:  19298.50
ElecMinimize: Converged (|Delta Etot|<1.000000e-08 for 2 iters).
Setting wave functions to eigenvectors of Hamiltonian

Computing DFT-D3 correction:
# coordination-number S 2.039 2.040 2.108 2.129 2.067 1.116 2.136 1.152
# coordination-number Na 0.340 0.309
# diagonal-C6 S 125.88 125.88 125.85 125.84 125.86 130.77 125.84 130.69
# diagonal-C6 Na 1111.38 1188.75
EvdW_6 =   -0.005592
EvdW_8 =   -0.016101

# Ionic positions in cartesian coordinates:
ion S   5.356375399525574  11.060860818535266  20.570463106727285 1
ion S   4.080063051062634   8.464398091718689  23.962659191797417 1
ion S   4.701065277637033  10.300469950906638  27.176018176846881 1
ion S   8.144337513317424   8.514426497900363  28.983030195148192 1
ion S   9.801244196489911  10.841642652680417  31.535639624099037 1
ion S  12.692132957103496  12.998887314841674  30.166628170213507 1
ion S   6.833208257873327  14.250070748969412  21.957464955490614 1
ion S  10.671486420135169  14.208702556395462  22.345324855126496 1
ion Na   6.981240386277259  17.057319556509665  28.499057876168393 1
ion Na  11.195696222698189   7.025729220302382  22.706031006152180 1

# Forces in Cartesian coordinates:
force S   0.000081166688154   0.000202901715142  -0.000849286482970 1
force S  -0.000132077356802  -0.000452938055820   0.001305538538839 1
force S  -0.000363278138146  -0.000187780910523  -0.000870042178103 1
force S   0.000082299664584  -0.000510919417068   0.000469312353380 1
force S  -0.000016739659166  -0.000022872615653  -0.000200802252234 1
force S  -0.000208520138391  -0.000074120566046  -0.000139678212585 1
force S  -0.000124388777680   0.000210329977934   0.000467814819590 1
force S   0.000033485564810  -0.000051946112822   0.000087334125623 1
force Na   0.000013008219882  -0.000025275678580  -0.000034287802352 1
force Na  -0.000020342921088   0.000194043625182   0.000103476774053 1

# Energy components:
   A_diel =       -0.3158353801227353
   Eewald =      168.1346321360669265
       EH =      314.4205319896163360
     Eloc =     -543.9064773911302382
      Enl =     -129.8925956812470872
     EvdW =       -0.0216936183563864
      Exc =      -47.9694573085600737
 Exc_core =       14.1418386528143714
       KE =       47.5443799989277522
-------------------------------------
     Etot =     -177.8646766019911070

IonicMinimize: Iter:  11  Etot: -177.864676601991107  |grad|_K:  3.853e-04  alpha:  1.513e-01  linmin:  1.991e-01  t[s]:  19312.87

#--- Lowdin population analysis ---
# oxidation-state S -0.110 -0.056 +0.022 -0.074 +0.113 -0.622 +0.160 -0.615
# oxidation-state Na +0.943 +0.933


Computing DFT-D3 correction:
# coordination-number S 2.039 2.040 2.108 2.129 2.067 1.116 2.136 1.152
# coordination-number Na 0.340 0.309
# diagonal-C6 S 125.88 125.88 125.85 125.84 125.86 130.77 125.84 130.69
# diagonal-C6 Na 1111.58 1188.67
EvdW_6 =   -0.005593
EvdW_8 =   -0.016101

-------- Electronic minimization -----------
	Linear fluid (dielectric constant: 64) occupying 0.990352 of unit cell:	Completed after 3 iterations at t[s]:  19331.13
ElecMinimize: Iter:   0  Etot: -177.864676732880980  |grad|_K:  2.641e-07  alpha:  1.000e+00
	Linear fluid (dielectric constant: 64) occupying 0.990352 of unit cell:	Completed after 0 iterations at t[s]:  19353.83
	Linear fluid (dielectric constant: 64) occupying 0.990352 of unit cell:	Completed after 0 iterations at t[s]:  19366.28
ElecMinimize: Iter:   1  Etot: -177.864677161324977  |grad|_K:  2.021e-07  alpha:  1.697e+00  linmin:  1.872e-05  t[s]:  19376.69
	Linear fluid (dielectric constant: 64) occupying 0.990352 of unit cell:	Completed after 2 iterations at t[s]:  19392.04
	Linear fluid (dielectric constant: 64) occupying 0.990352 of unit cell:	Completed after 0 iterations at t[s]:  19404.60
ElecMinimize: 	Step increased Etot by 3.257826e-07, reducing alpha to 2.971717e-02.
	Linear fluid (dielectric constant: 64) occupying 0.990352 of unit cell:	Completed after 0 iterations at t[s]:  19424.21
ElecMinimize: 	Step increased Etot by 2.723277e-07, reducing alpha to 2.971717e-03.
	Linear fluid (dielectric constant: 64) occupying 0.990352 of unit cell:	Completed after 0 iterations at t[s]:  19443.93
ElecMinimize: 	Step increased Etot by 2.680619e-07, reducing alpha to 2.971717e-04.
ElecMinimize: 	Step failed to reduce Etot after 3 attempts. Quitting step.
ElecMinimize: 	Undoing step.
	Linear fluid (dielectric constant: 64) occupying 0.990352 of unit cell:	Completed after 0 iterations at t[s]:  19463.43
ElecMinimize: 	Step failed: resetting search direction.
ElecMinimize: Iter:   2  Etot: -177.864676893284781  |grad|_K:  3.837e-07  alpha:  2.972e-04
	Linear fluid (dielectric constant: 64) occupying 0.990352 of unit cell:	Completed after 1 iterations at t[s]:  19487.47
	Linear fluid (dielectric constant: 64) occupying 0.990352 of unit cell:	Completed after 0 iterations at t[s]:  19501.66
ElecMinimize: Iter:   3  Etot: -177.864676963054791  |grad|_K:  1.569e-07  alpha:  6.459e-01  linmin:  2.070e-01  t[s]:  19512.05
	Linear fluid (dielectric constant: 64) occupying 0.990352 of unit cell:	Completed after 0 iterations at t[s]:  19522.89
	Linear fluid (dielectric constant: 64) occupying 0.990352 of unit cell:	Completed after 0 iterations at t[s]:  19535.50
ElecMinimize: Iter:   4  Etot: -177.864677011986657  |grad|_K:  7.945e-08  alpha:  6.387e-01  linmin: -1.925e-04  t[s]:  19545.79
	Linear fluid (dielectric constant: 64) occupying 0.990352 of unit cell:	Completed after 0 iterations at t[s]:  19556.50
	Linear fluid (dielectric constant: 64) occupying 0.990352 of unit cell:	Completed after 0 iterations at t[s]:  19569.02
ElecMinimize: Iter:   5  Etot: -177.864677032943689  |grad|_K:  6.493e-08  alpha:  9.197e-01  linmin:  1.849e-03  t[s]:  19579.31
	Linear fluid (dielectric constant: 64) occupying 0.990352 of unit cell:	Completed after 0 iterations at t[s]:  19590.04
	Linear fluid (dielectric constant: 64) occupying 0.990352 of unit cell:	Completed after 0 iterations at t[s]:  19602.60
ElecMinimize: Iter:   6  Etot: -177.864677047365149  |grad|_K:  5.724e-08  alpha:  9.476e-01  linmin:  5.327e-04  t[s]:  19612.89
	Linear fluid (dielectric constant: 64) occupying 0.990352 of unit cell:	Completed after 0 iterations at t[s]:  19623.61
	Linear fluid (dielectric constant: 64) occupying 0.990352 of unit cell:	Completed after 0 iterations at t[s]:  19636.21
ElecMinimize: Iter:   7  Etot: -177.864677062173712  |grad|_K:  5.889e-08  alpha:  1.252e+00  linmin:  6.301e-04  t[s]:  19646.50
	Linear fluid (dielectric constant: 64) occupying 0.990352 of unit cell:	Completed after 0 iterations at t[s]:  19657.10
	Linear fluid (dielectric constant: 64) occupying 0.990352 of unit cell:	Completed after 0 iterations at t[s]:  19669.72
ElecMinimize: Iter:   8  Etot: -177.864677080826567  |grad|_K:  5.979e-08  alpha:  1.488e+00  linmin: -2.534e-04  t[s]:  19679.98
	Linear fluid (dielectric constant: 64) occupying 0.990352 of unit cell:	Completed after 0 iterations at t[s]:  19690.71
	Linear fluid (dielectric constant: 64) occupying 0.990352 of unit cell:	Completed after 0 iterations at t[s]:  19703.39
ElecMinimize: Iter:   9  Etot: -177.864677092720740  |grad|_K:  4.075e-08  alpha:  9.161e-01  linmin: -4.026e-04  t[s]:  19713.64
	Linear fluid (dielectric constant: 64) occupying 0.990352 of unit cell:	Completed after 0 iterations at t[s]:  19724.37
	Linear fluid (dielectric constant: 64) occupying 0.990352 of unit cell:	Completed after 0 iterations at t[s]:  19737.03
ElecMinimize: Iter:  10  Etot: -177.864677098945435  |grad|_K:  3.143e-08  alpha:  1.033e+00  linmin: -3.210e-03  t[s]:  19747.31
	Linear fluid (dielectric constant: 64) occupying 0.990352 of unit cell:	Completed after 0 iterations at t[s]:  19758.08
	Linear fluid (dielectric constant: 64) occupying 0.990352 of unit cell:	Completed after 0 iterations at t[s]:  19770.54
ElecMinimize: Iter:  11  Etot: -177.864677102646453  |grad|_K:  2.561e-08  alpha:  1.026e+00  linmin: -1.695e-03  t[s]:  19780.86
ElecMinimize: Converged (|Delta Etot|<1.000000e-08 for 2 iters).
Setting wave functions to eigenvectors of Hamiltonian
IonicMinimize: 	Wrong curvature in test step, increasing alphaT to 4.538736e-01.

Computing DFT-D3 correction:
# coordination-number S 2.039 2.040 2.108 2.129 2.067 1.116 2.136 1.152
# coordination-number Na 0.340 0.309
# diagonal-C6 S 125.88 125.88 125.85 125.84 125.86 130.77 125.84 130.69
# diagonal-C6 Na 1111.58 1188.67
EvdW_6 =   -0.005593
EvdW_8 =   -0.016101

-------- Electronic minimization -----------
	Linear fluid (dielectric constant: 64) occupying 0.990352 of unit cell:	Completed after 0 iterations at t[s]:  19789.52
ElecMinimize: Iter:   0  Etot: -177.864677102646567  |grad|_K:  2.561e-08  alpha:  1.000e+00
	Linear fluid (dielectric constant: 64) occupying 0.990352 of unit cell:	Completed after 0 iterations at t[s]:  19812.21
	Linear fluid (dielectric constant: 64) occupying 0.990352 of unit cell:	Completed after 0 iterations at t[s]:  19824.72
ElecMinimize: Iter:   1  Etot: -177.864677104131943  |grad|_K:  1.793e-08  alpha:  6.138e-01  linmin:  3.738e-05  t[s]:  19835.05
	Linear fluid (dielectric constant: 64) occupying 0.990352 of unit cell:	Completed after 0 iterations at t[s]:  19845.88
	Linear fluid (dielectric constant: 64) occupying 0.990352 of unit cell:	Completed after 0 iterations at t[s]:  19858.46
ElecMinimize: Iter:   2  Etot: -177.864677105370447  |grad|_K:  1.633e-08  alpha:  1.041e+00  linmin: -1.973e-02  t[s]:  19868.74
ElecMinimize: Converged (|Delta Etot|<1.000000e-08 for 2 iters).
Setting wave functions to eigenvectors of Hamiltonian

Computing DFT-D3 correction:
# coordination-number S 2.039 2.040 2.108 2.129 2.067 1.116 2.136 1.152
# coordination-number Na 0.340 0.309
# diagonal-C6 S 125.88 125.88 125.85 125.84 125.86 130.77 125.84 130.69
# diagonal-C6 Na 1111.58 1188.67
EvdW_6 =   -0.005593
EvdW_8 =   -0.016101

# Ionic positions in cartesian coordinates:
ion S   5.356275397256213  11.060814621262494  20.570420837690722 1
ion S   4.080354143380814   8.464532911984220  23.962761207058911 1
ion S   4.700927536309737  10.300393390928747  27.175856099397762 1
ion S   8.144068918682127   8.514499247661799  28.983189106952373 1
ion S   9.801178969124283  10.841673069614737  31.535480652974393 1
ion S  12.692339480220614  12.998677336953554  30.166464890774293 1
ion S   6.833201442175314  14.249993428071503  21.957496052993168 1
ion S  10.671574347446787  14.208641279034616  22.345312252376033 1
ion Na   6.981114277535656  17.057346934535140  28.499110976268241 1
ion Na  11.195815169988478   7.025935188713154  22.706225081284096 1

# Forces in Cartesian coordinates:
force S   0.000094623259124   0.000085532266956  -0.000342215259242 1
force S   0.000093969522774  -0.000119677114294   0.001056819339392 1
force S  -0.000613121737449  -0.000146379929677  -0.000843787528111 1
force S   0.000296490807555  -0.000406026198659   0.000100898861165 1
force S   0.000034061292302   0.000260729680625  -0.000142374789546 1
force S  -0.000071898918486  -0.000230766875393  -0.000042150496299 1
force S   0.000045828134706   0.000239713659938   0.000032012241562 1
force S  -0.000076200073467  -0.000032523047992  -0.000072606946166 1
force Na  -0.000072500338177  -0.000027810077464   0.000089818093841 1
force Na   0.000275229741493   0.000026464657298   0.000149252681717 1

# Energy components:
   A_diel =       -0.3158884038709079
   Eewald =      168.1369600228852050
       EH =      314.4209540539090995
     Eloc =     -543.9103896600546477
      Enl =     -129.8913649060786497
     EvdW =       -0.0216939575063661
      Exc =      -47.9693543685704284
 Exc_core =       14.1418386581598554
       KE =       47.5442614557563559
-------------------------------------
     Etot =     -177.8646771053704470

IonicMinimize: Iter:  12  Etot: -177.864677105370447  |grad|_K:  3.146e-04  alpha: -1.900e-01  linmin: -3.002e-01  t[s]:  19883.08
IonicMinimize: Converged (|Delta Etot|<1.000000e-06 for 2 iters).

#--- Lowdin population analysis ---
# oxidation-state S -0.110 -0.055 +0.023 -0.074 +0.113 -0.623 +0.160 -0.615
# oxidation-state Na +0.943 +0.933


Dumping 'Na2S8-PC-vdw.wfns' ... done
Dumping 'Na2S8-PC-vdw.fluidState' ... done
Dumping 'Na2S8-PC-vdw.ionpos' ... done
End date and time: Sun Oct  6 13:39:11 2024  (Duration: 0-5:31:25.58)
Done!
