
*************** JDFTx 1.7.0  ***************

Start date and time: Sun Sep 22 19:09:36 2024
Executable jdftx with command-line: -i Na2S4-PC-vdw.in -o Na2S4-PC-vdw.out
Running on hosts (process indices):  DESKTOP-H9SOOLG (0)
Divided in process groups (process indices):  0 (0)
Resource initialization completed at t[s]:      0.00
Run totals: 1 processes, 4 threads, 0 GPUs


Input parsed successfully to the following command list (including defaults):

basis kpoint-dependent
coords-type Cartesian
core-overlap-check vector
coulomb-interaction Isolated
coulomb-truncation-embed 4.96043 13.9816 25.2655
davidson-band-ratio 1.1
dump End State
dump-name Na2S4-PC-vdw.$VAR
elec-cutoff 20 100
elec-eigen-algo Davidson
elec-ex-corr gga-PBE
electronic-minimize  \
	dirUpdateScheme      FletcherReeves \
	linminMethod         DirUpdateRecommended \
	nIterations          100 \
	history              15 \
	knormThreshold       0 \
	energyDiffThreshold  1e-08 \
	nEnergyDiff          2 \
	alphaTstart          1 \
	alphaTmin            1e-10 \
	updateTestStepSize   yes \
	alphaTreduceFactor   0.1 \
	alphaTincreaseFactor 3 \
	nAlphaAdjustMax      3 \
	wolfeEnergy          0.0001 \
	wolfeGradient        0.9 \
	fdTest               no
electronic-scf  \
	nIterations	50 \
	energyDiffThreshold	1e-08 \
	residualThreshold	1e-07 \
	mixFraction	0.5 \
	qMetric	0.8 \
	history	10 \
	nEigSteps	2 \
	eigDiffThreshold	1e-08 \
	mixedVariable	Density \
	qKerker	0.8 \
	qKappa	-1 \
	verbose	no \
	mixFractionMag	1.5
exchange-regularization None
fluid LinearPCM 298.000000 1.013250
fluid-ex-corr lda-TF lda-PZ
fluid-gummel-loop 10 1.000000e-05
fluid-minimize  \
	dirUpdateScheme      PolakRibiere \
	linminMethod         DirUpdateRecommended \
	nIterations          400 \
	history              15 \
	knormThreshold       1e-11 \
	energyDiffThreshold  0 \
	nEnergyDiff          2 \
	alphaTstart          1 \
	alphaTmin            1e-10 \
	updateTestStepSize   yes \
	alphaTreduceFactor   0.1 \
	alphaTincreaseFactor 3 \
	nAlphaAdjustMax      6 \
	wolfeEnergy          0.0001 \
	wolfeGradient        0.9 \
	fdTest               no
fluid-solvent PC 11.6429 ScalarEOS \
	epsBulk 64 \
	pMol 2.95 \
	epsInf 2.02 \
	Pvap 1.53277e-13 \
	sigmaBulk 2.88e-05 \
	Rvdw 0 \
	Res 0 \
	tauNuc 343133
forces-output-coords Positions
initial-state Na2S4-PC-vdw.$var
ion S   4.960431645660000  13.981560468840000  25.265472781050001 1
ion S   7.075808635770003  13.274826015330000  28.544133544019999 1
ion S   8.239466575169999   9.479152131930000  28.544855420880001 1
ion S  10.355264975069996   8.766735260310000  25.266360954149999 1
ion Na   5.293454984100000   8.983135801530000  24.325194155759998 1
ion Na  10.011364350749997  13.762072108800000  24.311516290019998 1
ion-species GBRV/$ID_pbe.uspp
ion-width Ecut
ionic-minimize  \
	dirUpdateScheme      FletcherReeves \
	linminMethod         DirUpdateRecommended \
	nIterations          200 \
	history              15 \
	knormThreshold       0.0001 \
	energyDiffThreshold  1e-06 \
	nEnergyDiff          2 \
	alphaTstart          1 \
	alphaTmin            1e-10 \
	updateTestStepSize   yes \
	alphaTreduceFactor   0.1 \
	alphaTincreaseFactor 3 \
	nAlphaAdjustMax      3 \
	wolfeEnergy          0.0001 \
	wolfeGradient        0.9 \
	fdTest               no
kpoint   0.000000000000   0.000000000000   0.000000000000  1.00000000000000
kpoint-folding 1 1 1 
latt-move-scale 1 1 1
latt-scale 1 1 1 
lattice Triclinic 28.0058 28.0058 37.7946 90 90 120
lattice-minimize  \
	dirUpdateScheme      L-BFGS \
	linminMethod         DirUpdateRecommended \
	nIterations          0 \
	history              15 \
	knormThreshold       0 \
	energyDiffThreshold  1e-06 \
	nEnergyDiff          2 \
	alphaTstart          1 \
	alphaTmin            1e-10 \
	updateTestStepSize   yes \
	alphaTreduceFactor   0.1 \
	alphaTincreaseFactor 3 \
	nAlphaAdjustMax      3 \
	wolfeEnergy          0.0001 \
	wolfeGradient        0.9 \
	fdTest               no
lcao-params -1 1e-06 0.001
pcm-variant GLSSA13
spintype no-spin
subspace-rotation-factor 1 yes
symmetries automatic
symmetry-threshold 0.0001
van-der-waals D3



---------- Setting up symmetries ----------

Found 24 point-group symmetries of the bravais lattice
Found 1 space-group symmetries with basis
Applied RMS atom displacement 0 bohrs to make symmetries exact.

---------- Initializing the Grid ----------
R = 
[      28.0058     -14.0029            0  ]
[            0      24.2537            0  ]
[            0            0      37.7946  ]
unit cell volume = 25671.8
G =
[   0.224353    0.12953         -0  ]
[          0   0.259061          0  ]
[          0         -0   0.166246  ]
Minimum fftbox size, Smin = [  128  128  172  ]
Chosen fftbox size, S = [  128  128  180  ]

---------- Initializing tighter grid for wavefunction operations ----------
R = 
[      28.0058     -14.0029            0  ]
[            0      24.2537            0  ]
[            0            0      37.7946  ]
unit cell volume = 25671.8
G =
[   0.224353    0.12953         -0  ]
[          0   0.259061          0  ]
[          0         -0   0.166246  ]
Minimum fftbox size, Smin = [  116  116  156  ]
Chosen fftbox size, S = [  120  120  160  ]

---------- Exchange Correlation functional ----------
Initalized PBE GGA exchange.
Initalized PBE GGA correlation.

---------- Setting up pseudopotentials ----------
Width of ionic core gaussian charges (only for fluid interactions / plotting) set to 0.397384

Reading pseudopotential file '/home/danielkim/jdftx_install/build/pseudopotentials/GBRV/s_pbe.uspp':
  Title: S.  Created by USPP 7.3.6 on 1-4-15
  Reference state energy: -11.898476.  6 valence electrons in orbitals:
    |300>  occupation: 2  eigenvalue: -0.634167
    |310>  occupation: 4  eigenvalue: -0.257568
  lMax: 2  lLocal: 3  QijEcut: 6
  6 projectors sampled on a log grid with 635 points:
    l: 0  eig: -0.634161  rCut: 1.5
    l: 0  eig: 1.500000  rCut: 1.5
    l: 1  eig: -0.257567  rCut: 1.5
    l: 1  eig: 1.500000  rCut: 1.5
    l: 2  eig: -1.000000  rCut: 1.5
    l: 2  eig: 1.500000  rCut: 1.5
  Partial core density with radius 1.15
  Transforming core density to a uniform radial grid of dG=0.02 with 1625 points.
  Transforming local potential to a uniform radial grid of dG=0.02 with 1625 points.
  Transforming nonlocal projectors to a uniform radial grid of dG=0.02 with 432 points.
  Transforming density augmentations to a uniform radial grid of dG=0.02 with 1625 points.
  Transforming atomic orbitals to a uniform radial grid of dG=0.02 with 432 points.
  Core radius for overlap checks: 1.50 bohrs.

Reading pseudopotential file '/home/danielkim/jdftx_install/build/pseudopotentials/GBRV/na_pbe.uspp':
  Title: Na.  Created by USPP 7.3.6 on 23-9-15
  Reference state energy: -47.625620.  9 valence electrons in orbitals:
    |200>  occupation: 2  eigenvalue: -2.085638
    |210>  occupation: 6  eigenvalue: -1.053708
    |300>  occupation: 1  eigenvalue: -0.100838
  lMax: 2  lLocal: 0  QijEcut: 6
  5 projectors sampled on a log grid with 657 points:
    l: 0  eig: -2.085640  rCut: 1.37
    l: 0  eig: -0.100839  rCut: 1.37
    l: 1  eig: -1.053708  rCut: 1.47
    l: 1  eig: 0.500000  rCut: 1.47
    l: 2  eig: 0.750000  rCut: 2
  Transforming local potential to a uniform radial grid of dG=0.02 with 1625 points.
  Transforming nonlocal projectors to a uniform radial grid of dG=0.02 with 432 points.
  Transforming density augmentations to a uniform radial grid of dG=0.02 with 1625 points.
  Transforming atomic orbitals to a uniform radial grid of dG=0.02 with 432 points.
  Core radius for overlap checks: 2.00 bohrs.

Initialized 2 species with 6 total atoms.

Folded 1 k-points by 1x1x1 to 1 k-points.

---------- Setting up k-points, bands, fillings ----------
No reducable k-points. 
Computing the number of bands and number of electrons
Calculating initial fillings.
nElectrons:  42.000000   nBands: 21   nStates: 1

----- Setting up reduced wavefunction bases (one per k-point) -----
average nbasis = 109673.000 , ideal nbasis = 109671.883

---------- Setting up coulomb interaction ----------
Fluid mode embedding: using embedded box, but periodic Coulomb kernel.
(Fluid response is responsible for (approximate) separation between periodic images.)
Setting up double-sized grid for truncated Coulomb potentials:
R = 
[      56.0116     -28.0058            0  ]
[            0      48.5075            0  ]
[            0            0      75.5892  ]
unit cell volume = 205374
G =
[   0.112177  0.0647651         -0  ]
[          0    0.12953          0  ]
[          0         -0  0.0831228  ]
Chosen fftbox size, S = [  256  256  360  ]
Integer grid location selected as the embedding center:
   Grid: [  60  74  120  ]
   Lattice: [  0.465357  0.57647  0.668494  ]
   Cartesian: [  4.96043  13.9816  25.2655  ]
Constructing Wigner-Seitz cell: 8 faces (6 quadrilaterals, 2 hexagons)
Range-separation parameter for embedded mesh potentials due to point charges: 0.590105 bohrs.

Initializing DFT-D3 calculator:
	Parameters set for gga-PBE functional
	s6:  1.000  s_r6:  1.217
	s8:  0.722  s_r8:  1.000
	Per-atom parameters loaded for:
	 S:  sqrtQ[a0]:  4.041  Rcov[a0]:  1.928  CN: [ 0.00 0.99 1.99 ]
	Na:  sqrtQ[a0]:  6.586  Rcov[a0]:  2.646  CN: [ 0.00 0.97 ]

---------- Setting up ewald sum ----------
Optimum gaussian width for ewald sums = 17.460913 bohr.
Real space sum over 1089 unit cells with max indices [  5  5  4  ]
Reciprocal space sum over 2873 terms with max indices [  6  6  8  ]

Computing DFT-D3 correction:
# coordination-number S 2.944 3.352 3.353 2.942
# coordination-number Na 3.934 3.934
# diagonal-C6 S 125.81 125.81 125.81 125.81
# diagonal-C6 Na 186.11 186.11
EvdW_6 =   -0.000279
EvdW_8 =   -0.003951

---------- Allocating electronic variables ----------
Initializing wave functions:  linear combination of atomic orbitals
S pseudo-atom occupations:   s ( 2 )  p ( 4 )
Na pseudo-atom occupations:   s ( 2 1 )  p ( 6 )
	FillingsUpdate:  mu: -0.088614534  nElectrons: 42.000000
LCAOMinimize: Iter:   0  Etot: -136.2295793878386974  |grad|_K:  1.848e-02  alpha:  1.000e+00
	FillingsUpdate:  mu: -0.093245074  nElectrons: 42.000000
LCAOMinimize: Iter:   1  Etot: -136.2672942131538605  |grad|_K:  1.041e-02  alpha:  1.874e-01  linmin: -3.574e-01  cgtest:  8.732e-01  t[s]:     36.98
LCAOMinimize: Encountered beta<0, resetting CG.
	FillingsUpdate:  mu: -0.095759784  nElectrons: 42.000000
LCAOMinimize: Iter:   2  Etot: -136.2829472534886008  |grad|_K:  8.187e-03  alpha:  5.527e-01  linmin:  1.878e-01  cgtest: -5.672e-01  t[s]:     47.06
	FillingsUpdate:  mu: -0.095843439  nElectrons: 42.000000
LCAOMinimize: Iter:   3  Etot: -136.2829539002384820  |grad|_K:  8.228e-03  alpha:  5.181e-03  linmin: -2.682e-03  cgtest:  9.991e-01  t[s]:     57.23
LCAOMinimize: None of the convergence criteria satisfied after 3 iterations.
----- createFluidSolver() ----- (Fluid-side solver setup)
   Initializing fluid molecule 'PC'
     Net charge: 0   dipole magnitude: 0
     Initializing spherical shell mfKernel with radius 0 Bohr
     deltaS corrections:

Correction to mu due to finite nuclear width = -0.00020291
   Cavity determined by nc: 0.00098 and sigma: 0.6
   Effective cavity tension: 9.53e-06 Eh/bohr^2 to account for cavitation and dispersion.


---- Citations for features of the code used in this run ----

   Software package:
      R. Sundararaman, K. Letchworth-Weaver, K.A. Schwarz, D. Gunceler, Y. Ozhabes and T.A. Arias, 'JDFTx: software for joint density-functional theory', SoftwareX 6, 278 (2017)

   gga-PBE exchange-correlation functional:
      J.P. Perdew, K. Burke and M. Ernzerhof, Phys. Rev. Lett. 77, 3865 (1996)

   Pseudopotentials:
      KF Garrity, JW Bennett, KM Rabe and D Vanderbilt, Comput. Mater. Sci. 81, 446 (2014)

   Truncated Coulomb potentials:
      R. Sundararaman and T.A. Arias, Phys. Rev. B 87, 165122 (2013)

   DFT-D3 dispersion correction:
      S. Grimme, J. Antony, S. Ehrlich and H. Krieg, J. Chem. Phys. 132, 154104 (2010)

   Linear/nonlinear dielectric/ionic fluid model with effective cavity tension:
      D. Gunceler, K. Letchworth-Weaver, R. Sundararaman, K.A. Schwarz and T.A. Arias, Modelling Simul. Mater. Sci. Eng. 21, 074005 (2013)

This list may not be complete. Please suggest additional citations or
report any other bugs at https://github.com/shankar1729/jdftx/issues

Initialization completed successfully at t[s]:     57.96


Computing DFT-D3 correction:
# coordination-number S 2.944 3.352 3.353 2.942
# coordination-number Na 3.934 3.934
# diagonal-C6 S 125.81 125.81 125.81 125.81
# diagonal-C6 Na 186.11 186.11
EvdW_6 =   -0.000279
EvdW_8 =   -0.003951
Fluid solver invoked on fresh (random / LCAO) wavefunctions
Running a vacuum solve first:

-------- Initial electronic minimization -----------
Will mix electronic density at each iteration.
SCF: Cycle:  0   Etot: -136.429449894927018   dEtot: -1.465e-01   |Residual|: 2.157e-01   |deigs|: 1.094e-02  t[s]:     73.99
SCF: Cycle:  1   Etot: -136.491800169890581   dEtot: -6.235e-02   |Residual|: 1.162e-01   |deigs|: 1.128e-02  t[s]:     85.99
SCF: Cycle:  2   Etot: -136.531447939219959   dEtot: -3.965e-02   |Residual|: 3.798e-02   |deigs|: 1.318e-02  t[s]:     97.87
SCF: Cycle:  3   Etot: -136.532448541745254   dEtot: -1.001e-03   |Residual|: 2.092e-02   |deigs|: 1.748e-03  t[s]:    109.26
SCF: Cycle:  4   Etot: -136.533304857909400   dEtot: -8.563e-04   |Residual|: 1.727e-02   |deigs|: 6.259e-03  t[s]:    120.77
SCF: Cycle:  5   Etot: -136.533847710842224   dEtot: -5.429e-04   |Residual|: 1.214e-02   |deigs|: 7.555e-04  t[s]:    132.30
SCF: Cycle:  6   Etot: -136.534220895623349   dEtot: -3.732e-04   |Residual|: 1.042e-02   |deigs|: 3.935e-03  t[s]:    143.82
SCF: Cycle:  7   Etot: -136.534347175844488   dEtot: -1.263e-04   |Residual|: 8.701e-03   |deigs|: 1.720e-03  t[s]:    154.93
SCF: Cycle:  8   Etot: -136.534620360917131   dEtot: -2.732e-04   |Residual|: 3.868e-03   |deigs|: 1.414e-03  t[s]:    166.19
SCF: Cycle:  9   Etot: -136.534653549572141   dEtot: -3.319e-05   |Residual|: 2.697e-03   |deigs|: 9.184e-04  t[s]:    176.99
SCF: Cycle: 10   Etot: -136.534608819094416   dEtot: +4.473e-05   |Residual|: 3.784e-03   |deigs|: 6.476e-04  t[s]:    188.19
SCF: Cycle: 11   Etot: -136.534661976293734   dEtot: -5.316e-05   |Residual|: 2.191e-03   |deigs|: 6.538e-04  t[s]:    198.94
SCF: Cycle: 12   Etot: -136.534676256935967   dEtot: -1.428e-05   |Residual|: 1.928e-03   |deigs|: 3.366e-04  t[s]:    208.49
SCF: Cycle: 13   Etot: -136.534679036796319   dEtot: -2.780e-06   |Residual|: 2.349e-03   |deigs|: 4.555e-04  t[s]:    217.99
SCF: Cycle: 14   Etot: -136.534692818230127   dEtot: -1.378e-05   |Residual|: 1.363e-03   |deigs|: 2.399e-04  t[s]:    228.71
SCF: Cycle: 15   Etot: -136.534685102619449   dEtot: +7.716e-06   |Residual|: 2.300e-03   |deigs|: 2.368e-04  t[s]:    238.31
SCF: Cycle: 16   Etot: -136.534694234571361   dEtot: -9.132e-06   |Residual|: 9.126e-04   |deigs|: 1.624e-04  t[s]:    247.91
SCF: Cycle: 17   Etot: -136.534695306760710   dEtot: -1.072e-06   |Residual|: 7.653e-04   |deigs|: 1.795e-04  t[s]:    257.27
SCF: Cycle: 18   Etot: -136.534696743630548   dEtot: -1.437e-06   |Residual|: 4.316e-04   |deigs|: 6.390e-05  t[s]:    266.72
SCF: Cycle: 19   Etot: -136.534696621263208   dEtot: +1.224e-07   |Residual|: 6.242e-04   |deigs|: 7.297e-05  t[s]:    276.25
SCF: Cycle: 20   Etot: -136.534697446951895   dEtot: -8.257e-07   |Residual|: 2.081e-04   |deigs|: 7.223e-05  t[s]:    287.65
SCF: Cycle: 21   Etot: -136.534697668668230   dEtot: -2.217e-07   |Residual|: 1.131e-04   |deigs|: 3.884e-05  t[s]:    297.10
SCF: Cycle: 22   Etot: -136.534697821946992   dEtot: -1.533e-07   |Residual|: 1.015e-04   |deigs|: 1.474e-05  t[s]:    306.51
SCF: Cycle: 23   Etot: -136.534697913723051   dEtot: -9.178e-08   |Residual|: 7.850e-05   |deigs|: 2.368e-05  t[s]:    315.91
SCF: Cycle: 24   Etot: -136.534697967492718   dEtot: -5.377e-08   |Residual|: 4.644e-05   |deigs|: 3.550e-05  t[s]:    325.50
SCF: Cycle: 25   Etot: -136.534698021792110   dEtot: -5.430e-08   |Residual|: 3.704e-05   |deigs|: 1.885e-05  t[s]:    336.89
SCF: Cycle: 26   Etot: -136.534698045980122   dEtot: -2.419e-08   |Residual|: 3.107e-05   |deigs|: 2.607e-05  t[s]:    346.32
SCF: Cycle: 27   Etot: -136.534698067058343   dEtot: -2.108e-08   |Residual|: 1.863e-05   |deigs|: 8.501e-06  t[s]:    357.91
SCF: Cycle: 28   Etot: -136.534698075693228   dEtot: -8.635e-09   |Residual|: 1.483e-05   |deigs|: 5.104e-06  t[s]:    367.37
SCF: Cycle: 29   Etot: -136.534698085263358   dEtot: -9.570e-09   |Residual|: 9.855e-06   |deigs|: 1.431e-06  t[s]:    378.78
SCF: Converged (|Delta E|<1.000000e-08 for 2 iters).

Setting wave functions to eigenvectors of Hamiltonian
Vacuum energy after initial minimize, Etot = -136.534698085263358


-------- Electronic minimization -----------
Will mix electronic density at each iteration.
	Linear fluid (dielectric constant: 64) occupying 0.994656 of unit cell:	Completed after 27 iterations at t[s]:    434.98
	Linear fluid (dielectric constant: 64) occupying 0.994702 of unit cell:	Completed after 24 iterations at t[s]:    487.61
SCF: Cycle:  0   Etot: -136.669732398445063   dEtot: -3.360e-02   |Residual|: 4.516e-02   |deigs|: 1.152e-03  t[s]:    490.06
	Linear fluid (dielectric constant: 64) occupying 0.994673 of unit cell:	Completed after 21 iterations at t[s]:    523.46
	Linear fluid (dielectric constant: 64) occupying 0.994705 of unit cell:	Completed after 23 iterations at t[s]:    573.42
SCF: Cycle:  1   Etot: -136.671772635887834   dEtot: -2.040e-03   |Residual|: 3.159e-02   |deigs|: 3.548e-03  t[s]:    575.84
	Linear fluid (dielectric constant: 64) occupying 0.994692 of unit cell:	Completed after 17 iterations at t[s]:    604.00
	Linear fluid (dielectric constant: 64) occupying 0.994704 of unit cell:	Completed after 20 iterations at t[s]:    649.61
SCF: Cycle:  2   Etot: -136.673329897398418   dEtot: -1.557e-03   |Residual|: 1.524e-02   |deigs|: 5.972e-03  t[s]:    652.01
	Linear fluid (dielectric constant: 64) occupying 0.994688 of unit cell:	Completed after 17 iterations at t[s]:    680.10
	Linear fluid (dielectric constant: 64) occupying 0.994700 of unit cell:	Completed after 19 iterations at t[s]:    724.16
SCF: Cycle:  3   Etot: -136.673628565631958   dEtot: -2.987e-04   |Residual|: 1.116e-02   |deigs|: 5.194e-04  t[s]:    726.61
	Linear fluid (dielectric constant: 64) occupying 0.994695 of unit cell:	Completed after 12 iterations at t[s]:    747.90
	Linear fluid (dielectric constant: 64) occupying 0.994685 of unit cell:	Completed after 12 iterations at t[s]:    782.73
SCF: Cycle:  4   Etot: -136.674002771922630   dEtot: -3.742e-04   |Residual|: 7.970e-03   |deigs|: 5.350e-03  t[s]:    785.17
	Linear fluid (dielectric constant: 64) occupying 0.994688 of unit cell:	Completed after 12 iterations at t[s]:    806.25
	Linear fluid (dielectric constant: 64) occupying 0.994684 of unit cell:	Completed after 12 iterations at t[s]:    839.78
SCF: Cycle:  5   Etot: -136.674096617399556   dEtot: -9.385e-05   |Residual|: 4.935e-03   |deigs|: 1.040e-03  t[s]:    842.19
	Linear fluid (dielectric constant: 64) occupying 0.994657 of unit cell:	Completed after 10 iterations at t[s]:    860.72
	Linear fluid (dielectric constant: 64) occupying 0.994679 of unit cell:	Completed after 9 iterations at t[s]:    891.29
SCF: Cycle:  6   Etot: -136.674166949311143   dEtot: -7.033e-05   |Residual|: 6.299e-03   |deigs|: 1.083e-03  t[s]:    893.74
	Linear fluid (dielectric constant: 64) occupying 0.994655 of unit cell:	Completed after 10 iterations at t[s]:    912.33
	Linear fluid (dielectric constant: 64) occupying 0.994677 of unit cell:	Completed after 8 iterations at t[s]:    940.79
SCF: Cycle:  7   Etot: -136.674234135854562   dEtot: -6.719e-05   |Residual|: 3.315e-03   |deigs|: 4.648e-04  t[s]:    943.25
	Linear fluid (dielectric constant: 64) occupying 0.994638 of unit cell:	Completed after 6 iterations at t[s]:    956.49
	Linear fluid (dielectric constant: 64) occupying 0.994676 of unit cell:	Completed after 10 iterations at t[s]:    988.10
SCF: Cycle:  8   Etot: -136.674223247968399   dEtot: +1.089e-05   |Residual|: 6.032e-03   |deigs|: 4.049e-04  t[s]:    990.48
	Linear fluid (dielectric constant: 64) occupying 0.994645 of unit cell:	Completed after 9 iterations at t[s]:   1007.62
	Linear fluid (dielectric constant: 64) occupying 0.994676 of unit cell:	Completed after 6 iterations at t[s]:   1033.81
SCF: Cycle:  9   Etot: -136.674287112268360   dEtot: -6.386e-05   |Residual|: 2.634e-03   |deigs|: 4.949e-04  t[s]:   1036.40
	Linear fluid (dielectric constant: 64) occupying 0.994667 of unit cell:	Completed after 4 iterations at t[s]:   1046.92
	Linear fluid (dielectric constant: 64) occupying 0.994676 of unit cell:	Completed after 5 iterations at t[s]:   1070.98
SCF: Cycle: 10   Etot: -136.674287905794188   dEtot: -7.935e-07   |Residual|: 2.851e-03   |deigs|: 1.235e-04  t[s]:   1073.42
	Linear fluid (dielectric constant: 64) occupying 0.994668 of unit cell:	Completed after 5 iterations at t[s]:   1085.21
	Linear fluid (dielectric constant: 64) occupying 0.994677 of unit cell:	Completed after 4 iterations at t[s]:   1108.29
SCF: Cycle: 11   Etot: -136.674294440775668   dEtot: -6.535e-06   |Residual|: 1.818e-03   |deigs|: 1.416e-04  t[s]:   1110.67
	Linear fluid (dielectric constant: 64) occupying 0.994687 of unit cell:	Completed after 4 iterations at t[s]:   1121.11
	Linear fluid (dielectric constant: 64) occupying 0.994680 of unit cell:	Completed after 9 iterations at t[s]:   1150.90
SCF: Cycle: 12   Etot: -136.674268307916094   dEtot: +2.613e-05   |Residual|: 4.176e-03   |deigs|: 2.816e-04  t[s]:   1153.38
	Linear fluid (dielectric constant: 64) occupying 0.994696 of unit cell:	Completed after 4 iterations at t[s]:   1163.87
	Linear fluid (dielectric constant: 64) occupying 0.994678 of unit cell:	Completed after 5 iterations at t[s]:   1188.42
SCF: Cycle: 13   Etot: -136.674297631294621   dEtot: -2.932e-05   |Residual|: 1.652e-03   |deigs|: 4.103e-04  t[s]:   1190.82
	Linear fluid (dielectric constant: 64) occupying 0.994693 of unit cell:	Completed after 3 iterations at t[s]:   1199.81
	Linear fluid (dielectric constant: 64) occupying 0.994677 of unit cell:	Completed after 5 iterations at t[s]:   1222.69
SCF: Cycle: 14   Etot: -136.674289187198951   dEtot: +8.444e-06   |Residual|: 2.821e-03   |deigs|: 9.535e-05  t[s]:   1225.12
	Linear fluid (dielectric constant: 64) occupying 0.994684 of unit cell:	Completed after 4 iterations at t[s]:   1235.71
	Linear fluid (dielectric constant: 64) occupying 0.994678 of unit cell:	Completed after 4 iterations at t[s]:   1256.97
SCF: Cycle: 15   Etot: -136.674293562393729   dEtot: -4.375e-06   |Residual|: 1.724e-03   |deigs|: 1.315e-04  t[s]:   1259.35
	Linear fluid (dielectric constant: 64) occupying 0.994675 of unit cell:	Completed after 3 iterations at t[s]:   1268.41
	Linear fluid (dielectric constant: 64) occupying 0.994678 of unit cell:	Completed after 4 iterations at t[s]:   1289.66
SCF: Cycle: 16   Etot: -136.674297367996303   dEtot: -3.806e-06   |Residual|: 1.068e-03   |deigs|: 1.473e-04  t[s]:   1292.01
	Linear fluid (dielectric constant: 64) occupying 0.994676 of unit cell:	Completed after 3 iterations at t[s]:   1301.04
	Linear fluid (dielectric constant: 64) occupying 0.994678 of unit cell:	Completed after 2 iterations at t[s]:   1319.66
SCF: Cycle: 17   Etot: -136.674299257309542   dEtot: -1.889e-06   |Residual|: 6.953e-04   |deigs|: 1.235e-04  t[s]:   1322.08
	Linear fluid (dielectric constant: 64) occupying 0.994678 of unit cell:	Completed after 1 iterations at t[s]:   1328.63
	Linear fluid (dielectric constant: 64) occupying 0.994678 of unit cell:	Completed after 1 iterations at t[s]:   1345.79
SCF: Cycle: 18   Etot: -136.674299517795674   dEtot: -2.605e-07   |Residual|: 5.874e-04   |deigs|: 1.116e-04  t[s]:   1348.22
	Linear fluid (dielectric constant: 64) occupying 0.994681 of unit cell:	Completed after 3 iterations at t[s]:   1357.41
	Linear fluid (dielectric constant: 64) occupying 0.994678 of unit cell:	Completed after 1 iterations at t[s]:   1376.40
SCF: Cycle: 19   Etot: -136.674301609801887   dEtot: -2.092e-06   |Residual|: 5.292e-04   |deigs|: 1.085e-04  t[s]:   1378.80
	Linear fluid (dielectric constant: 64) occupying 0.994680 of unit cell:	Completed after 0 iterations at t[s]:   1383.83
	Linear fluid (dielectric constant: 64) occupying 0.994678 of unit cell:	Completed after 0 iterations at t[s]:   1399.86
SCF: Cycle: 20   Etot: -136.674302047151514   dEtot: -4.373e-07   |Residual|: 3.509e-04   |deigs|: 4.101e-05  t[s]:   1402.26
	Linear fluid (dielectric constant: 64) occupying 0.994678 of unit cell:	Completed after 0 iterations at t[s]:   1405.92
	Linear fluid (dielectric constant: 64) occupying 0.994677 of unit cell:	Completed after 2 iterations at t[s]:   1424.68
SCF: Cycle: 21   Etot: -136.674301997330844   dEtot: +4.982e-08   |Residual|: 2.982e-04   |deigs|: 6.547e-05  t[s]:   1427.07
	Linear fluid (dielectric constant: 64) occupying 0.994677 of unit cell:	Completed after 0 iterations at t[s]:   1430.83
	Linear fluid (dielectric constant: 64) occupying 0.994678 of unit cell:	Completed after 0 iterations at t[s]:   1447.89
SCF: Cycle: 22   Etot: -136.674302474693150   dEtot: -4.774e-07   |Residual|: 4.143e-04   |deigs|: 1.647e-04  t[s]:   1450.25
	Linear fluid (dielectric constant: 64) occupying 0.994677 of unit cell:	Completed after 0 iterations at t[s]:   1454.09
	Linear fluid (dielectric constant: 64) occupying 0.994678 of unit cell:	Completed after 0 iterations at t[s]:   1468.69
SCF: Cycle: 23   Etot: -136.674302601240470   dEtot: -1.265e-07   |Residual|: 3.179e-04   |deigs|: 4.678e-06  t[s]:   1471.07
	Linear fluid (dielectric constant: 64) occupying 0.994677 of unit cell:	Completed after 0 iterations at t[s]:   1474.91
	Linear fluid (dielectric constant: 64) occupying 0.994678 of unit cell:	Completed after 0 iterations at t[s]:   1491.02
SCF: Cycle: 24   Etot: -136.674302658924773   dEtot: -5.768e-08   |Residual|: 2.228e-04   |deigs|: 3.861e-06  t[s]:   1493.41
	Linear fluid (dielectric constant: 64) occupying 0.994677 of unit cell:	Completed after 0 iterations at t[s]:   1497.18
	Linear fluid (dielectric constant: 64) occupying 0.994678 of unit cell:	Completed after 0 iterations at t[s]:   1511.77
SCF: Cycle: 25   Etot: -136.674302717326213   dEtot: -5.840e-08   |Residual|: 1.530e-04   |deigs|: 2.483e-06  t[s]:   1514.28
	Linear fluid (dielectric constant: 64) occupying 0.994678 of unit cell:	Completed after 0 iterations at t[s]:   1518.01
	Linear fluid (dielectric constant: 64) occupying 0.994678 of unit cell:	Completed after 0 iterations at t[s]:   1533.85
SCF: Cycle: 26   Etot: -136.674302854535341   dEtot: -1.372e-07   |Residual|: 9.942e-05   |deigs|: 1.702e-06  t[s]:   1536.21
	Linear fluid (dielectric constant: 64) occupying 0.994678 of unit cell:	Completed after 0 iterations at t[s]:   1540.05
	Linear fluid (dielectric constant: 64) occupying 0.994678 of unit cell:	Completed after 0 iterations at t[s]:   1554.78
SCF: Cycle: 27   Etot: -136.674302952618120   dEtot: -9.808e-08   |Residual|: 6.648e-05   |deigs|: 2.778e-06  t[s]:   1557.19
	Linear fluid (dielectric constant: 64) occupying 0.994678 of unit cell:	Completed after 0 iterations at t[s]:   1560.98
	Linear fluid (dielectric constant: 64) occupying 0.994678 of unit cell:	Completed after 0 iterations at t[s]:   1575.71
SCF: Cycle: 28   Etot: -136.674302994444957   dEtot: -4.183e-08   |Residual|: 6.842e-05   |deigs|: 1.494e-06  t[s]:   1578.14
	Linear fluid (dielectric constant: 64) occupying 0.994678 of unit cell:	Completed after 0 iterations at t[s]:   1581.89
	Linear fluid (dielectric constant: 64) occupying 0.994678 of unit cell:	Completed after 0 iterations at t[s]:   1596.37
SCF: Cycle: 29   Etot: -136.674303047163164   dEtot: -5.272e-08   |Residual|: 7.977e-05   |deigs|: 2.715e-06  t[s]:   1598.83
	Linear fluid (dielectric constant: 64) occupying 0.994678 of unit cell:	Completed after 0 iterations at t[s]:   1602.56
	Linear fluid (dielectric constant: 64) occupying 0.994678 of unit cell:	Completed after 0 iterations at t[s]:   1617.23
SCF: Cycle: 30   Etot: -136.674303082685412   dEtot: -3.552e-08   |Residual|: 8.478e-05   |deigs|: 2.024e-06  t[s]:   1619.58
	Linear fluid (dielectric constant: 64) occupying 0.994678 of unit cell:	Completed after 0 iterations at t[s]:   1623.36
	Linear fluid (dielectric constant: 64) occupying 0.994678 of unit cell:	Completed after 0 iterations at t[s]:   1638.25
SCF: Cycle: 31   Etot: -136.674303074102482   dEtot: +8.583e-09   |Residual|: 7.438e-05   |deigs|: 6.683e-07  t[s]:   1640.61
	Linear fluid (dielectric constant: 64) occupying 0.994678 of unit cell:	Completed after 0 iterations at t[s]:   1644.29
	Linear fluid (dielectric constant: 64) occupying 0.994678 of unit cell:	Completed after 0 iterations at t[s]:   1659.96
SCF: Cycle: 32   Etot: -136.674303058163758   dEtot: +1.594e-08   |Residual|: 5.118e-05   |deigs|: 1.557e-06  t[s]:   1662.34
	Linear fluid (dielectric constant: 64) occupying 0.994678 of unit cell:	Completed after 0 iterations at t[s]:   1666.15
	Linear fluid (dielectric constant: 64) occupying 0.994678 of unit cell:	Completed after 0 iterations at t[s]:   1680.64
SCF: Cycle: 33   Etot: -136.674303065534133   dEtot: -7.370e-09   |Residual|: 8.423e-05   |deigs|: 1.214e-06  t[s]:   1683.03
	Linear fluid (dielectric constant: 64) occupying 0.994678 of unit cell:	Completed after 0 iterations at t[s]:   1686.78
	Linear fluid (dielectric constant: 64) occupying 0.994678 of unit cell:	Completed after 0 iterations at t[s]:   1701.36
SCF: Cycle: 34   Etot: -136.674303062111392   dEtot: +3.423e-09   |Residual|: 5.488e-05   |deigs|: 9.844e-07  t[s]:   1703.76
	Linear fluid (dielectric constant: 64) occupying 0.994678 of unit cell:	Completed after 0 iterations at t[s]:   1707.58
	Linear fluid (dielectric constant: 64) occupying 0.994678 of unit cell:	Completed after 0 iterations at t[s]:   1722.21
SCF: Cycle: 35   Etot: -136.674303053816629   dEtot: +8.295e-09   |Residual|: 7.026e-05   |deigs|: 3.803e-07  t[s]:   1724.60
	Linear fluid (dielectric constant: 64) occupying 0.994678 of unit cell:	Completed after 0 iterations at t[s]:   1728.34
	Linear fluid (dielectric constant: 64) occupying 0.994678 of unit cell:	Completed after 1 iterations at t[s]:   1748.06
SCF: Cycle: 36   Etot: -136.674302643657683   dEtot: +4.102e-07   |Residual|: 3.530e-05   |deigs|: 2.419e-06  t[s]:   1750.42
	Linear fluid (dielectric constant: 64) occupying 0.994678 of unit cell:	Completed after 0 iterations at t[s]:   1754.09
	Linear fluid (dielectric constant: 64) occupying 0.994678 of unit cell:	Completed after 0 iterations at t[s]:   1768.72
SCF: Cycle: 37   Etot: -136.674302851197069   dEtot: -2.075e-07   |Residual|: 1.967e-04   |deigs|: 6.918e-05  t[s]:   1771.14
	Linear fluid (dielectric constant: 64) occupying 0.994677 of unit cell:	Completed after 0 iterations at t[s]:   1774.93
	Linear fluid (dielectric constant: 64) occupying 0.994678 of unit cell:	Completed after 0 iterations at t[s]:   1789.85
SCF: Cycle: 38   Etot: -136.674302877491982   dEtot: -2.629e-08   |Residual|: 2.032e-04   |deigs|: 5.891e-07  t[s]:   1792.55
	Linear fluid (dielectric constant: 64) occupying 0.994677 of unit cell:	Completed after 0 iterations at t[s]:   1796.34
	Linear fluid (dielectric constant: 64) occupying 0.994678 of unit cell:	Completed after 0 iterations at t[s]:   1811.86
SCF: Cycle: 39   Etot: -136.674302890451031   dEtot: -1.296e-08   |Residual|: 2.185e-04   |deigs|: 2.515e-07  t[s]:   1814.25
	Linear fluid (dielectric constant: 64) occupying 0.994678 of unit cell:	Completed after 0 iterations at t[s]:   1818.19
	Linear fluid (dielectric constant: 64) occupying 0.994678 of unit cell:	Completed after 0 iterations at t[s]:   1832.43
SCF: Cycle: 40   Etot: -136.674302901749911   dEtot: -1.130e-08   |Residual|: 2.161e-04   |deigs|: 6.637e-07  t[s]:   1834.98
	Linear fluid (dielectric constant: 64) occupying 0.994678 of unit cell:	Completed after 0 iterations at t[s]:   1838.87
	Linear fluid (dielectric constant: 64) occupying 0.994678 of unit cell:	Completed after 0 iterations at t[s]:   1853.70
SCF: Cycle: 41   Etot: -136.674302907864842   dEtot: -6.115e-09   |Residual|: 2.208e-04   |deigs|: 9.846e-08  t[s]:   1856.13
	Linear fluid (dielectric constant: 64) occupying 0.994678 of unit cell:	Completed after 0 iterations at t[s]:   1859.94
	Linear fluid (dielectric constant: 64) occupying 0.994678 of unit cell:	Completed after 0 iterations at t[s]:   1874.40
SCF: Cycle: 42   Etot: -136.674302911400446   dEtot: -3.536e-09   |Residual|: 2.215e-04   |deigs|: 5.928e-08  t[s]:   1876.77
SCF: Converged (|Delta E|<1.000000e-08 for 2 iters).

Setting wave functions to eigenvectors of Hamiltonian
Single-point solvation energy estimate, DeltaEtot = -0.139604826137088

Computing DFT-D3 correction:
# coordination-number S 2.944 3.352 3.353 2.942
# coordination-number Na 3.934 3.934
# diagonal-C6 S 125.81 125.81 125.81 125.81
# diagonal-C6 Na 186.11 186.11
EvdW_6 =   -0.000279
EvdW_8 =   -0.003951

# Ionic positions in cartesian coordinates:
ion S   4.960431645660000  13.981560468840000  25.265472781050001 1
ion S   7.075808635770003  13.274826015330000  28.544133544019999 1
ion S   8.239466575169999   9.479152131930000  28.544855420880001 1
ion S  10.355264975069996   8.766735260310000  25.266360954149999 1
ion Na   5.293454984100000   8.983135801530000  24.325194155759998 1
ion Na  10.011364350749997  13.762072108800000  24.311516290019998 1

# Forces in Cartesian coordinates:
force S  -0.008271225999122   0.009648674843250   0.011042695415643 1
force S  -0.004990113467063   0.001163054771016   0.001867558674954 1
force S   0.005137854490444  -0.001216116205766   0.001903198959022 1
force S   0.008072236726399  -0.009540412799807   0.011115558927761 1
force Na  -0.016077903781644  -0.014508090707848  -0.013206143615682 1
force Na   0.016113843143315   0.014438872756178  -0.013280229549560 1

# Energy components:
   A_diel =       -0.1890852332199197
   Eewald =       95.1000625064078804
       EH =      207.5198136060932370
     Eloc =     -310.4826545236392121
      Enl =     -136.8856063026673837
     EvdW =       -0.0042299291212359
      Exc =      -31.2614836090584696
 Exc_core =        7.0709167916615536
       KE =       32.4579637821431533
-------------------------------------
     Etot =     -136.6743029114004457

IonicMinimize: Iter:   0  Etot: -136.674302911400446  |grad|_K:  1.031e-02  alpha:  1.000e+00

#--- Lowdin population analysis ---
# oxidation-state S -0.652 -0.038 -0.039 -0.652
# oxidation-state Na +0.854 +0.854


Computing DFT-D3 correction:
# coordination-number S 2.933 3.332 3.333 2.932
# coordination-number Na 3.882 3.883
# diagonal-C6 S 125.81 125.81 125.81 125.81
# diagonal-C6 Na 186.11 186.11
EvdW_6 =   -0.000286
EvdW_8 =   -0.004038

-------- Electronic minimization -----------
Will mix electronic density at each iteration.
	Linear fluid (dielectric constant: 64) occupying 0.994677 of unit cell:	Completed after 16 iterations at t[s]:   1920.50
	Linear fluid (dielectric constant: 64) occupying 0.994633 of unit cell:	Completed after 20 iterations at t[s]:   1966.68
SCF: Cycle:  0   Etot: -136.673939545111864   dEtot: -2.326e-02   |Residual|: 7.087e-02   |deigs|: 1.219e-03  t[s]:   1969.07
	Linear fluid (dielectric constant: 64) occupying 0.994690 of unit cell:	Completed after 19 iterations at t[s]:   1999.87
	Linear fluid (dielectric constant: 64) occupying 0.994642 of unit cell:	Completed after 19 iterations at t[s]:   2044.22
SCF: Cycle:  1   Etot: -136.675245301552366   dEtot: -1.306e-03   |Residual|: 3.537e-02   |deigs|: 1.136e-03  t[s]:   2046.70
	Linear fluid (dielectric constant: 64) occupying 0.994687 of unit cell:	Completed after 17 iterations at t[s]:   2074.78
	Linear fluid (dielectric constant: 64) occupying 0.994662 of unit cell:	Completed after 17 iterations at t[s]:   2116.59
SCF: Cycle:  2   Etot: -136.676064122988521   dEtot: -8.188e-04   |Residual|: 7.195e-03   |deigs|: 2.744e-03  t[s]:   2119.05
	Linear fluid (dielectric constant: 64) occupying 0.994673 of unit cell:	Completed after 13 iterations at t[s]:   2141.93
	Linear fluid (dielectric constant: 64) occupying 0.994663 of unit cell:	Completed after 13 iterations at t[s]:   2176.08
SCF: Cycle:  3   Etot: -136.676109793389799   dEtot: -4.567e-05   |Residual|: 4.161e-03   |deigs|: 1.257e-03  t[s]:   2178.47
	Linear fluid (dielectric constant: 64) occupying 0.994654 of unit cell:	Completed after 6 iterations at t[s]:   2191.52
	Linear fluid (dielectric constant: 64) occupying 0.994664 of unit cell:	Completed after 7 iterations at t[s]:   2219.78
SCF: Cycle:  4   Etot: -136.676149706950127   dEtot: -3.991e-05   |Residual|: 1.804e-03   |deigs|: 1.244e-03  t[s]:   2222.15
	Linear fluid (dielectric constant: 64) occupying 0.994652 of unit cell:	Completed after 6 iterations at t[s]:   2235.20
	Linear fluid (dielectric constant: 64) occupying 0.994664 of unit cell:	Completed after 6 iterations at t[s]:   2259.31
SCF: Cycle:  5   Etot: -136.676161617173960   dEtot: -1.191e-05   |Residual|: 1.250e-03   |deigs|: 7.668e-05  t[s]:   2261.74
	Linear fluid (dielectric constant: 64) occupying 0.994649 of unit cell:	Completed after 7 iterations at t[s]:   2276.11
	Linear fluid (dielectric constant: 64) occupying 0.994665 of unit cell:	Completed after 5 iterations at t[s]:   2298.74
SCF: Cycle:  6   Etot: -136.676172904029698   dEtot: -1.129e-05   |Residual|: 7.788e-04   |deigs|: 2.001e-04  t[s]:   2301.15
	Linear fluid (dielectric constant: 64) occupying 0.994651 of unit cell:	Completed after 4 iterations at t[s]:   2311.60
	Linear fluid (dielectric constant: 64) occupying 0.994665 of unit cell:	Completed after 4 iterations at t[s]:   2332.79
SCF: Cycle:  7   Etot: -136.676176716603550   dEtot: -3.813e-06   |Residual|: 6.828e-04   |deigs|: 1.303e-04  t[s]:   2335.21
	Linear fluid (dielectric constant: 64) occupying 0.994657 of unit cell:	Completed after 2 iterations at t[s]:   2342.96
	Linear fluid (dielectric constant: 64) occupying 0.994666 of unit cell:	Completed after 3 iterations at t[s]:   2363.05
SCF: Cycle:  8   Etot: -136.676179086799465   dEtot: -2.370e-06   |Residual|: 6.401e-04   |deigs|: 3.727e-05  t[s]:   2365.49
	Linear fluid (dielectric constant: 64) occupying 0.994661 of unit cell:	Completed after 1 iterations at t[s]:   2372.07
	Linear fluid (dielectric constant: 64) occupying 0.994666 of unit cell:	Completed after 0 iterations at t[s]:   2387.82
SCF: Cycle:  9   Etot: -136.676179928957708   dEtot: -8.422e-07   |Residual|: 3.459e-04   |deigs|: 2.215e-04  t[s]:   2390.18
	Linear fluid (dielectric constant: 64) occupying 0.994666 of unit cell:	Completed after 4 iterations at t[s]:   2400.85
	Linear fluid (dielectric constant: 64) occupying 0.994666 of unit cell:	Completed after 3 iterations at t[s]:   2421.97
SCF: Cycle: 10   Etot: -136.676179928593513   dEtot: +3.642e-10   |Residual|: 3.506e-04   |deigs|: 1.083e-04  t[s]:   2424.43
	Linear fluid (dielectric constant: 64) occupying 0.994665 of unit cell:	Completed after 0 iterations at t[s]:   2428.21
	Linear fluid (dielectric constant: 64) occupying 0.994666 of unit cell:	Completed after 0 iterations at t[s]:   2445.50
SCF: Cycle: 11   Etot: -136.676180726676336   dEtot: -7.981e-07   |Residual|: 2.246e-04   |deigs|: 8.283e-05  t[s]:   2447.94
	Linear fluid (dielectric constant: 64) occupying 0.994665 of unit cell:	Completed after 0 iterations at t[s]:   2451.77
	Linear fluid (dielectric constant: 64) occupying 0.994666 of unit cell:	Completed after 0 iterations at t[s]:   2467.82
SCF: Cycle: 12   Etot: -136.676180910711594   dEtot: -1.840e-07   |Residual|: 2.169e-04   |deigs|: 5.489e-06  t[s]:   2470.17
	Linear fluid (dielectric constant: 64) occupying 0.994665 of unit cell:	Completed after 2 iterations at t[s]:   2477.97
	Linear fluid (dielectric constant: 64) occupying 0.994665 of unit cell:	Completed after 3 iterations at t[s]:   2500.85
SCF: Cycle: 13   Etot: -136.676180280839731   dEtot: +6.299e-07   |Residual|: 9.395e-04   |deigs|: 3.367e-04  t[s]:   2503.28
	Linear fluid (dielectric constant: 64) occupying 0.994665 of unit cell:	Completed after 1 iterations at t[s]:   2509.91
	Linear fluid (dielectric constant: 64) occupying 0.994666 of unit cell:	Completed after 0 iterations at t[s]:   2525.89
SCF: Cycle: 14   Etot: -136.676180597159316   dEtot: -3.163e-07   |Residual|: 4.105e-04   |deigs|: 1.380e-04  t[s]:   2528.38
	Linear fluid (dielectric constant: 64) occupying 0.994666 of unit cell:	Completed after 0 iterations at t[s]:   2532.10
	Linear fluid (dielectric constant: 64) occupying 0.994666 of unit cell:	Completed after 0 iterations at t[s]:   2547.00
SCF: Cycle: 15   Etot: -136.676180606098853   dEtot: -8.940e-09   |Residual|: 3.773e-04   |deigs|: 3.312e-05  t[s]:   2549.39
	Linear fluid (dielectric constant: 64) occupying 0.994666 of unit cell:	Completed after 0 iterations at t[s]:   2553.17
	Linear fluid (dielectric constant: 64) occupying 0.994666 of unit cell:	Completed after 0 iterations at t[s]:   2570.44
SCF: Cycle: 16   Etot: -136.676180810883920   dEtot: -2.048e-07   |Residual|: 4.420e-04   |deigs|: 6.240e-06  t[s]:   2572.85
	Linear fluid (dielectric constant: 64) occupying 0.994666 of unit cell:	Completed after 1 iterations at t[s]:   2579.24
	Linear fluid (dielectric constant: 64) occupying 0.994666 of unit cell:	Completed after 0 iterations at t[s]:   2594.90
SCF: Cycle: 17   Etot: -136.676180839592263   dEtot: -2.871e-08   |Residual|: 5.645e-04   |deigs|: 3.626e-05  t[s]:   2597.43
	Linear fluid (dielectric constant: 64) occupying 0.994667 of unit cell:	Completed after 0 iterations at t[s]:   2601.25
	Linear fluid (dielectric constant: 64) occupying 0.994666 of unit cell:	Completed after 0 iterations at t[s]:   2618.72
SCF: Cycle: 18   Etot: -136.676180935390846   dEtot: -9.580e-08   |Residual|: 5.043e-04   |deigs|: 1.007e-05  t[s]:   2621.11
	Linear fluid (dielectric constant: 64) occupying 0.994667 of unit cell:	Completed after 0 iterations at t[s]:   2624.81
	Linear fluid (dielectric constant: 64) occupying 0.994666 of unit cell:	Completed after 0 iterations at t[s]:   2641.08
SCF: Cycle: 19   Etot: -136.676180960294744   dEtot: -2.490e-08   |Residual|: 4.578e-04   |deigs|: 3.953e-06  t[s]:   2643.38
	Linear fluid (dielectric constant: 64) occupying 0.994667 of unit cell:	Completed after 0 iterations at t[s]:   2647.16
	Linear fluid (dielectric constant: 64) occupying 0.994666 of unit cell:	Completed after 0 iterations at t[s]:   2661.87
SCF: Cycle: 20   Etot: -136.676180978343496   dEtot: -1.805e-08   |Residual|: 3.500e-04   |deigs|: 3.482e-05  t[s]:   2664.25
	Linear fluid (dielectric constant: 64) occupying 0.994667 of unit cell:	Completed after 0 iterations at t[s]:   2668.01
	Linear fluid (dielectric constant: 64) occupying 0.994667 of unit cell:	Completed after 0 iterations at t[s]:   2682.78
SCF: Cycle: 21   Etot: -136.676181000750688   dEtot: -2.241e-08   |Residual|: 3.506e-04   |deigs|: 5.810e-07  t[s]:   2685.16
	Linear fluid (dielectric constant: 64) occupying 0.994667 of unit cell:	Completed after 0 iterations at t[s]:   2688.91
	Linear fluid (dielectric constant: 64) occupying 0.994666 of unit cell:	Completed after 0 iterations at t[s]:   2703.75
SCF: Cycle: 22   Etot: -136.676180966658023   dEtot: +3.409e-08   |Residual|: 3.507e-04   |deigs|: 2.056e-06  t[s]:   2706.23
	Linear fluid (dielectric constant: 64) occupying 0.994667 of unit cell:	Completed after 0 iterations at t[s]:   2710.06
	Linear fluid (dielectric constant: 64) occupying 0.994666 of unit cell:	Completed after 0 iterations at t[s]:   2725.32
SCF: Cycle: 23   Etot: -136.676180969912735   dEtot: -3.255e-09   |Residual|: 3.548e-04   |deigs|: 5.285e-07  t[s]:   2727.67
	Linear fluid (dielectric constant: 64) occupying 0.994667 of unit cell:	Completed after 0 iterations at t[s]:   2731.53
	Linear fluid (dielectric constant: 64) occupying 0.994666 of unit cell:	Completed after 0 iterations at t[s]:   2748.63
SCF: Cycle: 24   Etot: -136.676180987818213   dEtot: -1.791e-08   |Residual|: 3.441e-04   |deigs|: 2.167e-06  t[s]:   2751.04
	Linear fluid (dielectric constant: 64) occupying 0.994668 of unit cell:	Completed after 0 iterations at t[s]:   2756.16
	Linear fluid (dielectric constant: 64) occupying 0.994666 of unit cell:	Completed after 0 iterations at t[s]:   2773.71
SCF: Cycle: 25   Etot: -136.676180936320208   dEtot: +5.150e-08   |Residual|: 3.309e-04   |deigs|: 1.766e-05  t[s]:   2776.06
	Linear fluid (dielectric constant: 64) occupying 0.994667 of unit cell:	Completed after 0 iterations at t[s]:   2779.84
	Linear fluid (dielectric constant: 64) occupying 0.994666 of unit cell:	Completed after 0 iterations at t[s]:   2797.14
SCF: Cycle: 26   Etot: -136.676181019341186   dEtot: -8.302e-08   |Residual|: 2.773e-04   |deigs|: 5.008e-06  t[s]:   2799.50
	Linear fluid (dielectric constant: 64) occupying 0.994667 of unit cell:	Completed after 0 iterations at t[s]:   2803.29
	Linear fluid (dielectric constant: 64) occupying 0.994666 of unit cell:	Completed after 0 iterations at t[s]:   2819.45
SCF: Cycle: 27   Etot: -136.676180935004822   dEtot: +8.434e-08   |Residual|: 2.193e-04   |deigs|: 3.470e-06  t[s]:   2821.80
	Linear fluid (dielectric constant: 64) occupying 0.994667 of unit cell:	Completed after 0 iterations at t[s]:   2825.62
	Linear fluid (dielectric constant: 64) occupying 0.994666 of unit cell:	Completed after 0 iterations at t[s]:   2840.14
SCF: Cycle: 28   Etot: -136.676180933781779   dEtot: +1.223e-09   |Residual|: 1.761e-04   |deigs|: 1.291e-05  t[s]:   2842.58
	Linear fluid (dielectric constant: 64) occupying 0.994667 of unit cell:	Completed after 0 iterations at t[s]:   2846.39
	Linear fluid (dielectric constant: 64) occupying 0.994666 of unit cell:	Completed after 0 iterations at t[s]:   2865.22
SCF: Cycle: 29   Etot: -136.676180860214913   dEtot: +7.357e-08   |Residual|: 1.352e-04   |deigs|: 4.353e-06  t[s]:   2867.57
	Linear fluid (dielectric constant: 64) occupying 0.994667 of unit cell:	Completed after 0 iterations at t[s]:   2871.33
	Linear fluid (dielectric constant: 64) occupying 0.994666 of unit cell:	Completed after 0 iterations at t[s]:   2887.36
SCF: Cycle: 30   Etot: -136.676180912277971   dEtot: -5.206e-08   |Residual|: 8.265e-05   |deigs|: 2.599e-05  t[s]:   2890.17
	Linear fluid (dielectric constant: 64) occupying 0.994666 of unit cell:	Completed after 0 iterations at t[s]:   2894.16
	Linear fluid (dielectric constant: 64) occupying 0.994666 of unit cell:	Completed after 0 iterations at t[s]:   2909.01
SCF: Cycle: 31   Etot: -136.676180919913321   dEtot: -7.635e-09   |Residual|: 4.919e-05   |deigs|: 1.242e-06  t[s]:   2911.45
	Linear fluid (dielectric constant: 64) occupying 0.994666 of unit cell:	Completed after 0 iterations at t[s]:   2915.25
	Linear fluid (dielectric constant: 64) occupying 0.994666 of unit cell:	Completed after 0 iterations at t[s]:   2932.42
SCF: Cycle: 32   Etot: -136.676180942784924   dEtot: -2.287e-08   |Residual|: 3.258e-05   |deigs|: 1.625e-06  t[s]:   2934.78
	Linear fluid (dielectric constant: 64) occupying 0.994666 of unit cell:	Completed after 0 iterations at t[s]:   2939.93
	Linear fluid (dielectric constant: 64) occupying 0.994666 of unit cell:	Completed after 0 iterations at t[s]:   2954.78
SCF: Cycle: 33   Etot: -136.676180830258318   dEtot: +1.125e-07   |Residual|: 4.899e-05   |deigs|: 1.438e-05  t[s]:   2957.21
	Linear fluid (dielectric constant: 64) occupying 0.994666 of unit cell:	Completed after 0 iterations at t[s]:   2960.95
	Linear fluid (dielectric constant: 64) occupying 0.994666 of unit cell:	Completed after 0 iterations at t[s]:   2975.78
SCF: Cycle: 34   Etot: -136.676180842448389   dEtot: -1.219e-08   |Residual|: 2.705e-05   |deigs|: 1.782e-06  t[s]:   2978.40
	Linear fluid (dielectric constant: 64) occupying 0.994666 of unit cell:	Completed after 0 iterations at t[s]:   2983.72
	Linear fluid (dielectric constant: 64) occupying 0.994666 of unit cell:	Completed after 0 iterations at t[s]:   2998.14
SCF: Cycle: 35   Etot: -136.676180751284562   dEtot: +9.116e-08   |Residual|: 7.022e-05   |deigs|: 2.437e-05  t[s]:   3000.58
	Linear fluid (dielectric constant: 64) occupying 0.994666 of unit cell:	Completed after 0 iterations at t[s]:   3004.41
	Linear fluid (dielectric constant: 64) occupying 0.994666 of unit cell:	Completed after 0 iterations at t[s]:   3019.26
SCF: Cycle: 36   Etot: -136.676180756243326   dEtot: -4.959e-09   |Residual|: 2.716e-05   |deigs|: 2.584e-06  t[s]:   3021.63
	Linear fluid (dielectric constant: 64) occupying 0.994666 of unit cell:	Completed after 0 iterations at t[s]:   3025.40
	Linear fluid (dielectric constant: 64) occupying 0.994666 of unit cell:	Completed after 0 iterations at t[s]:   3042.30
SCF: Cycle: 37   Etot: -136.676180766906128   dEtot: -1.066e-08   |Residual|: 3.203e-05   |deigs|: 1.252e-06  t[s]:   3044.69
	Linear fluid (dielectric constant: 64) occupying 0.994666 of unit cell:	Completed after 0 iterations at t[s]:   3048.55
	Linear fluid (dielectric constant: 64) occupying 0.994666 of unit cell:	Completed after 0 iterations at t[s]:   3063.04
SCF: Cycle: 38   Etot: -136.676180782475257   dEtot: -1.557e-08   |Residual|: 3.674e-05   |deigs|: 1.441e-06  t[s]:   3065.46
	Linear fluid (dielectric constant: 64) occupying 0.994666 of unit cell:	Completed after 0 iterations at t[s]:   3069.29
	Linear fluid (dielectric constant: 64) occupying 0.994666 of unit cell:	Completed after 0 iterations at t[s]:   3086.23
SCF: Cycle: 39   Etot: -136.676180808367235   dEtot: -2.589e-08   |Residual|: 1.973e-05   |deigs|: 2.726e-06  t[s]:   3088.57
	Linear fluid (dielectric constant: 64) occupying 0.994666 of unit cell:	Completed after 0 iterations at t[s]:   3092.37
	Linear fluid (dielectric constant: 64) occupying 0.994666 of unit cell:	Completed after 0 iterations at t[s]:   3107.25
SCF: Cycle: 40   Etot: -136.676180817636265   dEtot: -9.269e-09   |Residual|: 2.326e-05   |deigs|: 1.256e-06  t[s]:   3109.62
	Linear fluid (dielectric constant: 64) occupying 0.994666 of unit cell:	Completed after 0 iterations at t[s]:   3113.40
	Linear fluid (dielectric constant: 64) occupying 0.994666 of unit cell:	Completed after 0 iterations at t[s]:   3130.44
SCF: Cycle: 41   Etot: -136.676180829096268   dEtot: -1.146e-08   |Residual|: 1.322e-05   |deigs|: 2.294e-06  t[s]:   3132.92
	Linear fluid (dielectric constant: 64) occupying 0.994666 of unit cell:	Completed after 0 iterations at t[s]:   3136.68
	Linear fluid (dielectric constant: 64) occupying 0.994666 of unit cell:	Completed after 0 iterations at t[s]:   3151.53
SCF: Cycle: 42   Etot: -136.676180834755371   dEtot: -5.659e-09   |Residual|: 1.938e-05   |deigs|: 1.399e-06  t[s]:   3153.91
	Linear fluid (dielectric constant: 64) occupying 0.994666 of unit cell:	Completed after 0 iterations at t[s]:   3157.68
	Linear fluid (dielectric constant: 64) occupying 0.994666 of unit cell:	Completed after 0 iterations at t[s]:   3172.33
SCF: Cycle: 43   Etot: -136.676180837722313   dEtot: -2.967e-09   |Residual|: 1.073e-05   |deigs|: 4.085e-07  t[s]:   3174.71
SCF: Converged (|Delta E|<1.000000e-08 for 2 iters).

Setting wave functions to eigenvectors of Hamiltonian
IonicMinimize: 	Predicted alpha/alphaT>3.000000, increasing alphaT to 3.000000e+00.

Computing DFT-D3 correction:
# coordination-number S 2.911 3.293 3.293 2.909
# coordination-number Na 3.775 3.775
# diagonal-C6 S 125.81 125.81 125.81 125.81
# diagonal-C6 Na 186.11 186.11
EvdW_6 =   -0.000301
EvdW_8 =   -0.004215

-------- Electronic minimization -----------
Will mix electronic density at each iteration.
	Linear fluid (dielectric constant: 64) occupying 0.994664 of unit cell:	Completed after 21 iterations at t[s]:   3214.94
	Linear fluid (dielectric constant: 64) occupying 0.994580 of unit cell:	Completed after 23 iterations at t[s]:   3265.67
SCF: Cycle:  0   Etot: -136.670862156883004   dEtot: -9.337e-02   |Residual|: 1.438e-01   |deigs|: 4.927e-03  t[s]:   3267.97
	Linear fluid (dielectric constant: 64) occupying 0.994689 of unit cell:	Completed after 22 iterations at t[s]:   3302.46
	Linear fluid (dielectric constant: 64) occupying 0.994597 of unit cell:	Completed after 21 iterations at t[s]:   3349.39
SCF: Cycle:  1   Etot: -136.675994368696649   dEtot: -5.132e-03   |Residual|: 7.096e-02   |deigs|: 3.735e-03  t[s]:   3351.83
	Linear fluid (dielectric constant: 64) occupying 0.994683 of unit cell:	Completed after 21 iterations at t[s]:   3384.91
	Linear fluid (dielectric constant: 64) occupying 0.994633 of unit cell:	Completed after 20 iterations at t[s]:   3430.41
SCF: Cycle:  2   Etot: -136.679222028611662   dEtot: -3.228e-03   |Residual|: 1.473e-02   |deigs|: 4.570e-03  t[s]:   3432.80
	Linear fluid (dielectric constant: 64) occupying 0.994655 of unit cell:	Completed after 17 iterations at t[s]:   3460.58
	Linear fluid (dielectric constant: 64) occupying 0.994636 of unit cell:	Completed after 17 iterations at t[s]:   3501.98
SCF: Cycle:  3   Etot: -136.679419514150538   dEtot: -1.975e-04   |Residual|: 8.392e-03   |deigs|: 3.133e-03  t[s]:   3504.37
	Linear fluid (dielectric constant: 64) occupying 0.994620 of unit cell:	Completed after 12 iterations at t[s]:   3525.03
	Linear fluid (dielectric constant: 64) occupying 0.994639 of unit cell:	Completed after 13 iterations at t[s]:   3560.61
SCF: Cycle:  4   Etot: -136.679576319267085   dEtot: -1.568e-04   |Residual|: 3.612e-03   |deigs|: 2.779e-03  t[s]:   3563.11
	Linear fluid (dielectric constant: 64) occupying 0.994614 of unit cell:	Completed after 9 iterations at t[s]:   3580.04
	Linear fluid (dielectric constant: 64) occupying 0.994641 of unit cell:	Completed after 9 iterations at t[s]:   3610.37
SCF: Cycle:  5   Etot: -136.679631706748182   dEtot: -5.539e-05   |Residual|: 2.227e-03   |deigs|: 2.469e-04  t[s]:   3612.81
	Linear fluid (dielectric constant: 64) occupying 0.994607 of unit cell:	Completed after 10 iterations at t[s]:   3631.53
	Linear fluid (dielectric constant: 64) occupying 0.994641 of unit cell:	Completed after 10 iterations at t[s]:   3663.58
SCF: Cycle:  6   Etot: -136.679664197616432   dEtot: -3.249e-05   |Residual|: 1.583e-03   |deigs|: 4.352e-04  t[s]:   3665.92
	Linear fluid (dielectric constant: 64) occupying 0.994615 of unit cell:	Completed after 8 iterations at t[s]:   3681.94
	Linear fluid (dielectric constant: 64) occupying 0.994642 of unit cell:	Completed after 8 iterations at t[s]:   3709.93
SCF: Cycle:  7   Etot: -136.679675501477391   dEtot: -1.130e-05   |Residual|: 1.191e-03   |deigs|: 2.886e-04  t[s]:   3712.35
	Linear fluid (dielectric constant: 64) occupying 0.994628 of unit cell:	Completed after 3 iterations at t[s]:   3721.38
	Linear fluid (dielectric constant: 64) occupying 0.994643 of unit cell:	Completed after 3 iterations at t[s]:   3741.41
SCF: Cycle:  8   Etot: -136.679679853321602   dEtot: -4.352e-06   |Residual|: 9.459e-04   |deigs|: 4.790e-04  t[s]:   3744.02
	Linear fluid (dielectric constant: 64) occupying 0.994638 of unit cell:	Completed after 4 iterations at t[s]:   3754.54
	Linear fluid (dielectric constant: 64) occupying 0.994643 of unit cell:	Completed after 3 iterations at t[s]:   3774.68
SCF: Cycle:  9   Etot: -136.679680891829719   dEtot: -1.039e-06   |Residual|: 8.229e-04   |deigs|: 8.114e-05  t[s]:   3777.06
	Linear fluid (dielectric constant: 64) occupying 0.994642 of unit cell:	Completed after 2 iterations at t[s]:   3784.80
	Linear fluid (dielectric constant: 64) occupying 0.994644 of unit cell:	Completed after 1 iterations at t[s]:   3803.73
SCF: Cycle: 10   Etot: -136.679682885927122   dEtot: -1.994e-06   |Residual|: 6.505e-04   |deigs|: 1.976e-04  t[s]:   3806.17
	Linear fluid (dielectric constant: 64) occupying 0.994643 of unit cell:	Completed after 0 iterations at t[s]:   3811.21
	Linear fluid (dielectric constant: 64) occupying 0.994643 of unit cell:	Completed after 0 iterations at t[s]:   3827.36
SCF: Cycle: 11   Etot: -136.679683215245319   dEtot: -3.293e-07   |Residual|: 3.147e-04   |deigs|: 3.212e-05  t[s]:   3829.74
	Linear fluid (dielectric constant: 64) occupying 0.994643 of unit cell:	Completed after 0 iterations at t[s]:   3833.51
	Linear fluid (dielectric constant: 64) occupying 0.994644 of unit cell:	Completed after 2 iterations at t[s]:   3854.71
SCF: Cycle: 12   Etot: -136.679683256968815   dEtot: -4.172e-08   |Residual|: 2.151e-04   |deigs|: 5.355e-05  t[s]:   3857.07
	Linear fluid (dielectric constant: 64) occupying 0.994643 of unit cell:	Completed after 0 iterations at t[s]:   3862.21
	Linear fluid (dielectric constant: 64) occupying 0.994643 of unit cell:	Completed after 0 iterations at t[s]:   3880.89
SCF: Cycle: 13   Etot: -136.679683554753183   dEtot: -2.978e-07   |Residual|: 6.130e-04   |deigs|: 2.111e-04  t[s]:   3883.28
	Linear fluid (dielectric constant: 64) occupying 0.994643 of unit cell:	Completed after 0 iterations at t[s]:   3886.98
	Linear fluid (dielectric constant: 64) occupying 0.994643 of unit cell:	Completed after 0 iterations at t[s]:   3901.77
SCF: Cycle: 14   Etot: -136.679683643418400   dEtot: -8.867e-08   |Residual|: 2.750e-04   |deigs|: 3.367e-05  t[s]:   3904.13
	Linear fluid (dielectric constant: 64) occupying 0.994644 of unit cell:	Completed after 0 iterations at t[s]:   3907.97
	Linear fluid (dielectric constant: 64) occupying 0.994643 of unit cell:	Completed after 0 iterations at t[s]:   3922.71
SCF: Cycle: 15   Etot: -136.679683859869670   dEtot: -2.165e-07   |Residual|: 1.350e-04   |deigs|: 3.412e-06  t[s]:   3925.13
	Linear fluid (dielectric constant: 64) occupying 0.994645 of unit cell:	Completed after 2 iterations at t[s]:   3932.94
	Linear fluid (dielectric constant: 64) occupying 0.994644 of unit cell:	Completed after 0 iterations at t[s]:   3950.32
SCF: Cycle: 16   Etot: -136.679684094106790   dEtot: -2.342e-07   |Residual|: 5.996e-04   |deigs|: 1.835e-04  t[s]:   3952.70
	Linear fluid (dielectric constant: 64) occupying 0.994645 of unit cell:	Completed after 0 iterations at t[s]:   3956.52
	Linear fluid (dielectric constant: 64) occupying 0.994644 of unit cell:	Completed after 0 iterations at t[s]:   3971.18
SCF: Cycle: 17   Etot: -136.679684147909512   dEtot: -5.380e-08   |Residual|: 5.905e-04   |deigs|: 1.058e-06  t[s]:   3973.68
	Linear fluid (dielectric constant: 64) occupying 0.994645 of unit cell:	Completed after 0 iterations at t[s]:   3977.62
	Linear fluid (dielectric constant: 64) occupying 0.994644 of unit cell:	Completed after 1 iterations at t[s]:   3995.01
SCF: Cycle: 18   Etot: -136.679683742715014   dEtot: +4.052e-07   |Residual|: 5.210e-04   |deigs|: 1.653e-06  t[s]:   3997.39
	Linear fluid (dielectric constant: 64) occupying 0.994645 of unit cell:	Completed after 0 iterations at t[s]:   4001.17
	Linear fluid (dielectric constant: 64) occupying 0.994644 of unit cell:	Completed after 0 iterations at t[s]:   4015.96
SCF: Cycle: 19   Etot: -136.679683787912495   dEtot: -4.520e-08   |Residual|: 1.424e-04   |deigs|: 5.330e-05  t[s]:   4018.31
	Linear fluid (dielectric constant: 64) occupying 0.994644 of unit cell:	Completed after 0 iterations at t[s]:   4022.04
	Linear fluid (dielectric constant: 64) occupying 0.994644 of unit cell:	Completed after 0 iterations at t[s]:   4036.71
SCF: Cycle: 20   Etot: -136.679683826690905   dEtot: -3.878e-08   |Residual|: 3.886e-04   |deigs|: 9.992e-06  t[s]:   4039.19
	Linear fluid (dielectric constant: 64) occupying 0.994644 of unit cell:	Completed after 0 iterations at t[s]:   4043.14
	Linear fluid (dielectric constant: 64) occupying 0.994644 of unit cell:	Completed after 0 iterations at t[s]:   4060.36
SCF: Cycle: 21   Etot: -136.679683838588971   dEtot: -1.190e-08   |Residual|: 1.143e-04   |deigs|: 5.521e-06  t[s]:   4062.74
	Linear fluid (dielectric constant: 64) occupying 0.994644 of unit cell:	Completed after 0 iterations at t[s]:   4067.87
	Linear fluid (dielectric constant: 64) occupying 0.994644 of unit cell:	Completed after 0 iterations at t[s]:   4085.24
SCF: Cycle: 22   Etot: -136.679683769503072   dEtot: +6.909e-08   |Residual|: 1.137e-04   |deigs|: 8.313e-06  t[s]:   4087.68
	Linear fluid (dielectric constant: 64) occupying 0.994644 of unit cell:	Completed after 0 iterations at t[s]:   4091.53
	Linear fluid (dielectric constant: 64) occupying 0.994644 of unit cell:	Completed after 0 iterations at t[s]:   4106.74
SCF: Cycle: 23   Etot: -136.679683806747335   dEtot: -3.724e-08   |Residual|: 1.221e-04   |deigs|: 5.443e-06  t[s]:   4109.22
	Linear fluid (dielectric constant: 64) occupying 0.994643 of unit cell:	Completed after 0 iterations at t[s]:   4112.97
	Linear fluid (dielectric constant: 64) occupying 0.994643 of unit cell:	Completed after 0 iterations at t[s]:   4130.24
SCF: Cycle: 24   Etot: -136.679683760264737   dEtot: +4.648e-08   |Residual|: 2.390e-04   |deigs|: 5.668e-06  t[s]:   4132.58
	Linear fluid (dielectric constant: 64) occupying 0.994643 of unit cell:	Completed after 0 iterations at t[s]:   4136.42
	Linear fluid (dielectric constant: 64) occupying 0.994643 of unit cell:	Completed after 0 iterations at t[s]:   4153.64
SCF: Cycle: 25   Etot: -136.679683808788695   dEtot: -4.852e-08   |Residual|: 9.757e-05   |deigs|: 2.708e-05  t[s]:   4156.01
	Linear fluid (dielectric constant: 64) occupying 0.994643 of unit cell:	Completed after 0 iterations at t[s]:   4159.82
	Linear fluid (dielectric constant: 64) occupying 0.994643 of unit cell:	Completed after 0 iterations at t[s]:   4174.72
SCF: Cycle: 26   Etot: -136.679683844062424   dEtot: -3.527e-08   |Residual|: 1.450e-04   |deigs|: 2.482e-06  t[s]:   4177.08
	Linear fluid (dielectric constant: 64) occupying 0.994643 of unit cell:	Completed after 0 iterations at t[s]:   4180.93
	Linear fluid (dielectric constant: 64) occupying 0.994643 of unit cell:	Completed after 0 iterations at t[s]:   4198.24
SCF: Cycle: 27   Etot: -136.679683923941298   dEtot: -7.988e-08   |Residual|: 5.273e-05   |deigs|: 3.339e-06  t[s]:   4200.66
	Linear fluid (dielectric constant: 64) occupying 0.994643 of unit cell:	Completed after 0 iterations at t[s]:   4204.55
	Linear fluid (dielectric constant: 64) occupying 0.994643 of unit cell:	Completed after 0 iterations at t[s]:   4219.39
SCF: Cycle: 28   Etot: -136.679683932861508   dEtot: -8.920e-09   |Residual|: 2.461e-05   |deigs|: 9.990e-07  t[s]:   4221.76
	Linear fluid (dielectric constant: 64) occupying 0.994643 of unit cell:	Completed after 0 iterations at t[s]:   4226.86
	Linear fluid (dielectric constant: 64) occupying 0.994643 of unit cell:	Completed after 0 iterations at t[s]:   4243.71
SCF: Cycle: 29   Etot: -136.679683845909523   dEtot: +8.695e-08   |Residual|: 1.521e-04   |deigs|: 4.796e-05  t[s]:   4246.06
	Linear fluid (dielectric constant: 64) occupying 0.994643 of unit cell:	Completed after 0 iterations at t[s]:   4249.91
	Linear fluid (dielectric constant: 64) occupying 0.994643 of unit cell:	Completed after 0 iterations at t[s]:   4264.37
SCF: Cycle: 30   Etot: -136.679683860011778   dEtot: -1.410e-08   |Residual|: 1.389e-04   |deigs|: 3.746e-07  t[s]:   4266.82
	Linear fluid (dielectric constant: 64) occupying 0.994643 of unit cell:	Completed after 0 iterations at t[s]:   4270.54
	Linear fluid (dielectric constant: 64) occupying 0.994643 of unit cell:	Completed after 0 iterations at t[s]:   4287.90
SCF: Cycle: 31   Etot: -136.679683906766797   dEtot: -4.676e-08   |Residual|: 9.378e-05   |deigs|: 1.573e-06  t[s]:   4290.26
	Linear fluid (dielectric constant: 64) occupying 0.994643 of unit cell:	Completed after 0 iterations at t[s]:   4293.98
	Linear fluid (dielectric constant: 64) occupying 0.994644 of unit cell:	Completed after 0 iterations at t[s]:   4310.15
SCF: Cycle: 32   Etot: -136.679683858934879   dEtot: +4.783e-08   |Residual|: 9.518e-05   |deigs|: 1.959e-06  t[s]:   4312.56
	Linear fluid (dielectric constant: 64) occupying 0.994644 of unit cell:	Completed after 0 iterations at t[s]:   4316.26
	Linear fluid (dielectric constant: 64) occupying 0.994644 of unit cell:	Completed after 0 iterations at t[s]:   4330.65
SCF: Cycle: 33   Etot: -136.679683866083877   dEtot: -7.149e-09   |Residual|: 4.556e-05   |deigs|: 2.049e-05  t[s]:   4333.14
	Linear fluid (dielectric constant: 64) occupying 0.994644 of unit cell:	Completed after 0 iterations at t[s]:   4336.90
	Linear fluid (dielectric constant: 64) occupying 0.994644 of unit cell:	Completed after 0 iterations at t[s]:   4351.75
SCF: Cycle: 34   Etot: -136.679683869769576   dEtot: -3.686e-09   |Residual|: 3.128e-05   |deigs|: 3.286e-07  t[s]:   4354.17
SCF: Converged (|Delta E|<1.000000e-08 for 2 iters).

Setting wave functions to eigenvectors of Hamiltonian
IonicMinimize: 	Predicted alpha/alphaT>3.000000, increasing alphaT to 9.000000e+00.

Computing DFT-D3 correction:
# coordination-number S 2.819 3.172 3.173 2.817
# coordination-number Na 3.422 3.422
# diagonal-C6 S 125.81 125.81 125.81 125.81
# diagonal-C6 Na 186.11 186.11
EvdW_6 =   -0.000352
EvdW_8 =   -0.004769

-------- Electronic minimization -----------
Will mix electronic density at each iteration.
	Linear fluid (dielectric constant: 64) occupying 0.994636 of unit cell:	Completed after 26 iterations at t[s]:   4401.35
	Linear fluid (dielectric constant: 64) occupying 0.994427 of unit cell:	Completed after 28 iterations at t[s]:   4459.57
SCF: Cycle:  0   Etot: -136.599459521558089   dEtot: -8.580e-01   |Residual|: 4.907e-01   |deigs|: 4.603e-02  t[s]:   4461.98
	Linear fluid (dielectric constant: 64) occupying 0.994690 of unit cell:	Completed after 34 iterations at t[s]:   4513.48
	Linear fluid (dielectric constant: 64) occupying 0.994448 of unit cell:	Completed after 30 iterations at t[s]:   4573.80
SCF: Cycle:  1   Etot: -136.653838957739708   dEtot: -5.438e-02   |Residual|: 2.213e-01   |deigs|: 3.704e-02  t[s]:   4576.21
	Linear fluid (dielectric constant: 64) occupying 0.994627 of unit cell:	Completed after 35 iterations at t[s]:   4628.75
	Linear fluid (dielectric constant: 64) occupying 0.994524 of unit cell:	Completed after 28 iterations at t[s]:   4685.78
SCF: Cycle:  2   Etot: -136.682986415439132   dEtot: -2.915e-02   |Residual|: 5.814e-02   |deigs|: 6.943e-03  t[s]:   4688.27
	Linear fluid (dielectric constant: 64) occupying 0.994572 of unit cell:	Completed after 29 iterations at t[s]:   4732.33
	Linear fluid (dielectric constant: 64) occupying 0.994543 of unit cell:	Completed after 23 iterations at t[s]:   4782.08
SCF: Cycle:  3   Etot: -136.686155427000216   dEtot: -3.169e-03   |Residual|: 2.622e-02   |deigs|: 1.613e-02  t[s]:   4784.44
	Linear fluid (dielectric constant: 64) occupying 0.994500 of unit cell:	Completed after 19 iterations at t[s]:   4814.86
	Linear fluid (dielectric constant: 64) occupying 0.994559 of unit cell:	Completed after 19 iterations at t[s]:   4859.75
SCF: Cycle:  4   Etot: -136.687540858129239   dEtot: -1.385e-03   |Residual|: 1.226e-02   |deigs|: 9.335e-03  t[s]:   4862.17
	Linear fluid (dielectric constant: 64) occupying 0.994457 of unit cell:	Completed after 14 iterations at t[s]:   4886.01
	Linear fluid (dielectric constant: 64) occupying 0.994564 of unit cell:	Completed after 14 iterations at t[s]:   4923.38
SCF: Cycle:  5   Etot: -136.688141382791542   dEtot: -6.005e-04   |Residual|: 6.605e-03   |deigs|: 2.000e-03  t[s]:   4925.78
	Linear fluid (dielectric constant: 64) occupying 0.994449 of unit cell:	Completed after 13 iterations at t[s]:   4948.46
	Linear fluid (dielectric constant: 64) occupying 0.994567 of unit cell:	Completed after 14 iterations at t[s]:   4985.81
SCF: Cycle:  6   Etot: -136.688364306813696   dEtot: -2.229e-04   |Residual|: 5.002e-03   |deigs|: 1.035e-03  t[s]:   4988.29
	Linear fluid (dielectric constant: 64) occupying 0.994482 of unit cell:	Completed after 12 iterations at t[s]:   5009.42
	Linear fluid (dielectric constant: 64) occupying 0.994570 of unit cell:	Completed after 12 iterations at t[s]:   5042.94
SCF: Cycle:  7   Etot: -136.688414858145876   dEtot: -5.055e-05   |Residual|: 3.475e-03   |deigs|: 1.760e-03  t[s]:   5045.38
	Linear fluid (dielectric constant: 64) occupying 0.994533 of unit cell:	Completed after 6 iterations at t[s]:   5058.46
	Linear fluid (dielectric constant: 64) occupying 0.994572 of unit cell:	Completed after 6 iterations at t[s]:   5085.25
SCF: Cycle:  8   Etot: -136.688442659848079   dEtot: -2.780e-05   |Residual|: 2.593e-03   |deigs|: 1.087e-03  t[s]:   5087.69
	Linear fluid (dielectric constant: 64) occupying 0.994562 of unit cell:	Completed after 6 iterations at t[s]:   5101.05
	Linear fluid (dielectric constant: 64) occupying 0.994574 of unit cell:	Completed after 4 iterations at t[s]:   5122.40
SCF: Cycle:  9   Etot: -136.688445443748492   dEtot: -2.784e-06   |Residual|: 2.881e-03   |deigs|: 5.358e-04  t[s]:   5124.78
	Linear fluid (dielectric constant: 64) occupying 0.994569 of unit cell:	Completed after 6 iterations at t[s]:   5138.05
	Linear fluid (dielectric constant: 64) occupying 0.994574 of unit cell:	Completed after 4 iterations at t[s]:   5159.31
SCF: Cycle: 10   Etot: -136.688449747252633   dEtot: -4.304e-06   |Residual|: 1.485e-03   |deigs|: 4.047e-04  t[s]:   5161.72
	Linear fluid (dielectric constant: 64) occupying 0.994573 of unit cell:	Completed after 3 iterations at t[s]:   5170.82
	Linear fluid (dielectric constant: 64) occupying 0.994577 of unit cell:	Completed after 3 iterations at t[s]:   5190.88
SCF: Cycle: 11   Etot: -136.688453485086541   dEtot: -3.738e-06   |Residual|: 9.958e-04   |deigs|: 1.901e-04  t[s]:   5193.40
	Linear fluid (dielectric constant: 64) occupying 0.994573 of unit cell:	Completed after 1 iterations at t[s]:   5200.02
	Linear fluid (dielectric constant: 64) occupying 0.994577 of unit cell:	Completed after 1 iterations at t[s]:   5217.46
SCF: Cycle: 12   Etot: -136.688454497650497   dEtot: -1.013e-06   |Residual|: 6.571e-04   |deigs|: 1.410e-04  t[s]:   5219.82
	Linear fluid (dielectric constant: 64) occupying 0.994576 of unit cell:	Completed after 0 iterations at t[s]:   5223.67
	Linear fluid (dielectric constant: 64) occupying 0.994577 of unit cell:	Completed after 0 iterations at t[s]:   5239.47
SCF: Cycle: 13   Etot: -136.688455715380940   dEtot: -1.218e-06   |Residual|: 5.087e-04   |deigs|: 3.343e-05  t[s]:   5241.86
	Linear fluid (dielectric constant: 64) occupying 0.994576 of unit cell:	Completed after 4 iterations at t[s]:   5252.42
	Linear fluid (dielectric constant: 64) occupying 0.994577 of unit cell:	Completed after 2 iterations at t[s]:   5270.99
SCF: Cycle: 14   Etot: -136.688455484253666   dEtot: +2.311e-07   |Residual|: 4.586e-04   |deigs|: 1.048e-04  t[s]:   5273.34
	Linear fluid (dielectric constant: 64) occupying 0.994579 of unit cell:	Completed after 0 iterations at t[s]:   5278.59
	Linear fluid (dielectric constant: 64) occupying 0.994577 of unit cell:	Completed after 0 iterations at t[s]:   5295.91
SCF: Cycle: 15   Etot: -136.688456377868988   dEtot: -8.936e-07   |Residual|: 3.043e-04   |deigs|: 3.802e-05  t[s]:   5298.27
	Linear fluid (dielectric constant: 64) occupying 0.994580 of unit cell:	Completed after 3 iterations at t[s]:   5307.53
	Linear fluid (dielectric constant: 64) occupying 0.994577 of unit cell:	Completed after 1 iterations at t[s]:   5325.36
SCF: Cycle: 16   Etot: -136.688455932566455   dEtot: +4.453e-07   |Residual|: 3.977e-04   |deigs|: 9.513e-05  t[s]:   5327.76
	Linear fluid (dielectric constant: 64) occupying 0.994579 of unit cell:	Completed after 0 iterations at t[s]:   5332.86
	Linear fluid (dielectric constant: 64) occupying 0.994577 of unit cell:	Completed after 0 iterations at t[s]:   5348.91
SCF: Cycle: 17   Etot: -136.688456220395523   dEtot: -2.878e-07   |Residual|: 2.480e-04   |deigs|: 2.726e-05  t[s]:   5351.37
	Linear fluid (dielectric constant: 64) occupying 0.994577 of unit cell:	Completed after 0 iterations at t[s]:   5355.06
	Linear fluid (dielectric constant: 64) occupying 0.994577 of unit cell:	Completed after 2 iterations at t[s]:   5376.45
SCF: Cycle: 18   Etot: -136.688455988860369   dEtot: +2.315e-07   |Residual|: 2.097e-04   |deigs|: 3.114e-05  t[s]:   5378.87
	Linear fluid (dielectric constant: 64) occupying 0.994576 of unit cell:	Completed after 0 iterations at t[s]:   5382.63
	Linear fluid (dielectric constant: 64) occupying 0.994577 of unit cell:	Completed after 0 iterations at t[s]:   5399.61
SCF: Cycle: 19   Etot: -136.688456051519040   dEtot: -6.266e-08   |Residual|: 2.023e-04   |deigs|: 4.305e-05  t[s]:   5401.96
	Linear fluid (dielectric constant: 64) occupying 0.994576 of unit cell:	Completed after 0 iterations at t[s]:   5407.06
	Linear fluid (dielectric constant: 64) occupying 0.994576 of unit cell:	Completed after 0 iterations at t[s]:   5424.24
SCF: Cycle: 20   Etot: -136.688455949234054   dEtot: +1.023e-07   |Residual|: 1.520e-04   |deigs|: 5.794e-05  t[s]:   5426.65
	Linear fluid (dielectric constant: 64) occupying 0.994576 of unit cell:	Completed after 0 iterations at t[s]:   5430.41
	Linear fluid (dielectric constant: 64) occupying 0.994576 of unit cell:	Completed after 0 iterations at t[s]:   5445.12
SCF: Cycle: 21   Etot: -136.688456046478109   dEtot: -9.724e-08   |Residual|: 1.328e-04   |deigs|: 2.950e-05  t[s]:   5447.60
	Linear fluid (dielectric constant: 64) occupying 0.994577 of unit cell:	Completed after 0 iterations at t[s]:   5451.44
	Linear fluid (dielectric constant: 64) occupying 0.994576 of unit cell:	Completed after 0 iterations at t[s]:   5468.71
SCF: Cycle: 22   Etot: -136.688456523904392   dEtot: -4.774e-07   |Residual|: 1.586e-04   |deigs|: 9.387e-06  t[s]:   5471.18
	Linear fluid (dielectric constant: 64) occupying 0.994576 of unit cell:	Completed after 1 iterations at t[s]:   5477.60
	Linear fluid (dielectric constant: 64) occupying 0.994577 of unit cell:	Completed after 0 iterations at t[s]:   5492.41
SCF: Cycle: 23   Etot: -136.688456420663613   dEtot: +1.032e-07   |Residual|: 2.751e-04   |deigs|: 4.410e-05  t[s]:   5494.78
	Linear fluid (dielectric constant: 64) occupying 0.994576 of unit cell:	Completed after 0 iterations at t[s]:   5498.52
	Linear fluid (dielectric constant: 64) occupying 0.994577 of unit cell:	Completed after 0 iterations at t[s]:   5513.24
SCF: Cycle: 24   Etot: -136.688456436615695   dEtot: -1.595e-08   |Residual|: 1.510e-04   |deigs|: 2.656e-06  t[s]:   5515.58
	Linear fluid (dielectric constant: 64) occupying 0.994576 of unit cell:	Completed after 0 iterations at t[s]:   5519.32
	Linear fluid (dielectric constant: 64) occupying 0.994577 of unit cell:	Completed after 0 iterations at t[s]:   5536.40
SCF: Cycle: 25   Etot: -136.688456417477369   dEtot: +1.914e-08   |Residual|: 9.149e-05   |deigs|: 2.016e-06  t[s]:   5538.80
	Linear fluid (dielectric constant: 64) occupying 0.994577 of unit cell:	Completed after 0 iterations at t[s]:   5542.54
	Linear fluid (dielectric constant: 64) occupying 0.994577 of unit cell:	Completed after 0 iterations at t[s]:   5559.86
SCF: Cycle: 26   Etot: -136.688456454476039   dEtot: -3.700e-08   |Residual|: 7.478e-05   |deigs|: 2.732e-06  t[s]:   5562.31
	Linear fluid (dielectric constant: 64) occupying 0.994577 of unit cell:	Completed after 0 iterations at t[s]:   5566.13
	Linear fluid (dielectric constant: 64) occupying 0.994577 of unit cell:	Completed after 0 iterations at t[s]:   5584.58
SCF: Cycle: 27   Etot: -136.688456442463632   dEtot: +1.201e-08   |Residual|: 5.266e-05   |deigs|: 5.590e-06  t[s]:   5586.90
	Linear fluid (dielectric constant: 64) occupying 0.994578 of unit cell:	Completed after 0 iterations at t[s]:   5590.70
	Linear fluid (dielectric constant: 64) occupying 0.994577 of unit cell:	Completed after 0 iterations at t[s]:   5607.87
SCF: Cycle: 28   Etot: -136.688456550714989   dEtot: -1.083e-07   |Residual|: 6.160e-05   |deigs|: 4.079e-05  t[s]:   5610.26
	Linear fluid (dielectric constant: 64) occupying 0.994578 of unit cell:	Completed after 0 iterations at t[s]:   5614.10
	Linear fluid (dielectric constant: 64) occupying 0.994577 of unit cell:	Completed after 0 iterations at t[s]:   5628.55
SCF: Cycle: 29   Etot: -136.688456583021775   dEtot: -3.231e-08   |Residual|: 3.332e-05   |deigs|: 1.967e-06  t[s]:   5631.00
	Linear fluid (dielectric constant: 64) occupying 0.994578 of unit cell:	Completed after 0 iterations at t[s]:   5634.91
	Linear fluid (dielectric constant: 64) occupying 0.994577 of unit cell:	Completed after 0 iterations at t[s]:   5649.60
SCF: Cycle: 30   Etot: -136.688456602875959   dEtot: -1.985e-08   |Residual|: 3.090e-05   |deigs|: 1.797e-06  t[s]:   5651.98
	Linear fluid (dielectric constant: 64) occupying 0.994578 of unit cell:	Completed after 0 iterations at t[s]:   5655.75
	Linear fluid (dielectric constant: 64) occupying 0.994577 of unit cell:	Completed after 0 iterations at t[s]:   5670.45
SCF: Cycle: 31   Etot: -136.688456615330523   dEtot: -1.245e-08   |Residual|: 1.778e-05   |deigs|: 9.753e-07  t[s]:   5672.96
	Linear fluid (dielectric constant: 64) occupying 0.994577 of unit cell:	Completed after 0 iterations at t[s]:   5676.77
	Linear fluid (dielectric constant: 64) occupying 0.994577 of unit cell:	Completed after 0 iterations at t[s]:   5691.45
SCF: Cycle: 32   Etot: -136.688456623334446   dEtot: -8.004e-09   |Residual|: 1.267e-05   |deigs|: 7.014e-07  t[s]:   5693.92
	Linear fluid (dielectric constant: 64) occupying 0.994577 of unit cell:	Completed after 0 iterations at t[s]:   5697.73
	Linear fluid (dielectric constant: 64) occupying 0.994577 of unit cell:	Completed after 0 iterations at t[s]:   5712.35
SCF: Cycle: 33   Etot: -136.688456628783854   dEtot: -5.449e-09   |Residual|: 1.337e-05   |deigs|: 5.526e-07  t[s]:   5714.85
SCF: Converged (|Delta E|<1.000000e-08 for 2 iters).

Setting wave functions to eigenvectors of Hamiltonian

Computing DFT-D3 correction:
# coordination-number S 2.342 2.811 2.812 2.343
# coordination-number Na 2.309 2.310
# diagonal-C6 S 125.82 125.81 125.81 125.82
# diagonal-C6 Na 186.11 186.11
EvdW_6 =   -0.000531
EvdW_8 =   -0.006315

-------- Electronic minimization -----------
Will mix electronic density at each iteration.
	Linear fluid (dielectric constant: 64) occupying 0.994538 of unit cell:	Completed after 33 iterations at t[s]:   5771.32
	Linear fluid (dielectric constant: 64) occupying 0.994292 of unit cell:	Completed after 48 iterations at t[s]:   5856.33
SCF: Cycle:  0   Etot: -135.521517311989925   dEtot: -7.226e+00   |Residual|: 2.102e+00   |deigs|: 3.381e-01  t[s]:   5858.73
	Linear fluid (dielectric constant: 64) occupying 0.994322 of unit cell:	Completed after 68 iterations at t[s]:   5956.40
	Linear fluid (dielectric constant: 64) occupying 0.994228 of unit cell:	Completed after 45 iterations at t[s]:   6036.38
SCF: Cycle:  1   Etot: -136.211744169414658   dEtot: -6.902e-01   |Residual|: 8.315e-01   |deigs|: 2.952e-01  t[s]:   6038.83
	Linear fluid (dielectric constant: 64) occupying 0.993978 of unit cell:	Completed after 76 iterations at t[s]:   6146.67
	Linear fluid (dielectric constant: 64) occupying 0.994283 of unit cell:	Completed after 38 iterations at t[s]:   6216.98
SCF: Cycle:  2   Etot: -136.536398635711180   dEtot: -3.247e-01   |Residual|: 2.516e-01   |deigs|: 7.593e-02  t[s]:   6219.48
	Linear fluid (dielectric constant: 64) occupying 0.993865 of unit cell:	Completed after 49 iterations at t[s]:   6290.72
	Linear fluid (dielectric constant: 64) occupying 0.994279 of unit cell:	Completed after 30 iterations at t[s]:   6350.84
SCF: Cycle:  3   Etot: -136.665985349726128   dEtot: -1.296e-01   |Residual|: 1.094e-01   |deigs|: 6.887e-02  t[s]:   6353.25
	Linear fluid (dielectric constant: 64) occupying 0.993857 of unit cell:	Completed after 36 iterations at t[s]:   6407.31
	Linear fluid (dielectric constant: 64) occupying 0.994307 of unit cell:	Completed after 28 iterations at t[s]:   6463.74
SCF: Cycle:  4   Etot: -136.691661879278371   dEtot: -2.568e-02   |Residual|: 6.387e-02   |deigs|: 5.067e-02  t[s]:   6466.18
[...]
	Linear fluid (dielectric constant: 64) occupying 0.994183 of unit cell:	Completed after 0 iterations at t[s]:  10465.53
	Linear fluid (dielectric constant: 64) occupying 0.994183 of unit cell:	Completed after 0 iterations at t[s]:  10476.00
ElecMinimize: Iter:   8  Etot: -136.733294680664699  |grad|_K:  3.004e-07  alpha:  9.159e-01  linmin: -1.686e-01  t[s]:  10483.09
	Linear fluid (dielectric constant: 64) occupying 0.994183 of unit cell:	Completed after 2 iterations at t[s]:  10495.46
	Linear fluid (dielectric constant: 64) occupying 0.994183 of unit cell:	Completed after 0 iterations at t[s]:  10505.87
ElecMinimize: 	Step increased Etot by 2.089085e-07, reducing alpha to 2.146328e-02.
	Linear fluid (dielectric constant: 64) occupying 0.994183 of unit cell:	Completed after 0 iterations at t[s]:  10520.22
ElecMinimize: 	Step increased Etot by 1.654914e-07, reducing alpha to 2.146328e-03.
	Linear fluid (dielectric constant: 64) occupying 0.994183 of unit cell:	Completed after 0 iterations at t[s]:  10534.47
ElecMinimize: 	Step increased Etot by 1.620853e-07, reducing alpha to 2.146328e-04.
ElecMinimize: 	Step failed to reduce Etot after 3 attempts. Quitting step.
ElecMinimize: 	Undoing step.
	Linear fluid (dielectric constant: 64) occupying 0.994183 of unit cell:	Completed after 0 iterations at t[s]:  10548.68
ElecMinimize: 	Step failed: resetting search direction.
ElecMinimize: Iter:   9  Etot: -136.733294518622131  |grad|_K:  3.955e-07  alpha:  2.146e-04
	Linear fluid (dielectric constant: 64) occupying 0.994184 of unit cell:	Completed after 0 iterations at t[s]:  10565.15
	Linear fluid (dielectric constant: 64) occupying 0.994183 of unit cell:	Completed after 0 iterations at t[s]:  10575.57
ElecMinimize: Iter:  10  Etot: -136.733294615755142  |grad|_K:  1.483e-07  alpha:  4.763e-01  linmin: -1.617e-01  t[s]:  10582.72
	Linear fluid (dielectric constant: 64) occupying 0.994184 of unit cell:	Completed after 0 iterations at t[s]:  10590.56
	Linear fluid (dielectric constant: 64) occupying 0.994184 of unit cell:	Completed after 0 iterations at t[s]:  10600.98
ElecMinimize: Iter:  11  Etot: -136.733294681683958  |grad|_K:  1.233e-07  alpha:  1.201e+00  linmin: -1.629e-04  t[s]:  10608.10
	Linear fluid (dielectric constant: 64) occupying 0.994184 of unit cell:	Completed after 0 iterations at t[s]:  10617.46
	Linear fluid (dielectric constant: 64) occupying 0.994184 of unit cell:	Completed after 0 iterations at t[s]:  10627.81
ElecMinimize: 	Step increased Etot by 1.045416e-07, reducing alpha to 2.312538e-02.
	Linear fluid (dielectric constant: 64) occupying 0.994184 of unit cell:	Completed after 0 iterations at t[s]:  10642.01
ElecMinimize: 	Step increased Etot by 1.104985e-07, reducing alpha to 2.312538e-03.
	Linear fluid (dielectric constant: 64) occupying 0.994184 of unit cell:	Completed after 0 iterations at t[s]:  10656.21
ElecMinimize: 	Step increased Etot by 1.113439e-07, reducing alpha to 2.312538e-04.
ElecMinimize: 	Step failed to reduce Etot after 3 attempts. Quitting step.
ElecMinimize: 	Undoing step.
	Linear fluid (dielectric constant: 64) occupying 0.994184 of unit cell:	Completed after 0 iterations at t[s]:  10670.50
ElecMinimize: 	Step failed: resetting search direction.
ElecMinimize: Iter:  12  Etot: -136.733294570332475  |grad|_K:  1.254e-07  alpha:  2.313e-04
	Linear fluid (dielectric constant: 64) occupying 0.994184 of unit cell:	Completed after 0 iterations at t[s]:  10685.55
	Linear fluid (dielectric constant: 64) occupying 0.994184 of unit cell:	Completed after 0 iterations at t[s]:  10695.99
ElecMinimize: Iter:  13  Etot: -136.733294587218069  |grad|_K:  7.117e-08  alpha:  4.658e-01  linmin:  5.662e-05  t[s]:  10703.10
	Linear fluid (dielectric constant: 64) occupying 0.994184 of unit cell:	Completed after 0 iterations at t[s]:  10710.83
	Linear fluid (dielectric constant: 64) occupying 0.994184 of unit cell:	Completed after 0 iterations at t[s]:  10721.32
ElecMinimize: Iter:  14  Etot: -136.733294596684232  |grad|_K:  4.723e-08  alpha:  8.096e-01  linmin: -8.331e-04  t[s]:  10728.43
	Linear fluid (dielectric constant: 64) occupying 0.994184 of unit cell:	Completed after 0 iterations at t[s]:  10736.22
	Linear fluid (dielectric constant: 64) occupying 0.994184 of unit cell:	Completed after 0 iterations at t[s]:  10746.56
ElecMinimize: Iter:  15  Etot: -136.733294602182440  |grad|_K:  3.902e-08  alpha:  1.065e+00  linmin: -4.834e-03  t[s]:  10753.66
ElecMinimize: Converged (|Delta Etot|<1.000000e-08 for 2 iters).
Setting wave functions to eigenvectors of Hamiltonian

Computing DFT-D3 correction:
# coordination-number S 1.176 2.077 2.076 1.174
# coordination-number Na 0.249 0.255
# diagonal-C6 S 130.62 125.86 125.86 130.63
# diagonal-C6 Na 1315.72 1305.99
EvdW_6 =   -0.002573
EvdW_8 =   -0.011983

-------- Electronic minimization -----------
	Linear fluid (dielectric constant: 64) occupying 0.994184 of unit cell:	Completed after 2 iterations at t[s]:  10766.88
ElecMinimize: Iter:   0  Etot: -136.733294255341832  |grad|_K:  3.651e-07  alpha:  1.000e+00
	Linear fluid (dielectric constant: 64) occupying 0.994184 of unit cell:	Completed after 0 iterations at t[s]:  10782.49
	Linear fluid (dielectric constant: 64) occupying 0.994183 of unit cell:	Completed after 3 iterations at t[s]:  10799.09
ElecMinimize: 	Step increased Etot by 5.826950e-07, reducing alpha to 1.970077e-01.
	Linear fluid (dielectric constant: 64) occupying 0.994184 of unit cell:	Completed after 0 iterations at t[s]:  10813.33
ElecMinimize: Iter:   1  Etot: -136.733295000431980  |grad|_K:  4.041e-07  alpha:  1.970e-01  linmin:  4.228e-01  t[s]:  10820.52
	Linear fluid (dielectric constant: 64) occupying 0.994184 of unit cell:	Completed after 0 iterations at t[s]:  10828.41
	Linear fluid (dielectric constant: 64) occupying 0.994184 of unit cell:	Completed after 0 iterations at t[s]:  10838.87
ElecMinimize: Iter:   2  Etot: -136.733295024042377  |grad|_K:  3.405e-07  alpha:  2.728e-01  linmin: -4.509e-05  t[s]:  10845.98
	Linear fluid (dielectric constant: 64) occupying 0.994184 of unit cell:	Completed after 2 iterations at t[s]:  10858.35
	Linear fluid (dielectric constant: 64) occupying 0.994184 of unit cell:	Completed after 0 iterations at t[s]:  10868.81
ElecMinimize: 	Step increased Etot by 6.297930e-07, reducing alpha to 2.123078e-03.
	Linear fluid (dielectric constant: 64) occupying 0.994184 of unit cell:	Completed after 0 iterations at t[s]:  10883.29
ElecMinimize: 	Step increased Etot by 6.204637e-07, reducing alpha to 2.123078e-04.
	Linear fluid (dielectric constant: 64) occupying 0.994184 of unit cell:	Completed after 0 iterations at t[s]:  10897.47
ElecMinimize: 	Step increased Etot by 6.195577e-07, reducing alpha to 2.123078e-05.
ElecMinimize: 	Step failed to reduce Etot after 3 attempts. Quitting step.
ElecMinimize: 	Undoing step.
	Linear fluid (dielectric constant: 64) occupying 0.994184 of unit cell:	Completed after 0 iterations at t[s]:  10911.69
ElecMinimize: 	Step failed: resetting search direction.
ElecMinimize: Iter:   3  Etot: -136.733294404499361  |grad|_K:  2.982e-07  alpha:  2.123e-05
	Linear fluid (dielectric constant: 64) occupying 0.994184 of unit cell:	Completed after 0 iterations at t[s]:  10926.51
	Linear fluid (dielectric constant: 64) occupying 0.994184 of unit cell:	Completed after 0 iterations at t[s]:  10936.95
ElecMinimize: Iter:   4  Etot: -136.733294538308002  |grad|_K:  1.792e-07  alpha:  6.535e-01  linmin: -8.098e-05  t[s]:  10944.06
	Linear fluid (dielectric constant: 64) occupying 0.994184 of unit cell:	Completed after 0 iterations at t[s]:  10953.38
	Linear fluid (dielectric constant: 64) occupying 0.994184 of unit cell:	Completed after 0 iterations at t[s]:  10963.87
ElecMinimize: 	Step increased Etot by 9.848250e-08, reducing alpha to 1.807250e-02.
	Linear fluid (dielectric constant: 64) occupying 0.994184 of unit cell:	Completed after 0 iterations at t[s]:  10978.14
ElecMinimize: 	Step increased Etot by 1.108792e-07, reducing alpha to 1.807250e-03.
	Linear fluid (dielectric constant: 64) occupying 0.994184 of unit cell:	Completed after 0 iterations at t[s]:  10992.42
ElecMinimize: 	Step increased Etot by 1.122714e-07, reducing alpha to 1.807250e-04.
ElecMinimize: 	Step failed to reduce Etot after 3 attempts. Quitting step.
ElecMinimize: 	Undoing step.
	Linear fluid (dielectric constant: 64) occupying 0.994184 of unit cell:	Completed after 0 iterations at t[s]:  11006.65
ElecMinimize: 	Step failed: resetting search direction.
ElecMinimize: Iter:   5  Etot: -136.733294426021473  |grad|_K:  1.753e-07  alpha:  1.807e-04
	Linear fluid (dielectric constant: 64) occupying 0.994184 of unit cell:	Completed after 0 iterations at t[s]:  11021.54
	Linear fluid (dielectric constant: 64) occupying 0.994184 of unit cell:	Completed after 0 iterations at t[s]:  11031.96
ElecMinimize: Iter:   6  Etot: -136.733294462955683  |grad|_K:  8.237e-08  alpha:  5.219e-01  linmin:  6.523e-05  t[s]:  11039.12
	Linear fluid (dielectric constant: 64) occupying 0.994184 of unit cell:	Completed after 0 iterations at t[s]:  11046.88
ElecMinimize: 	Predicted alpha/alphaT>3.000000, increasing alphaT to 1.565631e+00.
	Linear fluid (dielectric constant: 64) occupying 0.994183 of unit cell:	Completed after 0 iterations at t[s]:  11057.25
	Linear fluid (dielectric constant: 64) occupying 0.994183 of unit cell:	Completed after 0 iterations at t[s]:  11067.67
ElecMinimize: Iter:   7  Etot: -136.733294496180008  |grad|_K:  9.400e-08  alpha:  2.127e+00  linmin:  3.047e-04  t[s]:  11074.80
	Linear fluid (dielectric constant: 64) occupying 0.994183 of unit cell:	Completed after 0 iterations at t[s]:  11084.14
	Linear fluid (dielectric constant: 64) occupying 0.994183 of unit cell:	Completed after 0 iterations at t[s]:  11094.65
ElecMinimize: 	Step increased Etot by 6.865790e-08, reducing alpha to 3.129463e-02.
	Linear fluid (dielectric constant: 64) occupying 0.994183 of unit cell:	Completed after 0 iterations at t[s]:  11108.81
ElecMinimize: 	Step increased Etot by 6.899944e-08, reducing alpha to 3.129463e-03.
	Linear fluid (dielectric constant: 64) occupying 0.994183 of unit cell:	Completed after 0 iterations at t[s]:  11123.06
ElecMinimize: 	Step increased Etot by 6.936614e-08, reducing alpha to 3.129463e-04.
ElecMinimize: 	Step failed to reduce Etot after 3 attempts. Quitting step.
ElecMinimize: 	Undoing step.
	Linear fluid (dielectric constant: 64) occupying 0.994183 of unit cell:	Completed after 0 iterations at t[s]:  11137.33
ElecMinimize: 	Step failed: resetting search direction.
ElecMinimize: Iter:   8  Etot: -136.733294426819015  |grad|_K:  9.413e-08  alpha:  3.129e-04
	Linear fluid (dielectric constant: 64) occupying 0.994183 of unit cell:	Completed after 0 iterations at t[s]:  11152.23
	Linear fluid (dielectric constant: 64) occupying 0.994183 of unit cell:	Completed after 0 iterations at t[s]:  11162.59
ElecMinimize: Iter:   9  Etot: -136.733294435545275  |grad|_K:  5.023e-08  alpha:  4.274e-01  linmin:  7.327e-05  t[s]:  11169.73
	Linear fluid (dielectric constant: 64) occupying 0.994183 of unit cell:	Completed after 0 iterations at t[s]:  11177.49
	Linear fluid (dielectric constant: 64) occupying 0.994183 of unit cell:	Completed after 0 iterations at t[s]:  11187.92
ElecMinimize: Iter:  10  Etot: -136.733294440998861  |grad|_K:  3.632e-08  alpha:  9.344e-01  linmin: -4.476e-03  t[s]:  11195.04
ElecMinimize: Converged (|Delta Etot|<1.000000e-08 for 2 iters).
Setting wave functions to eigenvectors of Hamiltonian

Computing DFT-D3 correction:
# coordination-number S 1.176 2.077 2.076 1.174
# coordination-number Na 0.249 0.255
# diagonal-C6 S 130.62 125.86 125.86 130.63
# diagonal-C6 Na 1315.72 1305.99
EvdW_6 =   -0.002573
EvdW_8 =   -0.011983
IonicMinimize: 	Step increased Etot by 5.989017e-08, reducing alpha to 5.259262e-03.

Computing DFT-D3 correction:
# coordination-number S 1.176 2.077 2.076 1.174
# coordination-number Na 0.249 0.255
# diagonal-C6 S 130.62 125.86 125.86 130.63
# diagonal-C6 Na 1315.48 1305.81
EvdW_6 =   -0.002572
EvdW_8 =   -0.011984

-------- Electronic minimization -----------
	Linear fluid (dielectric constant: 64) occupying 0.994183 of unit cell:	Completed after 2 iterations at t[s]:  11217.91
ElecMinimize: Iter:   0  Etot: -136.733294302241632  |grad|_K:  2.544e-07  alpha:  1.000e+00
	Linear fluid (dielectric constant: 64) occupying 0.994183 of unit cell:	Completed after 0 iterations at t[s]:  11233.35
	Linear fluid (dielectric constant: 64) occupying 0.994183 of unit cell:	Completed after 0 iterations at t[s]:  11243.79
ElecMinimize: Iter:   1  Etot: -136.733294424916551  |grad|_K:  1.744e-07  alpha:  8.230e-01  linmin:  1.016e-06  t[s]:  11250.87
	Linear fluid (dielectric constant: 64) occupying 0.994183 of unit cell:	Completed after 0 iterations at t[s]:  11260.13
	Linear fluid (dielectric constant: 64) occupying 0.994183 of unit cell:	Completed after 0 iterations at t[s]:  11270.58
ElecMinimize: 	Step increased Etot by 8.893375e-08, reducing alpha to 2.363720e-02.
	Linear fluid (dielectric constant: 64) occupying 0.994183 of unit cell:	Completed after 0 iterations at t[s]:  11284.81
ElecMinimize: 	Step increased Etot by 1.010451e-07, reducing alpha to 2.363720e-03.
	Linear fluid (dielectric constant: 64) occupying 0.994183 of unit cell:	Completed after 0 iterations at t[s]:  11299.06
ElecMinimize: 	Step increased Etot by 1.025745e-07, reducing alpha to 2.363720e-04.
ElecMinimize: 	Step failed to reduce Etot after 3 attempts. Quitting step.
ElecMinimize: 	Undoing step.
	Linear fluid (dielectric constant: 64) occupying 0.994183 of unit cell:	Completed after 0 iterations at t[s]:  11313.31
ElecMinimize: 	Step failed: resetting search direction.
ElecMinimize: Iter:   2  Etot: -136.733294322331659  |grad|_K:  1.831e-07  alpha:  2.364e-04
	Linear fluid (dielectric constant: 64) occupying 0.994183 of unit cell:	Completed after 0 iterations at t[s]:  11328.30
	Linear fluid (dielectric constant: 64) occupying 0.994183 of unit cell:	Completed after 0 iterations at t[s]:  11338.77
ElecMinimize: Iter:   3  Etot: -136.733294362303212  |grad|_K:  7.772e-08  alpha:  5.176e-01  linmin: -1.432e-04  t[s]:  11345.89
	Linear fluid (dielectric constant: 64) occupying 0.994183 of unit cell:	Completed after 0 iterations at t[s]:  11353.68
	Linear fluid (dielectric constant: 64) occupying 0.994183 of unit cell:	Completed after 0 iterations at t[s]:  11364.08
ElecMinimize: Iter:   4  Etot: -136.733294380762743  |grad|_K:  8.503e-08  alpha:  1.330e+00  linmin:  1.500e-03  t[s]:  11371.15
	Linear fluid (dielectric constant: 64) occupying 0.994183 of unit cell:	Completed after 0 iterations at t[s]:  11378.95
	Linear fluid (dielectric constant: 64) occupying 0.994183 of unit cell:	Completed after 0 iterations at t[s]:  11389.37
ElecMinimize: Iter:   5  Etot: -136.733294391581211  |grad|_K:  5.249e-08  alpha:  6.520e-01  linmin:  1.557e-04  t[s]:  11396.47
	Linear fluid (dielectric constant: 64) occupying 0.994183 of unit cell:	Completed after 0 iterations at t[s]:  11404.18
	Linear fluid (dielectric constant: 64) occupying 0.994183 of unit cell:	Completed after 0 iterations at t[s]:  11414.62
ElecMinimize: Iter:   6  Etot: -136.733294396174131  |grad|_K:  2.939e-08  alpha:  7.243e-01  linmin:  2.042e-04  t[s]:  11421.72
	Linear fluid (dielectric constant: 64) occupying 0.994183 of unit cell:	Completed after 0 iterations at t[s]:  11429.38
	Linear fluid (dielectric constant: 64) occupying 0.994183 of unit cell:	Completed after 0 iterations at t[s]:  11439.81
ElecMinimize: Iter:   7  Etot: -136.733294399256408  |grad|_K:  2.825e-08  alpha:  1.558e+00  linmin:  2.105e-03  t[s]:  11446.96
ElecMinimize: Converged (|Delta Etot|<1.000000e-08 for 2 iters).
Setting wave functions to eigenvectors of Hamiltonian

Computing DFT-D3 correction:
# coordination-number S 1.176 2.077 2.076 1.174
# coordination-number Na 0.249 0.255
# diagonal-C6 S 130.62 125.86 125.86 130.63
# diagonal-C6 Na 1315.48 1305.81
EvdW_6 =   -0.002572
EvdW_8 =   -0.011984
IonicMinimize: 	Step increased Etot by 1.016326e-07, reducing alpha to 5.259262e-04.

Computing DFT-D3 correction:
# coordination-number S 1.176 2.077 2.076 1.174
# coordination-number Na 0.249 0.255
# diagonal-C6 S 130.62 125.86 125.86 130.63
# diagonal-C6 Na 1315.45 1305.79
EvdW_6 =   -0.002572
EvdW_8 =   -0.011984

-------- Electronic minimization -----------
	Linear fluid (dielectric constant: 64) occupying 0.994183 of unit cell:	Completed after 0 iterations at t[s]:  11465.21
ElecMinimize: Iter:   0  Etot: -136.733294540467398  |grad|_K:  8.938e-08  alpha:  1.000e+00
	Linear fluid (dielectric constant: 64) occupying 0.994183 of unit cell:	Completed after 0 iterations at t[s]:  11480.65
	Linear fluid (dielectric constant: 64) occupying 0.994183 of unit cell:	Completed after 0 iterations at t[s]:  11491.11
ElecMinimize: Iter:   1  Etot: -136.733294560852528  |grad|_K:  7.440e-08  alpha:  1.108e+00  linmin:  4.275e-04  t[s]:  11498.27
	Linear fluid (dielectric constant: 64) occupying 0.994183 of unit cell:	Completed after 0 iterations at t[s]:  11506.09
	Linear fluid (dielectric constant: 64) occupying 0.994183 of unit cell:	Completed after 0 iterations at t[s]:  11516.50
ElecMinimize: Iter:   2  Etot: -136.733294569938323  |grad|_K:  4.221e-08  alpha:  7.133e-01  linmin:  5.868e-05  t[s]:  11523.58
	Linear fluid (dielectric constant: 64) occupying 0.994183 of unit cell:	Completed after 0 iterations at t[s]:  11531.29
	Linear fluid (dielectric constant: 64) occupying 0.994183 of unit cell:	Completed after 0 iterations at t[s]:  11541.68
ElecMinimize: Iter:   3  Etot: -136.733294572652824  |grad|_K:  3.020e-08  alpha:  6.633e-01  linmin:  2.484e-03  t[s]:  11548.76
ElecMinimize: Converged (|Delta Etot|<1.000000e-08 for 2 iters).
Setting wave functions to eigenvectors of Hamiltonian

Computing DFT-D3 correction:
# coordination-number S 1.176 2.077 2.076 1.174
# coordination-number Na 0.249 0.255
# diagonal-C6 S 130.62 125.86 125.86 130.63
# diagonal-C6 Na 1315.45 1305.79
EvdW_6 =   -0.002572
EvdW_8 =   -0.011984

# Ionic positions in cartesian coordinates:
ion S   4.556669277363774  14.340276733840899  26.418898404811035 1
ion S   7.271539727473115  13.308225772093898  29.083552083230796 1
ion S   8.088540372120441   9.470374531563525  29.085998048123503 1
ion S  10.758981219819324   8.398287598113470  26.389185343977839 1
ion Na   4.559921286591932   8.177907413423476  22.657339241914034 1
ion Na  10.700139283151438  14.552409737704700  22.622560023822786 1

# Forces in Cartesian coordinates:
force S   0.001613427903810  -0.000972082247918  -0.002069034852061 1
force S  -0.001070943179686  -0.000386932478261   0.000118780454805 1
force S   0.000227460742184   0.000033184894936   0.001215535488292 1
force S  -0.001367001327025   0.000816883736413  -0.002691670689795 1
force Na   0.000695882710974   0.000542036058600   0.000922901782995 1
force Na  -0.000411290060602  -0.000391874930140   0.000514025385602 1

# Energy components:
   A_diel =       -0.3502330177334144
   Eewald =       68.3864353107514091
       EH =      181.6457626144212156
     Eloc =     -257.6923588182091294
      Enl =     -136.9018011154500130
     EvdW =       -0.0145562261875285
      Exc =      -31.2047617520175606
 Exc_core =        7.0709184695677223
       KE =       32.3272999622044921
-------------------------------------
     Etot =     -136.7332945726528237

IonicMinimize: Iter:  10  Etot: -136.733294572652824  |grad|_K:  1.105e-03  alpha:  5.259e-04  linmin:  9.407e-01  t[s]:  11558.51
IonicMinimize: Converged (|Delta Etot|<1.000000e-06 for 2 iters).

#--- Lowdin population analysis ---
# oxidation-state S -0.720 -0.043 -0.046 -0.721
# oxidation-state Na +0.950 +0.950


Dumping 'Na2S4-PC-vdw.wfns' ... done
Dumping 'Na2S4-PC-vdw.fluidState' ... done
Dumping 'Na2S4-PC-vdw.ionpos' ... done
End date and time: Sun Oct  6 02:22:47 2024  (Duration: 0-3:12:39.79)
Done!
