
*************** JDFTx 1.7.0  ***************

Start date and time: Sun Feb 18 14:36:35 2024
Executable jdftx with command-line: -i Na2S8.in -o Na2S8.out
Running on hosts (process indices):  Topper1 (0)
Divided in process groups (process indices):  0 (0)
Resource initialization completed at t[s]:      0.00
Run totals: 1 processes, 4 threads, 0 GPUs


Input parsed successfully to the following command list (including defaults):

basis kpoint-dependent
coords-type Cartesian
core-overlap-check vector
coulomb-interaction Isolated
coulomb-truncation-embed 5.2244 10.9463 20.5025
davidson-band-ratio 1.1
dump End State
dump-name Na2S8.$VAR
elec-cutoff 20 100
elec-eigen-algo Davidson
elec-ex-corr gga-PBE
electronic-minimize  \
	dirUpdateScheme      FletcherReeves \
	linminMethod         DirUpdateRecommended \
	nIterations          100 \
	history              15 \
	knormThreshold       0 \
	energyDiffThreshold  1e-08 \
	nEnergyDiff          2 \
	alphaTstart          1 \
	alphaTmin            1e-10 \
	updateTestStepSize   yes \
	alphaTreduceFactor   0.1 \
	alphaTincreaseFactor 3 \
	nAlphaAdjustMax      3 \
	wolfeEnergy          0.0001 \
	wolfeGradient        0.9 \
	fdTest               no
electronic-scf  \
	nIterations	50 \
	energyDiffThreshold	1e-08 \
	residualThreshold	1e-07 \
	mixFraction	0.5 \
	qMetric	0.8 \
	history	10 \
	nEigSteps	2 \
	eigDiffThreshold	1e-08 \
	mixedVariable	Density \
	qKerker	0.8 \
	qKappa	-1 \
	verbose	no \
	mixFractionMag	1.5
exchange-regularization None
fluid None
fluid-ex-corr lda-TF lda-PZ
fluid-gummel-loop 10 1.000000e-05
fluid-minimize  \
	dirUpdateScheme      PolakRibiere \
	linminMethod         DirUpdateRecommended \
	nIterations          100 \
	history              15 \
	knormThreshold       0 \
	energyDiffThreshold  0 \
	nEnergyDiff          2 \
	alphaTstart          1 \
	alphaTmin            1e-10 \
	updateTestStepSize   yes \
	alphaTreduceFactor   0.1 \
	alphaTincreaseFactor 3 \
	nAlphaAdjustMax      3 \
	wolfeEnergy          0.0001 \
	wolfeGradient        0.9 \
	fdTest               no
fluid-solvent H2O 55.338 ScalarEOS \
	epsBulk 78.4 \
	pMol 0.92466 \
	epsInf 1.77 \
	Pvap 1.06736e-10 \
	sigmaBulk 4.62e-05 \
	Rvdw 2.61727 \
	Res 1.42 \
	tauNuc 343133 \
	poleEl 15 7 1
forces-output-coords Positions
ion S   5.224404249899997  10.946321496360000  20.502457449030000 1
ion S   4.405930061490001   8.273321088119999  23.990258410559999 1
ion S   4.517822864520001  10.323889787879999  27.113757222690001 1
ion S   8.657034544080000   8.813494739429999  28.671448433579997 1
ion S  10.060045685279999  10.482500495969999  31.757946332309999 1
ion S  11.945089154880002  13.725664570619998  31.194889940430002 1
ion S   6.530742473489992  14.219337635819999  21.830982992549998 1
ion S  10.409702427179997  14.199862078439999  22.327596477629999 1
ion Na   8.885518018920003  14.526203331600000  27.203814195570001 1
ion Na   9.820560202380001   9.211912184519999  23.309165703420000 1
ion-species GBRV/$ID_pbe.uspp
ion-width 0
ionic-minimize  \
	dirUpdateScheme      FletcherReeves \
	linminMethod         DirUpdateRecommended \
	nIterations          200 \
	history              15 \
	knormThreshold       0.0001 \
	energyDiffThreshold  1e-06 \
	nEnergyDiff          2 \
	alphaTstart          1 \
	alphaTmin            1e-10 \
	updateTestStepSize   yes \
	alphaTreduceFactor   0.1 \
	alphaTincreaseFactor 3 \
	nAlphaAdjustMax      3 \
	wolfeEnergy          0.0001 \
	wolfeGradient        0.9 \
	fdTest               no
kpoint   0.000000000000   0.000000000000   0.000000000000  1.00000000000000
kpoint-folding 1 1 1 
latt-move-scale 1 1 1
latt-scale 1 1 1 
lattice Triclinic 28.0058 28.0058 37.7946 90 90 120
lattice-minimize  \
	dirUpdateScheme      L-BFGS \
	linminMethod         DirUpdateRecommended \
	nIterations          0 \
	history              15 \
	knormThreshold       0 \
	energyDiffThreshold  1e-06 \
	nEnergyDiff          2 \
	alphaTstart          1 \
	alphaTmin            1e-10 \
	updateTestStepSize   yes \
	alphaTreduceFactor   0.1 \
	alphaTincreaseFactor 3 \
	nAlphaAdjustMax      3 \
	wolfeEnergy          0.0001 \
	wolfeGradient        0.9 \
	fdTest               no
lcao-params -1 1e-06 0.001
pcm-variant GLSSA13
spintype no-spin
subspace-rotation-factor 1 yes
symmetries automatic
symmetry-threshold 0.0001



---------- Setting up symmetries ----------

Found 24 point-group symmetries of the bravais lattice
Found 1 space-group symmetries with basis
Applied RMS atom displacement 0 bohrs to make symmetries exact.

---------- Initializing the Grid ----------
R = 
[      28.0058     -14.0029            0  ]
[            0      24.2537            0  ]
[            0            0      37.7946  ]
unit cell volume = 25671.8
G =
[   0.224353    0.12953         -0  ]
[          0   0.259061          0  ]
[          0         -0   0.166246  ]
Minimum fftbox size, Smin = [  128  128  172  ]
Chosen fftbox size, S = [  128  128  180  ]

---------- Initializing tighter grid for wavefunction operations ----------
R = 
[      28.0058     -14.0029            0  ]
[            0      24.2537            0  ]
[            0            0      37.7946  ]
unit cell volume = 25671.8
G =
[   0.224353    0.12953         -0  ]
[          0   0.259061          0  ]
[          0         -0   0.166246  ]
Minimum fftbox size, Smin = [  116  116  156  ]
Chosen fftbox size, S = [  120  120  160  ]

---------- Exchange Correlation functional ----------
Initalized PBE GGA exchange.
Initalized PBE GGA correlation.

---------- Setting up pseudopotentials ----------
Width of ionic core gaussian charges (only for fluid interactions / plotting) set to 0

Reading pseudopotential file '/home/topper1/jdftx_install/build/pseudopotentials/GBRV/s_pbe.uspp':
  Title: S.  Created by USPP 7.3.6 on 1-4-15
  Reference state energy: -11.898476.  6 valence electrons in orbitals:
    |300>  occupation: 2  eigenvalue: -0.634167
    |310>  occupation: 4  eigenvalue: -0.257568
  lMax: 2  lLocal: 3  QijEcut: 6
  6 projectors sampled on a log grid with 635 points:
    l: 0  eig: -0.634161  rCut: 1.5
    l: 0  eig: 1.500000  rCut: 1.5
    l: 1  eig: -0.257567  rCut: 1.5
    l: 1  eig: 1.500000  rCut: 1.5
    l: 2  eig: -1.000000  rCut: 1.5
    l: 2  eig: 1.500000  rCut: 1.5
  Partial core density with radius 1.15
  Transforming core density to a uniform radial grid of dG=0.02 with 1625 points.
  Transforming local potential to a uniform radial grid of dG=0.02 with 1625 points.
  Transforming nonlocal projectors to a uniform radial grid of dG=0.02 with 432 points.
  Transforming density augmentations to a uniform radial grid of dG=0.02 with 1625 points.
  Transforming atomic orbitals to a uniform radial grid of dG=0.02 with 432 points.
  Core radius for overlap checks: 1.50 bohrs.

Reading pseudopotential file '/home/topper1/jdftx_install/build/pseudopotentials/GBRV/na_pbe.uspp':
  Title: Na.  Created by USPP 7.3.6 on 23-9-15
  Reference state energy: -47.625620.  9 valence electrons in orbitals:
    |200>  occupation: 2  eigenvalue: -2.085638
    |210>  occupation: 6  eigenvalue: -1.053708
    |300>  occupation: 1  eigenvalue: -0.100838
  lMax: 2  lLocal: 0  QijEcut: 6
  5 projectors sampled on a log grid with 657 points:
    l: 0  eig: -2.085640  rCut: 1.37
    l: 0  eig: -0.100839  rCut: 1.37
    l: 1  eig: -1.053708  rCut: 1.47
    l: 1  eig: 0.500000  rCut: 1.47
    l: 2  eig: 0.750000  rCut: 2
  Transforming local potential to a uniform radial grid of dG=0.02 with 1625 points.
  Transforming nonlocal projectors to a uniform radial grid of dG=0.02 with 432 points.
  Transforming density augmentations to a uniform radial grid of dG=0.02 with 1625 points.
  Transforming atomic orbitals to a uniform radial grid of dG=0.02 with 432 points.
  Core radius for overlap checks: 2.00 bohrs.

Initialized 2 species with 10 total atoms.

Folded 1 k-points by 1x1x1 to 1 k-points.

---------- Setting up k-points, bands, fillings ----------
No reducable k-points. 
Computing the number of bands and number of electrons
Calculating initial fillings.
nElectrons:  66.000000   nBands: 33   nStates: 1

----- Setting up reduced wavefunction bases (one per k-point) -----
average nbasis = 109673.000 , ideal nbasis = 109671.883

---------- Setting up coulomb interaction ----------
Setting up double-sized grid for truncated Coulomb potentials:
R = 
[      56.0116     -28.0058            0  ]
[            0      48.5075            0  ]
[            0            0      75.5892  ]
unit cell volume = 205374
G =
[   0.112177  0.0647651         -0  ]
[          0    0.12953          0  ]
[          0         -0  0.0831228  ]
Chosen fftbox size, S = [  256  256  360  ]
Integer grid location selected as the embedding center:
   Grid: [  53  58  98  ]
   Lattice: [  0.41221  0.451325  0.542471  ]
   Cartesian: [  5.2244  10.9463  20.5025  ]
Constructing Wigner-Seitz cell: 8 faces (6 quadrilaterals, 2 hexagons)
Range-separation parameter for embedded mesh potentials due to point charges: 0.590105 bohrs.
Constructing Wigner-Seitz cell: 8 faces (6 quadrilaterals, 2 hexagons)
Gaussian width for range separation: 2.95095 bohrs.
FFT grid for long-range part: [ 256 256 360 ].
Planning fourier transform ... Done.
Computing truncated long-range part in real space ... Done.
Adding short-range part in reciprocal space ... Done.

---------- Allocating electronic variables ----------
Initializing wave functions:  linear combination of atomic orbitals
S pseudo-atom occupations:   s ( 2 )  p ( 4 )
Na pseudo-atom occupations:   s ( 2 1 )  p ( 6 )
	FillingsUpdate:  mu: -0.161571040  nElectrons: 66.000000
LCAOMinimize: Iter:   0  Etot: -177.0239880219348834  |grad|_K:  1.738e-02  alpha:  1.000e+00
	FillingsUpdate:  mu: -0.161030292  nElectrons: 66.000000
LCAOMinimize: Iter:   1  Etot: -177.0534223273768646  |grad|_K:  1.534e-02  alpha:  5.430e-02  linmin: -3.310e-01  cgtest:  9.393e-01  t[s]:     65.16
LCAOMinimize: Encountered beta<0, resetting CG.
LCAOMinimize: 	Predicted alpha/alphaT>3.000000, increasing alphaT to 1.629097e-01.
LCAOMinimize: 	Step increased Etot by 3.595892e-01, reducing alpha to 4.884730e-02.
	FillingsUpdate:  mu: -0.166218118  nElectrons: 66.000000
LCAOMinimize: Iter:   2  Etot: -177.0739890610614964  |grad|_K:  1.358e-02  alpha:  4.885e-02  linmin: -3.332e-01  cgtest:  9.486e-01  t[s]:    108.18
LCAOMinimize: Encountered beta<0, resetting CG.
LCAOMinimize: 	Predicted alpha/alphaT>3.000000, increasing alphaT to 1.465419e-01.
LCAOMinimize: 	Predicted alpha/alphaT>3.000000, increasing alphaT to 4.396257e-01.
	FillingsUpdate:  mu: -0.173434500  nElectrons: 66.000000
LCAOMinimize: Iter:   3  Etot: -177.1090753341252366  |grad|_K:  9.101e-03  alpha:  1.166e-01  linmin: -3.646e-01  cgtest:  8.638e-01  t[s]:    142.52
LCAOMinimize: Encountered beta<0, resetting CG.
LCAOMinimize: None of the convergence criteria satisfied after 3 iterations.


---- Citations for features of the code used in this run ----

   Software package:
      R. Sundararaman, K. Letchworth-Weaver, K.A. Schwarz, D. Gunceler, Y. Ozhabes and T.A. Arias, 'JDFTx: software for joint density-functional theory', SoftwareX 6, 278 (2017)

   gga-PBE exchange-correlation functional:
      J.P. Perdew, K. Burke and M. Ernzerhof, Phys. Rev. Lett. 77, 3865 (1996)

   Pseudopotentials:
      KF Garrity, JW Bennett, KM Rabe and D Vanderbilt, Comput. Mater. Sci. 81, 446 (2014)

   Truncated Coulomb potentials:
      R. Sundararaman and T.A. Arias, Phys. Rev. B 87, 165122 (2013)

This list may not be complete. Please suggest additional citations or
report any other bugs at https://github.com/shankar1729/jdftx/issues

Initialization completed successfully at t[s]:    145.13


-------- Electronic minimization -----------
Will mix electronic density at each iteration.
SCF: Cycle:  0   Etot: -177.201980834247109   dEtot: -9.291e-02   |Residual|: 3.865e-01   |deigs|: 1.601e-02  t[s]:    183.67
SCF: Cycle:  1   Etot: -177.473680220858540   dEtot: -2.717e-01   |Residual|: 1.986e-01   |deigs|: 2.193e-02  t[s]:    214.07
SCF: Cycle:  2   Etot: -177.630812325202442   dEtot: -1.571e-01   |Residual|: 1.183e-01   |deigs|: 2.298e-02  t[s]:    244.58
SCF: Cycle:  3   Etot: -177.642661507008313   dEtot: -1.185e-02   |Residual|: 5.445e-02   |deigs|: 8.298e-03  t[s]:    275.12
SCF: Cycle:  4   Etot: -177.648074369406885   dEtot: -5.413e-03   |Residual|: 3.980e-02   |deigs|: 8.840e-03  t[s]:    305.35
SCF: Cycle:  5   Etot: -177.653089399088600   dEtot: -5.015e-03   |Residual|: 1.807e-02   |deigs|: 2.666e-03  t[s]:    334.68
SCF: Cycle:  6   Etot: -177.653872556937245   dEtot: -7.832e-04   |Residual|: 2.448e-02   |deigs|: 7.538e-03  t[s]:    364.24
SCF: Cycle:  7   Etot: -177.654685388752227   dEtot: -8.128e-04   |Residual|: 1.685e-02   |deigs|: 1.007e-03  t[s]:    393.93
SCF: Cycle:  8   Etot: -177.655682282985538   dEtot: -9.969e-04   |Residual|: 6.769e-03   |deigs|: 2.865e-03  t[s]:    423.28
SCF: Cycle:  9   Etot: -177.655721068516129   dEtot: -3.879e-05   |Residual|: 7.375e-03   |deigs|: 1.957e-03  t[s]:    450.71
SCF: Cycle: 10   Etot: -177.655862652697579   dEtot: -1.416e-04   |Residual|: 4.700e-03   |deigs|: 3.259e-03  t[s]:    478.44
SCF: Cycle: 11   Etot: -177.655901184071382   dEtot: -3.853e-05   |Residual|: 3.384e-03   |deigs|: 1.710e-03  t[s]:    501.08
SCF: Cycle: 12   Etot: -177.655958277618936   dEtot: -5.709e-05   |Residual|: 2.437e-03   |deigs|: 2.195e-03  t[s]:    527.26
SCF: Cycle: 13   Etot: -177.655975138630993   dEtot: -1.686e-05   |Residual|: 2.277e-03   |deigs|: 5.286e-04  t[s]:    550.03
SCF: Cycle: 14   Etot: -177.655993614909363   dEtot: -1.848e-05   |Residual|: 2.212e-03   |deigs|: 8.080e-04  t[s]:    572.68
SCF: Cycle: 15   Etot: -177.656007914727240   dEtot: -1.430e-05   |Residual|: 1.262e-03   |deigs|: 4.230e-04  t[s]:    595.33
SCF: Cycle: 16   Etot: -177.656010277607550   dEtot: -2.363e-06   |Residual|: 1.308e-03   |deigs|: 8.062e-05  t[s]:    618.22
SCF: Cycle: 17   Etot: -177.656014091465181   dEtot: -3.814e-06   |Residual|: 1.005e-03   |deigs|: 4.653e-04  t[s]:    644.57
SCF: Cycle: 18   Etot: -177.656015970087822   dEtot: -1.879e-06   |Residual|: 6.463e-04   |deigs|: 2.486e-04  t[s]:    667.06
SCF: Cycle: 19   Etot: -177.656014861650306   dEtot: +1.108e-06   |Residual|: 8.943e-04   |deigs|: 3.188e-04  t[s]:    689.64
SCF: Cycle: 20   Etot: -177.656016165475108   dEtot: -1.304e-06   |Residual|: 5.254e-04   |deigs|: 8.896e-05  t[s]:    712.29
SCF: Cycle: 21   Etot: -177.656015068406589   dEtot: +1.097e-06   |Residual|: 9.534e-04   |deigs|: 1.070e-04  t[s]:    734.96
SCF: Cycle: 22   Etot: -177.656016249443326   dEtot: -1.181e-06   |Residual|: 3.863e-04   |deigs|: 1.461e-04  t[s]:    757.83
SCF: Cycle: 23   Etot: -177.656016378719130   dEtot: -1.293e-07   |Residual|: 3.864e-04   |deigs|: 1.414e-04  t[s]:    780.59
SCF: Cycle: 24   Etot: -177.656017049308502   dEtot: -6.706e-07   |Residual|: 2.822e-04   |deigs|: 3.688e-05  t[s]:    810.14
SCF: Cycle: 25   Etot: -177.656017641460437   dEtot: -5.922e-07   |Residual|: 2.195e-04   |deigs|: 4.591e-05  t[s]:    832.75
SCF: Cycle: 26   Etot: -177.656018074642816   dEtot: -4.332e-07   |Residual|: 1.573e-04   |deigs|: 3.639e-05  t[s]:    855.44
SCF: Cycle: 27   Etot: -177.656018229406101   dEtot: -1.548e-07   |Residual|: 1.700e-04   |deigs|: 2.521e-05  t[s]:    878.04
SCF: Cycle: 28   Etot: -177.656018353759322   dEtot: -1.244e-07   |Residual|: 1.025e-04   |deigs|: 1.745e-05  t[s]:    900.87
SCF: Cycle: 29   Etot: -177.656018414347756   dEtot: -6.059e-08   |Residual|: 6.066e-05   |deigs|: 3.744e-05  t[s]:    923.45
SCF: Cycle: 30   Etot: -177.656018443923472   dEtot: -2.958e-08   |Residual|: 5.445e-05   |deigs|: 9.077e-06  t[s]:    946.08
SCF: Cycle: 31   Etot: -177.656018474882217   dEtot: -3.096e-08   |Residual|: 4.727e-05   |deigs|: 2.419e-05  t[s]:    975.39
SCF: Cycle: 32   Etot: -177.656018489827147   dEtot: -1.494e-08   |Residual|: 2.364e-05   |deigs|: 3.129e-06  t[s]:    998.04
SCF: Cycle: 33   Etot: -177.656018507059656   dEtot: -1.723e-08   |Residual|: 2.849e-05   |deigs|: 6.025e-06  t[s]:   1027.60
SCF: Cycle: 34   Etot: -177.656018518098932   dEtot: -1.104e-08   |Residual|: 1.202e-05   |deigs|: 6.330e-06  t[s]:   1050.19
SCF: Cycle: 35   Etot: -177.656018524917840   dEtot: -6.819e-09   |Residual|: 2.425e-05   |deigs|: 4.973e-06  t[s]:   1072.79
SCF: Cycle: 36   Etot: -177.656018533857434   dEtot: -8.940e-09   |Residual|: 8.872e-06   |deigs|: 1.783e-06  t[s]:   1102.24
SCF: Converged (|Delta E|<1.000000e-08 for 2 iters).

Setting wave functions to eigenvectors of Hamiltonian

# Ionic positions in cartesian coordinates:
ion S   5.224404249899997  10.946321496360000  20.502457449030000 1
ion S   4.405930061490001   8.273321088119999  23.990258410559999 1
ion S   4.517822864520001  10.323889787879999  27.113757222690001 1
ion S   8.657034544080000   8.813494739429999  28.671448433579997 1
ion S  10.060045685279999  10.482500495969999  31.757946332309999 1
ion S  11.945089154880002  13.725664570619998  31.194889940430002 1
ion S   6.530742473489992  14.219337635819999  21.830982992549998 1
ion S  10.409702427179997  14.199862078439999  22.327596477629999 1
ion Na   8.885518018920003  14.526203331600000  27.203814195570001 1
ion Na   9.820560202380001   9.211912184519999  23.309165703420000 1

# Forces in Cartesian coordinates:
force S  -0.000050845404115   0.000034014893893  -0.000041946275940 1
force S   0.000061115017316  -0.000060481776026   0.000060754246329 1
force S  -0.000064104514959  -0.000022878433971  -0.000028294446379 1
force S  -0.000010602582675   0.000021357324335  -0.000127080166719 1
force S   0.000042673435515  -0.000128434390820  -0.000106120723190 1
force S  -0.000078158121241   0.000168296142462   0.000105274175132 1
force S  -0.000006593852795   0.000097029669972  -0.000083362902676 1
force S   0.000031446977621  -0.000216269459343  -0.000045228244118 1
force Na   0.000078213794909   0.000043011344345   0.000094908762605 1
force Na  -0.000038378118026   0.000056688569473   0.000018661607653 1

# Energy components:
   Eewald =      302.9896596457160172
       EH =      448.4059652291042539
     Eloc =     -813.2300862932208929
      Enl =     -129.5741677121473856
      Exc =      -47.9637203190971491
 Exc_core =       14.1418397609921129
       KE =       47.5744911547956946
-------------------------------------
     Etot =     -177.6560185338574342

IonicMinimize: Iter:   0  Etot: -177.656018533857434  |grad|_K:  8.157e-05  alpha:  1.000e+00
IonicMinimize: Converged (|grad|_K<1.000000e-04).

#--- Lowdin population analysis ---
# oxidation-state S -0.060 -0.015 -0.049 -0.148 +0.270 -0.415 +0.177 -0.522
# oxidation-state Na +0.731 +0.735


Dumping 'Na2S8.wfns' ... done
Dumping 'Na2S8.ionpos' ... done
End date and time: Sun Feb 18 14:55:22 2024  (Duration: 0-0:18:47.85)
Done!

*************** JDFTx 1.7.0  ***************

Start date and time: Wed Feb 21 18:21:49 2024
Executable jdftx with command-line: -i Na2S8.in -o Na2S8.out
Running on hosts (process indices):  SimSlave (0)
Divided in process groups (process indices):  0 (0)
Resource initialization completed at t[s]:      0.00
Run totals: 1 processes, 2 threads, 0 GPUs


Input parsed successfully to the following command list (including defaults):

basis kpoint-dependent
coords-type Cartesian
core-overlap-check vector
coulomb-interaction Isolated
coulomb-truncation-embed 5.2244 10.9463 20.5025
davidson-band-ratio 1.1
dump End State
dump-name Na2S8.$VAR
elec-cutoff 20 100
elec-eigen-algo Davidson
elec-ex-corr gga-PBE
electronic-minimize  \
	dirUpdateScheme      FletcherReeves \
	linminMethod         DirUpdateRecommended \
	nIterations          100 \
	history              15 \
	knormThreshold       0 \
	energyDiffThreshold  1e-08 \
	nEnergyDiff          2 \
	alphaTstart          1 \
	alphaTmin            1e-10 \
	updateTestStepSize   yes \
	alphaTreduceFactor   0.1 \
	alphaTincreaseFactor 3 \
	nAlphaAdjustMax      3 \
	wolfeEnergy          0.0001 \
	wolfeGradient        0.9 \
	fdTest               no
electronic-scf  \
	nIterations	50 \
	energyDiffThreshold	1e-08 \
	residualThreshold	1e-07 \
	mixFraction	0.5 \
	qMetric	0.8 \
	history	10 \
	nEigSteps	2 \
	eigDiffThreshold	1e-08 \
	mixedVariable	Density \
	qKerker	0.8 \
	qKappa	-1 \
	verbose	no \
	mixFractionMag	1.5
exchange-regularization None
fluid None
fluid-ex-corr lda-TF lda-PZ
fluid-gummel-loop 10 1.000000e-05
fluid-minimize  \
	dirUpdateScheme      PolakRibiere \
	linminMethod         DirUpdateRecommended \
	nIterations          100 \
	history              15 \
	knormThreshold       0 \
	energyDiffThreshold  0 \
	nEnergyDiff          2 \
	alphaTstart          1 \
	alphaTmin            1e-10 \
	updateTestStepSize   yes \
	alphaTreduceFactor   0.1 \
	alphaTincreaseFactor 3 \
	nAlphaAdjustMax      3 \
	wolfeEnergy          0.0001 \
	wolfeGradient        0.9 \
	fdTest               no
fluid-solvent H2O 55.338 ScalarEOS \
	epsBulk 78.4 \
	pMol 0.92466 \
	epsInf 1.77 \
	Pvap 1.06736e-10 \
	sigmaBulk 4.62e-05 \
	Rvdw 2.61727 \
	Res 1.42 \
	tauNuc 343133 \
	poleEl 15 7 1
forces-output-coords Positions
ion S   5.224404249899997  10.946321496360000  20.502457449030000 1
ion S   4.405930061490001   8.273321088119999  23.990258410559999 1
ion S   4.517822864520001  10.323889787879999  27.113757222690001 1
ion S   8.657034544080000   8.813494739429999  28.671448433579997 1
ion S  10.060045685279999  10.482500495969999  31.757946332309999 1
ion S  11.945089154880002  13.725664570619998  31.194889940430002 1
ion S   6.530742473489992  14.219337635819999  21.830982992549998 1
ion S  10.409702427179997  14.199862078439999  22.327596477629999 1
ion Na   8.885518018920003  14.526203331600000  27.203814195570001 1
ion Na   9.820560202380001   9.211912184519999  23.309165703420000 1
ion-species GBRV/$ID_pbe.uspp
ion-width 0
ionic-minimize  \
	dirUpdateScheme      FletcherReeves \
	linminMethod         DirUpdateRecommended \
	nIterations          200 \
	history              15 \
	knormThreshold       0.0001 \
	energyDiffThreshold  1e-06 \
	nEnergyDiff          2 \
	alphaTstart          1 \
	alphaTmin            1e-10 \
	updateTestStepSize   yes \
	alphaTreduceFactor   0.1 \
	alphaTincreaseFactor 3 \
	nAlphaAdjustMax      3 \
	wolfeEnergy          0.0001 \
	wolfeGradient        0.9 \
	fdTest               no
kpoint   0.000000000000   0.000000000000   0.000000000000  1.00000000000000
kpoint-folding 1 1 1 
latt-move-scale 1 1 1
latt-scale 1 1 1 
lattice Triclinic 28.0058 28.0058 37.7946 90 90 120
lattice-minimize  \
	dirUpdateScheme      L-BFGS \
	linminMethod         DirUpdateRecommended \
	nIterations          0 \
	history              15 \
	knormThreshold       0 \
	energyDiffThreshold  1e-06 \
	nEnergyDiff          2 \
	alphaTstart          1 \
	alphaTmin            1e-10 \
	updateTestStepSize   yes \
	alphaTreduceFactor   0.1 \
	alphaTincreaseFactor 3 \
	nAlphaAdjustMax      3 \
	wolfeEnergy          0.0001 \
	wolfeGradient        0.9 \
	fdTest               no
lcao-params -1 1e-06 0.001
pcm-variant GLSSA13
spintype no-spin
subspace-rotation-factor 1 yes
symmetries automatic
symmetry-threshold 0.0001



---------- Setting up symmetries ----------

Found 24 point-group symmetries of the bravais lattice
Found 1 space-group symmetries with basis
Applied RMS atom displacement 0 bohrs to make symmetries exact.

---------- Initializing the Grid ----------
R = 
[      28.0058     -14.0029            0  ]
[            0      24.2537            0  ]
[            0            0      37.7946  ]
unit cell volume = 25671.8
G =
[   0.224353    0.12953         -0  ]
[          0   0.259061          0  ]
[          0         -0   0.166246  ]
Minimum fftbox size, Smin = [  128  128  172  ]
Chosen fftbox size, S = [  128  128  180  ]

---------- Initializing tighter grid for wavefunction operations ----------
R = 
[      28.0058     -14.0029            0  ]
[            0      24.2537            0  ]
[            0            0      37.7946  ]
unit cell volume = 25671.8
G =
[   0.224353    0.12953         -0  ]
[          0   0.259061          0  ]
[          0         -0   0.166246  ]
Minimum fftbox size, Smin = [  116  116  156  ]
Chosen fftbox size, S = [  120  120  160  ]

---------- Exchange Correlation functional ----------
Initalized PBE GGA exchange.
Initalized PBE GGA correlation.

---------- Setting up pseudopotentials ----------
Width of ionic core gaussian charges (only for fluid interactions / plotting) set to 0

Reading pseudopotential file '/home/simslave2427/jdftx_install/build/pseudopotentials/GBRV/s_pbe.uspp':
  Title: S.  Created by USPP 7.3.6 on 1-4-15
  Reference state energy: -11.898476.  6 valence electrons in orbitals:
    |300>  occupation: 2  eigenvalue: -0.634167
    |310>  occupation: 4  eigenvalue: -0.257568
  lMax: 2  lLocal: 3  QijEcut: 6
  6 projectors sampled on a log grid with 635 points:
    l: 0  eig: -0.634161  rCut: 1.5
    l: 0  eig: 1.500000  rCut: 1.5
    l: 1  eig: -0.257567  rCut: 1.5
    l: 1  eig: 1.500000  rCut: 1.5
    l: 2  eig: -1.000000  rCut: 1.5
    l: 2  eig: 1.500000  rCut: 1.5
  Partial core density with radius 1.15
  Transforming core density to a uniform radial grid of dG=0.02 with 1625 points.
  Transforming local potential to a uniform radial grid of dG=0.02 with 1625 points.
  Transforming nonlocal projectors to a uniform radial grid of dG=0.02 with 432 points.
  Transforming density augmentations to a uniform radial grid of dG=0.02 with 1625 points.
  Transforming atomic orbitals to a uniform radial grid of dG=0.02 with 432 points.
  Core radius for overlap checks: 1.50 bohrs.

Reading pseudopotential file '/home/simslave2427/jdftx_install/build/pseudopotentials/GBRV/na_pbe.uspp':
  Title: Na.  Created by USPP 7.3.6 on 23-9-15
  Reference state energy: -47.625620.  9 valence electrons in orbitals:
    |200>  occupation: 2  eigenvalue: -2.085638
    |210>  occupation: 6  eigenvalue: -1.053708
    |300>  occupation: 1  eigenvalue: -0.100838
  lMax: 2  lLocal: 0  QijEcut: 6
  5 projectors sampled on a log grid with 657 points:
    l: 0  eig: -2.085640  rCut: 1.37
    l: 0  eig: -0.100839  rCut: 1.37
    l: 1  eig: -1.053708  rCut: 1.47
    l: 1  eig: 0.500000  rCut: 1.47
    l: 2  eig: 0.750000  rCut: 2
  Transforming local potential to a uniform radial grid of dG=0.02 with 1625 points.
  Transforming nonlocal projectors to a uniform radial grid of dG=0.02 with 432 points.
  Transforming density augmentations to a uniform radial grid of dG=0.02 with 1625 points.
  Transforming atomic orbitals to a uniform radial grid of dG=0.02 with 432 points.
  Core radius for overlap checks: 2.00 bohrs.

Initialized 2 species with 10 total atoms.

Folded 1 k-points by 1x1x1 to 1 k-points.

---------- Setting up k-points, bands, fillings ----------
No reducable k-points. 
Computing the number of bands and number of electrons
Calculating initial fillings.
nElectrons:  66.000000   nBands: 33   nStates: 1

----- Setting up reduced wavefunction bases (one per k-point) -----
average nbasis = 109673.000 , ideal nbasis = 109671.883

---------- Setting up coulomb interaction ----------
Setting up double-sized grid for truncated Coulomb potentials:
R = 
[      56.0116     -28.0058            0  ]
[            0      48.5075            0  ]
[            0            0      75.5892  ]
unit cell volume = 205374
G =
[   0.112177  0.0647651         -0  ]
[          0    0.12953          0  ]
[          0         -0  0.0831228  ]
Chosen fftbox size, S = [  256  256  360  ]
Integer grid location selected as the embedding center:
   Grid: [  53  58  98  ]
   Lattice: [  0.41221  0.451325  0.542471  ]
   Cartesian: [  5.2244  10.9463  20.5025  ]
Constructing Wigner-Seitz cell: 8 faces (6 quadrilaterals, 2 hexagons)
Range-separation parameter for embedded mesh potentials due to point charges: 0.590105 bohrs.
Constructing Wigner-Seitz cell: 8 faces (6 quadrilaterals, 2 hexagons)
Gaussian width for range separation: 2.95095 bohrs.
FFT grid for long-range part: [ 256 256 360 ].
Planning fourier transform ... Done.
Computing truncated long-range part in real space ... Done.
Adding short-range part in reciprocal space ... Done.

---------- Allocating electronic variables ----------
Initializing wave functions:  linear combination of atomic orbitals
S pseudo-atom occupations:   s ( 2 )  p ( 4 )
Na pseudo-atom occupations:   s ( 2 1 )  p ( 6 )
	FillingsUpdate:  mu: -0.161571040  nElectrons: 66.000000
LCAOMinimize: Iter:   0  Etot: -177.0239880219510269  |grad|_K:  1.738e-02  alpha:  1.000e+00
	FillingsUpdate:  mu: -0.161030292  nElectrons: 66.000000
LCAOMinimize: Iter:   1  Etot: -177.0534223274009946  |grad|_K:  1.534e-02  alpha:  5.430e-02  linmin: -3.310e-01  cgtest:  9.393e-01  t[s]:    106.81
LCAOMinimize: Encountered beta<0, resetting CG.
LCAOMinimize: 	Predicted alpha/alphaT>3.000000, increasing alphaT to 1.629097e-01.
LCAOMinimize: 	Step increased Etot by 3.595892e-01, reducing alpha to 4.884730e-02.
	FillingsUpdate:  mu: -0.166218118  nElectrons: 66.000000
LCAOMinimize: Iter:   2  Etot: -177.0739890610698239  |grad|_K:  1.358e-02  alpha:  4.885e-02  linmin: -3.332e-01  cgtest:  9.486e-01  t[s]:    185.89
LCAOMinimize: Encountered beta<0, resetting CG.
LCAOMinimize: 	Predicted alpha/alphaT>3.000000, increasing alphaT to 1.465419e-01.
LCAOMinimize: 	Predicted alpha/alphaT>3.000000, increasing alphaT to 4.396257e-01.
	FillingsUpdate:  mu: -0.173434500  nElectrons: 66.000000
LCAOMinimize: Iter:   3  Etot: -177.1090753341505888  |grad|_K:  9.101e-03  alpha:  1.166e-01  linmin: -3.646e-01  cgtest:  8.638e-01  t[s]:    250.90
LCAOMinimize: Encountered beta<0, resetting CG.
LCAOMinimize: None of the convergence criteria satisfied after 3 iterations.


---- Citations for features of the code used in this run ----

   Software package:
      R. Sundararaman, K. Letchworth-Weaver, K.A. Schwarz, D. Gunceler, Y. Ozhabes and T.A. Arias, 'JDFTx: software for joint density-functional theory', SoftwareX 6, 278 (2017)

   gga-PBE exchange-correlation functional:
      J.P. Perdew, K. Burke and M. Ernzerhof, Phys. Rev. Lett. 77, 3865 (1996)

   Pseudopotentials:
      KF Garrity, JW Bennett, KM Rabe and D Vanderbilt, Comput. Mater. Sci. 81, 446 (2014)

   Truncated Coulomb potentials:
      R. Sundararaman and T.A. Arias, Phys. Rev. B 87, 165122 (2013)

This list may not be complete. Please suggest additional citations or
report any other bugs at https://github.com/shankar1729/jdftx/issues

Initialization completed successfully at t[s]:    254.45


-------- Electronic minimization -----------
Will mix electronic density at each iteration.
SCF: Cycle:  0   Etot: -177.201980834381686   dEtot: -9.291e-02   |Residual|: 3.865e-01   |deigs|: 1.601e-02  t[s]:    316.11
SCF: Cycle:  1   Etot: -177.473680220905294   dEtot: -2.717e-01   |Residual|: 1.986e-01   |deigs|: 2.193e-02  t[s]:    362.56
SCF: Cycle:  2   Etot: -177.630812325215004   dEtot: -1.571e-01   |Residual|: 1.183e-01   |deigs|: 2.298e-02  t[s]:    409.02
SCF: Cycle:  3   Etot: -177.642661507048558   dEtot: -1.185e-02   |Residual|: 5.445e-02   |deigs|: 8.298e-03  t[s]:    455.23
SCF: Cycle:  4   Etot: -177.648074369423568   dEtot: -5.413e-03   |Residual|: 3.980e-02   |deigs|: 8.840e-03  t[s]:    501.29
SCF: Cycle:  5   Etot: -177.653089399104005   dEtot: -5.015e-03   |Residual|: 1.807e-02   |deigs|: 2.666e-03  t[s]:    546.56
SCF: Cycle:  6   Etot: -177.653872556965041   dEtot: -7.832e-04   |Residual|: 2.448e-02   |deigs|: 7.538e-03  t[s]:    591.67
SCF: Cycle:  7   Etot: -177.654685388800772   dEtot: -8.128e-04   |Residual|: 1.685e-02   |deigs|: 1.007e-03  t[s]:    636.47
SCF: Cycle:  8   Etot: -177.655682282984912   dEtot: -9.969e-04   |Residual|: 6.769e-03   |deigs|: 2.865e-03  t[s]:    681.59
SCF: Cycle:  9   Etot: -177.655721068564674   dEtot: -3.879e-05   |Residual|: 7.375e-03   |deigs|: 1.957e-03  t[s]:    724.17
SCF: Cycle: 10   Etot: -177.655862652756696   dEtot: -1.416e-04   |Residual|: 4.700e-03   |deigs|: 3.259e-03  t[s]:    767.38
SCF: Cycle: 11   Etot: -177.655901184081785   dEtot: -3.853e-05   |Residual|: 3.384e-03   |deigs|: 1.710e-03  t[s]:    803.89
SCF: Cycle: 12   Etot: -177.655958277590400   dEtot: -5.709e-05   |Residual|: 2.437e-03   |deigs|: 2.195e-03  t[s]:    845.03
SCF: Cycle: 13   Etot: -177.655975138655322   dEtot: -1.686e-05   |Residual|: 2.277e-03   |deigs|: 5.286e-04  t[s]:    881.03
SCF: Cycle: 14   Etot: -177.655993614938438   dEtot: -1.848e-05   |Residual|: 2.212e-03   |deigs|: 8.080e-04  t[s]:    917.08
SCF: Cycle: 15   Etot: -177.656007914764587   dEtot: -1.430e-05   |Residual|: 1.262e-03   |deigs|: 4.230e-04  t[s]:    953.23
SCF: Cycle: 16   Etot: -177.656010277633385   dEtot: -2.363e-06   |Residual|: 1.308e-03   |deigs|: 8.062e-05  t[s]:    989.53
SCF: Cycle: 17   Etot: -177.656014091463817   dEtot: -3.814e-06   |Residual|: 1.005e-03   |deigs|: 4.653e-04  t[s]:   1030.64
SCF: Cycle: 18   Etot: -177.656015970110388   dEtot: -1.879e-06   |Residual|: 6.463e-04   |deigs|: 2.486e-04  t[s]:   1066.94
SCF: Cycle: 19   Etot: -177.656014861684270   dEtot: +1.108e-06   |Residual|: 8.943e-04   |deigs|: 3.188e-04  t[s]:   1102.94
SCF: Cycle: 20   Etot: -177.656016165520612   dEtot: -1.304e-06   |Residual|: 5.254e-04   |deigs|: 8.896e-05  t[s]:   1139.18
SCF: Cycle: 21   Etot: -177.656015068446720   dEtot: +1.097e-06   |Residual|: 9.534e-04   |deigs|: 1.070e-04  t[s]:   1175.47
SCF: Cycle: 22   Etot: -177.656016249490847   dEtot: -1.181e-06   |Residual|: 3.863e-04   |deigs|: 1.461e-04  t[s]:   1211.68
SCF: Cycle: 23   Etot: -177.656016378770232   dEtot: -1.293e-07   |Residual|: 3.864e-04   |deigs|: 1.414e-04  t[s]:   1247.76
SCF: Cycle: 24   Etot: -177.656017049346843   dEtot: -6.706e-07   |Residual|: 2.822e-04   |deigs|: 3.688e-05  t[s]:   1292.29
SCF: Cycle: 25   Etot: -177.656017641506935   dEtot: -5.922e-07   |Residual|: 2.195e-04   |deigs|: 4.591e-05  t[s]:   1328.83
SCF: Cycle: 26   Etot: -177.656018074673909   dEtot: -4.332e-07   |Residual|: 1.573e-04   |deigs|: 3.639e-05  t[s]:   1364.99
SCF: Cycle: 27   Etot: -177.656018229447852   dEtot: -1.548e-07   |Residual|: 1.700e-04   |deigs|: 2.521e-05  t[s]:   1401.16
SCF: Cycle: 28   Etot: -177.656018353803603   dEtot: -1.244e-07   |Residual|: 1.025e-04   |deigs|: 1.745e-05  t[s]:   1437.34
SCF: Cycle: 29   Etot: -177.656018414377741   dEtot: -6.057e-08   |Residual|: 6.066e-05   |deigs|: 3.744e-05  t[s]:   1473.55
SCF: Cycle: 30   Etot: -177.656018443965706   dEtot: -2.959e-08   |Residual|: 5.445e-05   |deigs|: 9.077e-06  t[s]:   1509.91
SCF: Cycle: 31   Etot: -177.656018474931216   dEtot: -3.097e-08   |Residual|: 4.727e-05   |deigs|: 2.419e-05  t[s]:   1554.57
SCF: Cycle: 32   Etot: -177.656018489884843   dEtot: -1.495e-08   |Residual|: 2.364e-05   |deigs|: 3.129e-06  t[s]:   1591.02
SCF: Cycle: 33   Etot: -177.656018507117352   dEtot: -1.723e-08   |Residual|: 2.849e-05   |deigs|: 6.025e-06  t[s]:   1635.83
SCF: Cycle: 34   Etot: -177.656018518149153   dEtot: -1.103e-08   |Residual|: 1.202e-05   |deigs|: 6.330e-06  t[s]:   1671.96
SCF: Cycle: 35   Etot: -177.656018524965845   dEtot: -6.817e-09   |Residual|: 2.425e-05   |deigs|: 4.973e-06  t[s]:   1708.54
SCF: Cycle: 36   Etot: -177.656018533923600   dEtot: -8.958e-09   |Residual|: 8.872e-06   |deigs|: 1.783e-06  t[s]:   1753.54
SCF: Converged (|Delta E|<1.000000e-08 for 2 iters).

Setting wave functions to eigenvectors of Hamiltonian

# Ionic positions in cartesian coordinates:
ion S   5.224404249899997  10.946321496360000  20.502457449030000 1
ion S   4.405930061490001   8.273321088119999  23.990258410559999 1
ion S   4.517822864520001  10.323889787879999  27.113757222690001 1
ion S   8.657034544080000   8.813494739429999  28.671448433579997 1
ion S  10.060045685279999  10.482500495969999  31.757946332309999 1
ion S  11.945089154880002  13.725664570619998  31.194889940430002 1
ion S   6.530742473489992  14.219337635819999  21.830982992549998 1
ion S  10.409702427179997  14.199862078439999  22.327596477629999 1
ion Na   8.885518018920003  14.526203331600000  27.203814195570001 1
ion Na   9.820560202380001   9.211912184519999  23.309165703420000 1

# Forces in Cartesian coordinates:
force S  -0.000050845402062   0.000034014891206  -0.000041946270697 1
force S   0.000061115020517  -0.000060481772174   0.000060754249312 1
force S  -0.000064104511873  -0.000022878433439  -0.000028294449442 1
force S  -0.000010602585387   0.000021357328011  -0.000127080173092 1
force S   0.000042673434883  -0.000128434387639  -0.000106120728298 1
force S  -0.000078158122478   0.000168296143995   0.000105274170303 1
force S  -0.000006593848506   0.000097029666924  -0.000083362897782 1
force S   0.000031446977857  -0.000216269462318  -0.000045228239947 1
force Na   0.000078213795359   0.000043011340007   0.000094908760221 1
force Na  -0.000038378121462   0.000056688573765   0.000018661610729 1

# Energy components:
   Eewald =      302.9896596457160172
       EH =      448.4059652291903717
     Eloc =     -813.2300862933923327
      Enl =     -129.5741677121526720
      Exc =      -47.9637203190965877
 Exc_core =       14.1418397609906386
       KE =       47.5744911548209615
-------------------------------------
     Etot =     -177.6560185339236000

IonicMinimize: Iter:   0  Etot: -177.656018533923600  |grad|_K:  8.157e-05  alpha:  1.000e+00
IonicMinimize: Converged (|grad|_K<1.000000e-04).

#--- Lowdin population analysis ---
# oxidation-state S -0.060 -0.015 -0.049 -0.148 +0.270 -0.415 +0.177 -0.522
# oxidation-state Na +0.731 +0.735


Dumping 'Na2S8.wfns' ... done
Dumping 'Na2S8.ionpos' ... done
End date and time: Wed Feb 21 18:51:46 2024  (Duration: 0-0:29:57.42)
Done!

*************** JDFTx 1.7.0  ***************

Start date and time: Sat Oct  5 10:48:29 2024
Executable jdftx with command-line: -i Na2S8-vdw.in -o Na2S8-vdw.out
Running on hosts (process indices):  Wolf-Dell (0)
Divided in process groups (process indices):  0 (0)
Resource initialization completed at t[s]:      0.00
Run totals: 1 processes, 6 threads, 0 GPUs


Input parsed successfully to the following command list (including defaults):

basis kpoint-dependent
coords-type Cartesian
core-overlap-check vector
coulomb-interaction Isolated
coulomb-truncation-embed 5.2244 10.9463 20.5025
davidson-band-ratio 1.1
dump End State
dump-name Na2S8-vdw.$VAR
elec-cutoff 20 100
elec-eigen-algo Davidson
elec-ex-corr gga-PBE
electronic-minimize  \
	dirUpdateScheme      FletcherReeves \
	linminMethod         DirUpdateRecommended \
	nIterations          100 \
	history              15 \
	knormThreshold       0 \
	energyDiffThreshold  1e-08 \
	nEnergyDiff          2 \
	alphaTstart          1 \
	alphaTmin            1e-10 \
	updateTestStepSize   yes \
	alphaTreduceFactor   0.1 \
	alphaTincreaseFactor 3 \
	nAlphaAdjustMax      3 \
	wolfeEnergy          0.0001 \
	wolfeGradient        0.9 \
	fdTest               no
exchange-regularization None
fluid None
fluid-ex-corr lda-TF lda-PZ
fluid-gummel-loop 10 1.000000e-05
fluid-minimize  \
	dirUpdateScheme      PolakRibiere \
	linminMethod         DirUpdateRecommended \
	nIterations          100 \
	history              15 \
	knormThreshold       0 \
	energyDiffThreshold  0 \
	nEnergyDiff          2 \
	alphaTstart          1 \
	alphaTmin            1e-10 \
	updateTestStepSize   yes \
	alphaTreduceFactor   0.1 \
	alphaTincreaseFactor 3 \
	nAlphaAdjustMax      3 \
	wolfeEnergy          0.0001 \
	wolfeGradient        0.9 \
	fdTest               no
fluid-solvent H2O 55.338 ScalarEOS \
	epsBulk 78.4 \
	pMol 0.92466 \
	epsInf 1.77 \
	Pvap 1.06736e-10 \
	sigmaBulk 4.62e-05 \
	Rvdw 2.61727 \
	Res 1.42 \
	tauNuc 343133 \
	poleEl 15 7 1
forces-output-coords Positions
ion S   5.224404249899997  10.946321496360000  20.502457449030000 1
ion S   4.405930061490001   8.273321088119999  23.990258410559999 1
ion S   4.517822864520001  10.323889787879999  27.113757222690001 1
ion S   8.657034544080000   8.813494739429999  28.671448433579997 1
ion S  10.060045685279999  10.482500495969999  31.757946332309999 1
ion S  11.945089154880002  13.725664570619998  31.194889940430002 1
ion S   6.530742473489992  14.219337635819999  21.830982992549998 1
ion S  10.409702427179997  14.199862078439999  22.327596477629999 1
ion Na   8.885518018920003  14.526203331600000  27.203814195570001 1
ion Na   9.820560202380001   9.211912184519999  23.309165703420000 1
ion-species GBRV/$ID_pbe.uspp
ion-width 0
ionic-minimize  \
	dirUpdateScheme      FletcherReeves \
	linminMethod         DirUpdateRecommended \
	nIterations          200 \
	history              15 \
	knormThreshold       0.0001 \
	energyDiffThreshold  1e-06 \
	nEnergyDiff          2 \
	alphaTstart          1 \
	alphaTmin            1e-10 \
	updateTestStepSize   yes \
	alphaTreduceFactor   0.1 \
	alphaTincreaseFactor 3 \
	nAlphaAdjustMax      3 \
	wolfeEnergy          0.0001 \
	wolfeGradient        0.9 \
	fdTest               no
kpoint   0.000000000000   0.000000000000   0.000000000000  1.00000000000000
kpoint-folding 1 1 1 
latt-move-scale 1 1 1
latt-scale 1 1 1 
lattice Triclinic 28.0058 28.0058 37.7946 90 90 120
lattice-minimize  \
	dirUpdateScheme      L-BFGS \
	linminMethod         DirUpdateRecommended \
	nIterations          0 \
	history              15 \
	knormThreshold       0 \
	energyDiffThreshold  1e-06 \
	nEnergyDiff          2 \
	alphaTstart          1 \
	alphaTmin            1e-10 \
	updateTestStepSize   yes \
	alphaTreduceFactor   0.1 \
	alphaTincreaseFactor 3 \
	nAlphaAdjustMax      3 \
	wolfeEnergy          0.0001 \
	wolfeGradient        0.9 \
	fdTest               no
lcao-params -1 1e-06 0.001
pcm-variant GLSSA13
spintype no-spin
subspace-rotation-factor 1 yes
symmetries automatic
symmetry-threshold 0.0001
van-der-waals D3



---------- Setting up symmetries ----------

Found 24 point-group symmetries of the bravais lattice
Found 1 space-group symmetries with basis
Applied RMS atom displacement 0 bohrs to make symmetries exact.

---------- Initializing the Grid ----------
R = 
[      28.0058     -14.0029            0  ]
[            0      24.2537            0  ]
[            0            0      37.7946  ]
unit cell volume = 25671.8
G =
[   0.224353    0.12953         -0  ]
[          0   0.259061          0  ]
[          0         -0   0.166246  ]
Minimum fftbox size, Smin = [  128  128  172  ]
Chosen fftbox size, S = [  128  128  180  ]

---------- Initializing tighter grid for wavefunction operations ----------
R = 
[      28.0058     -14.0029            0  ]
[            0      24.2537            0  ]
[            0            0      37.7946  ]
unit cell volume = 25671.8
G =
[   0.224353    0.12953         -0  ]
[          0   0.259061          0  ]
[          0         -0   0.166246  ]
Minimum fftbox size, Smin = [  116  116  156  ]
Chosen fftbox size, S = [  120  120  160  ]

---------- Exchange Correlation functional ----------
Initalized PBE GGA exchange.
Initalized PBE GGA correlation.

---------- Setting up pseudopotentials ----------
Width of ionic core gaussian charges (only for fluid interactions / plotting) set to 0

Reading pseudopotential file '/home/akakimmykim/jdftx_install/build/pseudopotentials/GBRV/s_pbe.uspp':
  Title: S.  Created by USPP 7.3.6 on 1-4-15
  Reference state energy: -11.898476.  6 valence electrons in orbitals:
    |300>  occupation: 2  eigenvalue: -0.634167
    |310>  occupation: 4  eigenvalue: -0.257568
  lMax: 2  lLocal: 3  QijEcut: 6
  6 projectors sampled on a log grid with 635 points:
    l: 0  eig: -0.634161  rCut: 1.5
    l: 0  eig: 1.500000  rCut: 1.5
    l: 1  eig: -0.257567  rCut: 1.5
    l: 1  eig: 1.500000  rCut: 1.5
    l: 2  eig: -1.000000  rCut: 1.5
    l: 2  eig: 1.500000  rCut: 1.5
  Partial core density with radius 1.15
  Transforming core density to a uniform radial grid of dG=0.02 with 1625 points.
  Transforming local potential to a uniform radial grid of dG=0.02 with 1625 points.
  Transforming nonlocal projectors to a uniform radial grid of dG=0.02 with 432 points.
  Transforming density augmentations to a uniform radial grid of dG=0.02 with 1625 points.
  Transforming atomic orbitals to a uniform radial grid of dG=0.02 with 432 points.
  Core radius for overlap checks: 1.50 bohrs.

Reading pseudopotential file '/home/akakimmykim/jdftx_install/build/pseudopotentials/GBRV/na_pbe.uspp':
  Title: Na.  Created by USPP 7.3.6 on 23-9-15
  Reference state energy: -47.625620.  9 valence electrons in orbitals:
    |200>  occupation: 2  eigenvalue: -2.085638
    |210>  occupation: 6  eigenvalue: -1.053708
    |300>  occupation: 1  eigenvalue: -0.100838
  lMax: 2  lLocal: 0  QijEcut: 6
  5 projectors sampled on a log grid with 657 points:
    l: 0  eig: -2.085640  rCut: 1.37
    l: 0  eig: -0.100839  rCut: 1.37
    l: 1  eig: -1.053708  rCut: 1.47
    l: 1  eig: 0.500000  rCut: 1.47
    l: 2  eig: 0.750000  rCut: 2
  Transforming local potential to a uniform radial grid of dG=0.02 with 1625 points.
  Transforming nonlocal projectors to a uniform radial grid of dG=0.02 with 432 points.
  Transforming density augmentations to a uniform radial grid of dG=0.02 with 1625 points.
  Transforming atomic orbitals to a uniform radial grid of dG=0.02 with 432 points.
  Core radius for overlap checks: 2.00 bohrs.

Initialized 2 species with 10 total atoms.

Folded 1 k-points by 1x1x1 to 1 k-points.

---------- Setting up k-points, bands, fillings ----------
No reducable k-points. 
Computing the number of bands and number of electrons
Calculating initial fillings.
nElectrons:  66.000000   nBands: 33   nStates: 1

----- Setting up reduced wavefunction bases (one per k-point) -----
average nbasis = 109673.000 , ideal nbasis = 109671.883

---------- Setting up coulomb interaction ----------
Setting up double-sized grid for truncated Coulomb potentials:
R = 
[      56.0116     -28.0058            0  ]
[            0      48.5075            0  ]
[            0            0      75.5892  ]
unit cell volume = 205374
G =
[   0.112177  0.0647651         -0  ]
[          0    0.12953          0  ]
[          0         -0  0.0831228  ]
Chosen fftbox size, S = [  256  256  360  ]
Integer grid location selected as the embedding center:
   Grid: [  53  58  98  ]
   Lattice: [  0.41221  0.451325  0.542471  ]
   Cartesian: [  5.2244  10.9463  20.5025  ]
Constructing Wigner-Seitz cell: 8 faces (6 quadrilaterals, 2 hexagons)
Range-separation parameter for embedded mesh potentials due to point charges: 0.590105 bohrs.
Constructing Wigner-Seitz cell: 8 faces (6 quadrilaterals, 2 hexagons)
Gaussian width for range separation: 2.95095 bohrs.
FFT grid for long-range part: [ 256 256 360 ].
Planning fourier transform ... Done.
Computing truncated long-range part in real space ... Done.
Adding short-range part in reciprocal space ... Done.

Initializing DFT-D3 calculator:
	Parameters set for gga-PBE functional
	s6:  1.000  s_r6:  1.217
	s8:  0.722  s_r8:  1.000
	Per-atom parameters loaded for:
	 S:  sqrtQ[a0]:  4.041  Rcov[a0]:  1.928  CN: [ 0.00 0.99 1.99 ]
	Na:  sqrtQ[a0]:  6.586  Rcov[a0]:  2.646  CN: [ 0.00 0.97 ]

Computing DFT-D3 correction:
# coordination-number S 2.769 2.835 2.628 3.396 2.447 2.001 3.134 2.953
# coordination-number Na 4.896 4.826
# diagonal-C6 S 125.81 125.81 125.81 125.81 125.81 125.90 125.81 125.81
# diagonal-C6 Na 186.11 186.11
EvdW_6 =   -0.002824
EvdW_8 =   -0.010324

---------- Allocating electronic variables ----------
Initializing wave functions:  linear combination of atomic orbitals
S pseudo-atom occupations:   s ( 2 )  p ( 4 )
Na pseudo-atom occupations:   s ( 2 1 )  p ( 6 )
	FillingsUpdate:  mu: -0.161571040  nElectrons: 66.000000
LCAOMinimize: Iter:   0  Etot: -177.0371367886250482  |grad|_K:  1.738e-02  alpha:  1.000e+00
	FillingsUpdate:  mu: -0.161030292  nElectrons: 66.000000
LCAOMinimize: Iter:   1  Etot: -177.0665710940735096  |grad|_K:  1.534e-02  alpha:  5.430e-02  linmin: -3.310e-01  cgtest:  9.393e-01  t[s]:     48.79
LCAOMinimize: Encountered beta<0, resetting CG.
LCAOMinimize: 	Predicted alpha/alphaT>3.000000, increasing alphaT to 1.629097e-01.
LCAOMinimize: 	Step increased Etot by 3.595892e-01, reducing alpha to 4.884730e-02.
	FillingsUpdate:  mu: -0.166218118  nElectrons: 66.000000
LCAOMinimize: Iter:   2  Etot: -177.0871378278034740  |grad|_K:  1.358e-02  alpha:  4.885e-02  linmin: -3.332e-01  cgtest:  9.486e-01  t[s]:     77.87
LCAOMinimize: Encountered beta<0, resetting CG.
LCAOMinimize: 	Predicted alpha/alphaT>3.000000, increasing alphaT to 1.465419e-01.
LCAOMinimize: 	Predicted alpha/alphaT>3.000000, increasing alphaT to 4.396257e-01.
	FillingsUpdate:  mu: -0.173434500  nElectrons: 66.000000
LCAOMinimize: Iter:   3  Etot: -177.1222241008031233  |grad|_K:  9.101e-03  alpha:  1.166e-01  linmin: -3.646e-01  cgtest:  8.638e-01  t[s]:    101.03
LCAOMinimize: Encountered beta<0, resetting CG.
LCAOMinimize: None of the convergence criteria satisfied after 3 iterations.


---- Citations for features of the code used in this run ----

   Software package:
      R. Sundararaman, K. Letchworth-Weaver, K.A. Schwarz, D. Gunceler, Y. Ozhabes and T.A. Arias, 'JDFTx: software for joint density-functional theory', SoftwareX 6, 278 (2017)

   gga-PBE exchange-correlation functional:
      J.P. Perdew, K. Burke and M. Ernzerhof, Phys. Rev. Lett. 77, 3865 (1996)

   Pseudopotentials:
      KF Garrity, JW Bennett, KM Rabe and D Vanderbilt, Comput. Mater. Sci. 81, 446 (2014)

   Truncated Coulomb potentials:
      R. Sundararaman and T.A. Arias, Phys. Rev. B 87, 165122 (2013)

   DFT-D3 dispersion correction:
      S. Grimme, J. Antony, S. Ehrlich and H. Krieg, J. Chem. Phys. 132, 154104 (2010)

   Total energy minimization:
      T.A. Arias, M.C. Payne and J.D. Joannopoulos, Phys. Rev. Lett. 69, 1077 (1992)

This list may not be complete. Please suggest additional citations or
report any other bugs at https://github.com/shankar1729/jdftx/issues

Initialization completed successfully at t[s]:    103.01


Computing DFT-D3 correction:
# coordination-number S 2.769 2.835 2.628 3.396 2.447 2.001 3.134 2.953
# coordination-number Na 4.896 4.826
# diagonal-C6 S 125.81 125.81 125.81 125.81 125.81 125.90 125.81 125.81
# diagonal-C6 Na 186.11 186.11
EvdW_6 =   -0.002824
EvdW_8 =   -0.010324

-------- Electronic minimization -----------
ElecMinimize: Iter:   0  Etot: -177.122224100795080  |grad|_K:  3.560e-04  alpha:  1.000e+00
ElecMinimize: Iter:   1  Etot: -177.553210094933632  |grad|_K:  1.446e-04  alpha:  9.397e-01  linmin: -4.447e-04  t[s]:    135.66
ElecMinimize: Iter:   2  Etot: -177.640475736714706  |grad|_K:  8.980e-05  alpha:  1.154e+00  linmin:  8.445e-04  t[s]:    154.98
ElecMinimize: Iter:   3  Etot: -177.655605947599156  |grad|_K:  5.955e-05  alpha:  5.207e-01  linmin:  1.143e-03  t[s]:    174.12
ElecMinimize: Iter:   4  Etot: -177.663492619493752  |grad|_K:  3.645e-05  alpha:  6.154e-01  linmin:  5.281e-04  t[s]:    193.62
ElecMinimize: Iter:   5  Etot: -177.666733512564463  |grad|_K:  2.080e-05  alpha:  6.743e-01  linmin: -1.719e-04  t[s]:    212.81
ElecMinimize: Iter:   6  Etot: -177.667917456674843  |grad|_K:  1.501e-05  alpha:  7.563e-01  linmin:  7.781e-05  t[s]:    232.16
ElecMinimize: Iter:   7  Etot: -177.668520569501140  |grad|_K:  1.020e-05  alpha:  7.398e-01  linmin:  3.074e-05  t[s]:    251.43
ElecMinimize: Iter:   8  Etot: -177.668829510003832  |grad|_K:  6.621e-06  alpha:  8.197e-01  linmin:  1.122e-05  t[s]:    270.73
ElecMinimize: Iter:   9  Etot: -177.668991093255357  |grad|_K:  4.568e-06  alpha:  1.019e+00  linmin: -1.694e-05  t[s]:    290.21
ElecMinimize: Iter:  10  Etot: -177.669056717500098  |grad|_K:  4.413e-06  alpha:  8.689e-01  linmin: -1.425e-05  t[s]:    309.57
ElecMinimize: Iter:  11  Etot: -177.669098595974134  |grad|_K:  3.009e-06  alpha:  5.942e-01  linmin:  1.796e-06  t[s]:    328.65
ElecMinimize: Iter:  12  Etot: -177.669127997581484  |grad|_K:  2.341e-06  alpha:  8.975e-01  linmin:  1.091e-06  t[s]:    347.66
ElecMinimize: Iter:  13  Etot: -177.669144553089382  |grad|_K:  1.668e-06  alpha:  8.345e-01  linmin:  1.393e-05  t[s]:    366.88
ElecMinimize: Iter:  14  Etot: -177.669155052063900  |grad|_K:  1.226e-06  alpha:  1.043e+00  linmin:  1.152e-05  t[s]:    385.93
ElecMinimize: Iter:  15  Etot: -177.669160470738518  |grad|_K:  9.831e-07  alpha:  9.960e-01  linmin:  1.643e-06  t[s]:    404.92
ElecMinimize: Iter:  16  Etot: -177.669163218318374  |grad|_K:  7.522e-07  alpha:  7.855e-01  linmin:  6.220e-06  t[s]:    423.89
ElecMinimize: Iter:  17  Etot: -177.669164743432361  |grad|_K:  6.301e-07  alpha:  7.447e-01  linmin: -3.489e-06  t[s]:    442.81
ElecMinimize: Iter:  18  Etot: -177.669165718304669  |grad|_K:  4.763e-07  alpha:  6.784e-01  linmin: -1.034e-05  t[s]:    461.80
ElecMinimize: Iter:  19  Etot: -177.669166395084545  |grad|_K:  3.490e-07  alpha:  8.242e-01  linmin:  9.522e-06  t[s]:    480.81
ElecMinimize: Iter:  20  Etot: -177.669166790013776  |grad|_K:  2.543e-07  alpha:  8.962e-01  linmin:  6.068e-06  t[s]:    499.89
ElecMinimize: Iter:  21  Etot: -177.669166992570752  |grad|_K:  2.044e-07  alpha:  8.654e-01  linmin:  6.962e-05  t[s]:    518.73
ElecMinimize: Iter:  22  Etot: -177.669167126518914  |grad|_K:  1.484e-07  alpha:  8.861e-01  linmin: -1.392e-04  t[s]:    537.75
ElecMinimize: Iter:  23  Etot: -177.669167201172371  |grad|_K:  1.205e-07  alpha:  9.361e-01  linmin: -2.321e-04  t[s]:    556.75
ElecMinimize: Iter:  24  Etot: -177.669167242851302  |grad|_K:  1.006e-07  alpha:  7.923e-01  linmin: -1.508e-04  t[s]:    575.79
ElecMinimize: Iter:  25  Etot: -177.669167268448092  |grad|_K:  8.205e-08  alpha:  6.977e-01  linmin: -2.286e-04  t[s]:    594.77
ElecMinimize: Iter:  26  Etot: -177.669167286517052  |grad|_K:  5.925e-08  alpha:  7.405e-01  linmin: -7.081e-04  t[s]:    613.72
ElecMinimize: Iter:  27  Etot: -177.669167298010422  |grad|_K:  4.750e-08  alpha:  9.042e-01  linmin: -2.331e-04  t[s]:    632.68
ElecMinimize: Iter:  28  Etot: -177.669167305619538  |grad|_K:  3.605e-08  alpha:  9.313e-01  linmin:  1.941e-03  t[s]:    651.75
ElecMinimize: Iter:  29  Etot: -177.669167309994776  |grad|_K:  2.921e-08  alpha:  9.363e-01  linmin: -2.804e-03  t[s]:    670.72
ElecMinimize: Converged (|Delta Etot|<1.000000e-08 for 2 iters).
Setting wave functions to eigenvectors of Hamiltonian

Computing DFT-D3 correction:
# coordination-number S 2.769 2.835 2.628 3.396 2.447 2.001 3.134 2.953
# coordination-number Na 4.896 4.826
# diagonal-C6 S 125.81 125.81 125.81 125.81 125.81 125.90 125.81 125.81
# diagonal-C6 Na 186.11 186.11
EvdW_6 =   -0.002824
EvdW_8 =   -0.010324

# Ionic positions in cartesian coordinates:
ion S   5.224404249899997  10.946321496360000  20.502457449030000 1
ion S   4.405930061490001   8.273321088119999  23.990258410559999 1
ion S   4.517822864520001  10.323889787879999  27.113757222690001 1
ion S   8.657034544080000   8.813494739429999  28.671448433579997 1
ion S  10.060045685279999  10.482500495969999  31.757946332309999 1
ion S  11.945089154880002  13.725664570619998  31.194889940430002 1
ion S   6.530742473489992  14.219337635819999  21.830982992549998 1
ion S  10.409702427179997  14.199862078439999  22.327596477629999 1
ion Na   8.885518018920003  14.526203331600000  27.203814195570001 1
ion Na   9.820560202380001   9.211912184519999  23.309165703420000 1

# Forces in Cartesian coordinates:
force S  -0.000492849935502   0.000190491204886  -0.000271173304801 1
force S  -0.000361308736580  -0.000067568842301   0.000191556249118 1
force S  -0.000630743411968  -0.000383788035677   0.000418259784678 1
force S  -0.000072075573165  -0.000648548730180   0.000336229465175 1
force S   0.000036838685379  -0.000542252347320  -0.000122408284112 1
force S   0.000039451430966   0.000193525800806   0.000058336337382 1
force S  -0.000414472830794   0.000726664719726  -0.000757277439003 1
force S   0.000233790406899  -0.000033093912224   0.000035036793814 1
force Na   0.000112175636727   0.001487732784883   0.000012665327401 1
force Na   0.001525491913403  -0.000951126344889   0.000029918777147 1

# Energy components:
   Eewald =      302.9896596457160172
       EH =      448.4059522564797930
     Eloc =     -813.2300373668500697
      Enl =     -129.5742976804671400
     EvdW =       -0.0131487667051323
      Exc =      -47.9637170074830834
 Exc_core =       14.1418397609920614
       KE =       47.5745818483227652
-------------------------------------
     Etot =     -177.6691673099947764

IonicMinimize: Iter:   0  Etot: -177.669167309994776  |grad|_K:  5.454e-04  alpha:  1.000e+00

#--- Lowdin population analysis ---
# oxidation-state S -0.060 -0.015 -0.049 -0.148 +0.270 -0.415 +0.177 -0.522
# oxidation-state Na +0.731 +0.735


Computing DFT-D3 correction:
# coordination-number S 2.768 2.834 2.625 3.394 2.446 2.001 3.132 2.952
# coordination-number Na 4.891 4.821
# diagonal-C6 S 125.81 125.81 125.81 125.81 125.81 125.90 125.81 125.81
# diagonal-C6 Na 186.11 186.11
EvdW_6 =   -0.002825
EvdW_8 =   -0.010332

-------- Electronic minimization -----------
ElecMinimize: Iter:   0  Etot: -177.669175586185361  |grad|_K:  3.807e-07  alpha:  1.000e+00
ElecMinimize: Iter:   1  Etot: -177.669176018536035  |grad|_K:  1.469e-07  alpha:  8.242e-01  linmin:  2.657e-07  t[s]:    717.94
ElecMinimize: Iter:   2  Etot: -177.669176072996862  |grad|_K:  9.858e-08  alpha:  6.975e-01  linmin: -2.991e-04  t[s]:    736.77
ElecMinimize: Iter:   3  Etot: -177.669176092156818  |grad|_K:  6.964e-08  alpha:  5.444e-01  linmin:  1.100e-03  t[s]:    755.91
ElecMinimize: Iter:   4  Etot: -177.669176105643402  |grad|_K:  4.656e-08  alpha:  7.705e-01  linmin: -4.717e-04  t[s]:    774.99
ElecMinimize: Iter:   5  Etot: -177.669176112979756  |grad|_K:  3.749e-08  alpha:  9.277e-01  linmin: -1.864e-03  t[s]:    793.82
ElecMinimize: Iter:   6  Etot: -177.669176116378821  |grad|_K:  2.411e-08  alpha:  6.675e-01  linmin:  4.058e-04  t[s]:    812.78
ElecMinimize: Converged (|Delta Etot|<1.000000e-08 for 2 iters).
Setting wave functions to eigenvectors of Hamiltonian
IonicMinimize: 	Predicted alpha/alphaT>3.000000, increasing alphaT to 3.000000e+00.

Computing DFT-D3 correction:
# coordination-number S 2.765 2.832 2.620 3.390 2.445 2.001 3.127 2.952
# coordination-number Na 4.881 4.809
# diagonal-C6 S 125.81 125.81 125.81 125.81 125.81 125.90 125.81 125.81
# diagonal-C6 Na 186.11 186.11
EvdW_6 =   -0.002827
EvdW_8 =   -0.010348

-------- Electronic minimization -----------
ElecMinimize: Iter:   0  Etot: -177.669190498267085  |grad|_K:  7.596e-07  alpha:  1.000e+00
ElecMinimize: Iter:   1  Etot: -177.669192219562717  |grad|_K:  2.944e-07  alpha:  8.242e-01  linmin: -7.891e-06  t[s]:    848.78
ElecMinimize: Iter:   2  Etot: -177.669192433728767  |grad|_K:  1.984e-07  alpha:  6.828e-01  linmin: -7.191e-05  t[s]:    867.73
ElecMinimize: Iter:   3  Etot: -177.669192511186964  |grad|_K:  1.410e-07  alpha:  5.436e-01  linmin:  2.585e-04  t[s]:    886.86
ElecMinimize: Iter:   4  Etot: -177.669192570160419  |grad|_K:  9.700e-08  alpha:  8.197e-01  linmin:  2.801e-04  t[s]:    905.85
ElecMinimize: Iter:   5  Etot: -177.669192602563214  |grad|_K:  8.024e-08  alpha:  9.523e-01  linmin: -8.132e-05  t[s]:    925.07
ElecMinimize: Iter:   6  Etot: -177.669192617335824  |grad|_K:  5.022e-08  alpha:  6.325e-01  linmin:  3.900e-04  t[s]:    944.12
ElecMinimize: Iter:   7  Etot: -177.669192626801305  |grad|_K:  3.915e-08  alpha:  1.034e+00  linmin: -4.376e-03  t[s]:    963.25
ElecMinimize: Iter:   8  Etot: -177.669192631456440  |grad|_K:  2.647e-08  alpha:  8.315e-01  linmin:  9.262e-04  t[s]:    982.53
ElecMinimize: Converged (|Delta Etot|<1.000000e-08 for 2 iters).
Setting wave functions to eigenvectors of Hamiltonian
IonicMinimize: 	Predicted alpha/alphaT>3.000000, increasing alphaT to 9.000000e+00.

Computing DFT-D3 correction:
# coordination-number S 2.757 2.826 2.606 3.378 2.440 2.000 3.113 2.951
# coordination-number Na 4.849 4.774
# diagonal-C6 S 125.81 125.81 125.81 125.81 125.81 125.90 125.81 125.81
# diagonal-C6 Na 186.11 186.11
EvdW_6 =   -0.002831
EvdW_8 =   -0.010396

-------- Electronic minimization -----------
ElecMinimize: Iter:   0  Etot: -177.669214402073777  |grad|_K:  2.275e-06  alpha:  1.000e+00
ElecMinimize: Iter:   1  Etot: -177.669229867003253  |grad|_K:  8.745e-07  alpha:  8.255e-01  linmin: -3.048e-05  t[s]:   1018.41
ElecMinimize: Iter:   2  Etot: -177.669231792515177  |grad|_K:  5.894e-07  alpha:  6.956e-01  linmin: -3.207e-06  t[s]:   1037.53
ElecMinimize: Iter:   3  Etot: -177.669232467111726  |grad|_K:  4.084e-07  alpha:  5.365e-01  linmin:  8.221e-06  t[s]:   1056.70
ElecMinimize: Iter:   4  Etot: -177.669232940385683  |grad|_K:  2.751e-07  alpha:  7.839e-01  linmin: -6.857e-05  t[s]:   1075.80
ElecMinimize: Iter:   5  Etot: -177.669233196000420  |grad|_K:  2.258e-07  alpha:  9.329e-01  linmin: -2.863e-05  t[s]:   1094.93
ElecMinimize: Iter:   6  Etot: -177.669233313104797  |grad|_K:  1.418e-07  alpha:  6.347e-01  linmin:  1.496e-06  t[s]:   1114.07
ElecMinimize: Iter:   7  Etot: -177.669233388582882  |grad|_K:  1.109e-07  alpha:  1.039e+00  linmin:  5.493e-04  t[s]:   1133.40
ElecMinimize: Iter:   8  Etot: -177.669233424937659  |grad|_K:  7.277e-08  alpha:  8.168e-01  linmin:  1.745e-04  t[s]:   1152.57
ElecMinimize: Iter:   9  Etot: -177.669233448551836  |grad|_K:  5.402e-08  alpha:  1.231e+00  linmin: -9.321e-04  t[s]:   1171.84
ElecMinimize: Iter:  10  Etot: -177.669233460665907  |grad|_K:  4.547e-08  alpha:  1.146e+00  linmin:  2.971e-04  t[s]:   1191.14
ElecMinimize: Iter:  11  Etot: -177.669233466823698  |grad|_K:  3.660e-08  alpha:  8.236e-01  linmin: -1.814e-04  t[s]:   1210.23
ElecMinimize: Iter:  12  Etot: -177.669233470906534  |grad|_K:  3.189e-08  alpha:  8.424e-01  linmin: -1.480e-03  t[s]:   1229.24
ElecMinimize: Converged (|Delta Etot|<1.000000e-08 for 2 iters).
Setting wave functions to eigenvectors of Hamiltonian

Computing DFT-D3 correction:
# coordination-number S 2.733 2.808 2.568 3.344 2.428 1.999 3.074 2.947
# coordination-number Na 4.763 4.678
# diagonal-C6 S 125.81 125.81 125.81 125.81 125.81 125.90 125.81 125.81
# diagonal-C6 Na 186.11 186.11
EvdW_6 =   -0.002844
EvdW_8 =   -0.010528

-------- Electronic minimization -----------
ElecMinimize: Iter:   0  Etot: -177.637358512305923  |grad|_K:  1.441e-04  alpha:  1.000e+00
ElecMinimize: Iter:   1  Etot: -177.667619084604496  |grad|_K:  2.573e-05  alpha:  4.037e-01  linmin: -2.953e-04  t[s]:   1264.79
ElecMinimize: Iter:   2  Etot: -177.668947588961316  |grad|_K:  1.200e-05  alpha:  5.544e-01  linmin:  6.417e-04  t[s]:   1283.80
ElecMinimize: Iter:   3  Etot: -177.669159919045910  |grad|_K:  5.368e-06  alpha:  4.077e-01  linmin: -7.517e-05  t[s]:   1302.76
ElecMinimize: Iter:   4  Etot: -177.669234195846002  |grad|_K:  3.350e-06  alpha:  7.124e-01  linmin:  2.168e-04  t[s]:   1321.82
ElecMinimize: Iter:   5  Etot: -177.669256114189494  |grad|_K:  2.114e-06  alpha:  5.398e-01  linmin: -1.103e-05  t[s]:   1340.78
ElecMinimize: Iter:   6  Etot: -177.669270679841503  |grad|_K:  1.198e-06  alpha:  9.005e-01  linmin:  2.264e-05  t[s]:   1359.88
ElecMinimize: Iter:   7  Etot: -177.669275984235810  |grad|_K:  7.637e-07  alpha:  1.022e+00  linmin: -1.830e-06  t[s]:   1378.94
ElecMinimize: Iter:   8  Etot: -177.669277596631247  |grad|_K:  4.885e-07  alpha:  7.638e-01  linmin:  1.952e-06  t[s]:   1397.96
ElecMinimize: Iter:   9  Etot: -177.669278267291361  |grad|_K:  3.557e-07  alpha:  7.765e-01  linmin:  6.412e-06  t[s]:   1416.97
ElecMinimize: Iter:  10  Etot: -177.669278557375208  |grad|_K:  2.912e-07  alpha:  6.335e-01  linmin:  1.211e-05  t[s]:   1435.93
ElecMinimize: Iter:  11  Etot: -177.669278801887174  |grad|_K:  2.265e-07  alpha:  7.968e-01  linmin: -1.210e-04  t[s]:   1454.94
ElecMinimize: Iter:  12  Etot: -177.669278980128865  |grad|_K:  1.717e-07  alpha:  9.600e-01  linmin:  1.209e-04  t[s]:   1473.75
ElecMinimize: Iter:  13  Etot: -177.669279067629247  |grad|_K:  1.174e-07  alpha:  8.199e-01  linmin: -3.643e-05  t[s]:   1492.78
ElecMinimize: Iter:  14  Etot: -177.669279116493215  |grad|_K:  8.958e-08  alpha:  9.803e-01  linmin:  1.540e-04  t[s]:   1511.83
ElecMinimize: Iter:  15  Etot: -177.669279140972833  |grad|_K:  7.071e-08  alpha:  8.426e-01  linmin:  4.578e-05  t[s]:   1530.73
ElecMinimize: Iter:  16  Etot: -177.669279157185429  |grad|_K:  5.770e-08  alpha:  8.958e-01  linmin:  1.289e-04  t[s]:   1549.92
ElecMinimize: Iter:  17  Etot: -177.669279165923513  |grad|_K:  5.146e-08  alpha:  7.260e-01  linmin: -4.735e-04  t[s]:   1569.04
ElecMinimize: Iter:  18  Etot: -177.669279173799993  |grad|_K:  4.190e-08  alpha:  8.197e-01  linmin:  8.108e-04  t[s]:   1588.08
ElecMinimize: Converged (|Delta Etot|<1.000000e-08 for 2 iters).
Setting wave functions to eigenvectors of Hamiltonian

Computing DFT-D3 correction:
# coordination-number S 2.733 2.808 2.568 3.344 2.428 1.999 3.074 2.947
# coordination-number Na 4.763 4.678
# diagonal-C6 S 125.81 125.81 125.81 125.81 125.81 125.90 125.81 125.81
# diagonal-C6 Na 186.11 186.11
EvdW_6 =   -0.002844
EvdW_8 =   -0.010528

# Ionic positions in cartesian coordinates:
ion S   5.211885247936216  10.951254967738826  20.495711771342307 1
ion S   4.396768516619020   8.271667835773531  23.995323440358497 1
ion S   4.501784269954031  10.314165357968033  27.124608632722701 1
ion S   8.655255385441905   8.797012558494474  28.680206102029867 1
ion S  10.061046453789071  10.468731423532017  31.754997732480522 1
ion S  11.946156611098150  13.730675497014293  31.196554665675801 1
ion S   6.520223968467633  14.237956398082014  21.811829994672209 1
ion S  10.415730190727711  14.199088764086026  22.328666505408776 1
ion Na   8.888441687506972  14.564247592446490  27.204313214119725 1
ion Na   9.859557350579269   9.187707013624287  23.310105098959582 1

# Forces in Cartesian coordinates:
force S   0.000184721778100   0.001277743856724   0.001026772131856 1
force S   0.000026019048211   0.000792614817064  -0.000287761339660 1
force S   0.000066426822188  -0.000653863030426   0.000139866035845 1
force S  -0.000614480566597  -0.000280090088047  -0.000608364322208 1
force S   0.001478569664509   0.001751921768716   0.000407140735685 1
force S  -0.001372608054601  -0.002074745027427   0.000036867793415 1
force S   0.001717434400921  -0.001582775947979  -0.000630992835969 1
force S  -0.002417939882670  -0.000210280311129  -0.000225060865132 1
force Na   0.000150602666835   0.001155504644253  -0.000073043393027 1
force Na   0.000786802203757  -0.000186304273986   0.000151373618491 1

# Energy components:
   Eewald =      301.8811815486695878
       EH =      447.3212580927247473
     Eloc =     -811.0191496752283911
      Enl =     -129.5744549661229712
     EvdW =       -0.0133719976316017
      Exc =      -47.9514387459885185
 Exc_core =       14.1418396422965138
       KE =       47.5448569274806516
-------------------------------------
     Etot =     -177.6692791737999926

IonicMinimize: Iter:   1  Etot: -177.669279173799993  |grad|_K:  1.003e-03  alpha:  2.552e+01  linmin:  1.145e-02  t[s]:   1599.88

#--- Lowdin population analysis ---
# oxidation-state S -0.060 -0.015 -0.050 -0.145 +0.269 -0.419 +0.174 -0.526
# oxidation-state Na +0.732 +0.735


Computing DFT-D3 correction:
# coordination-number S 2.660 2.754 2.452 3.241 2.390 1.998 2.978 2.943
# coordination-number Na 4.471 4.382
# diagonal-C6 S 125.81 125.81 125.81 125.81 125.81 125.90 125.81 125.81
# diagonal-C6 Na 186.11 186.11
EvdW_6 =   -0.002886
EvdW_8 =   -0.010918

-------- Electronic minimization -----------
ElecMinimize: Iter:   0  Etot: -177.287234852031361  |grad|_K:  5.078e-04  alpha:  1.000e+00
ElecMinimize: Iter:   1  Etot: -177.644707781047401  |grad|_K:  1.127e-04  alpha:  3.954e-01  linmin: -1.042e-02  t[s]:   1635.21
ElecMinimize: Iter:   2  Etot: -177.662499642481464  |grad|_K:  5.366e-05  alpha:  3.861e-01  linmin:  2.835e-03  t[s]:   1654.20
ElecMinimize: Iter:   3  Etot: -177.667658117356893  |grad|_K:  1.946e-05  alpha:  4.959e-01  linmin: -1.959e-03  t[s]:   1673.24
ElecMinimize: Iter:   4  Etot: -177.668624635257430  |grad|_K:  1.285e-05  alpha:  7.042e-01  linmin:  1.097e-04  t[s]:   1692.26
ElecMinimize: Iter:   5  Etot: -177.668958345422027  |grad|_K:  7.383e-06  alpha:  5.585e-01  linmin:  3.536e-05  t[s]:   1711.23
ElecMinimize: Iter:   6  Etot: -177.669122915645403  |grad|_K:  5.559e-06  alpha:  8.343e-01  linmin: -1.414e-04  t[s]:   1730.19
ElecMinimize: Iter:   7  Etot: -177.669180543520270  |grad|_K:  3.694e-06  alpha:  5.151e-01  linmin: -1.885e-05  t[s]:   1748.89
ElecMinimize: Iter:   8  Etot: -177.669216496939356  |grad|_K:  2.218e-06  alpha:  7.278e-01  linmin: -7.803e-05  t[s]:   1767.81
ElecMinimize: Iter:   9  Etot: -177.669229853624302  |grad|_K:  1.388e-06  alpha:  7.501e-01  linmin: -8.699e-06  t[s]:   1786.75
ElecMinimize: Iter:  10  Etot: -177.669235486303194  |grad|_K:  1.105e-06  alpha:  8.073e-01  linmin:  2.451e-05  t[s]:   1805.87
ElecMinimize: Iter:  11  Etot: -177.669238070061368  |grad|_K:  8.709e-07  alpha:  5.852e-01  linmin: -1.094e-06  t[s]:   1824.93
ElecMinimize: Iter:  12  Etot: -177.669240398957896  |grad|_K:  6.763e-07  alpha:  8.484e-01  linmin:  4.034e-07  t[s]:   1843.98
ElecMinimize: Iter:  13  Etot: -177.669241909872824  |grad|_K:  5.002e-07  alpha:  9.129e-01  linmin:  1.331e-05  t[s]:   1862.98
ElecMinimize: Iter:  14  Etot: -177.669242633063334  |grad|_K:  3.750e-07  alpha:  7.987e-01  linmin: -1.087e-05  t[s]:   1881.85
ElecMinimize: Iter:  15  Etot: -177.669242965146736  |grad|_K:  3.112e-07  alpha:  6.526e-01  linmin: -1.965e-06  t[s]:   1900.93
ElecMinimize: Iter:  16  Etot: -177.669243193331909  |grad|_K:  2.005e-07  alpha:  6.509e-01  linmin: -7.735e-05  t[s]:   1919.94
ElecMinimize: Iter:  17  Etot: -177.669243326096733  |grad|_K:  1.608e-07  alpha:  9.122e-01  linmin:  1.540e-04  t[s]:   1938.96
ElecMinimize: Iter:  18  Etot: -177.669243401388826  |grad|_K:  1.245e-07  alpha:  8.048e-01  linmin: -7.213e-07  t[s]:   1957.98
ElecMinimize: Iter:  19  Etot: -177.669243450763560  |grad|_K:  1.142e-07  alpha:  8.796e-01  linmin: -2.622e-04  t[s]:   1976.95
ElecMinimize: Iter:  20  Etot: -177.669243477109774  |grad|_K:  7.509e-08  alpha:  5.584e-01  linmin:  2.265e-04  t[s]:   1995.84
ElecMinimize: Iter:  21  Etot: -177.669243493635292  |grad|_K:  5.381e-08  alpha:  8.112e-01  linmin:  1.760e-03  t[s]:   2014.71
ElecMinimize: Iter:  22  Etot: -177.669243501424489  |grad|_K:  3.745e-08  alpha:  7.447e-01  linmin: -4.721e-04  t[s]:   2033.78
ElecMinimize: Iter:  23  Etot: -177.669243505450396  |grad|_K:  2.902e-08  alpha:  7.958e-01  linmin:  3.873e-03  t[s]:   2052.88
ElecMinimize: Converged (|Delta Etot|<1.000000e-08 for 2 iters).
Setting wave functions to eigenvectors of Hamiltonian

Computing DFT-D3 correction:
# coordination-number S 2.700 2.784 2.513 3.297 2.410 1.999 3.029 2.945
# coordination-number Na 4.629 4.542
# diagonal-C6 S 125.81 125.81 125.81 125.81 125.81 125.90 125.81 125.81
# diagonal-C6 Na 186.11 186.11
EvdW_6 =   -0.002863
EvdW_8 =   -0.010710

-------- Electronic minimization -----------
ElecMinimize: Iter:   0  Etot: -177.668989499409918  |grad|_K:  1.006e-05  alpha:  1.000e+00
ElecMinimize: Iter:   1  Etot: -177.669295341802012  |grad|_K:  4.162e-06  alpha:  8.342e-01  linmin:  2.785e-05  t[s]:   2088.72
ElecMinimize: Iter:   2  Etot: -177.669340089823152  |grad|_K:  2.789e-06  alpha:  7.137e-01  linmin: -5.474e-06  t[s]:   2107.91
ElecMinimize: Iter:   3  Etot: -177.669355863966246  |grad|_K:  2.060e-06  alpha:  5.604e-01  linmin:  7.156e-06  t[s]:   2127.07
ElecMinimize: Iter:   4  Etot: -177.669367549014282  |grad|_K:  1.289e-06  alpha:  7.610e-01  linmin: -1.840e-05  t[s]:   2146.09
ElecMinimize: Iter:   5  Etot: -177.669372941977741  |grad|_K:  1.057e-06  alpha:  8.962e-01  linmin:  1.241e-05  t[s]:   2165.12
ElecMinimize: Iter:   6  Etot: -177.669375453042448  |grad|_K:  6.332e-07  alpha:  6.211e-01  linmin: -3.591e-06  t[s]:   2184.12
ElecMinimize: Iter:   7  Etot: -177.669376977806166  |grad|_K:  4.865e-07  alpha:  1.051e+00  linmin: -1.092e-07  t[s]:   2203.04
ElecMinimize: Iter:   8  Etot: -177.669377677819028  |grad|_K:  3.213e-07  alpha:  8.174e-01  linmin: -6.781e-07  t[s]:   2222.15
ElecMinimize: Iter:   9  Etot: -177.669378133439238  |grad|_K:  2.340e-07  alpha:  1.220e+00  linmin: -8.248e-05  t[s]:   2241.16
ElecMinimize: Iter:  10  Etot: -177.669378360796713  |grad|_K:  1.913e-07  alpha:  1.148e+00  linmin:  3.902e-05  t[s]:   2260.20
ElecMinimize: Iter:  11  Etot: -177.669378467565764  |grad|_K:  1.533e-07  alpha:  8.064e-01  linmin:  5.179e-06  t[s]:   2279.24
ElecMinimize: Iter:  12  Etot: -177.669378531923400  |grad|_K:  1.249e-07  alpha:  7.569e-01  linmin:  8.711e-05  t[s]:   2298.21
ElecMinimize: Iter:  13  Etot: -177.669378569191622  |grad|_K:  9.576e-08  alpha:  6.612e-01  linmin: -5.623e-05  t[s]:   2317.31
ElecMinimize: Iter:  14  Etot: -177.669378595585471  |grad|_K:  6.247e-08  alpha:  7.958e-01  linmin:  8.226e-04  t[s]:   2336.28
ElecMinimize: Iter:  15  Etot: -177.669378608523800  |grad|_K:  4.994e-08  alpha:  9.165e-01  linmin:  2.875e-04  t[s]:   2355.47
ElecMinimize: Iter:  16  Etot: -177.669378616702801  |grad|_K:  3.694e-08  alpha:  9.076e-01  linmin:  5.116e-04  t[s]:   2374.55
ElecMinimize: Iter:  17  Etot: -177.669378620876017  |grad|_K:  2.692e-08  alpha:  8.463e-01  linmin: -7.874e-04  t[s]:   2393.60
ElecMinimize: Converged (|Delta Etot|<1.000000e-08 for 2 iters).
Setting wave functions to eigenvectors of Hamiltonian

Computing DFT-D3 correction:
# coordination-number S 2.700 2.784 2.513 3.297 2.410 1.999 3.029 2.945
# coordination-number Na 4.629 4.542
# diagonal-C6 S 125.81 125.81 125.81 125.81 125.81 125.90 125.81 125.81
# diagonal-C6 Na 186.11 186.11
EvdW_6 =   -0.002863
EvdW_8 =   -0.010710

# Ionic positions in cartesian coordinates:
ion S   5.201958386675938  10.964273362812088  20.496655883559509 1
ion S   4.388767305232808   8.275541184941398  23.997945271023532 1
ion S   4.487920495388456  10.301091096763376  27.135274049805314 1
ion S   8.649523650834663   8.780428631720349  28.683961580644798 1
ion S  10.071899231302920  10.468261077389117  31.755153574369331 1
ion S  11.937855424932359  13.721171308924497  31.198330764436854 1
ion S   6.522410316209989  14.243906726501910  21.790534503629747 1
ion S  10.404809724430169  14.196988798415255  22.328147008724336 1
ion Na   8.892060966097947  14.605979639236162  27.204308744903379 1
ion Na   9.899644181014731   9.164865582055842  23.312005776673203 1

# Forces in Cartesian coordinates:
force S  -0.000018949963187  -0.000334831472901   0.000549195675214 1
force S   0.000233350595380   0.000737732881325  -0.000925642082266 1
force S   0.000639130448843  -0.000376394600853   0.000482217498796 1
force S  -0.000156636911504   0.000958429823777   0.000173128334102 1
force S  -0.000681166124714  -0.001614970981243  -0.000030554301755 1
force S   0.000116789572216   0.000456280769600  -0.000692494153500 1
force S   0.000547652514212  -0.000363684585260   0.000267585221317 1
force S  -0.000767955189255  -0.000518127738160  -0.000170276776364 1
force Na   0.000012452771775   0.000742187275339  -0.000109077561850 1
force Na   0.000082916815675   0.000300708336689   0.000386767048368 1

# Energy components:
   Eewald =      301.1170930588829719
       EH =      446.5729836900779333
     Eloc =     -809.5143502279889844
      Enl =     -129.5705486391809984
     EvdW =       -0.0135725099539775
      Exc =      -47.9525706575873727
 Exc_core =       14.1418400476419599
       KE =       47.5497466172324366
-------------------------------------
     Etot =     -177.6693786208760173

IonicMinimize: Iter:   2  Etot: -177.669378620876017  |grad|_K:  5.657e-04  alpha:  6.739e+00  linmin:  1.252e-03  t[s]:   2405.39

#--- Lowdin population analysis ---
# oxidation-state S -0.060 -0.016 -0.049 -0.149 +0.269 -0.416 +0.178 -0.527
# oxidation-state Na +0.733 +0.736


Computing DFT-D3 correction:
# coordination-number S 2.695 2.781 2.501 3.287 2.399 1.999 3.021 2.947
# coordination-number Na 4.581 4.506
# diagonal-C6 S 125.81 125.81 125.81 125.81 125.81 125.90 125.81 125.81
# diagonal-C6 Na 186.11 186.11
EvdW_6 =   -0.002868
EvdW_8 =   -0.010767

-------- Electronic minimization -----------
ElecMinimize: Iter:   0  Etot: -177.669332696320907  |grad|_K:  4.320e-06  alpha:  1.000e+00
ElecMinimize: Iter:   1  Etot: -177.669394998612688  |grad|_K:  1.786e-06  alpha:  9.225e-01  linmin:  8.993e-06  t[s]:   2440.82
ElecMinimize: Iter:   2  Etot: -177.669404752344661  |grad|_K:  1.160e-06  alpha:  8.448e-01  linmin: -1.691e-06  t[s]:   2459.65
ElecMinimize: Iter:   3  Etot: -177.669408272816781  |grad|_K:  9.664e-07  alpha:  7.232e-01  linmin: -4.362e-06  t[s]:   2478.59
ElecMinimize: Iter:   4  Etot: -177.669410215744961  |grad|_K:  5.934e-07  alpha:  5.748e-01  linmin:  3.707e-06  t[s]:   2497.58
ElecMinimize: Iter:   5  Etot: -177.669411413059919  |grad|_K:  4.564e-07  alpha:  9.396e-01  linmin:  6.285e-06  t[s]:   2516.43
ElecMinimize: Iter:   6  Etot: -177.669411844588154  |grad|_K:  2.931e-07  alpha:  5.723e-01  linmin: -3.330e-06  t[s]:   2535.45
ElecMinimize: Iter:   7  Etot: -177.669412168129952  |grad|_K:  1.978e-07  alpha:  1.041e+00  linmin:  1.149e-04  t[s]:   2554.46
ElecMinimize: Iter:   8  Etot: -177.669412291477727  |grad|_K:  1.478e-07  alpha:  8.713e-01  linmin:  1.814e-05  t[s]:   2573.47
ElecMinimize: Iter:   9  Etot: -177.669412374717922  |grad|_K:  9.907e-08  alpha:  1.052e+00  linmin: -6.541e-05  t[s]:   2592.54
ElecMinimize: Iter:  10  Etot: -177.669412414430155  |grad|_K:  7.731e-08  alpha:  1.118e+00  linmin: -2.737e-04  t[s]:   2611.50
ElecMinimize: Iter:  11  Etot: -177.669412433064821  |grad|_K:  6.028e-08  alpha:  8.610e-01  linmin:  4.637e-04  t[s]:   2630.49
ElecMinimize: Iter:  12  Etot: -177.669412444422676  |grad|_K:  4.829e-08  alpha:  8.646e-01  linmin:  5.692e-04  t[s]:   2649.36
ElecMinimize: Iter:  13  Etot: -177.669412450176765  |grad|_K:  3.865e-08  alpha:  6.851e-01  linmin: -2.155e-04  t[s]:   2668.35
ElecMinimize: Iter:  14  Etot: -177.669412453673715  |grad|_K:  2.560e-08  alpha:  6.426e-01  linmin:  1.472e-03  t[s]:   2687.41
ElecMinimize: Converged (|Delta Etot|<1.000000e-08 for 2 iters).
Setting wave functions to eigenvectors of Hamiltonian

Computing DFT-D3 correction:
# coordination-number S 2.695 2.781 2.500 3.287 2.398 1.999 3.021 2.947
# coordination-number Na 4.579 4.504
# diagonal-C6 S 125.81 125.81 125.81 125.81 125.81 125.90 125.81 125.81
# diagonal-C6 Na 186.11 186.11
EvdW_6 =   -0.002868
EvdW_8 =   -0.010770

-------- Electronic minimization -----------
ElecMinimize: Iter:   0  Etot: -177.669412336008577  |grad|_K:  2.171e-07  alpha:  1.000e+00
ElecMinimize: Iter:   1  Etot: -177.669412492082159  |grad|_K:  9.515e-08  alpha:  9.151e-01  linmin:  1.274e-04  t[s]:   2723.35
ElecMinimize: Iter:   2  Etot: -177.669412515733939  |grad|_K:  6.982e-08  alpha:  7.210e-01  linmin: -1.623e-04  t[s]:   2742.41
ElecMinimize: Iter:   3  Etot: -177.669412525987639  |grad|_K:  5.042e-08  alpha:  5.805e-01  linmin:  2.253e-04  t[s]:   2761.63
ElecMinimize: Iter:   4  Etot: -177.669412532864783  |grad|_K:  3.296e-08  alpha:  7.413e-01  linmin: -6.175e-03  t[s]:   2780.67
ElecMinimize: Iter:   5  Etot: -177.669412536264360  |grad|_K:  2.725e-08  alpha:  8.631e-01  linmin:  1.207e-03  t[s]:   2799.82
ElecMinimize: Converged (|Delta Etot|<1.000000e-08 for 2 iters).
Setting wave functions to eigenvectors of Hamiltonian

Computing DFT-D3 correction:
# coordination-number S 2.695 2.781 2.500 3.287 2.398 1.999 3.021 2.947
# coordination-number Na 4.579 4.504
# diagonal-C6 S 125.81 125.81 125.81 125.81 125.81 125.90 125.81 125.81
# diagonal-C6 Na 186.11 186.11
EvdW_6 =   -0.002868
EvdW_8 =   -0.010770

# Ionic positions in cartesian coordinates:
ion S   5.198501110268016  10.966264598938533  20.500905782858748 1
ion S   4.387738602309577   8.282064016400087  23.992321790884063 1
ion S   4.487803148911834  10.294067363458757  27.142299235883637 1
ion S   8.646494405121819   8.781675427582334  28.686490534152252 1
ion S  10.070702091474399  10.456687307804563  31.755038419653182 1
[...]
ElecMinimize: Iter:  13  Etot: -177.670743144242095  |grad|_K:  4.066e-07  alpha:  7.771e-01  linmin: -2.142e-05  t[s]:  21781.42
ElecMinimize: Iter:  14  Etot: -177.670743637079227  |grad|_K:  2.791e-07  alpha:  8.235e-01  linmin:  9.267e-06  t[s]:  21800.25
ElecMinimize: Iter:  15  Etot: -177.670743883195996  |grad|_K:  2.011e-07  alpha:  8.731e-01  linmin:  3.091e-05  t[s]:  21819.21
ElecMinimize: Iter:  16  Etot: -177.670743977109680  |grad|_K:  1.640e-07  alpha:  6.415e-01  linmin: -2.840e-05  t[s]:  21838.08
ElecMinimize: Iter:  17  Etot: -177.670744045294100  |grad|_K:  1.198e-07  alpha:  7.009e-01  linmin: -1.253e-04  t[s]:  21856.91
ElecMinimize: Iter:  18  Etot: -177.670744086338658  |grad|_K:  9.661e-08  alpha:  7.893e-01  linmin:  2.337e-04  t[s]:  21875.84
ElecMinimize: Iter:  19  Etot: -177.670744119871614  |grad|_K:  7.265e-08  alpha:  9.922e-01  linmin: -9.838e-04  t[s]:  21894.78
ElecMinimize: Iter:  20  Etot: -177.670744136709942  |grad|_K:  6.413e-08  alpha:  8.801e-01  linmin: -6.125e-05  t[s]:  21913.80
ElecMinimize: Iter:  21  Etot: -177.670744146777082  |grad|_K:  4.779e-08  alpha:  6.756e-01  linmin: -1.963e-04  t[s]:  21932.61
ElecMinimize: Iter:  22  Etot: -177.670744152384998  |grad|_K:  3.721e-08  alpha:  6.798e-01  linmin:  1.611e-03  t[s]:  21951.49
ElecMinimize: Iter:  23  Etot: -177.670744156358523  |grad|_K:  2.883e-08  alpha:  7.961e-01  linmin:  2.605e-03  t[s]:  21970.34
ElecMinimize: Converged (|Delta Etot|<1.000000e-08 for 2 iters).
Setting wave functions to eigenvectors of Hamiltonian
IonicMinimize: 	Predicted alpha/alphaT>3.000000, increasing alphaT to 3.099080e+01.

Computing DFT-D3 correction:
# coordination-number S 2.285 2.505 2.386 3.031 2.379 2.096 3.006 2.932
# coordination-number Na 4.096 3.960
# diagonal-C6 S 125.82 125.81 125.82 125.81 125.82 125.85 125.81 125.81
# diagonal-C6 Na 186.11 186.11
EvdW_6 =   -0.002897
EvdW_8 =   -0.012910

-------- Electronic minimization -----------
ElecMinimize: Iter:   0  Etot: -176.885614154934188  |grad|_K:  7.292e-04  alpha:  1.000e+00
ElecMinimize: Iter:   1  Etot: -177.584327899088436  |grad|_K:  2.063e-04  alpha:  3.972e-01  linmin: -5.315e-02  t[s]:  22005.33
ElecMinimize: Iter:   2  Etot: -177.643744237593751  |grad|_K:  9.757e-05  alpha:  3.776e-01  linmin:  6.417e-03  t[s]:  22024.15
ElecMinimize: Iter:   3  Etot: -177.663811278822863  |grad|_K:  4.135e-05  alpha:  5.846e-01  linmin: -2.683e-03  t[s]:  22042.90
ElecMinimize: Iter:   4  Etot: -177.668029982962253  |grad|_K:  2.931e-05  alpha:  6.804e-01  linmin: -1.461e-04  t[s]:  22061.83
ElecMinimize: Iter:   5  Etot: -177.669751360528579  |grad|_K:  1.704e-05  alpha:  5.533e-01  linmin:  1.731e-04  t[s]:  22080.79
ElecMinimize: Iter:   6  Etot: -177.670473208375427  |grad|_K:  1.318e-05  alpha:  6.873e-01  linmin: -3.256e-04  t[s]:  22099.61
ElecMinimize: Iter:   7  Etot: -177.670816710518125  |grad|_K:  7.790e-06  alpha:  5.464e-01  linmin:  6.820e-05  t[s]:  22118.45
ElecMinimize: Iter:   8  Etot: -177.670996247165704  |grad|_K:  4.908e-06  alpha:  8.174e-01  linmin: -1.474e-05  t[s]:  22137.43
ElecMinimize: Iter:   9  Etot: -177.671052575209899  |grad|_K:  3.322e-06  alpha:  6.461e-01  linmin: -3.186e-05  t[s]:  22156.31
ElecMinimize: Iter:  10  Etot: -177.671074329318174  |grad|_K:  2.398e-06  alpha:  5.445e-01  linmin:  3.066e-05  t[s]:  22175.04
ElecMinimize: Iter:  11  Etot: -177.671089695770178  |grad|_K:  1.581e-06  alpha:  7.384e-01  linmin: -4.780e-05  t[s]:  22193.77
ElecMinimize: Iter:  12  Etot: -177.671098310045323  |grad|_K:  1.306e-06  alpha:  9.518e-01  linmin: -1.173e-05  t[s]:  22212.64
ElecMinimize: Iter:  13  Etot: -177.671102663742630  |grad|_K:  1.086e-06  alpha:  7.052e-01  linmin:  3.814e-06  t[s]:  22231.49
ElecMinimize: Iter:  14  Etot: -177.671105150036880  |grad|_K:  7.348e-07  alpha:  5.823e-01  linmin: -4.147e-06  t[s]:  22250.36
ElecMinimize: Iter:  15  Etot: -177.671106645459474  |grad|_K:  4.986e-07  alpha:  7.652e-01  linmin:  2.695e-06  t[s]:  22269.07
ElecMinimize: Iter:  16  Etot: -177.671107399497259  |grad|_K:  3.695e-07  alpha:  8.382e-01  linmin: -1.025e-05  t[s]:  22287.85
ElecMinimize: Iter:  17  Etot: -177.671107717795394  |grad|_K:  3.131e-07  alpha:  6.442e-01  linmin: -6.493e-06  t[s]:  22306.64
ElecMinimize: Iter:  18  Etot: -177.671107961106998  |grad|_K:  2.307e-07  alpha:  6.860e-01  linmin:  4.677e-05  t[s]:  22325.55
ElecMinimize: Iter:  19  Etot: -177.671108127479215  |grad|_K:  1.907e-07  alpha:  8.640e-01  linmin: -9.475e-06  t[s]:  22344.34
ElecMinimize: Iter:  20  Etot: -177.671108245249513  |grad|_K:  1.556e-07  alpha:  8.950e-01  linmin: -1.079e-04  t[s]:  22363.24
ElecMinimize: Iter:  21  Etot: -177.671108303168751  |grad|_K:  1.310e-07  alpha:  6.603e-01  linmin:  1.073e-04  t[s]:  22382.04
ElecMinimize: Iter:  22  Etot: -177.671108345746603  |grad|_K:  9.502e-08  alpha:  6.857e-01  linmin:  5.590e-06  t[s]:  22400.83
ElecMinimize: Iter:  23  Etot: -177.671108370557363  |grad|_K:  7.110e-08  alpha:  7.596e-01  linmin: -3.896e-04  t[s]:  22419.63
ElecMinimize: Iter:  24  Etot: -177.671108387296499  |grad|_K:  6.264e-08  alpha:  9.150e-01  linmin:  7.646e-04  t[s]:  22438.55
ElecMinimize: Iter:  25  Etot: -177.671108397157070  |grad|_K:  5.247e-08  alpha:  6.957e-01  linmin:  4.183e-05  t[s]:  22457.29
ElecMinimize: Iter:  26  Etot: -177.671108404455566  |grad|_K:  4.324e-08  alpha:  7.334e-01  linmin: -1.136e-04  t[s]:  22476.16
ElecMinimize: Converged (|Delta Etot|<1.000000e-08 for 2 iters).
Setting wave functions to eigenvectors of Hamiltonian
IonicMinimize: 	Predicted alpha/alphaT>3.000000, increasing alphaT to 9.297240e+01.

Computing DFT-D3 correction:
# coordination-number S 2.159 2.313 2.277 2.974 2.446 2.431 2.909 2.879
# coordination-number Na 4.086 3.841
# diagonal-C6 S 125.84 125.82 125.82 125.81 125.81 125.81 125.81 125.81
# diagonal-C6 Na 186.11 186.11
EvdW_6 =   -0.002902
EvdW_8 =   -0.013267

-------- Electronic minimization -----------
ElecMinimize: Iter:   0  Etot: -168.910837505413298  |grad|_K:  2.994e-03  alpha:  1.000e+00
ElecMinimize: 	Step increased Etot by 6.546054e+00, reducing alpha to 4.720597e-02.
ElecMinimize: 	Step increased Etot by 1.771295e+01, reducing alpha to 4.720597e-03.
ElecMinimize: 	Step increased Etot by 1.855341e+01, reducing alpha to 4.720597e-04.
ElecMinimize: 	Step failed to reduce Etot after 3 attempts. Quitting step.
ElecMinimize: 	Undoing step.
ElecMinimize: 	Step failed along negative gradient direction.
ElecMinimize: Probably at roundoff error limit. (Stopping)
Setting wave functions to eigenvectors of Hamiltonian

Computing DFT-D3 correction:
# coordination-number S 2.375 2.615 2.452 3.043 2.353 2.044 3.053 2.950
# coordination-number Na 4.073 4.187
# diagonal-C6 S 125.82 125.81 125.81 125.81 125.82 125.87 125.81 125.81
# diagonal-C6 Na 186.11 186.11
EvdW_6 =   -0.002924
EvdW_8 =   -0.012358

-------- Electronic minimization -----------
ElecMinimize: Iter:   0  Etot: -163.680262137616523  |grad|_K:  3.269e-03  alpha:  1.000e+00
ElecMinimize: 	Step increased Etot by 3.565113e+00, reducing alpha to 5.117059e-02.
ElecMinimize: 	Step increased Etot by 5.618770e+00, reducing alpha to 5.117059e-03.
ElecMinimize: 	Step increased Etot by 6.202998e+00, reducing alpha to 5.117059e-04.
ElecMinimize: 	Step failed to reduce Etot after 3 attempts. Quitting step.
ElecMinimize: 	Undoing step.
ElecMinimize: 	Step failed along negative gradient direction.
ElecMinimize: Probably at roundoff error limit. (Stopping)
Setting wave functions to eigenvectors of Hamiltonian

Computing DFT-D3 correction:
# coordination-number S 2.375 2.615 2.452 3.043 2.353 2.044 3.053 2.950
# coordination-number Na 4.073 4.187
# diagonal-C6 S 125.82 125.81 125.81 125.81 125.82 125.87 125.81 125.81
# diagonal-C6 Na 186.11 186.11
EvdW_6 =   -0.002924
EvdW_8 =   -0.012358
IonicMinimize: 	Step increased Etot by 2.020013e+01, reducing alpha to 3.220201e-04.

Computing DFT-D3 correction:
# coordination-number S 2.375 2.615 2.452 3.043 2.353 2.044 3.053 2.950
# coordination-number Na 4.073 4.187
# diagonal-C6 S 125.82 125.81 125.81 125.81 125.82 125.87 125.81 125.81
# diagonal-C6 Na 186.11 186.11
EvdW_6 =   -0.002924
EvdW_8 =   -0.012358

-------- Electronic minimization -----------
ElecMinimize: Iter:   0  Etot: -157.470746868537447  |grad|_K:  5.085e-03  alpha:  1.000e+00
ElecMinimize: Iter:   1  Etot: -163.940679100914167  |grad|_K:  4.040e-03  alpha:  4.990e-01  linmin: -7.343e-03  t[s]:  22665.95
ElecMinimize: Iter:   2  Etot: -164.090143942977363  |grad|_K:  4.359e-03  alpha:  2.625e-01  linmin: -4.329e-01  t[s]:  22684.83
ElecMinimize: 	Step increased Etot by 1.392352e+01, reducing alpha to 1.361905e-02.
ElecMinimize: 	Step increased Etot by 1.275899e+01, reducing alpha to 1.361905e-03.
ElecMinimize: 	Step increased Etot by 1.215415e+01, reducing alpha to 1.361905e-04.
ElecMinimize: 	Step failed to reduce Etot after 3 attempts. Quitting step.
ElecMinimize: 	Undoing step.
ElecMinimize: 	Step failed: resetting search direction.
ElecMinimize: Iter:   3  Etot: -151.943060685103575  |grad|_K:  4.753e-03  alpha:  1.362e-04
ElecMinimize: Iter:   4  Etot: -176.552925753200498  |grad|_K:  8.126e-04  alpha:  3.077e-01  linmin:  2.052e-01  t[s]:  22758.49
ElecMinimize: Iter:   5  Etot: -177.458355420302269  |grad|_K:  3.450e-04  alpha:  4.092e-01  linmin:  8.173e-02  t[s]:  22777.37
ElecMinimize: Iter:   6  Etot: -177.637168740421487  |grad|_K:  9.512e-05  alpha:  4.420e-01  linmin: -1.631e-02  t[s]:  22796.18
ElecMinimize: Iter:   7  Etot: -177.655705403200614  |grad|_K:  5.961e-05  alpha:  5.620e-01  linmin: -3.028e-03  t[s]:  22815.00
ElecMinimize: Iter:   8  Etot: -177.662617824316726  |grad|_K:  4.249e-05  alpha:  5.356e-01  linmin:  1.637e-03  t[s]:  22833.90
ElecMinimize: Iter:   9  Etot: -177.667327695270018  |grad|_K:  2.750e-05  alpha:  7.227e-01  linmin: -5.002e-05  t[s]:  22852.77
ElecMinimize: Iter:  10  Etot: -177.669013782413970  |grad|_K:  1.908e-05  alpha:  6.158e-01  linmin:  2.037e-05  t[s]:  22871.65
ElecMinimize: Iter:  11  Etot: -177.669831393481502  |grad|_K:  1.167e-05  alpha:  6.204e-01  linmin:  1.301e-04  t[s]:  22890.50
ElecMinimize: Iter:  12  Etot: -177.670131582597293  |grad|_K:  9.184e-06  alpha:  6.095e-01  linmin: -1.595e-04  t[s]:  22909.41
ElecMinimize: Iter:  13  Etot: -177.670320322049520  |grad|_K:  5.726e-06  alpha:  6.182e-01  linmin:  9.468e-05  t[s]:  22928.20
ElecMinimize: Iter:  14  Etot: -177.670416854222935  |grad|_K:  4.212e-06  alpha:  8.135e-01  linmin: -1.963e-05  t[s]:  22947.10
ElecMinimize: Iter:  15  Etot: -177.670459456542005  |grad|_K:  3.764e-06  alpha:  6.634e-01  linmin: -1.046e-05  t[s]:  22965.84
ElecMinimize: Iter:  16  Etot: -177.670494088179851  |grad|_K:  2.760e-06  alpha:  6.753e-01  linmin:  5.787e-06  t[s]:  22984.75
ElecMinimize: Iter:  17  Etot: -177.670517322020117  |grad|_K:  2.032e-06  alpha:  8.427e-01  linmin: -4.199e-05  t[s]:  23003.61
ElecMinimize: Iter:  18  Etot: -177.670527683236230  |grad|_K:  1.638e-06  alpha:  6.932e-01  linmin:  2.093e-06  t[s]:  23022.43
ElecMinimize: Iter:  19  Etot: -177.670533520725485  |grad|_K:  1.255e-06  alpha:  6.010e-01  linmin: -5.576e-06  t[s]:  23041.21
ElecMinimize: Iter:  20  Etot: -177.670537805307788  |grad|_K:  8.698e-07  alpha:  7.519e-01  linmin: -1.723e-05  t[s]:  23060.10
ElecMinimize: Iter:  21  Etot: -177.670540163958719  |grad|_K:  7.479e-07  alpha:  8.615e-01  linmin:  3.848e-06  t[s]:  23078.97
ElecMinimize: Iter:  22  Etot: -177.670541424514397  |grad|_K:  6.254e-07  alpha:  6.226e-01  linmin:  4.023e-06  t[s]:  23097.73
ElecMinimize: Iter:  23  Etot: -177.670542444301304  |grad|_K:  4.476e-07  alpha:  7.203e-01  linmin:  9.400e-07  t[s]:  23116.61
ElecMinimize: Iter:  24  Etot: -177.670543013277666  |grad|_K:  3.368e-07  alpha:  7.848e-01  linmin:  1.060e-06  t[s]:  23135.45
ElecMinimize: Iter:  25  Etot: -177.670543296130631  |grad|_K:  2.695e-07  alpha:  6.891e-01  linmin: -1.703e-05  t[s]:  23154.27
ElecMinimize: Iter:  26  Etot: -177.670543449761368  |grad|_K:  1.938e-07  alpha:  5.844e-01  linmin: -2.915e-05  t[s]:  23173.07
ElecMinimize: Iter:  27  Etot: -177.670543555452070  |grad|_K:  1.457e-07  alpha:  7.778e-01  linmin:  1.414e-04  t[s]:  23191.82
ElecMinimize: Iter:  28  Etot: -177.670543618601727  |grad|_K:  1.230e-07  alpha:  8.220e-01  linmin:  3.788e-05  t[s]:  23210.69
ElecMinimize: Iter:  29  Etot: -177.670543653499749  |grad|_K:  1.006e-07  alpha:  6.376e-01  linmin: -1.066e-04  t[s]:  23229.59
ElecMinimize: Iter:  30  Etot: -177.670543679523490  |grad|_K:  7.575e-08  alpha:  7.095e-01  linmin: -7.392e-04  t[s]:  23248.32
ElecMinimize: Iter:  31  Etot: -177.670543695623621  |grad|_K:  5.955e-08  alpha:  7.729e-01  linmin: -3.034e-04  t[s]:  23267.05
ElecMinimize: Iter:  32  Etot: -177.670543705023903  |grad|_K:  4.781e-08  alpha:  7.316e-01  linmin:  5.142e-04  t[s]:  23285.92
ElecMinimize: Iter:  33  Etot: -177.670543710377785  |grad|_K:  3.786e-08  alpha:  6.486e-01  linmin:  1.734e-03  t[s]:  23304.77
ElecMinimize: Converged (|Delta Etot|<1.000000e-08 for 2 iters).
Setting wave functions to eigenvectors of Hamiltonian

Computing DFT-D3 correction:
# coordination-number S 2.375 2.615 2.452 3.043 2.353 2.044 3.053 2.950
# coordination-number Na 4.073 4.187
# diagonal-C6 S 125.82 125.81 125.81 125.81 125.82 125.87 125.81 125.81
# diagonal-C6 Na 186.11 186.11
EvdW_6 =   -0.002924
EvdW_8 =   -0.012358

# Ionic positions in cartesian coordinates:
ion S   5.259578474343363  11.009337955061474  20.541788752011666 1
ion S   4.440665408210964   8.223331145035928  23.834573737675775 1
ion S   4.483398139778457  10.048004468553339  27.116640909482616 1
ion S   8.252419350437332   8.445162214384887  28.917802853060163 1
ion S   9.858955548301385  10.600963926202173  31.599939055435630 1
ion S  12.248400982595005  13.280572156080069  30.300573243693108 1
ion S   6.547480421960623  14.263121456732431  21.914191173219034 1
ion S  10.418038483342121  14.294166380123594  22.416587434658499 1
ion Na   8.693298987466893  15.109567930909691  27.171147483484301 1
ion Na  10.254613885683872   9.448279775676417  24.089072515049221 1

# Forces in Cartesian coordinates:
force S  -0.000455649875223  -0.000433052249611  -0.001094879898769 1
force S   0.000535155903015   0.000262571067188   0.000796092473719 1
force S   0.000103428142581   0.000658614129944  -0.000437245753272 1
force S  -0.000124351924222  -0.001945871257613   0.000181144824891 1
force S  -0.000027811341480   0.000926340479806   0.000700615466840 1
force S  -0.000298154295150  -0.000606038805579  -0.001407784538936 1
force S  -0.001925885679673   0.000805716343391  -0.000407649761479 1
force S   0.001669123964292  -0.000091239544070   0.000379499174616 1
force Na  -0.000173506762107   0.000489351547068   0.000902752619772 1
force Na   0.000724776918255  -0.000036228626640   0.000380387317584 1

# Energy components:
   Eewald =      302.1456793819756967
       EH =      447.6288044662499033
     Eloc =     -811.6152519922070496
      Enl =     -129.5664605008536228
     EvdW =       -0.0152817681619697
      Exc =      -47.9677777319286847
 Exc_core =       14.1418399941317841
       KE =       47.5779044404161837
-------------------------------------
     Etot =     -177.6705437103777854

IonicMinimize: Iter:  28  Etot: -177.670543710377785  |grad|_K:  8.177e-04  alpha:  3.220e-04  linmin: -3.215e-01  t[s]:  23316.54

#--- Lowdin population analysis ---
# oxidation-state S -0.034 -0.010 -0.019 -0.101 +0.216 -0.457 +0.159 -0.527
# oxidation-state Na +0.751 +0.733


Computing DFT-D3 correction:
# coordination-number S 2.375 2.615 2.452 3.043 2.353 2.044 3.053 2.950
# coordination-number Na 4.073 4.187
# diagonal-C6 S 125.82 125.81 125.81 125.81 125.82 125.87 125.81 125.81
# diagonal-C6 Na 186.11 186.11
EvdW_6 =   -0.002924
EvdW_8 =   -0.012358

-------- Electronic minimization -----------
ElecMinimize: Iter:   0  Etot: -177.670543723270328  |grad|_K:  3.786e-08  alpha:  1.000e+00
ElecMinimize: Iter:   1  Etot: -177.670543725565096  |grad|_K:  2.538e-08  alpha:  4.400e-01  linmin:  2.680e-03  t[s]:  23351.81
ElecMinimize: Iter:   2  Etot: -177.670543727777471  |grad|_K:  2.272e-08  alpha:  9.308e-01  linmin: -1.439e-02  t[s]:  23370.64
ElecMinimize: Converged (|Delta Etot|<1.000000e-08 for 2 iters).
Setting wave functions to eigenvectors of Hamiltonian
IonicMinimize: 	Wrong curvature in test step, increasing alphaT to 9.660602e-04.

Computing DFT-D3 correction:
# coordination-number S 2.375 2.615 2.452 3.043 2.353 2.044 3.053 2.950
# coordination-number Na 4.073 4.187
# diagonal-C6 S 125.82 125.81 125.81 125.81 125.82 125.87 125.81 125.81
# diagonal-C6 Na 186.11 186.11
EvdW_6 =   -0.002924
EvdW_8 =   -0.012358

-------- Electronic minimization -----------
ElecMinimize: Iter:   0  Etot: -177.670543727777471  |grad|_K:  2.272e-08  alpha:  1.000e+00
ElecMinimize: Iter:   1  Etot: -177.670543728703706  |grad|_K:  1.569e-08  alpha:  4.946e-01  linmin:  3.630e-03  t[s]:  23402.61
ElecMinimize: Iter:   2  Etot: -177.670543729574888  |grad|_K:  1.888e-08  alpha:  9.913e-01  linmin:  6.585e-03  t[s]:  23421.30
ElecMinimize: Converged (|Delta Etot|<1.000000e-08 for 2 iters).
Setting wave functions to eigenvectors of Hamiltonian

Computing DFT-D3 correction:
# coordination-number S 2.375 2.615 2.452 3.043 2.353 2.044 3.053 2.950
# coordination-number Na 4.073 4.187
# diagonal-C6 S 125.82 125.81 125.81 125.81 125.82 125.87 125.81 125.81
# diagonal-C6 Na 186.11 186.11
EvdW_6 =   -0.002924
EvdW_8 =   -0.012358

# Ionic positions in cartesian coordinates:
ion S   5.259578539846611  11.009337399342046  20.541788460166813 1
ion S   4.440665771531194   8.223331115559633  23.834574063242549 1
ion S   4.483397055567569  10.048005060653200  27.116640466814601 1
ion S   8.252418141430406   8.445161655833438  28.917803410179911 1
ion S   9.858955893542124  10.600964212598058  31.599938959683563 1
ion S  12.248401658478159  13.280570466239501  30.300570488377094 1
ion S   6.547479824856053  14.263121552796402  21.914190976878125 1
ion S  10.418038991259161  14.294167102385805  22.416587683841357 1
ion Na   8.693297907683368  15.109568156239856  27.171148280068660 1
ion Na  10.254615897925373   9.448280687112065  24.089074368517345 1

# Forces in Cartesian coordinates:
force S  -0.000455386125195  -0.000433249699547  -0.001095315180494 1
force S   0.000534089998569   0.000261025875636   0.000796790251654 1
force S   0.000105855889811   0.000658607122975  -0.000436914649526 1
force S  -0.000125204948417  -0.001944756807996   0.000181445454570 1
force S  -0.000028267621190   0.000926719483613   0.000698519193957 1
force S  -0.000298398182612  -0.000605546411317  -0.001405889382643 1
force S  -0.001927119197049   0.000805223196602  -0.000408005923191 1
force S   0.001668474189151  -0.000092456495972   0.000379176107309 1
force Na  -0.000175113122953   0.000490030837638   0.000902075075291 1
force Na   0.000718366911690  -0.000050073038867   0.000365990422802 1

# Energy components:
   Eewald =      302.1456681136114071
       EH =      447.6287324927754412
     Eloc =     -811.6152484084725529
      Enl =     -129.5663822606965141
     EvdW =       -0.0152817750798355
      Exc =      -47.9677678697505243
 Exc_core =       14.1418399940926740
       KE =       47.5778959839450408
-------------------------------------
     Etot =     -177.6705437295748879

IonicMinimize: Iter:  29  Etot: -177.670543729574888  |grad|_K:  8.171e-04  alpha: -4.767e-04  linmin: -5.570e-01  t[s]:  23433.13
IonicMinimize: Converged (|Delta Etot|<1.000000e-06 for 2 iters).

#--- Lowdin population analysis ---
# oxidation-state S -0.034 -0.010 -0.019 -0.101 +0.216 -0.457 +0.159 -0.527
# oxidation-state Na +0.751 +0.733


Dumping 'Na2S8-vdw.wfns' ... done
Dumping 'Na2S8-vdw.ionpos' ... done
End date and time: Sat Oct  5 17:19:04 2024  (Duration: 0-6:30:34.92)
Done!
