CRYSTAL
PRIMVEC
 14.820031   0.000000   0.000000
 -7.410015  12.834505   0.000000
  0.000000   0.000000  20.000041
PRIMCOORD
4 1
16   4.963586   6.548804  14.499126
16   3.138939   5.334701  14.500006
11   5.260261   4.137684  13.374650
11   2.799512   7.832278  13.593416
