
*************** JDFTx 1.7.0  ***************

Start date and time: Mon Dec 23 11:46:39 2024
Executable jdftx_gpu with command-line: -i /home/akim2/JDFTx/Na2S/Na2S.in -o /home/akim2/JDFTx/Na2S/Na2S.out
Running on hosts (process indices):  exp-1-60 (0)
Divided in process groups (process indices):  0 (0)
gpuInit: Found compatible cuda device 0 'Tesla V100-SXM2-32GB'
gpuInit: Selected device 0
Resource initialization completed at t[s]:      0.40
Run totals: 1 processes, 1 threads, 1 GPUs


Input parsed successfully to the following command list (including defaults):

basis kpoint-dependent
coords-type Cartesian
core-overlap-check vector
coulomb-interaction Isolated
coulomb-truncation-embed 7.56227 10.1817 26.4562
davidson-band-ratio 1.1
dump End State
dump-name Na2S.$VAR
elec-cutoff 20 100
elec-eigen-algo Davidson
elec-ex-corr gga-PBE
electronic-minimize  \
	dirUpdateScheme      FletcherReeves \
	linminMethod         DirUpdateRecommended \
	nIterations          100 \
	history              15 \
	knormThreshold       0 \
	energyDiffThreshold  1e-08 \
	nEnergyDiff          2 \
	alphaTstart          1 \
	alphaTmin            1e-10 \
	updateTestStepSize   yes \
	alphaTreduceFactor   0.1 \
	alphaTincreaseFactor 3 \
	nAlphaAdjustMax      3 \
	wolfeEnergy          0.0001 \
	wolfeGradient        0.9 \
	fdTest               no
exchange-regularization None
fluid None
fluid-ex-corr lda-TF lda-PZ
fluid-gummel-loop 10 1.000000e-05
fluid-minimize  \
	dirUpdateScheme      PolakRibiere \
	linminMethod         DirUpdateRecommended \
	nIterations          100 \
	history              15 \
	knormThreshold       0 \
	energyDiffThreshold  0 \
	nEnergyDiff          2 \
	alphaTstart          1 \
	alphaTmin            1e-10 \
	updateTestStepSize   yes \
	alphaTreduceFactor   0.1 \
	alphaTincreaseFactor 3 \
	nAlphaAdjustMax      3 \
	wolfeEnergy          0.0001 \
	wolfeGradient        0.9 \
	fdTest               no
fluid-solvent H2O 55.338 ScalarEOS \
	epsBulk 78.4 \
	pMol 0.92466 \
	epsInf 1.77 \
	Pvap 1.06736e-10 \
	sigmaBulk 4.62e-05 \
	Rvdw 2.61727 \
	Res 1.42 \
	tauNuc 343133 \
	poleEl 15 7 1
forces-output-coords Positions
ion S   7.562274270750001  10.181668708079998  26.456219999999998 1
ion Na   3.653322412229999  12.652545485250002  26.456219999999998 1
ion Na  11.469323171159999  12.655897866269999  26.456219999999998 1
ion-species GBRV/$ID_pbe.uspp
ion-width 0
ionic-minimize  \
	dirUpdateScheme      FletcherReeves \
	linminMethod         DirUpdateRecommended \
	nIterations          200 \
	history              15 \
	knormThreshold       0.0001 \
	energyDiffThreshold  1e-06 \
	nEnergyDiff          2 \
	alphaTstart          1 \
	alphaTmin            1e-10 \
	updateTestStepSize   yes \
	alphaTreduceFactor   0.1 \
	alphaTincreaseFactor 3 \
	nAlphaAdjustMax      3 \
	wolfeEnergy          0.0001 \
	wolfeGradient        0.9 \
	fdTest               no
kpoint   0.000000000000   0.000000000000   0.000000000000  1.00000000000000
kpoint-folding 1 1 1 
latt-move-scale 1 1 1
latt-scale 1 1 1 
lattice Triclinic 28.0058 28.0058 37.7946 90 90 120
lattice-minimize  \
	dirUpdateScheme      L-BFGS \
	linminMethod         DirUpdateRecommended \
	nIterations          0 \
	history              15 \
	knormThreshold       0 \
	energyDiffThreshold  1e-06 \
	nEnergyDiff          2 \
	alphaTstart          1 \
	alphaTmin            1e-10 \
	updateTestStepSize   yes \
	alphaTreduceFactor   0.1 \
	alphaTincreaseFactor 3 \
	nAlphaAdjustMax      3 \
	wolfeEnergy          0.0001 \
	wolfeGradient        0.9 \
	fdTest               no
lcao-params -1 1e-06 0.001
pcm-variant GLSSA13
spintype no-spin
subspace-rotation-factor 1 yes
symmetries automatic
symmetry-threshold 0.0001
van-der-waals D3



---------- Setting up symmetries ----------

Found 24 point-group symmetries of the bravais lattice
Found 2 space-group symmetries with basis
Applied RMS atom displacement 0 bohrs to make symmetries exact.

---------- Initializing the Grid ----------
R = 
[      28.0058     -14.0029            0  ]
[            0      24.2537            0  ]
[            0            0      37.7946  ]
unit cell volume = 25671.8
G =
[   0.224353    0.12953         -0  ]
[          0   0.259061          0  ]
[          0         -0   0.166246  ]
Minimum fftbox size, Smin = [  128  128  172  ]
Chosen fftbox size, S = [  128  128  180  ]

---------- Initializing tighter grid for wavefunction operations ----------
R = 
[      28.0058     -14.0029            0  ]
[            0      24.2537            0  ]
[            0            0      37.7946  ]
unit cell volume = 25671.8
G =
[   0.224353    0.12953         -0  ]
[          0   0.259061          0  ]
[          0         -0   0.166246  ]
Minimum fftbox size, Smin = [  116  116  156  ]
Chosen fftbox size, S = [  120  120  160  ]

---------- Exchange Correlation functional ----------
Initalized PBE GGA exchange.
Initalized PBE GGA correlation.

---------- Setting up pseudopotentials ----------
Width of ionic core gaussian charges (only for fluid interactions / plotting) set to 0

Reading pseudopotential file '/home/akim2/jdftx_install/build/pseudopotentials/GBRV/s_pbe.uspp':
  Title: S.  Created by USPP 7.3.6 on 1-4-15
  Reference state energy: -11.898476.  6 valence electrons in orbitals:
    |300>  occupation: 2  eigenvalue: -0.634167
    |310>  occupation: 4  eigenvalue: -0.257568
  lMax: 2  lLocal: 3  QijEcut: 6
  6 projectors sampled on a log grid with 635 points:
    l: 0  eig: -0.634161  rCut: 1.5
    l: 0  eig: 1.500000  rCut: 1.5
    l: 1  eig: -0.257567  rCut: 1.5
    l: 1  eig: 1.500000  rCut: 1.5
    l: 2  eig: -1.000000  rCut: 1.5
    l: 2  eig: 1.500000  rCut: 1.5
  Partial core density with radius 1.15
  Transforming core density to a uniform radial grid of dG=0.02 with 1625 points.
  Transforming local potential to a uniform radial grid of dG=0.02 with 1625 points.
  Transforming nonlocal projectors to a uniform radial grid of dG=0.02 with 432 points.
  Transforming density augmentations to a uniform radial grid of dG=0.02 with 1625 points.
  Transforming atomic orbitals to a uniform radial grid of dG=0.02 with 432 points.
  Core radius for overlap checks: 1.50 bohrs.

Reading pseudopotential file '/home/akim2/jdftx_install/build/pseudopotentials/GBRV/na_pbe.uspp':
  Title: Na.  Created by USPP 7.3.6 on 23-9-15
  Reference state energy: -47.625620.  9 valence electrons in orbitals:
    |200>  occupation: 2  eigenvalue: -2.085638
    |210>  occupation: 6  eigenvalue: -1.053708
    |300>  occupation: 1  eigenvalue: -0.100838
  lMax: 2  lLocal: 0  QijEcut: 6
  5 projectors sampled on a log grid with 657 points:
    l: 0  eig: -2.085640  rCut: 1.37
    l: 0  eig: -0.100839  rCut: 1.37
    l: 1  eig: -1.053708  rCut: 1.47
    l: 1  eig: 0.500000  rCut: 1.47
    l: 2  eig: 0.750000  rCut: 2
  Transforming local potential to a uniform radial grid of dG=0.02 with 1625 points.
  Transforming nonlocal projectors to a uniform radial grid of dG=0.02 with 432 points.
  Transforming density augmentations to a uniform radial grid of dG=0.02 with 1625 points.
  Transforming atomic orbitals to a uniform radial grid of dG=0.02 with 432 points.
  Core radius for overlap checks: 2.00 bohrs.

Initialized 2 species with 3 total atoms.

Folded 1 k-points by 1x1x1 to 1 k-points.

---------- Setting up k-points, bands, fillings ----------
No reducable k-points. 
Computing the number of bands and number of electrons
Calculating initial fillings.
nElectrons:  24.000000   nBands: 12   nStates: 1

----- Setting up reduced wavefunction bases (one per k-point) -----
average nbasis = 109673.000 , ideal nbasis = 109671.883

---------- Setting up coulomb interaction ----------
Setting up double-sized grid for truncated Coulomb potentials:
R = 
[      56.0116     -28.0058            0  ]
[            0      48.5075            0  ]
[            0            0      75.5892  ]
unit cell volume = 205374
G =
[   0.112177  0.0647651         -0  ]
[          0    0.12953          0  ]
[          0         -0  0.0831228  ]
Chosen fftbox size, S = [  256  256  360  ]
Integer grid location selected as the embedding center:
   Grid: [  61  54  126  ]
   Lattice: [  0.479924  0.419798  0.7  ]
   Cartesian: [  7.56227  10.1817  26.4562  ]
Constructing Wigner-Seitz cell: 8 faces (6 quadrilaterals, 2 hexagons)
Range-separation parameter for embedded mesh potentials due to point charges: 0.590105 bohrs.
Constructing Wigner-Seitz cell: 8 faces (6 quadrilaterals, 2 hexagons)
Gaussian width for range separation: 2.95095 bohrs.
FFT grid for long-range part: [ 256 256 360 ].
Planning fourier transform ... Done.
Computing truncated long-range part in real space ... Done.
Adding short-range part in reciprocal space ... Done.

Initializing DFT-D3 calculator:
	Parameters set for gga-PBE functional
	s6:  1.000  s_r6:  1.217
	s8:  0.722  s_r8:  1.000
	Per-atom parameters loaded for:
	 S:  sqrtQ[a0]:  4.041  Rcov[a0]:  1.928  CN: [ 0.00 0.99 1.99 ]
	Na:  sqrtQ[a0]:  6.586  Rcov[a0]:  2.646  CN: [ 0.00 0.97 ]

Computing DFT-D3 correction:
# coordination-number S 1.988
# coordination-number Na 1.168 1.168
# diagonal-C6 S 125.91
# diagonal-C6 Na 189.31 189.31
EvdW_6 =   -0.000046
EvdW_8 =   -0.000792

---------- Allocating electronic variables ----------
Initializing wave functions:  linear combination of atomic orbitals
S pseudo-atom occupations:   s ( 2 )  p ( 4 )
Na pseudo-atom occupations:   s ( 2 1 )  p ( 6 )
	FillingsUpdate:  mu: +0.166159408  nElectrons: 24.000000
LCAOMinimize: Iter:   0  Etot: -105.3823775025475413  |grad|_K:  2.995e-02  alpha:  1.000e+00
	FillingsUpdate:  mu: +0.152442288  nElectrons: 24.000000
LCAOMinimize: Iter:   1  Etot: -105.4045642796747586  |grad|_K:  3.292e-02  alpha:  9.343e-02  linmin: -2.186e-01  cgtest:  7.953e-01  t[s]:      5.78
LCAOMinimize: 	Wrong curvature in test step, increasing alphaT to 2.802797e-01.
	FillingsUpdate:  mu: +0.122976926  nElectrons: 24.000000
LCAOMinimize: Iter:   2  Etot: -105.4437054737999091  |grad|_K:  3.623e-02  alpha: -1.916e-01  linmin: -2.671e-01  cgtest:  7.191e-01  t[s]:      6.07
	FillingsUpdate:  mu: -0.021717463  nElectrons: 24.000000
LCAOMinimize: Iter:   3  Etot: -105.5445301474939583  |grad|_K:  1.706e-02  alpha:  1.582e-01  linmin: -3.973e-01  cgtest:  4.772e-01  t[s]:      6.36
LCAOMinimize: Encountered beta<0, resetting CG.
LCAOMinimize: None of the convergence criteria satisfied after 3 iterations.


---- Citations for features of the code used in this run ----

   Software package:
      R. Sundararaman, K. Letchworth-Weaver, K.A. Schwarz, D. Gunceler, Y. Ozhabes and T.A. Arias, 'JDFTx: software for joint density-functional theory', SoftwareX 6, 278 (2017)

   gga-PBE exchange-correlation functional:
      J.P. Perdew, K. Burke and M. Ernzerhof, Phys. Rev. Lett. 77, 3865 (1996)

   Pseudopotentials:
      KF Garrity, JW Bennett, KM Rabe and D Vanderbilt, Comput. Mater. Sci. 81, 446 (2014)

   Truncated Coulomb potentials:
      R. Sundararaman and T.A. Arias, Phys. Rev. B 87, 165122 (2013)

   DFT-D3 dispersion correction:
      S. Grimme, J. Antony, S. Ehrlich and H. Krieg, J. Chem. Phys. 132, 154104 (2010)

   Total energy minimization:
      T.A. Arias, M.C. Payne and J.D. Joannopoulos, Phys. Rev. Lett. 69, 1077 (1992)

This list may not be complete. Please suggest additional citations or
report any other bugs at https://github.com/shankar1729/jdftx/issues

Initialization completed successfully at t[s]:      6.37


Computing DFT-D3 correction:
# coordination-number S 1.988
# coordination-number Na 1.168 1.168
# diagonal-C6 S 125.91
# diagonal-C6 Na 189.31 189.31
EvdW_6 =   -0.000046
EvdW_8 =   -0.000792

-------- Electronic minimization -----------
ElecMinimize: Iter:   0  Etot: -105.544530147493646  |grad|_K:  2.110e-04  alpha:  1.000e+00
ElecMinimize: Iter:   1  Etot: -105.591637576385779  |grad|_K:  9.160e-05  alpha:  8.026e-01  linmin:  3.542e-03  t[s]:      6.87
ElecMinimize: Iter:   2  Etot: -105.599452074311898  |grad|_K:  7.586e-05  alpha:  7.090e-01  linmin:  7.049e-04  t[s]:      7.16
ElecMinimize: Iter:   3  Etot: -105.605607120317032  |grad|_K:  6.248e-05  alpha:  8.135e-01  linmin:  1.285e-04  t[s]:      7.45
ElecMinimize: Iter:   4  Etot: -105.608838914370196  |grad|_K:  5.830e-05  alpha:  6.297e-01  linmin: -2.467e-04  t[s]:      7.75
ElecMinimize: Iter:   5  Etot: -105.612158116022584  |grad|_K:  4.350e-05  alpha:  7.409e-01  linmin: -1.381e-03  t[s]:      8.04
ElecMinimize: Iter:   6  Etot: -105.613728836980059  |grad|_K:  3.353e-05  alpha:  6.290e-01  linmin: -4.614e-04  t[s]:      8.33
ElecMinimize: Iter:   7  Etot: -105.614646184728258  |grad|_K:  2.287e-05  alpha:  6.194e-01  linmin: -5.640e-04  t[s]:      8.62
ElecMinimize: Iter:   8  Etot: -105.615232705477169  |grad|_K:  1.433e-05  alpha:  8.506e-01  linmin: -1.399e-03  t[s]:      8.90
ElecMinimize: Iter:   9  Etot: -105.615503894763393  |grad|_K:  1.056e-05  alpha:  1.001e+00  linmin: -6.077e-04  t[s]:      9.19
ElecMinimize: Iter:  10  Etot: -105.615619682551497  |grad|_K:  9.064e-06  alpha:  7.881e-01  linmin: -5.533e-05  t[s]:      9.48
ElecMinimize: Iter:  11  Etot: -105.615673979232668  |grad|_K:  6.921e-06  alpha:  5.020e-01  linmin: -5.892e-06  t[s]:      9.77
ElecMinimize: Iter:  12  Etot: -105.615719763394267  |grad|_K:  4.630e-06  alpha:  7.264e-01  linmin:  1.327e-04  t[s]:     10.07
ElecMinimize: Iter:  13  Etot: -105.615741587933456  |grad|_K:  3.591e-06  alpha:  7.739e-01  linmin:  7.034e-05  t[s]:     10.36
ElecMinimize: Iter:  14  Etot: -105.615754469244052  |grad|_K:  2.503e-06  alpha:  7.591e-01  linmin: -1.981e-05  t[s]:     10.66
ElecMinimize: Iter:  15  Etot: -105.615760794033179  |grad|_K:  2.039e-06  alpha:  7.671e-01  linmin:  5.765e-06  t[s]:     10.95
ElecMinimize: Iter:  16  Etot: -105.615764425567704  |grad|_K:  1.515e-06  alpha:  6.635e-01  linmin:  2.008e-06  t[s]:     11.25
ElecMinimize: Iter:  17  Etot: -105.615766734016603  |grad|_K:  1.200e-06  alpha:  7.638e-01  linmin:  1.696e-05  t[s]:     11.54
ElecMinimize: Iter:  18  Etot: -105.615767974457100  |grad|_K:  1.022e-06  alpha:  6.549e-01  linmin: -2.965e-06  t[s]:     11.84
ElecMinimize: Iter:  19  Etot: -105.615768743799933  |grad|_K:  7.575e-07  alpha:  5.595e-01  linmin: -1.487e-06  t[s]:     12.13
ElecMinimize: Iter:  20  Etot: -105.615769358946181  |grad|_K:  5.416e-07  alpha:  8.146e-01  linmin: -1.523e-05  t[s]:     12.44
ElecMinimize: Iter:  21  Etot: -105.615769697078392  |grad|_K:  4.343e-07  alpha:  8.760e-01  linmin: -1.176e-05  t[s]:     12.73
ElecMinimize: Iter:  22  Etot: -105.615769910565461  |grad|_K:  3.316e-07  alpha:  8.601e-01  linmin: -6.981e-06  t[s]:     13.03
ElecMinimize: Iter:  23  Etot: -105.615770024207904  |grad|_K:  2.947e-07  alpha:  7.854e-01  linmin: -3.088e-06  t[s]:     13.32
ElecMinimize: Iter:  24  Etot: -105.615770098639899  |grad|_K:  2.224e-07  alpha:  6.512e-01  linmin: -2.112e-06  t[s]:     13.62
ElecMinimize: Iter:  25  Etot: -105.615770147923513  |grad|_K:  2.030e-07  alpha:  7.568e-01  linmin: -5.217e-07  t[s]:     13.91
ElecMinimize: Iter:  26  Etot: -105.615770179027862  |grad|_K:  1.556e-07  alpha:  5.735e-01  linmin: -8.283e-07  t[s]:     14.21
ElecMinimize: Iter:  27  Etot: -105.615770202648903  |grad|_K:  1.139e-07  alpha:  7.415e-01  linmin:  1.879e-06  t[s]:     14.50
ElecMinimize: Iter:  28  Etot: -105.615770216168187  |grad|_K:  8.256e-08  alpha:  7.914e-01  linmin:  1.554e-06  t[s]:     14.79
ElecMinimize: Iter:  29  Etot: -105.615770223996151  |grad|_K:  5.908e-08  alpha:  8.725e-01  linmin: -7.900e-06  t[s]:     15.08
ElecMinimize: Iter:  30  Etot: -105.615770227842120  |grad|_K:  4.535e-08  alpha:  8.371e-01  linmin: -1.673e-05  t[s]:     15.37
ElecMinimize: Converged (|Delta Etot|<1.000000e-08 for 2 iters).
Setting wave functions to eigenvectors of Hamiltonian

Computing DFT-D3 correction:
# coordination-number S 1.988
# coordination-number Na 1.168 1.168
# diagonal-C6 S 125.91
# diagonal-C6 Na 189.31 189.31
EvdW_6 =   -0.000046
EvdW_8 =   -0.000792

# Ionic positions in cartesian coordinates:
ion S   7.562274270750001  10.181668708079998  26.456219999999998 1
ion Na   3.653322412229999  12.652545485250002  26.456219999999998 1
ion Na  11.469323171159999  12.655897866269999  26.456219999999998 1

# Forces in Cartesian coordinates:
force S   0.000006786859729  -0.000102327306386   0.000000000000000 1
force Na  -0.000164931572788   0.000044396740307   0.000000000000000 1
force Na   0.000156807410734   0.000036174404900   0.000000000000000 1

# Energy components:
   Eewald =       33.7172375847461012
       EH =      121.9739173314464580
     Eloc =     -123.5507184571385437
      Enl =     -141.8292593791246361
     EvdW =       -0.0008378073803148
      Exc =      -18.5313942993562186
 Exc_core =        1.7677286263650906
       KE =       20.8375561725999532
-------------------------------------
     Etot =     -105.6157702278421198

IonicMinimize: Iter:   0  Etot: -105.615770227842120  |grad|_K:  8.526e-05  alpha:  1.000e+00
IonicMinimize: Converged (|grad|_K<1.000000e-04).

#--- Lowdin population analysis ---
# oxidation-state S -1.173
# oxidation-state Na +0.673 +0.673


Dumping 'Na2S.wfns' ... done
Dumping 'Na2S.ionpos' ... done
End date and time: Mon Dec 23 11:46:55 2024  (Duration: 0-0:00:15.73)
Done!
