
*************** JDFTx 1.7.0  ***************

Start date and time: Mon Dec 23 12:24:38 2024
Executable jdftx_gpu with command-line: -i /home/akim2/JDFTx/Na2S2/Na2S2.in -o /home/akim2/JDFTx/Na2S2/Na2S2.out
Running on hosts (process indices):  exp-1-60 (0)
Divided in process groups (process indices):  0 (0)
gpuInit: Found compatible cuda device 0 'Tesla V100-SXM2-32GB'
gpuInit: Selected device 0
Resource initialization completed at t[s]:      0.39
Run totals: 1 processes, 1 threads, 1 GPUs


Input parsed successfully to the following command list (including defaults):

basis kpoint-dependent
coords-type Cartesian
core-overlap-check vector
coulomb-interaction Isolated
coulomb-truncation-embed 9.40288 12.4301 27.2635
davidson-band-ratio 1.1
dump End State
dump-name Na2S2.$VAR
elec-cutoff 20 100
elec-eigen-algo Davidson
elec-ex-corr gga-PBE
electronic-minimize  \
	dirUpdateScheme      FletcherReeves \
	linminMethod         DirUpdateRecommended \
	nIterations          100 \
	history              15 \
	knormThreshold       0 \
	energyDiffThreshold  1e-08 \
	nEnergyDiff          2 \
	alphaTstart          1 \
	alphaTmin            1e-10 \
	updateTestStepSize   yes \
	alphaTreduceFactor   0.1 \
	alphaTincreaseFactor 3 \
	nAlphaAdjustMax      3 \
	wolfeEnergy          0.0001 \
	wolfeGradient        0.9 \
	fdTest               no
exchange-regularization None
fluid None
fluid-ex-corr lda-TF lda-PZ
fluid-gummel-loop 10 1.000000e-05
fluid-minimize  \
	dirUpdateScheme      PolakRibiere \
	linminMethod         DirUpdateRecommended \
	nIterations          100 \
	history              15 \
	knormThreshold       0 \
	energyDiffThreshold  0 \
	nEnergyDiff          2 \
	alphaTstart          1 \
	alphaTmin            1e-10 \
	updateTestStepSize   yes \
	alphaTreduceFactor   0.1 \
	alphaTincreaseFactor 3 \
	nAlphaAdjustMax      3 \
	wolfeEnergy          0.0001 \
	wolfeGradient        0.9 \
	fdTest               no
fluid-solvent H2O 55.338 ScalarEOS \
	epsBulk 78.4 \
	pMol 0.92466 \
	epsInf 1.77 \
	Pvap 1.06736e-10 \
	sigmaBulk 4.62e-05 \
	Rvdw 2.61727 \
	Res 1.42 \
	tauNuc 343133 \
	poleEl 15 7 1
forces-output-coords Positions
ion S   9.402875070209999  12.430078910730000  27.263527773840000 1
ion S   5.921463285810000  10.087698104369998  27.341467797959996 1
ion Na   9.852901041599997   7.943043527369999  25.470895880699999 1
ion Na   5.365079530559999  14.615699054669998  25.686786194819998 1
ion-species GBRV/$ID_pbe.uspp
ion-width 0
ionic-minimize  \
	dirUpdateScheme      FletcherReeves \
	linminMethod         DirUpdateRecommended \
	nIterations          200 \
	history              15 \
	knormThreshold       0.0001 \
	energyDiffThreshold  1e-06 \
	nEnergyDiff          2 \
	alphaTstart          1 \
	alphaTmin            1e-10 \
	updateTestStepSize   yes \
	alphaTreduceFactor   0.1 \
	alphaTincreaseFactor 3 \
	nAlphaAdjustMax      3 \
	wolfeEnergy          0.0001 \
	wolfeGradient        0.9 \
	fdTest               no
kpoint   0.000000000000   0.000000000000   0.000000000000  1.00000000000000
kpoint-folding 1 1 1 
latt-move-scale 1 1 1
latt-scale 1 1 1 
lattice Triclinic 28.0058 28.0058 37.7946 90 90 120
lattice-minimize  \
	dirUpdateScheme      L-BFGS \
	linminMethod         DirUpdateRecommended \
	nIterations          0 \
	history              15 \
	knormThreshold       0 \
	energyDiffThreshold  1e-06 \
	nEnergyDiff          2 \
	alphaTstart          1 \
	alphaTmin            1e-10 \
	updateTestStepSize   yes \
	alphaTreduceFactor   0.1 \
	alphaTincreaseFactor 3 \
	nAlphaAdjustMax      3 \
	wolfeEnergy          0.0001 \
	wolfeGradient        0.9 \
	fdTest               no
lcao-params -1 1e-06 0.001
pcm-variant GLSSA13
spintype no-spin
subspace-rotation-factor 1 yes
symmetries automatic
symmetry-threshold 0.0001



---------- Setting up symmetries ----------

Found 24 point-group symmetries of the bravais lattice
Found 1 space-group symmetries with basis
Applied RMS atom displacement 0 bohrs to make symmetries exact.

---------- Initializing the Grid ----------
R = 
[      28.0058     -14.0029            0  ]
[            0      24.2537            0  ]
[            0            0      37.7946  ]
unit cell volume = 25671.8
G =
[   0.224353    0.12953         -0  ]
[          0   0.259061          0  ]
[          0         -0   0.166246  ]
Minimum fftbox size, Smin = [  128  128  172  ]
Chosen fftbox size, S = [  128  128  180  ]

---------- Initializing tighter grid for wavefunction operations ----------
R = 
[      28.0058     -14.0029            0  ]
[            0      24.2537            0  ]
[            0            0      37.7946  ]
unit cell volume = 25671.8
G =
[   0.224353    0.12953         -0  ]
[          0   0.259061          0  ]
[          0         -0   0.166246  ]
Minimum fftbox size, Smin = [  116  116  156  ]
Chosen fftbox size, S = [  120  120  160  ]

---------- Exchange Correlation functional ----------
Initalized PBE GGA exchange.
Initalized PBE GGA correlation.

---------- Setting up pseudopotentials ----------
Width of ionic core gaussian charges (only for fluid interactions / plotting) set to 0

Reading pseudopotential file '/home/akim2/jdftx_install/build/pseudopotentials/GBRV/s_pbe.uspp':
  Title: S.  Created by USPP 7.3.6 on 1-4-15
  Reference state energy: -11.898476.  6 valence electrons in orbitals:
    |300>  occupation: 2  eigenvalue: -0.634167
    |310>  occupation: 4  eigenvalue: -0.257568
  lMax: 2  lLocal: 3  QijEcut: 6
  6 projectors sampled on a log grid with 635 points:
    l: 0  eig: -0.634161  rCut: 1.5
    l: 0  eig: 1.500000  rCut: 1.5
    l: 1  eig: -0.257567  rCut: 1.5
    l: 1  eig: 1.500000  rCut: 1.5
    l: 2  eig: -1.000000  rCut: 1.5
    l: 2  eig: 1.500000  rCut: 1.5
  Partial core density with radius 1.15
  Transforming core density to a uniform radial grid of dG=0.02 with 1625 points.
  Transforming local potential to a uniform radial grid of dG=0.02 with 1625 points.
  Transforming nonlocal projectors to a uniform radial grid of dG=0.02 with 432 points.
  Transforming density augmentations to a uniform radial grid of dG=0.02 with 1625 points.
  Transforming atomic orbitals to a uniform radial grid of dG=0.02 with 432 points.
  Core radius for overlap checks: 1.50 bohrs.

Reading pseudopotential file '/home/akim2/jdftx_install/build/pseudopotentials/GBRV/na_pbe.uspp':
  Title: Na.  Created by USPP 7.3.6 on 23-9-15
  Reference state energy: -47.625620.  9 valence electrons in orbitals:
    |200>  occupation: 2  eigenvalue: -2.085638
    |210>  occupation: 6  eigenvalue: -1.053708
    |300>  occupation: 1  eigenvalue: -0.100838
  lMax: 2  lLocal: 0  QijEcut: 6
  5 projectors sampled on a log grid with 657 points:
    l: 0  eig: -2.085640  rCut: 1.37
    l: 0  eig: -0.100839  rCut: 1.37
    l: 1  eig: -1.053708  rCut: 1.47
    l: 1  eig: 0.500000  rCut: 1.47
    l: 2  eig: 0.750000  rCut: 2
  Transforming local potential to a uniform radial grid of dG=0.02 with 1625 points.
  Transforming nonlocal projectors to a uniform radial grid of dG=0.02 with 432 points.
  Transforming density augmentations to a uniform radial grid of dG=0.02 with 1625 points.
  Transforming atomic orbitals to a uniform radial grid of dG=0.02 with 432 points.
  Core radius for overlap checks: 2.00 bohrs.

Initialized 2 species with 4 total atoms.

Folded 1 k-points by 1x1x1 to 1 k-points.

---------- Setting up k-points, bands, fillings ----------
No reducable k-points. 
Computing the number of bands and number of electrons
Calculating initial fillings.
nElectrons:  30.000000   nBands: 15   nStates: 1

----- Setting up reduced wavefunction bases (one per k-point) -----
average nbasis = 109673.000 , ideal nbasis = 109671.883

---------- Setting up coulomb interaction ----------
Setting up double-sized grid for truncated Coulomb potentials:
R = 
[      56.0116     -28.0058            0  ]
[            0      48.5075            0  ]
[            0            0      75.5892  ]
unit cell volume = 205374
G =
[   0.112177  0.0647651         -0  ]
[          0    0.12953          0  ]
[          0         -0  0.0831228  ]
Chosen fftbox size, S = [  256  256  360  ]
Integer grid location selected as the embedding center:
   Grid: [  76  66  130  ]
   Lattice: [  0.591998  0.512502  0.72136  ]
   Cartesian: [  9.40288  12.4301  27.2635  ]
Constructing Wigner-Seitz cell: 8 faces (6 quadrilaterals, 2 hexagons)
Range-separation parameter for embedded mesh potentials due to point charges: 0.590105 bohrs.
Constructing Wigner-Seitz cell: 8 faces (6 quadrilaterals, 2 hexagons)
Gaussian width for range separation: 2.95095 bohrs.
FFT grid for long-range part: [ 256 256 360 ].
Planning fourier transform ... Done.
Computing truncated long-range part in real space ... Done.
Adding short-range part in reciprocal space ... Done.

---------- Allocating electronic variables ----------
Initializing wave functions:  linear combination of atomic orbitals
S pseudo-atom occupations:   s ( 2 )  p ( 4 )
Na pseudo-atom occupations:   s ( 2 1 )  p ( 6 )
	FillingsUpdate:  mu: -0.000890198  nElectrons: 30.000000
LCAOMinimize: Iter:   0  Etot: -115.7661700459832019  |grad|_K:  1.230e-02  alpha:  1.000e+00
	FillingsUpdate:  mu: -0.003340381  nElectrons: 30.000000
LCAOMinimize: Iter:   1  Etot: -115.7703026638161248  |grad|_K:  1.213e-02  alpha:  7.333e-02  linmin: -1.090e-01  cgtest:  9.274e-01  t[s]:      5.60
LCAOMinimize: 	Wrong curvature in test step, increasing alphaT to 2.199913e-01.
	FillingsUpdate:  mu: -0.006067175  nElectrons: 30.000000
LCAOMinimize: Iter:   2  Etot: -115.7745681068134616  |grad|_K:  1.189e-02  alpha: -1.249e+00  linmin: -1.144e-01  cgtest:  9.257e-01  t[s]:      5.90
	FillingsUpdate:  mu: -0.008569451  nElectrons: 30.000000
LCAOMinimize: Iter:   3  Etot: -115.7782049573694678  |grad|_K:  1.163e-02  alpha:  6.558e-02  linmin: -1.193e-01  cgtest:  9.365e-01  t[s]:      6.19
LCAOMinimize: None of the convergence criteria satisfied after 3 iterations.


---- Citations for features of the code used in this run ----

   Software package:
      R. Sundararaman, K. Letchworth-Weaver, K.A. Schwarz, D. Gunceler, Y. Ozhabes and T.A. Arias, 'JDFTx: software for joint density-functional theory', SoftwareX 6, 278 (2017)

   gga-PBE exchange-correlation functional:
      J.P. Perdew, K. Burke and M. Ernzerhof, Phys. Rev. Lett. 77, 3865 (1996)

   Pseudopotentials:
      KF Garrity, JW Bennett, KM Rabe and D Vanderbilt, Comput. Mater. Sci. 81, 446 (2014)

   Truncated Coulomb potentials:
      R. Sundararaman and T.A. Arias, Phys. Rev. B 87, 165122 (2013)

   Total energy minimization:
      T.A. Arias, M.C. Payne and J.D. Joannopoulos, Phys. Rev. Lett. 69, 1077 (1992)

This list may not be complete. Please suggest additional citations or
report any other bugs at https://github.com/shankar1729/jdftx/issues

Initialization completed successfully at t[s]:      6.20


-------- Electronic minimization -----------
ElecMinimize: Iter:   0  Etot: -115.778204957369439  |grad|_K:  2.688e-04  alpha:  1.000e+00
ElecMinimize: Iter:   1  Etot: -115.887866555304058  |grad|_K:  1.210e-04  alpha:  9.215e-01  linmin:  8.722e-03  t[s]:      6.72
ElecMinimize: Iter:   2  Etot: -115.905847173012106  |grad|_K:  9.741e-05  alpha:  7.499e-01  linmin:  5.826e-04  t[s]:      7.02
ElecMinimize: Iter:   3  Etot: -115.914487270571811  |grad|_K:  6.146e-05  alpha:  5.538e-01  linmin:  2.838e-05  t[s]:      7.31
ElecMinimize: Iter:   4  Etot: -115.917690144259211  |grad|_K:  4.085e-05  alpha:  5.154e-01  linmin:  4.080e-04  t[s]:      7.60
ElecMinimize: Iter:   5  Etot: -115.919766572542557  |grad|_K:  2.759e-05  alpha:  7.568e-01  linmin:  2.296e-04  t[s]:      7.89
ElecMinimize: Iter:   6  Etot: -115.920553550791652  |grad|_K:  2.003e-05  alpha:  6.285e-01  linmin:  1.371e-04  t[s]:      8.19
ElecMinimize: Iter:   7  Etot: -115.921035154510875  |grad|_K:  1.462e-05  alpha:  7.303e-01  linmin:  3.246e-04  t[s]:      8.49
ElecMinimize: Iter:   8  Etot: -115.921337931144123  |grad|_K:  9.124e-06  alpha:  8.616e-01  linmin:  3.145e-04  t[s]:      8.80
ElecMinimize: Iter:   9  Etot: -115.921484034178263  |grad|_K:  6.293e-06  alpha:  1.067e+00  linmin: -1.542e-04  t[s]:      9.09
ElecMinimize: Iter:  10  Etot: -115.921542828986048  |grad|_K:  5.427e-06  alpha:  9.024e-01  linmin: -6.784e-05  t[s]:      9.39
ElecMinimize: Iter:  11  Etot: -115.921568551695486  |grad|_K:  4.271e-06  alpha:  5.309e-01  linmin:  1.399e-06  t[s]:      9.70
ElecMinimize: Iter:  12  Etot: -115.921589956044514  |grad|_K:  2.901e-06  alpha:  7.133e-01  linmin: -8.027e-05  t[s]:      9.99
ElecMinimize: Iter:  13  Etot: -115.921601116174742  |grad|_K:  2.217e-06  alpha:  8.062e-01  linmin: -8.098e-05  t[s]:     10.29
ElecMinimize: Iter:  14  Etot: -115.921607614507550  |grad|_K:  1.592e-06  alpha:  8.036e-01  linmin: -9.229e-05  t[s]:     10.58
ElecMinimize: Iter:  15  Etot: -115.921610992400176  |grad|_K:  1.271e-06  alpha:  8.099e-01  linmin: -4.053e-05  t[s]:     10.87
ElecMinimize: Iter:  16  Etot: -115.921612873996068  |grad|_K:  9.333e-07  alpha:  7.074e-01  linmin: -3.395e-06  t[s]:     11.17
ElecMinimize: Iter:  17  Etot: -115.921614009852192  |grad|_K:  6.967e-07  alpha:  7.927e-01  linmin: -4.305e-06  t[s]:     11.46
ElecMinimize: Iter:  18  Etot: -115.921614724925860  |grad|_K:  5.140e-07  alpha:  8.955e-01  linmin:  1.040e-06  t[s]:     11.76
ElecMinimize: Iter:  19  Etot: -115.921615068502675  |grad|_K:  4.641e-07  alpha:  7.904e-01  linmin:  3.403e-07  t[s]:     12.07
ElecMinimize: Iter:  20  Etot: -115.921615262711967  |grad|_K:  3.316e-07  alpha:  5.480e-01  linmin:  1.781e-07  t[s]:     12.37
ElecMinimize: Iter:  21  Etot: -115.921615388760017  |grad|_K:  2.433e-07  alpha:  6.970e-01  linmin:  3.189e-06  t[s]:     12.67
ElecMinimize: Iter:  22  Etot: -115.921615464203938  |grad|_K:  1.655e-07  alpha:  7.750e-01  linmin:  9.524e-06  t[s]:     12.96
ElecMinimize: Iter:  23  Etot: -115.921615500299026  |grad|_K:  1.283e-07  alpha:  8.007e-01  linmin:  1.501e-07  t[s]:     13.26
ElecMinimize: Iter:  24  Etot: -115.921615518786908  |grad|_K:  8.868e-08  alpha:  6.829e-01  linmin:  3.189e-08  t[s]:     13.56
ElecMinimize: Iter:  25  Etot: -115.921615529565372  |grad|_K:  6.366e-08  alpha:  8.332e-01  linmin: -3.912e-06  t[s]:     13.85
ElecMinimize: Iter:  26  Etot: -115.921615534616905  |grad|_K:  4.332e-08  alpha:  7.577e-01  linmin: -1.167e-05  t[s]:     14.16
ElecMinimize: Iter:  27  Etot: -115.921615537040182  |grad|_K:  3.043e-08  alpha:  7.849e-01  linmin:  3.350e-05  t[s]:     14.45
ElecMinimize: Converged (|Delta Etot|<1.000000e-08 for 2 iters).
Setting wave functions to eigenvectors of Hamiltonian

# Ionic positions in cartesian coordinates:
ion S   9.402875070209999  12.430078910730000  27.263527773840000 1
ion S   5.921463285810000  10.087698104369998  27.341467797959996 1
ion Na   9.852901041599997   7.943043527369999  25.470895880699999 1
ion Na   5.365079530559999  14.615699054669998  25.686786194819998 1

# Forces in Cartesian coordinates:
force S  -0.000056024628879   0.000024842691216  -0.000058619637931 1
force S  -0.000021586142052  -0.000017205470753  -0.000007552370963 1
force Na  -0.000043633337347   0.000055853751115   0.000052663287522 1
force Na   0.000085153905438  -0.000079989501814   0.000064002986736 1

# Energy components:
   Eewald =       63.1521654524979112
       EH =      160.0190629531874436
     Eloc =     -204.4371743232453582
      Enl =     -140.0947388711196027
      Exc =      -22.7799994878688743
 Exc_core =        3.5354580038104433
       KE =       24.6836107356978545
-------------------------------------
     Etot =     -115.9216155370401822

IonicMinimize: Iter:   0  Etot: -115.921615537040182  |grad|_K:  5.206e-05  alpha:  1.000e+00
IonicMinimize: Converged (|grad|_K<1.000000e-04).

#--- Lowdin population analysis ---
# oxidation-state S -0.704 -0.704
# oxidation-state Na +0.810 +0.810


Dumping 'Na2S2.wfns' ... done
Dumping 'Na2S2.ionpos' ... done
End date and time: Mon Dec 23 12:25:17 2024  (Duration: 0-0:00:39.03)
Done!
