CRYSTAL
PRIMVEC
 14.820031   0.000000   0.000000
 -7.410015  12.834505   0.000000
  0.000000   0.000000  20.000041
PRIMCOORD
3 1
16   4.001969   5.339752  14.000028
11   1.888723   6.719732  14.000028
11   6.113650   6.721074  14.000028
