CRYSTAL
PRIMVEC
 14.820031   0.000000   0.000000
 -7.410015  12.834505   0.000000
  0.000000   0.000000  20.000041
PRIMCOORD
4 1
16   4.956728   6.555913  14.479237
16   3.134332   5.336953  14.463614
11   5.281155   4.121370  13.432639
11   2.790083   7.839230  13.591708
