
*************** JDFTx 1.7.0  ***************

Start date and time: Sat Dec 28 18:40:53 2024
Executable jdftx_gpu with command-line: -i /home/akim2/JDFTx/Na2S-PC/Na2S-PC.in -o /home/akim2/JDFTx/Na2S-PC/Na2S-PC.out
Running on hosts (process indices):  exp-7-57 (0)
Divided in process groups (process indices):  0 (0)
gpuInit: Found compatible cuda device 0 'Tesla V100-SXM2-32GB'
gpuInit: Selected device 0
Resource initialization completed at t[s]:      0.38
Run totals: 1 processes, 1 threads, 1 GPUs


Input parsed successfully to the following command list (including defaults):

basis kpoint-dependent
coords-type Cartesian
core-overlap-check vector
coulomb-interaction Isolated
coulomb-truncation-embed 7.56227 10.1817 26.4562
davidson-band-ratio 1.1
dump End State
dump-name Na2S-PC.$VAR
elec-cutoff 20 100
elec-eigen-algo Davidson
elec-ex-corr gga-PBE
electronic-minimize  \
	dirUpdateScheme      FletcherReeves \
	linminMethod         DirUpdateRecommended \
	nIterations          100 \
	history              15 \
	knormThreshold       0 \
	energyDiffThreshold  1e-08 \
	nEnergyDiff          2 \
	alphaTstart          1 \
	alphaTmin            1e-10 \
	updateTestStepSize   yes \
	alphaTreduceFactor   0.1 \
	alphaTincreaseFactor 3 \
	nAlphaAdjustMax      3 \
	wolfeEnergy          0.0001 \
	wolfeGradient        0.9 \
	fdTest               no
electronic-scf  \
	nIterations	50 \
	energyDiffThreshold	1e-08 \
	residualThreshold	1e-07 \
	mixFraction	0.5 \
	qMetric	0.8 \
	history	10 \
	nEigSteps	2 \
	eigDiffThreshold	1e-08 \
	mixedVariable	Density \
	qKerker	0.8 \
	qKappa	-1 \
	verbose	no \
	mixFractionMag	1.5
exchange-regularization None
fluid LinearPCM 298.000000 1.013250
fluid-ex-corr lda-TF lda-PZ
fluid-gummel-loop 10 1.000000e-05
fluid-minimize  \
	dirUpdateScheme      PolakRibiere \
	linminMethod         DirUpdateRecommended \
	nIterations          400 \
	history              15 \
	knormThreshold       1e-11 \
	energyDiffThreshold  0 \
	nEnergyDiff          2 \
	alphaTstart          1 \
	alphaTmin            1e-10 \
	updateTestStepSize   yes \
	alphaTreduceFactor   0.1 \
	alphaTincreaseFactor 3 \
	nAlphaAdjustMax      6 \
	wolfeEnergy          0.0001 \
	wolfeGradient        0.9 \
	fdTest               no
fluid-solvent PC 11.6429 ScalarEOS \
	epsBulk 64 \
	pMol 2.95 \
	epsInf 2.02 \
	Pvap 1.53277e-13 \
	sigmaBulk 2.88e-05 \
	Rvdw 0 \
	Res 0 \
	tauNuc 343133
forces-output-coords Positions
ion S   7.562685799317076  10.092958691311287  26.456219999999998 1
ion Na   3.570935584093532  12.697390495689309  26.456219999999998 1
ion Na  11.551298470729389  12.699762872599402  26.456219999999998 1
ion-species GBRV/$ID_pbe.uspp
ion-width Ecut
ionic-minimize  \
	dirUpdateScheme      FletcherReeves \
	linminMethod         DirUpdateRecommended \
	nIterations          200 \
	history              15 \
	knormThreshold       0.0001 \
	energyDiffThreshold  1e-06 \
	nEnergyDiff          2 \
	alphaTstart          1 \
	alphaTmin            1e-10 \
	updateTestStepSize   yes \
	alphaTreduceFactor   0.1 \
	alphaTincreaseFactor 3 \
	nAlphaAdjustMax      3 \
	wolfeEnergy          0.0001 \
	wolfeGradient        0.9 \
	fdTest               no
kpoint   0.000000000000   0.000000000000   0.000000000000  1.00000000000000
kpoint-folding 1 1 1 
latt-move-scale 1 1 1
latt-scale 1 1 1 
lattice Triclinic 28.0058 28.0058 37.7946 90 90 120
lattice-minimize  \
	dirUpdateScheme      L-BFGS \
	linminMethod         DirUpdateRecommended \
	nIterations          0 \
	history              15 \
	knormThreshold       0 \
	energyDiffThreshold  1e-06 \
	nEnergyDiff          2 \
	alphaTstart          1 \
	alphaTmin            1e-10 \
	updateTestStepSize   yes \
	alphaTreduceFactor   0.1 \
	alphaTincreaseFactor 3 \
	nAlphaAdjustMax      3 \
	wolfeEnergy          0.0001 \
	wolfeGradient        0.9 \
	fdTest               no
lcao-params -1 1e-06 0.001
pcm-variant GLSSA13
spintype no-spin
subspace-rotation-factor 1 yes
symmetries automatic
symmetry-threshold 0.0001



---------- Setting up symmetries ----------

Found 24 point-group symmetries of the bravais lattice
Found 2 space-group symmetries with basis
Applied RMS atom displacement 0 bohrs to make symmetries exact.

---------- Initializing the Grid ----------
R = 
[      28.0058     -14.0029            0  ]
[            0      24.2537            0  ]
[            0            0      37.7946  ]
unit cell volume = 25671.8
G =
[   0.224353    0.12953         -0  ]
[          0   0.259061          0  ]
[          0         -0   0.166246  ]
Minimum fftbox size, Smin = [  128  128  172  ]
Chosen fftbox size, S = [  128  128  180  ]

---------- Initializing tighter grid for wavefunction operations ----------
R = 
[      28.0058     -14.0029            0  ]
[            0      24.2537            0  ]
[            0            0      37.7946  ]
unit cell volume = 25671.8
G =
[   0.224353    0.12953         -0  ]
[          0   0.259061          0  ]
[          0         -0   0.166246  ]
Minimum fftbox size, Smin = [  116  116  156  ]
Chosen fftbox size, S = [  120  120  160  ]

---------- Exchange Correlation functional ----------
Initalized PBE GGA exchange.
Initalized PBE GGA correlation.

---------- Setting up pseudopotentials ----------
Width of ionic core gaussian charges (only for fluid interactions / plotting) set to 0.397384

Reading pseudopotential file '/home/akim2/jdftx_install/build/pseudopotentials/GBRV/s_pbe.uspp':
  Title: S.  Created by USPP 7.3.6 on 1-4-15
  Reference state energy: -11.898476.  6 valence electrons in orbitals:
    |300>  occupation: 2  eigenvalue: -0.634167
    |310>  occupation: 4  eigenvalue: -0.257568
  lMax: 2  lLocal: 3  QijEcut: 6
  6 projectors sampled on a log grid with 635 points:
    l: 0  eig: -0.634161  rCut: 1.5
    l: 0  eig: 1.500000  rCut: 1.5
    l: 1  eig: -0.257567  rCut: 1.5
    l: 1  eig: 1.500000  rCut: 1.5
    l: 2  eig: -1.000000  rCut: 1.5
    l: 2  eig: 1.500000  rCut: 1.5
  Partial core density with radius 1.15
  Transforming core density to a uniform radial grid of dG=0.02 with 1625 points.
  Transforming local potential to a uniform radial grid of dG=0.02 with 1625 points.
  Transforming nonlocal projectors to a uniform radial grid of dG=0.02 with 432 points.
  Transforming density augmentations to a uniform radial grid of dG=0.02 with 1625 points.
  Transforming atomic orbitals to a uniform radial grid of dG=0.02 with 432 points.
  Core radius for overlap checks: 1.50 bohrs.

Reading pseudopotential file '/home/akim2/jdftx_install/build/pseudopotentials/GBRV/na_pbe.uspp':
  Title: Na.  Created by USPP 7.3.6 on 23-9-15
  Reference state energy: -47.625620.  9 valence electrons in orbitals:
    |200>  occupation: 2  eigenvalue: -2.085638
    |210>  occupation: 6  eigenvalue: -1.053708
    |300>  occupation: 1  eigenvalue: -0.100838
  lMax: 2  lLocal: 0  QijEcut: 6
  5 projectors sampled on a log grid with 657 points:
    l: 0  eig: -2.085640  rCut: 1.37
    l: 0  eig: -0.100839  rCut: 1.37
    l: 1  eig: -1.053708  rCut: 1.47
    l: 1  eig: 0.500000  rCut: 1.47
    l: 2  eig: 0.750000  rCut: 2
  Transforming local potential to a uniform radial grid of dG=0.02 with 1625 points.
  Transforming nonlocal projectors to a uniform radial grid of dG=0.02 with 432 points.
  Transforming density augmentations to a uniform radial grid of dG=0.02 with 1625 points.
  Transforming atomic orbitals to a uniform radial grid of dG=0.02 with 432 points.
  Core radius for overlap checks: 2.00 bohrs.

Initialized 2 species with 3 total atoms.

Folded 1 k-points by 1x1x1 to 1 k-points.

---------- Setting up k-points, bands, fillings ----------
No reducable k-points. 
Computing the number of bands and number of electrons
Calculating initial fillings.
nElectrons:  24.000000   nBands: 12   nStates: 1

----- Setting up reduced wavefunction bases (one per k-point) -----
average nbasis = 109673.000 , ideal nbasis = 109671.883

---------- Setting up coulomb interaction ----------
Fluid mode embedding: using embedded box, but periodic Coulomb kernel.
(Fluid response is responsible for (approximate) separation between periodic images.)
Setting up double-sized grid for truncated Coulomb potentials:
R = 
[      56.0116     -28.0058            0  ]
[            0      48.5075            0  ]
[            0            0      75.5892  ]
unit cell volume = 205374
G =
[   0.112177  0.0647651         -0  ]
[          0    0.12953          0  ]
[          0         -0  0.0831228  ]
Chosen fftbox size, S = [  256  256  360  ]
Integer grid location selected as the embedding center:
   Grid: [  61  54  126  ]
   Lattice: [  0.479924  0.419798  0.7  ]
   Cartesian: [  7.56227  10.1817  26.4562  ]
Constructing Wigner-Seitz cell: 8 faces (6 quadrilaterals, 2 hexagons)
Range-separation parameter for embedded mesh potentials due to point charges: 0.590105 bohrs.

---------- Setting up ewald sum ----------
Optimum gaussian width for ewald sums = 19.599212 bohr.
Real space sum over 1089 unit cells with max indices [  5  5  4  ]
Reciprocal space sum over 2535 terms with max indices [  6  6  7  ]

---------- Allocating electronic variables ----------
Initializing wave functions:  linear combination of atomic orbitals
S pseudo-atom occupations:   s ( 2 )  p ( 4 )
Na pseudo-atom occupations:   s ( 2 1 )  p ( 6 )
	FillingsUpdate:  mu: +0.174243803  nElectrons: 24.000000
LCAOMinimize: Iter:   0  Etot: -105.3748020126013500  |grad|_K:  3.090e-02  alpha:  1.000e+00
	FillingsUpdate:  mu: +0.158360196  nElectrons: 24.000000
LCAOMinimize: Iter:   1  Etot: -105.4004462356806471  |grad|_K:  3.451e-02  alpha:  9.918e-02  linmin: -2.215e-01  cgtest:  7.733e-01  t[s]:      3.94
LCAOMinimize: 	Wrong curvature in test step, increasing alphaT to 2.975520e-01.
	FillingsUpdate:  mu: +0.119756039  nElectrons: 24.000000
LCAOMinimize: Iter:   2  Etot: -105.4501057019825083  |grad|_K:  3.840e-02  alpha: -1.686e-01  linmin: -2.811e-01  cgtest:  6.765e-01  t[s]:      4.23
	FillingsUpdate:  mu: -0.089159867  nElectrons: 24.000000
LCAOMinimize: Iter:   3  Etot: -105.5504073435072314  |grad|_K:  1.269e-02  alpha:  1.648e-01  linmin:  4.453e-01  cgtest: -4.794e-01  t[s]:      4.51
LCAOMinimize: None of the convergence criteria satisfied after 3 iterations.
----- createFluidSolver() ----- (Fluid-side solver setup)
   Initializing fluid molecule 'PC'
     Net charge: 0   dipole magnitude: 0
     Initializing spherical shell mfKernel with radius 0 Bohr
     deltaS corrections:

Correction to mu due to finite nuclear width = -0.000115948
   Cavity determined by nc: 0.00098 and sigma: 0.6
   Effective cavity tension: 9.53e-06 Eh/bohr^2 to account for cavitation and dispersion.


---- Citations for features of the code used in this run ----

   Software package:
      R. Sundararaman, K. Letchworth-Weaver, K.A. Schwarz, D. Gunceler, Y. Ozhabes and T.A. Arias, 'JDFTx: software for joint density-functional theory', SoftwareX 6, 278 (2017)

   gga-PBE exchange-correlation functional:
      J.P. Perdew, K. Burke and M. Ernzerhof, Phys. Rev. Lett. 77, 3865 (1996)

   Pseudopotentials:
      KF Garrity, JW Bennett, KM Rabe and D Vanderbilt, Comput. Mater. Sci. 81, 446 (2014)

   Truncated Coulomb potentials:
      R. Sundararaman and T.A. Arias, Phys. Rev. B 87, 165122 (2013)

   Linear/nonlinear dielectric/ionic fluid model with effective cavity tension:
      D. Gunceler, K. Letchworth-Weaver, R. Sundararaman, K.A. Schwarz and T.A. Arias, Modelling Simul. Mater. Sci. Eng. 21, 074005 (2013)

This list may not be complete. Please suggest additional citations or
report any other bugs at https://github.com/shankar1729/jdftx/issues

Initialization completed successfully at t[s]:      4.52

Fluid solver invoked on fresh (random / LCAO) wavefunctions
Running a vacuum solve first:

-------- Initial electronic minimization -----------
Will mix electronic density at each iteration.
SCF: Cycle:  0   Etot: -105.603128822488344   dEtot: -5.272e-02   |Residual|: 1.061e-01   |deigs|: 5.936e-03  t[s]:      4.97
SCF: Cycle:  1   Etot: -105.608902586648128   dEtot: -5.774e-03   |Residual|: 5.813e-02   |deigs|: 2.275e-03  t[s]:      5.31
SCF: Cycle:  2   Etot: -105.612503680791875   dEtot: -3.601e-03   |Residual|: 1.755e-02   |deigs|: 5.797e-03  t[s]:      5.62
SCF: Cycle:  3   Etot: -105.613276341280795   dEtot: -7.727e-04   |Residual|: 1.196e-02   |deigs|: 2.318e-03  t[s]:      5.93
SCF: Cycle:  4   Etot: -105.613559546979431   dEtot: -2.832e-04   |Residual|: 6.942e-03   |deigs|: 2.536e-03  t[s]:      6.24
SCF: Cycle:  5   Etot: -105.613760570790220   dEtot: -2.010e-04   |Residual|: 5.424e-03   |deigs|: 1.379e-03  t[s]:      6.54
SCF: Cycle:  6   Etot: -105.613851218035080   dEtot: -9.065e-05   |Residual|: 3.738e-03   |deigs|: 2.570e-03  t[s]:      6.85
SCF: Cycle:  7   Etot: -105.613893553257327   dEtot: -4.234e-05   |Residual|: 2.885e-03   |deigs|: 9.844e-04  t[s]:      7.17
SCF: Cycle:  8   Etot: -105.613927020534959   dEtot: -3.347e-05   |Residual|: 3.515e-03   |deigs|: 2.010e-03  t[s]:      7.48
SCF: Cycle:  9   Etot: -105.613943248912804   dEtot: -1.623e-05   |Residual|: 1.592e-03   |deigs|: 4.646e-04  t[s]:      7.80
SCF: Cycle: 10   Etot: -105.613946542468852   dEtot: -3.294e-06   |Residual|: 2.442e-03   |deigs|: 7.064e-04  t[s]:      8.12
SCF: Cycle: 11   Etot: -105.613966369208754   dEtot: -1.983e-05   |Residual|: 9.747e-04   |deigs|: 4.189e-04  t[s]:      8.44
SCF: Cycle: 12   Etot: -105.613972883807534   dEtot: -6.515e-06   |Residual|: 4.791e-04   |deigs|: 3.633e-04  t[s]:      8.75
SCF: Cycle: 13   Etot: -105.613971682460090   dEtot: +1.201e-06   |Residual|: 1.138e-03   |deigs|: 1.015e-04  t[s]:      9.08
SCF: Cycle: 14   Etot: -105.613977406747139   dEtot: -5.724e-06   |Residual|: 4.860e-04   |deigs|: 2.748e-04  t[s]:      9.41
SCF: Cycle: 15   Etot: -105.613979650804737   dEtot: -2.244e-06   |Residual|: 3.736e-04   |deigs|: 2.550e-04  t[s]:      9.71
SCF: Cycle: 16   Etot: -105.613979793651538   dEtot: -1.428e-07   |Residual|: 3.481e-04   |deigs|: 8.922e-06  t[s]:     10.03
SCF: Cycle: 17   Etot: -105.613980294077606   dEtot: -5.004e-07   |Residual|: 2.691e-04   |deigs|: 2.235e-04  t[s]:     10.36
SCF: Cycle: 18   Etot: -105.613980357949814   dEtot: -6.387e-08   |Residual|: 2.228e-04   |deigs|: 1.980e-05  t[s]:     10.64
SCF: Cycle: 19   Etot: -105.613980646428473   dEtot: -2.885e-07   |Residual|: 9.845e-05   |deigs|: 9.404e-05  t[s]:     10.95
SCF: Cycle: 20   Etot: -105.613980670918295   dEtot: -2.449e-08   |Residual|: 6.351e-05   |deigs|: 1.697e-05  t[s]:     11.25
SCF: Cycle: 21   Etot: -105.613980681638182   dEtot: -1.072e-08   |Residual|: 8.753e-05   |deigs|: 2.362e-05  t[s]:     11.56
SCF: Cycle: 22   Etot: -105.613980713416950   dEtot: -3.178e-08   |Residual|: 3.907e-05   |deigs|: 2.718e-05  t[s]:     11.89
SCF: Cycle: 23   Etot: -105.613980715210502   dEtot: -1.794e-09   |Residual|: 5.928e-05   |deigs|: 2.296e-05  t[s]:     12.21
SCF: Cycle: 24   Etot: -105.613980735039192   dEtot: -1.983e-08   |Residual|: 1.855e-05   |deigs|: 2.906e-05  t[s]:     12.53
SCF: Cycle: 25   Etot: -105.613980731751610   dEtot: +3.288e-09   |Residual|: 3.322e-05   |deigs|: 6.627e-06  t[s]:     12.83
SCF: Cycle: 26   Etot: -105.613980733226356   dEtot: -1.475e-09   |Residual|: 1.611e-05   |deigs|: 1.581e-05  t[s]:     13.16
SCF: Cycle: 27   Etot: -105.613980734257609   dEtot: -1.031e-09   |Residual|: 2.232e-05   |deigs|: 9.628e-06  t[s]:     13.47
SCF: Converged (|Delta E|<1.000000e-08 for 2 iters).

Setting wave functions to eigenvectors of Hamiltonian
Vacuum energy after initial minimize, Etot = -105.613980734257609


-------- Electronic minimization -----------
Will mix electronic density at each iteration.
	Linear fluid (dielectric constant: 64) occupying 0.996886 of unit cell:	Completed after 24 iterations at t[s]:     14.97
	Linear fluid (dielectric constant: 64) occupying 0.997346 of unit cell:	Completed after 25 iterations at t[s]:     17.44
SCF: Cycle:  0   Etot: -105.789590221957582   dEtot: -4.778e-02   |Residual|: 6.861e-02   |deigs|: 4.784e-03  t[s]:     17.72
	Linear fluid (dielectric constant: 64) occupying 0.996981 of unit cell:	Completed after 19 iterations at t[s]:     19.35
	Linear fluid (dielectric constant: 64) occupying 0.997284 of unit cell:	Completed after 24 iterations at t[s]:     21.71
SCF: Cycle:  1   Etot: -105.797070022262304   dEtot: -7.480e-03   |Residual|: 4.143e-02   |deigs|: 1.371e-02  t[s]:     21.97
	Linear fluid (dielectric constant: 64) occupying 0.997152 of unit cell:	Completed after 18 iterations at t[s]:     23.55
	Linear fluid (dielectric constant: 64) occupying 0.997178 of unit cell:	Completed after 21 iterations at t[s]:     25.67
SCF: Cycle:  2   Etot: -105.801606611945658   dEtot: -4.537e-03   |Residual|: 2.577e-02   |deigs|: 1.756e-02  t[s]:     25.93
	Linear fluid (dielectric constant: 64) occupying 0.997209 of unit cell:	Completed after 17 iterations at t[s]:     27.45
	Linear fluid (dielectric constant: 64) occupying 0.997230 of unit cell:	Completed after 20 iterations at t[s]:     29.53
SCF: Cycle:  3   Etot: -105.800624670961440   dEtot: +9.819e-04   |Residual|: 2.051e-02   |deigs|: 5.549e-03  t[s]:     29.79
	Linear fluid (dielectric constant: 64) occupying 0.997303 of unit cell:	Completed after 15 iterations at t[s]:     31.13
	Linear fluid (dielectric constant: 64) occupying 0.997190 of unit cell:	Completed after 13 iterations at t[s]:     32.71
SCF: Cycle:  4   Etot: -105.801812620832990   dEtot: -1.188e-03   |Residual|: 1.279e-02   |deigs|: 8.645e-03  t[s]:     32.98
	Linear fluid (dielectric constant: 64) occupying 0.997220 of unit cell:	Completed after 8 iterations at t[s]:     33.81
	Linear fluid (dielectric constant: 64) occupying 0.997124 of unit cell:	Completed after 12 iterations at t[s]:     35.31
SCF: Cycle:  5   Etot: -105.802498105809832   dEtot: -6.855e-04   |Residual|: 9.678e-03   |deigs|: 2.878e-03  t[s]:     35.60
	Linear fluid (dielectric constant: 64) occupying 0.997183 of unit cell:	Completed after 12 iterations at t[s]:     36.73
	Linear fluid (dielectric constant: 64) occupying 0.997116 of unit cell:	Completed after 11 iterations at t[s]:     38.16
SCF: Cycle:  6   Etot: -105.802622992107672   dEtot: -1.249e-04   |Residual|: 7.776e-03   |deigs|: 9.091e-04  t[s]:     38.43
	Linear fluid (dielectric constant: 64) occupying 0.997091 of unit cell:	Completed after 7 iterations at t[s]:     39.17
	Linear fluid (dielectric constant: 64) occupying 0.997142 of unit cell:	Completed after 11 iterations at t[s]:     40.63
SCF: Cycle:  7   Etot: -105.802718912835729   dEtot: -9.592e-05   |Residual|: 8.475e-03   |deigs|: 4.419e-03  t[s]:     40.91
	Linear fluid (dielectric constant: 64) occupying 0.997061 of unit cell:	Completed after 9 iterations at t[s]:     41.80
	Linear fluid (dielectric constant: 64) occupying 0.997130 of unit cell:	Completed after 7 iterations at t[s]:     42.95
SCF: Cycle:  8   Etot: -105.802856992561559   dEtot: -1.381e-04   |Residual|: 5.714e-03   |deigs|: 8.296e-04  t[s]:     43.22
	Linear fluid (dielectric constant: 64) occupying 0.997066 of unit cell:	Completed after 7 iterations at t[s]:     43.98
	Linear fluid (dielectric constant: 64) occupying 0.997111 of unit cell:	Completed after 5 iterations at t[s]:     45.03
SCF: Cycle:  9   Etot: -105.802952083760729   dEtot: -9.509e-05   |Residual|: 2.627e-03   |deigs|: 9.082e-04  t[s]:     45.27
	Linear fluid (dielectric constant: 64) occupying 0.997091 of unit cell:	Completed after 6 iterations at t[s]:     45.98
	Linear fluid (dielectric constant: 64) occupying 0.997111 of unit cell:	Completed after 4 iterations at t[s]:     46.99
SCF: Cycle: 10   Etot: -105.802990189744520   dEtot: -3.811e-05   |Residual|: 1.814e-03   |deigs|: 4.484e-04  t[s]:     47.18
	Linear fluid (dielectric constant: 64) occupying 0.997126 of unit cell:	Completed after 4 iterations at t[s]:     47.80
	Linear fluid (dielectric constant: 64) occupying 0.997117 of unit cell:	Completed after 4 iterations at t[s]:     48.78
SCF: Cycle: 11   Etot: -105.803001871053823   dEtot: -1.168e-05   |Residual|: 1.712e-03   |deigs|: 2.907e-04  t[s]:     48.99
	Linear fluid (dielectric constant: 64) occupying 0.997118 of unit cell:	Completed after 4 iterations at t[s]:     49.61
	Linear fluid (dielectric constant: 64) occupying 0.997116 of unit cell:	Completed after 4 iterations at t[s]:     50.51
SCF: Cycle: 12   Etot: -105.803002568289386   dEtot: -6.972e-07   |Residual|: 9.769e-04   |deigs|: 2.417e-04  t[s]:     50.71
	Linear fluid (dielectric constant: 64) occupying 0.997117 of unit cell:	Completed after 0 iterations at t[s]:     51.15
	Linear fluid (dielectric constant: 64) occupying 0.997116 of unit cell:	Completed after 3 iterations at t[s]:     52.04
SCF: Cycle: 13   Etot: -105.803003081024542   dEtot: -5.127e-07   |Residual|: 7.893e-04   |deigs|: 1.094e-04  t[s]:     52.24
	Linear fluid (dielectric constant: 64) occupying 0.997113 of unit cell:	Completed after 2 iterations at t[s]:     52.78
	Linear fluid (dielectric constant: 64) occupying 0.997115 of unit cell:	Completed after 1 iterations at t[s]:     53.59
SCF: Cycle: 14   Etot: -105.803003761888050   dEtot: -6.809e-07   |Residual|: 6.640e-04   |deigs|: 2.757e-04  t[s]:     53.79
	Linear fluid (dielectric constant: 64) occupying 0.997115 of unit cell:	Completed after 0 iterations at t[s]:     54.26
	Linear fluid (dielectric constant: 64) occupying 0.997116 of unit cell:	Completed after 0 iterations at t[s]:     54.93
SCF: Cycle: 15   Etot: -105.803003932238113   dEtot: -1.704e-07   |Residual|: 3.397e-04   |deigs|: 3.763e-05  t[s]:     55.13
	Linear fluid (dielectric constant: 64) occupying 0.997114 of unit cell:	Completed after 0 iterations at t[s]:     55.50
	Linear fluid (dielectric constant: 64) occupying 0.997117 of unit cell:	Completed after 0 iterations at t[s]:     56.14
SCF: Cycle: 16   Etot: -105.803004667982862   dEtot: -7.357e-07   |Residual|: 2.819e-04   |deigs|: 4.608e-05  t[s]:     56.33
	Linear fluid (dielectric constant: 64) occupying 0.997116 of unit cell:	Completed after 1 iterations at t[s]:     56.74
	Linear fluid (dielectric constant: 64) occupying 0.997117 of unit cell:	Completed after 0 iterations at t[s]:     57.43
SCF: Cycle: 17   Etot: -105.803004454412076   dEtot: +2.136e-07   |Residual|: 1.741e-04   |deigs|: 5.192e-05  t[s]:     57.63
	Linear fluid (dielectric constant: 64) occupying 0.997117 of unit cell:	Completed after 0 iterations at t[s]:     57.99
	Linear fluid (dielectric constant: 64) occupying 0.997117 of unit cell:	Completed after 0 iterations at t[s]:     58.63
SCF: Cycle: 18   Etot: -105.803004626351026   dEtot: -1.719e-07   |Residual|: 1.237e-04   |deigs|: 3.883e-05  t[s]:     58.83
	Linear fluid (dielectric constant: 64) occupying 0.997118 of unit cell:	Completed after 0 iterations at t[s]:     59.17
	Linear fluid (dielectric constant: 64) occupying 0.997117 of unit cell:	Completed after 0 iterations at t[s]:     59.85
SCF: Cycle: 19   Etot: -105.803004656741010   dEtot: -3.039e-08   |Residual|: 1.203e-04   |deigs|: 1.402e-05  t[s]:     60.05
	Linear fluid (dielectric constant: 64) occupying 0.997117 of unit cell:	Completed after 0 iterations at t[s]:     60.41
	Linear fluid (dielectric constant: 64) occupying 0.997117 of unit cell:	Completed after 0 iterations at t[s]:     61.05
SCF: Cycle: 20   Etot: -105.803004727256777   dEtot: -7.052e-08   |Residual|: 1.290e-04   |deigs|: 1.268e-05  t[s]:     61.25
	Linear fluid (dielectric constant: 64) occupying 0.997116 of unit cell:	Completed after 0 iterations at t[s]:     61.58
	Linear fluid (dielectric constant: 64) occupying 0.997116 of unit cell:	Completed after 0 iterations at t[s]:     62.21
SCF: Cycle: 21   Etot: -105.803004734599412   dEtot: -7.343e-09   |Residual|: 6.745e-05   |deigs|: 4.077e-06  t[s]:     62.40
	Linear fluid (dielectric constant: 64) occupying 0.997116 of unit cell:	Completed after 0 iterations at t[s]:     62.74
	Linear fluid (dielectric constant: 64) occupying 0.997116 of unit cell:	Completed after 0 iterations at t[s]:     63.38
SCF: Cycle: 22   Etot: -105.803004759342784   dEtot: -2.474e-08   |Residual|: 4.809e-05   |deigs|: 2.506e-06  t[s]:     63.57
	Linear fluid (dielectric constant: 64) occupying 0.997116 of unit cell:	Completed after 0 iterations at t[s]:     63.91
	Linear fluid (dielectric constant: 64) occupying 0.997116 of unit cell:	Completed after 0 iterations at t[s]:     64.55
SCF: Cycle: 23   Etot: -105.803004790151803   dEtot: -3.081e-08   |Residual|: 3.314e-05   |deigs|: 3.325e-06  t[s]:     64.76
	Linear fluid (dielectric constant: 64) occupying 0.997116 of unit cell:	Completed after 0 iterations at t[s]:     65.09
	Linear fluid (dielectric constant: 64) occupying 0.997116 of unit cell:	Completed after 0 iterations at t[s]:     65.71
SCF: Cycle: 24   Etot: -105.803004794363147   dEtot: -4.211e-09   |Residual|: 2.465e-05   |deigs|: 9.207e-07  t[s]:     65.90
	Linear fluid (dielectric constant: 64) occupying 0.997116 of unit cell:	Completed after 0 iterations at t[s]:     66.24
	Linear fluid (dielectric constant: 64) occupying 0.997116 of unit cell:	Completed after 0 iterations at t[s]:     66.88
SCF: Cycle: 25   Etot: -105.803004794961467   dEtot: -5.983e-10   |Residual|: 2.729e-05   |deigs|: 1.142e-06  t[s]:     67.08
SCF: Converged (|Delta E|<1.000000e-08 for 2 iters).

Setting wave functions to eigenvectors of Hamiltonian
Single-point solvation energy estimate, DeltaEtot = -0.189024060703858

# Ionic positions in cartesian coordinates:
ion S   7.562685799317076  10.092958691311287  26.456219999999998 1
ion Na   3.570935584093532  12.697390495689309  26.456219999999998 1
ion Na  11.551298470729389  12.699762872599402  26.456219999999998 1

# Forces in Cartesian coordinates:
force S  -0.000040978853985  -0.022676437534142   0.000000000000000 1
force Na  -0.017069714288788   0.010783614296585   0.000000000000000 1
force Na   0.017111293187616   0.010852944443325   0.000000000000000 1

# Energy components:
   A_diel =       -0.2522295803604893
   Eewald =       19.6617576906644764
       EH =      107.9412244353378156
     Eloc =      -95.0690075947767781
      Enl =     -142.1387017747323682
      Exc =      -18.6100224373665100
 Exc_core =        1.7677287283734588
       KE =       20.8962457378989406
-------------------------------------
     Etot =     -105.8030047949614669

IonicMinimize: Iter:   0  Etot: -105.803004794961467  |grad|_K:  1.217e-02  alpha:  1.000e+00

#--- Lowdin population analysis ---
# oxidation-state S -1.538
# oxidation-state Na +0.871 +0.871


-------- Electronic minimization -----------
Will mix electronic density at each iteration.
	Linear fluid (dielectric constant: 64) occupying 0.997115 of unit cell:	Completed after 15 iterations at t[s]:     68.39
	Linear fluid (dielectric constant: 64) occupying 0.997083 of unit cell:	Completed after 16 iterations at t[s]:     70.13
SCF: Cycle:  0   Etot: -105.803117106523146   dEtot: -1.530e-02   |Residual|: 5.676e-02   |deigs|: 1.053e-03  t[s]:     70.40
	Linear fluid (dielectric constant: 64) occupying 0.997114 of unit cell:	Completed after 17 iterations at t[s]:     71.88
	Linear fluid (dielectric constant: 64) occupying 0.997091 of unit cell:	Completed after 16 iterations at t[s]:     73.68
SCF: Cycle:  1   Etot: -105.803853190097101   dEtot: -7.361e-04   |Residual|: 2.816e-02   |deigs|: 9.434e-04  t[s]:     73.96
	Linear fluid (dielectric constant: 64) occupying 0.997103 of unit cell:	Completed after 16 iterations at t[s]:     75.35
	Linear fluid (dielectric constant: 64) occupying 0.997105 of unit cell:	Completed after 14 iterations at t[s]:     77.00
SCF: Cycle:  2   Etot: -105.804218540255448   dEtot: -3.654e-04   |Residual|: 5.390e-03   |deigs|: 1.634e-03  t[s]:     77.28
	Linear fluid (dielectric constant: 64) occupying 0.997096 of unit cell:	Completed after 11 iterations at t[s]:     78.31
	Linear fluid (dielectric constant: 64) occupying 0.997105 of unit cell:	Completed after 11 iterations at t[s]:     79.76
SCF: Cycle:  3   Etot: -105.804245678984202   dEtot: -2.714e-05   |Residual|: 2.738e-03   |deigs|: 1.298e-03  t[s]:     80.03
	Linear fluid (dielectric constant: 64) occupying 0.997092 of unit cell:	Completed after 6 iterations at t[s]:     80.71
	Linear fluid (dielectric constant: 64) occupying 0.997105 of unit cell:	Completed after 7 iterations at t[s]:     81.82
SCF: Cycle:  4   Etot: -105.804264700758040   dEtot: -1.902e-05   |Residual|: 1.291e-03   |deigs|: 6.342e-04  t[s]:     82.11
	Linear fluid (dielectric constant: 64) occupying 0.997092 of unit cell:	Completed after 4 iterations at t[s]:     82.74
	Linear fluid (dielectric constant: 64) occupying 0.997106 of unit cell:	Completed after 5 iterations at t[s]:     83.68
SCF: Cycle:  5   Etot: -105.804272901753734   dEtot: -8.201e-06   |Residual|: 8.211e-04   |deigs|: 1.107e-04  t[s]:     83.93
	Linear fluid (dielectric constant: 64) occupying 0.997094 of unit cell:	Completed after 5 iterations at t[s]:     84.58
	Linear fluid (dielectric constant: 64) occupying 0.997107 of unit cell:	Completed after 3 iterations at t[s]:     85.51
SCF: Cycle:  6   Etot: -105.804276854995010   dEtot: -3.953e-06   |Residual|: 6.402e-04   |deigs|: 1.514e-04  t[s]:     85.71
	Linear fluid (dielectric constant: 64) occupying 0.997098 of unit cell:	Completed after 3 iterations at t[s]:     86.28
	Linear fluid (dielectric constant: 64) occupying 0.997108 of unit cell:	Completed after 3 iterations at t[s]:     87.15
SCF: Cycle:  7   Etot: -105.804279059218601   dEtot: -2.204e-06   |Residual|: 5.213e-04   |deigs|: 9.053e-05  t[s]:     87.34
	Linear fluid (dielectric constant: 64) occupying 0.997104 of unit cell:	Completed after 0 iterations at t[s]:     87.76
	Linear fluid (dielectric constant: 64) occupying 0.997108 of unit cell:	Completed after 1 iterations at t[s]:     88.59
SCF: Cycle:  8   Etot: -105.804281127552173   dEtot: -2.068e-06   |Residual|: 3.551e-04   |deigs|: 4.626e-05  t[s]:     88.79
	Linear fluid (dielectric constant: 64) occupying 0.997107 of unit cell:	Completed after 3 iterations at t[s]:     89.36
	Linear fluid (dielectric constant: 64) occupying 0.997107 of unit cell:	Completed after 2 iterations at t[s]:     90.19
SCF: Cycle:  9   Etot: -105.804280887349194   dEtot: +2.402e-07   |Residual|: 7.055e-04   |deigs|: 3.740e-04  t[s]:     90.38
	Linear fluid (dielectric constant: 64) occupying 0.997107 of unit cell:	Completed after 0 iterations at t[s]:     90.84
	Linear fluid (dielectric constant: 64) occupying 0.997109 of unit cell:	Completed after 0 iterations at t[s]:     91.49
SCF: Cycle: 10   Etot: -105.804281346598614   dEtot: -4.592e-07   |Residual|: 2.252e-04   |deigs|: 2.046e-04  t[s]:     91.68
	Linear fluid (dielectric constant: 64) occupying 0.997109 of unit cell:	Completed after 0 iterations at t[s]:     92.02
	Linear fluid (dielectric constant: 64) occupying 0.997109 of unit cell:	Completed after 0 iterations at t[s]:     92.64
SCF: Cycle: 11   Etot: -105.804281707536077   dEtot: -3.609e-07   |Residual|: 2.313e-04   |deigs|: 6.583e-06  t[s]:     92.83
	Linear fluid (dielectric constant: 64) occupying 0.997109 of unit cell:	Completed after 0 iterations at t[s]:     93.20
	Linear fluid (dielectric constant: 64) occupying 0.997109 of unit cell:	Completed after 0 iterations at t[s]:     93.85
SCF: Cycle: 12   Etot: -105.804282168324846   dEtot: -4.608e-07   |Residual|: 2.900e-04   |deigs|: 3.492e-05  t[s]:     94.04
	Linear fluid (dielectric constant: 64) occupying 0.997109 of unit cell:	Completed after 0 iterations at t[s]:     94.38
	Linear fluid (dielectric constant: 64) occupying 0.997109 of unit cell:	Completed after 0 iterations at t[s]:     94.99
SCF: Cycle: 13   Etot: -105.804282296217707   dEtot: -1.279e-07   |Residual|: 2.245e-04   |deigs|: 6.741e-06  t[s]:     95.18
	Linear fluid (dielectric constant: 64) occupying 0.997109 of unit cell:	Completed after 0 iterations at t[s]:     95.55
	Linear fluid (dielectric constant: 64) occupying 0.997109 of unit cell:	Completed after 0 iterations at t[s]:     96.24
SCF: Cycle: 14   Etot: -105.804282216261186   dEtot: +7.996e-08   |Residual|: 2.358e-04   |deigs|: 5.482e-05  t[s]:     96.44
	Linear fluid (dielectric constant: 64) occupying 0.997109 of unit cell:	Completed after 0 iterations at t[s]:     96.80
	Linear fluid (dielectric constant: 64) occupying 0.997109 of unit cell:	Completed after 0 iterations at t[s]:     97.41
SCF: Cycle: 15   Etot: -105.804282226894230   dEtot: -1.063e-08   |Residual|: 1.924e-04   |deigs|: 4.136e-05  t[s]:     97.61
	Linear fluid (dielectric constant: 64) occupying 0.997109 of unit cell:	Completed after 0 iterations at t[s]:     97.94
	Linear fluid (dielectric constant: 64) occupying 0.997109 of unit cell:	Completed after 0 iterations at t[s]:     98.59
SCF: Cycle: 16   Etot: -105.804282276335272   dEtot: -4.944e-08   |Residual|: 1.715e-04   |deigs|: 1.158e-06  t[s]:     98.78
	Linear fluid (dielectric constant: 64) occupying 0.997109 of unit cell:	Completed after 0 iterations at t[s]:     99.12
	Linear fluid (dielectric constant: 64) occupying 0.997109 of unit cell:	Completed after 0 iterations at t[s]:     99.73
SCF: Cycle: 17   Etot: -105.804282351426934   dEtot: -7.509e-08   |Residual|: 1.163e-04   |deigs|: 2.608e-06  t[s]:     99.93
	Linear fluid (dielectric constant: 64) occupying 0.997110 of unit cell:	Completed after 0 iterations at t[s]:    100.26
	Linear fluid (dielectric constant: 64) occupying 0.997109 of unit cell:	Completed after 0 iterations at t[s]:    100.88
SCF: Cycle: 18   Etot: -105.804282411157999   dEtot: -5.973e-08   |Residual|: 7.635e-05   |deigs|: 2.667e-06  t[s]:    101.08
	Linear fluid (dielectric constant: 64) occupying 0.997110 of unit cell:	Completed after 0 iterations at t[s]:    101.41
	Linear fluid (dielectric constant: 64) occupying 0.997109 of unit cell:	Completed after 0 iterations at t[s]:    102.05
SCF: Cycle: 19   Etot: -105.804282436788498   dEtot: -2.563e-08   |Residual|: 7.307e-05   |deigs|: 1.438e-06  t[s]:    102.25
	Linear fluid (dielectric constant: 64) occupying 0.997110 of unit cell:	Completed after 0 iterations at t[s]:    102.58
	Linear fluid (dielectric constant: 64) occupying 0.997110 of unit cell:	Completed after 0 iterations at t[s]:    103.23
SCF: Cycle: 20   Etot: -105.804282476450538   dEtot: -3.966e-08   |Residual|: 7.035e-05   |deigs|: 3.545e-06  t[s]:    103.42
	Linear fluid (dielectric constant: 64) occupying 0.997110 of unit cell:	Completed after 0 iterations at t[s]:    103.76
	Linear fluid (dielectric constant: 64) occupying 0.997110 of unit cell:	Completed after 0 iterations at t[s]:    104.43
SCF: Cycle: 21   Etot: -105.804282342119990   dEtot: +1.343e-07   |Residual|: 6.946e-05   |deigs|: 1.862e-06  t[s]:    104.62
	Linear fluid (dielectric constant: 64) occupying 0.997110 of unit cell:	Completed after 0 iterations at t[s]:    104.99
	Linear fluid (dielectric constant: 64) occupying 0.997109 of unit cell:	Completed after 0 iterations at t[s]:    105.61
SCF: Cycle: 22   Etot: -105.804282360916233   dEtot: -1.880e-08   |Residual|: 7.114e-05   |deigs|: 4.354e-05  t[s]:    105.80
	Linear fluid (dielectric constant: 64) occupying 0.997110 of unit cell:	Completed after 0 iterations at t[s]:    106.14
	Linear fluid (dielectric constant: 64) occupying 0.997110 of unit cell:	Completed after 0 iterations at t[s]:    106.76
SCF: Cycle: 23   Etot: -105.804282354563441   dEtot: +6.353e-09   |Residual|: 5.116e-05   |deigs|: 2.236e-06  t[s]:    106.96
	Linear fluid (dielectric constant: 64) occupying 0.997110 of unit cell:	Completed after 0 iterations at t[s]:    111.34
	Linear fluid (dielectric constant: 64) occupying 0.997109 of unit cell:	Completed after 0 iterations at t[s]:    112.00
SCF: Cycle: 24   Etot: -105.804282359889129   dEtot: -5.326e-09   |Residual|: 6.792e-05   |deigs|: 1.003e-06  t[s]:    112.19
	Linear fluid (dielectric constant: 64) occupying 0.997110 of unit cell:	Completed after 0 iterations at t[s]:    115.90
	Linear fluid (dielectric constant: 64) occupying 0.997109 of unit cell:	Completed after 0 iterations at t[s]:    116.52
SCF: Cycle: 25   Etot: -105.804282364392549   dEtot: -4.503e-09   |Residual|: 7.995e-05   |deigs|: 9.028e-07  t[s]:    116.72
SCF: Converged (|Delta E|<1.000000e-08 for 2 iters).

Setting wave functions to eigenvectors of Hamiltonian
IonicMinimize: 	Predicted alpha/alphaT>3.000000, increasing alphaT to 3.000000e+00.

-------- Electronic minimization -----------
Will mix electronic density at each iteration.
	Linear fluid (dielectric constant: 64) occupying 0.997108 of unit cell:	Completed after 18 iterations at t[s]:    117.87
	Linear fluid (dielectric constant: 64) occupying 0.997042 of unit cell:	Completed after 18 iterations at t[s]:    120.95
SCF: Cycle:  0   Etot: -105.801887597580574   dEtot: -6.125e-02   |Residual|: 1.145e-01   |deigs|: 4.218e-03  t[s]:    121.23
	Linear fluid (dielectric constant: 64) occupying 0.997103 of unit cell:	Completed after 21 iterations at t[s]:    123.02
	Linear fluid (dielectric constant: 64) occupying 0.997059 of unit cell:	Completed after 19 iterations at t[s]:    125.02
SCF: Cycle:  1   Etot: -105.804877811931973   dEtot: -2.990e-03   |Residual|: 5.644e-02   |deigs|: 3.231e-03  t[s]:    125.30
	Linear fluid (dielectric constant: 64) occupying 0.997081 of unit cell:	Completed after 19 iterations at t[s]:    126.93
	Linear fluid (dielectric constant: 64) occupying 0.997085 of unit cell:	Completed after 17 iterations at t[s]:    128.79
SCF: Cycle:  2   Etot: -105.806351957407571   dEtot: -1.474e-03   |Residual|: 1.098e-02   |deigs|: 2.914e-03  t[s]:    129.07
	Linear fluid (dielectric constant: 64) occupying 0.997068 of unit cell:	Completed after 16 iterations at t[s]:    130.45
	Linear fluid (dielectric constant: 64) occupying 0.997085 of unit cell:	Completed after 16 iterations at t[s]:    132.26
SCF: Cycle:  3   Etot: -105.806463419293380   dEtot: -1.115e-04   |Residual|: 5.639e-03   |deigs|: 2.876e-03  t[s]:    132.54
	Linear fluid (dielectric constant: 64) occupying 0.997057 of unit cell:	Completed after 9 iterations at t[s]:    133.44
	Linear fluid (dielectric constant: 64) occupying 0.997087 of unit cell:	Completed after 10 iterations at t[s]:    134.82
SCF: Cycle:  4   Etot: -105.806541448581200   dEtot: -7.803e-05   |Residual|: 2.698e-03   |deigs|: 1.771e-03  t[s]:    135.08
	Linear fluid (dielectric constant: 64) occupying 0.997059 of unit cell:	Completed after 7 iterations at t[s]:    135.87
	Linear fluid (dielectric constant: 64) occupying 0.997089 of unit cell:	Completed after 7 iterations at t[s]:    137.01
SCF: Cycle:  5   Etot: -105.806576174375294   dEtot: -3.473e-05   |Residual|: 1.793e-03   |deigs|: 4.290e-04  t[s]:    137.28
	Linear fluid (dielectric constant: 64) occupying 0.997063 of unit cell:	Completed after 7 iterations at t[s]:    138.06
	Linear fluid (dielectric constant: 64) occupying 0.997089 of unit cell:	Completed after 5 iterations at t[s]:    139.08
SCF: Cycle:  6   Etot: -105.806584735351606   dEtot: -8.561e-06   |Residual|: 1.648e-03   |deigs|: 6.867e-04  t[s]:    139.30
	Linear fluid (dielectric constant: 64) occupying 0.997072 of unit cell:	Completed after 5 iterations at t[s]:    139.95
	Linear fluid (dielectric constant: 64) occupying 0.997090 of unit cell:	Completed after 5 iterations at t[s]:    140.98
SCF: Cycle:  7   Etot: -105.806591897686673   dEtot: -7.162e-06   |Residual|: 9.496e-04   |deigs|: 2.745e-04  t[s]:    141.21
	Linear fluid (dielectric constant: 64) occupying 0.997083 of unit cell:	Completed after 3 iterations at t[s]:    141.79
	Linear fluid (dielectric constant: 64) occupying 0.997092 of unit cell:	Completed after 3 iterations at t[s]:    142.66
SCF: Cycle:  8   Etot: -105.806596250713142   dEtot: -4.353e-06   |Residual|: 6.913e-04   |deigs|: 2.376e-04  t[s]:    142.85
	Linear fluid (dielectric constant: 64) occupying 0.997091 of unit cell:	Completed after 5 iterations at t[s]:    143.51
	Linear fluid (dielectric constant: 64) occupying 0.997093 of unit cell:	Completed after 2 iterations at t[s]:    144.33
SCF: Cycle:  9   Etot: -105.806598385894716   dEtot: -2.135e-06   |Residual|: 5.910e-04   |deigs|: 1.972e-04  t[s]:    144.54
	Linear fluid (dielectric constant: 64) occupying 0.997094 of unit cell:	Completed after 0 iterations at t[s]:    145.01
	Linear fluid (dielectric constant: 64) occupying 0.997093 of unit cell:	Completed after 0 iterations at t[s]:    145.77
SCF: Cycle: 10   Etot: -105.806599934666380   dEtot: -1.549e-06   |Residual|: 4.957e-04   |deigs|: 5.225e-05  t[s]:    145.96
	Linear fluid (dielectric constant: 64) occupying 0.997094 of unit cell:	Completed after 0 iterations at t[s]:    146.39
	Linear fluid (dielectric constant: 64) occupying 0.997093 of unit cell:	Completed after 0 iterations at t[s]:    147.04
SCF: Cycle: 11   Etot: -105.806600719175847   dEtot: -7.845e-07   |Residual|: 3.298e-04   |deigs|: 2.213e-05  t[s]:    147.25
	Linear fluid (dielectric constant: 64) occupying 0.997094 of unit cell:	Completed after 0 iterations at t[s]:    147.58
	Linear fluid (dielectric constant: 64) occupying 0.997094 of unit cell:	Completed after 0 iterations at t[s]:    148.22
SCF: Cycle: 12   Etot: -105.806602151970012   dEtot: -1.433e-06   |Residual|: 2.789e-04   |deigs|: 1.610e-05  t[s]:    148.42
	Linear fluid (dielectric constant: 64) occupying 0.997094 of unit cell:	Completed after 2 iterations at t[s]:    148.86
	Linear fluid (dielectric constant: 64) occupying 0.997093 of unit cell:	Completed after 0 iterations at t[s]:    149.54
SCF: Cycle: 13   Etot: -105.806602009512872   dEtot: +1.425e-07   |Residual|: 2.642e-04   |deigs|: 9.069e-05  t[s]:    149.73
	Linear fluid (dielectric constant: 64) occupying 0.997094 of unit cell:	Completed after 0 iterations at t[s]:    150.07
	Linear fluid (dielectric constant: 64) occupying 0.997093 of unit cell:	Completed after 0 iterations at t[s]:    150.72
SCF: Cycle: 14   Etot: -105.806601954892926   dEtot: +5.462e-08   |Residual|: 2.098e-04   |deigs|: 7.030e-06  t[s]:    150.91
	Linear fluid (dielectric constant: 64) occupying 0.997094 of unit cell:	Completed after 0 iterations at t[s]:    151.31
	Linear fluid (dielectric constant: 64) occupying 0.997092 of unit cell:	Completed after 0 iterations at t[s]:    151.97
SCF: Cycle: 15   Etot: -105.806602044487292   dEtot: -8.959e-08   |Residual|: 1.112e-04   |deigs|: 3.514e-05  t[s]:    152.17
	Linear fluid (dielectric constant: 64) occupying 0.997093 of unit cell:	Completed after 0 iterations at t[s]:    152.50
	Linear fluid (dielectric constant: 64) occupying 0.997092 of unit cell:	Completed after 0 iterations at t[s]:    153.14
SCF: Cycle: 16   Etot: -105.806602144544541   dEtot: -1.001e-07   |Residual|: 9.297e-05   |deigs|: 4.596e-06  t[s]:    153.33
	Linear fluid (dielectric constant: 64) occupying 0.997093 of unit cell:	Completed after 0 iterations at t[s]:    153.67
	Linear fluid (dielectric constant: 64) occupying 0.997092 of unit cell:	Completed after 0 iterations at t[s]:    154.28
SCF: Cycle: 17   Etot: -105.806602160761059   dEtot: -1.622e-08   |Residual|: 7.081e-05   |deigs|: 4.642e-06  t[s]:    154.48
	Linear fluid (dielectric constant: 64) occupying 0.997092 of unit cell:	Completed after 0 iterations at t[s]:    154.81
	Linear fluid (dielectric constant: 64) occupying 0.997092 of unit cell:	Completed after 0 iterations at t[s]:    155.45
SCF: Cycle: 18   Etot: -105.806602236245908   dEtot: -7.548e-08   |Residual|: 6.259e-05   |deigs|: 3.042e-06  t[s]:    155.65
	Linear fluid (dielectric constant: 64) occupying 0.997092 of unit cell:	Completed after 0 iterations at t[s]:    155.98
	Linear fluid (dielectric constant: 64) occupying 0.997091 of unit cell:	Completed after 2 iterations at t[s]:    156.72
SCF: Cycle: 19   Etot: -105.806601517710476   dEtot: +7.185e-07   |Residual|: 4.926e-05   |deigs|: 2.014e-06  t[s]:    156.92
	Linear fluid (dielectric constant: 64) occupying 0.997092 of unit cell:	Completed after 0 iterations at t[s]:    157.34
	Linear fluid (dielectric constant: 64) occupying 0.997094 of unit cell:	Completed after 1 iterations at t[s]:    158.05
SCF: Cycle: 20   Etot: -105.806602141157029   dEtot: -6.234e-07   |Residual|: 4.870e-04   |deigs|: 1.306e-04  t[s]:    158.24
	Linear fluid (dielectric constant: 64) occupying 0.997092 of unit cell:	Completed after 1 iterations at t[s]:    158.71
	Linear fluid (dielectric constant: 64) occupying 0.997093 of unit cell:	Completed after 0 iterations at t[s]:    159.36
SCF: Cycle: 21   Etot: -105.806602281686452   dEtot: -1.405e-07   |Residual|: 4.223e-04   |deigs|: 6.530e-05  t[s]:    159.56
	Linear fluid (dielectric constant: 64) occupying 0.997091 of unit cell:	Completed after 0 iterations at t[s]:    159.89
	Linear fluid (dielectric constant: 64) occupying 0.997093 of unit cell:	Completed after 0 iterations at t[s]:    160.51
SCF: Cycle: 22   Etot: -105.806602266366781   dEtot: +1.532e-08   |Residual|: 4.090e-04   |deigs|: 1.598e-07  t[s]:    160.71
	Linear fluid (dielectric constant: 64) occupying 0.997091 of unit cell:	Completed after 0 iterations at t[s]:    161.05
	Linear fluid (dielectric constant: 64) occupying 0.997093 of unit cell:	Completed after 0 iterations at t[s]:    161.68
SCF: Cycle: 23   Etot: -105.806602275058665   dEtot: -8.692e-09   |Residual|: 3.986e-04   |deigs|: 4.611e-07  t[s]:    161.88
	Linear fluid (dielectric constant: 64) occupying 0.997091 of unit cell:	Completed after 0 iterations at t[s]:    162.22
	Linear fluid (dielectric constant: 64) occupying 0.997093 of unit cell:	Completed after 0 iterations at t[s]:    162.84
SCF: Cycle: 24   Etot: -105.806602290018347   dEtot: -1.496e-08   |Residual|: 3.874e-04   |deigs|: 8.588e-07  t[s]:    163.03
	Linear fluid (dielectric constant: 64) occupying 0.997091 of unit cell:	Completed after 0 iterations at t[s]:    163.37
	Linear fluid (dielectric constant: 64) occupying 0.997093 of unit cell:	Completed after 0 iterations at t[s]:    163.99
SCF: Cycle: 25   Etot: -105.806602298739165   dEtot: -8.721e-09   |Residual|: 3.769e-04   |deigs|: 9.155e-07  t[s]:    164.18
	Linear fluid (dielectric constant: 64) occupying 0.997091 of unit cell:	Completed after 0 iterations at t[s]:    164.52
	Linear fluid (dielectric constant: 64) occupying 0.997093 of unit cell:	Completed after 0 iterations at t[s]:    165.14
SCF: Cycle: 26   Etot: -105.806602296136504   dEtot: +2.603e-09   |Residual|: 3.794e-04   |deigs|: 3.075e-07  t[s]:    165.34
	Linear fluid (dielectric constant: 64) occupying 0.997091 of unit cell:	Completed after 0 iterations at t[s]:    165.67
	Linear fluid (dielectric constant: 64) occupying 0.997093 of unit cell:	Completed after 0 iterations at t[s]:    166.30
SCF: Cycle: 27   Etot: -105.806602284231900   dEtot: +1.190e-08   |Residual|: 3.856e-04   |deigs|: 9.574e-07  t[s]:    166.49
	Linear fluid (dielectric constant: 64) occupying 0.997091 of unit cell:	Completed after 0 iterations at t[s]:    166.83
	Linear fluid (dielectric constant: 64) occupying 0.997093 of unit cell:	Completed after 0 iterations at t[s]:    167.44
SCF: Cycle: 28   Etot: -105.806602277832297   dEtot: +6.400e-09   |Residual|: 3.853e-04   |deigs|: 7.723e-07  t[s]:    167.64
	Linear fluid (dielectric constant: 64) occupying 0.997091 of unit cell:	Completed after 0 iterations at t[s]:    167.97
	Linear fluid (dielectric constant: 64) occupying 0.997093 of unit cell:	Completed after 0 iterations at t[s]:    168.61
SCF: Cycle: 29   Etot: -105.806602319001385   dEtot: -4.117e-08   |Residual|: 3.753e-04   |deigs|: 1.140e-06  t[s]:    168.81
	Linear fluid (dielectric constant: 64) occupying 0.997091 of unit cell:	Completed after 0 iterations at t[s]:    169.13
	Linear fluid (dielectric constant: 64) occupying 0.997093 of unit cell:	Completed after 0 iterations at t[s]:    169.76
SCF: Cycle: 30   Etot: -105.806602313178175   dEtot: +5.823e-09   |Residual|: 3.864e-04   |deigs|: 3.307e-06  t[s]:    169.96
	Linear fluid (dielectric constant: 64) occupying 0.997091 of unit cell:	Completed after 0 iterations at t[s]:    170.29
	Linear fluid (dielectric constant: 64) occupying 0.997093 of unit cell:	Completed after 0 iterations at t[s]:    170.97
SCF: Cycle: 31   Etot: -105.806602153028024   dEtot: +1.602e-07   |Residual|: 3.882e-04   |deigs|: 2.259e-06  t[s]:    171.17
	Linear fluid (dielectric constant: 64) occupying 0.997092 of unit cell:	Completed after 0 iterations at t[s]:    171.53
	Linear fluid (dielectric constant: 64) occupying 0.997093 of unit cell:	Completed after 0 iterations at t[s]:    172.19
SCF: Cycle: 32   Etot: -105.806602084151706   dEtot: +6.888e-08   |Residual|: 2.206e-04   |deigs|: 2.571e-05  t[s]:    172.39
	Linear fluid (dielectric constant: 64) occupying 0.997093 of unit cell:	Completed after 1 iterations at t[s]:    172.79
	Linear fluid (dielectric constant: 64) occupying 0.997093 of unit cell:	Completed after 0 iterations at t[s]:    173.50
SCF: Cycle: 33   Etot: -105.806601793563544   dEtot: +2.906e-07   |Residual|: 2.943e-04   |deigs|: 1.079e-04  t[s]:    173.69
	Linear fluid (dielectric constant: 64) occupying 0.997093 of unit cell:	Completed after 0 iterations at t[s]:    174.06
	Linear fluid (dielectric constant: 64) occupying 0.997093 of unit cell:	Completed after 0 iterations at t[s]:    174.67
SCF: Cycle: 34   Etot: -105.806601865615136   dEtot: -7.205e-08   |Residual|: 1.957e-04   |deigs|: 2.935e-05  t[s]:    174.87
	Linear fluid (dielectric constant: 64) occupying 0.997093 of unit cell:	Completed after 0 iterations at t[s]:    175.20
	Linear fluid (dielectric constant: 64) occupying 0.997093 of unit cell:	Completed after 0 iterations at t[s]:    175.85
SCF: Cycle: 35   Etot: -105.806602078060962   dEtot: -2.124e-07   |Residual|: 1.549e-04   |deigs|: 7.378e-06  t[s]:    176.05
	Linear fluid (dielectric constant: 64) occupying 0.997093 of unit cell:	Completed after 0 iterations at t[s]:    176.38
	Linear fluid (dielectric constant: 64) occupying 0.997093 of unit cell:	Completed after 0 iterations at t[s]:    177.00
SCF: Cycle: 36   Etot: -105.806602138041285   dEtot: -5.998e-08   |Residual|: 1.343e-04   |deigs|: 4.440e-06  t[s]:    177.19
	Linear fluid (dielectric constant: 64) occupying 0.997093 of unit cell:	Completed after 0 iterations at t[s]:    177.53
	Linear fluid (dielectric constant: 64) occupying 0.997093 of unit cell:	Completed after 0 iterations at t[s]:    178.15
SCF: Cycle: 37   Etot: -105.806602144000436   dEtot: -5.959e-09   |Residual|: 1.285e-04   |deigs|: 4.568e-07  t[s]:    178.35
	Linear fluid (dielectric constant: 64) occupying 0.997093 of unit cell:	Completed after 0 iterations at t[s]:    178.68
	Linear fluid (dielectric constant: 64) occupying 0.997092 of unit cell:	Completed after 0 iterations at t[s]:    179.32
SCF: Cycle: 38   Etot: -105.806602138644280   dEtot: +5.356e-09   |Residual|: 1.375e-04   |deigs|: 1.941e-06  t[s]:    179.51
	Linear fluid (dielectric constant: 64) occupying 0.997093 of unit cell:	Completed after 0 iterations at t[s]:    179.85
	Linear fluid (dielectric constant: 64) occupying 0.997092 of unit cell:	Completed after 0 iterations at t[s]:    180.51
SCF: Cycle: 39   Etot: -105.806602140194570   dEtot: -1.550e-09   |Residual|: 1.415e-04   |deigs|: 2.795e-06  t[s]:    180.71
	Linear fluid (dielectric constant: 64) occupying 0.997093 of unit cell:	Completed after 0 iterations at t[s]:    181.04
	Linear fluid (dielectric constant: 64) occupying 0.997092 of unit cell:	Completed after 0 iterations at t[s]:    181.66
SCF: Cycle: 40   Etot: -105.806602142390844   dEtot: -2.196e-09   |Residual|: 1.358e-04   |deigs|: 4.135e-07  t[s]:    181.85
SCF: Converged (|Delta E|<1.000000e-08 for 2 iters).

Setting wave functions to eigenvectors of Hamiltonian
IonicMinimize: 	Predicted alpha/alphaT>3.000000, increasing alphaT to 9.000000e+00.

-------- Electronic minimization -----------
Will mix electronic density at each iteration.
	Linear fluid (dielectric constant: 64) occupying 0.997086 of unit cell:	Completed after 23 iterations at t[s]:    183.35
	Linear fluid (dielectric constant: 64) occupying 0.996945 of unit cell:	Completed after 24 iterations at t[s]:    185.75
SCF: Cycle:  0   Etot: -105.764664765418601   dEtot: -5.573e-01   |Residual|: 3.747e-01   |deigs|: 3.866e-02  t[s]:    186.03
	Linear fluid (dielectric constant: 64) occupying 0.997067 of unit cell:	Completed after 32 iterations at t[s]:    188.56
	Linear fluid (dielectric constant: 64) occupying 0.996963 of unit cell:	Completed after 24 iterations at t[s]:    190.97
SCF: Cycle:  1   Etot: -105.795851068252631   dEtot: -3.119e-02   |Residual|: 1.734e-01   |deigs|: 3.193e-02  t[s]:    191.24
	Linear fluid (dielectric constant: 64) occupying 0.996983 of unit cell:	Completed after 34 iterations at t[s]:    193.92
	Linear fluid (dielectric constant: 64) occupying 0.997008 of unit cell:	Completed after 23 iterations at t[s]:    196.20
SCF: Cycle:  2   Etot: -105.809305872957196   dEtot: -1.345e-02   |Residual|: 4.086e-02   |deigs|: 3.873e-03  t[s]:    196.48
	Linear fluid (dielectric constant: 64) occupying 0.996952 of unit cell:	Completed after 24 iterations at t[s]:    198.46
	Linear fluid (dielectric constant: 64) occupying 0.997020 of unit cell:	Completed after 20 iterations at t[s]:    200.53
SCF: Cycle:  3   Etot: -105.810778366532929   dEtot: -1.472e-03   |Residual|: 1.842e-02   |deigs|: 1.385e-02  t[s]:    200.80
	Linear fluid (dielectric constant: 64) occupying 0.996923 of unit cell:	Completed after 16 iterations at t[s]:    202.23
	Linear fluid (dielectric constant: 64) occupying 0.997028 of unit cell:	Completed after 17 iterations at t[s]:    204.09
SCF: Cycle:  4   Etot: -105.811558484558375   dEtot: -7.801e-04   |Residual|: 8.614e-03   |deigs|: 6.848e-03  t[s]:    204.36
	Linear fluid (dielectric constant: 64) occupying 0.996929 of unit cell:	Completed after 12 iterations at t[s]:    205.49
	Linear fluid (dielectric constant: 64) occupying 0.997034 of unit cell:	Completed after 12 iterations at t[s]:    206.97
SCF: Cycle:  5   Etot: -105.811829547449136   dEtot: -2.711e-04   |Residual|: 4.958e-03   |deigs|: 8.014e-04  t[s]:    207.26
	Linear fluid (dielectric constant: 64) occupying 0.996952 of unit cell:	Completed after 12 iterations at t[s]:    208.38
	Linear fluid (dielectric constant: 64) occupying 0.997037 of unit cell:	Completed after 12 iterations at t[s]:    209.91
SCF: Cycle:  6   Etot: -105.811930458960731   dEtot: -1.009e-04   |Residual|: 3.563e-03   |deigs|: 1.098e-03  t[s]:    210.20
	Linear fluid (dielectric constant: 64) occupying 0.996985 of unit cell:	Completed after 10 iterations at t[s]:    211.15
	Linear fluid (dielectric constant: 64) occupying 0.997041 of unit cell:	Completed after 10 iterations at t[s]:    212.50
SCF: Cycle:  7   Etot: -105.811963640286052   dEtot: -3.318e-05   |Residual|: 2.626e-03   |deigs|: 1.154e-03  t[s]:    212.79
	Linear fluid (dielectric constant: 64) occupying 0.997036 of unit cell:	Completed after 7 iterations at t[s]:    213.54
	Linear fluid (dielectric constant: 64) occupying 0.997044 of unit cell:	Completed after 4 iterations at t[s]:    214.56
SCF: Cycle:  8   Etot: -105.811991360961784   dEtot: -2.772e-05   |Residual|: 1.967e-03   |deigs|: 9.912e-04  t[s]:    214.78
	Linear fluid (dielectric constant: 64) occupying 0.997049 of unit cell:	Completed after 5 iterations at t[s]:    215.43
	Linear fluid (dielectric constant: 64) occupying 0.997046 of unit cell:	Completed after 5 iterations at t[s]:    216.42
SCF: Cycle:  9   Etot: -105.811995191920460   dEtot: -3.831e-06   |Residual|: 2.061e-03   |deigs|: 6.518e-04  t[s]:    216.65
	Linear fluid (dielectric constant: 64) occupying 0.997050 of unit cell:	Completed after 2 iterations at t[s]:    217.19
	Linear fluid (dielectric constant: 64) occupying 0.997049 of unit cell:	Completed after 4 iterations at t[s]:    218.14
SCF: Cycle: 10   Etot: -105.812003328731748   dEtot: -8.137e-06   |Residual|: 1.270e-03   |deigs|: 5.115e-04  t[s]:    218.34
	Linear fluid (dielectric constant: 64) occupying 0.997051 of unit cell:	Completed after 1 iterations at t[s]:    218.84
	Linear fluid (dielectric constant: 64) occupying 0.997047 of unit cell:	Completed after 3 iterations at t[s]:    219.71
SCF: Cycle: 11   Etot: -105.812005321113418   dEtot: -1.992e-06   |Residual|: 7.418e-04   |deigs|: 3.284e-04  t[s]:    219.91
	Linear fluid (dielectric constant: 64) occupying 0.997047 of unit cell:	Completed after 3 iterations at t[s]:    220.48
	Linear fluid (dielectric constant: 64) occupying 0.997046 of unit cell:	Completed after 1 iterations at t[s]:    221.30
SCF: Cycle: 12   Etot: -105.812006019283473   dEtot: -6.982e-07   |Residual|: 5.087e-04   |deigs|: 1.267e-04  t[s]:    221.50
	Linear fluid (dielectric constant: 64) occupying 0.997048 of unit cell:	Completed after 0 iterations at t[s]:    221.97
	Linear fluid (dielectric constant: 64) occupying 0.997048 of unit cell:	Completed after 0 iterations at t[s]:    222.72
SCF: Cycle: 13   Etot: -105.812007722195588   dEtot: -1.703e-06   |Residual|: 3.475e-04   |deigs|: 3.678e-05  t[s]:    222.91
	Linear fluid (dielectric constant: 64) occupying 0.997048 of unit cell:	Completed after 0 iterations at t[s]:    223.28
	Linear fluid (dielectric constant: 64) occupying 0.997048 of unit cell:	Completed after 0 iterations at t[s]:    223.91
SCF: Cycle: 14   Etot: -105.812007902409178   dEtot: -1.802e-07   |Residual|: 2.463e-04   |deigs|: 3.039e-05  t[s]:    224.10
	Linear fluid (dielectric constant: 64) occupying 0.997049 of unit cell:	Completed after 3 iterations at t[s]:    224.59
	Linear fluid (dielectric constant: 64) occupying 0.997047 of unit cell:	Completed after 2 iterations at t[s]:    225.43
SCF: Cycle: 15   Etot: -105.812007952189816   dEtot: -4.978e-08   |Residual|: 6.716e-04   |deigs|: 2.264e-04  t[s]:    225.63
	Linear fluid (dielectric constant: 64) occupying 0.997049 of unit cell:	Completed after 0 iterations at t[s]:    226.08
	Linear fluid (dielectric constant: 64) occupying 0.997047 of unit cell:	Completed after 0 iterations at t[s]:    226.78
SCF: Cycle: 16   Etot: -105.812007849263807   dEtot: +1.029e-07   |Residual|: 2.833e-04   |deigs|: 1.050e-04  t[s]:    226.97
	Linear fluid (dielectric constant: 64) occupying 0.997048 of unit cell:	Completed after 0 iterations at t[s]:    227.34
	Linear fluid (dielectric constant: 64) occupying 0.997047 of unit cell:	Completed after 0 iterations at t[s]:    227.96
SCF: Cycle: 17   Etot: -105.812008080721512   dEtot: -2.315e-07   |Residual|: 1.938e-04   |deigs|: 3.454e-05  t[s]:    228.16
	Linear fluid (dielectric constant: 64) occupying 0.997047 of unit cell:	Completed after 2 iterations at t[s]:    228.60
	Linear fluid (dielectric constant: 64) occupying 0.997047 of unit cell:	Completed after 0 iterations at t[s]:    229.34
SCF: Cycle: 18   Etot: -105.812008365773380   dEtot: -2.851e-07   |Residual|: 6.780e-04   |deigs|: 2.451e-04  t[s]:    229.53
	Linear fluid (dielectric constant: 64) occupying 0.997047 of unit cell:	Completed after 0 iterations at t[s]:    229.89
	Linear fluid (dielectric constant: 64) occupying 0.997047 of unit cell:	Completed after 0 iterations at t[s]:    230.51
SCF: Cycle: 19   Etot: -105.812008318050331   dEtot: +4.772e-08   |Residual|: 5.667e-04   |deigs|: 4.382e-05  t[s]:    230.71
	Linear fluid (dielectric constant: 64) occupying 0.997047 of unit cell:	Completed after 0 iterations at t[s]:    231.04
	Linear fluid (dielectric constant: 64) occupying 0.997047 of unit cell:	Completed after 0 iterations at t[s]:    231.73
SCF: Cycle: 20   Etot: -105.812008164116833   dEtot: +1.539e-07   |Residual|: 6.001e-04   |deigs|: 3.137e-06  t[s]:    231.93
	Linear fluid (dielectric constant: 64) occupying 0.997047 of unit cell:	Completed after 0 iterations at t[s]:    232.28
	Linear fluid (dielectric constant: 64) occupying 0.997047 of unit cell:	Completed after 0 iterations at t[s]:    232.90
SCF: Cycle: 21   Etot: -105.812008194542500   dEtot: -3.043e-08   |Residual|: 5.627e-04   |deigs|: 3.165e-05  t[s]:    233.10
	Linear fluid (dielectric constant: 64) occupying 0.997047 of unit cell:	Completed after 0 iterations at t[s]:    233.43
	Linear fluid (dielectric constant: 64) occupying 0.997047 of unit cell:	Completed after 0 iterations at t[s]:    234.08
SCF: Cycle: 22   Etot: -105.812008228164657   dEtot: -3.362e-08   |Residual|: 6.069e-04   |deigs|: 2.690e-06  t[s]:    234.28
	Linear fluid (dielectric constant: 64) occupying 0.997047 of unit cell:	Completed after 3 iterations at t[s]:    234.76
	Linear fluid (dielectric constant: 64) occupying 0.997046 of unit cell:	Completed after 3 iterations at t[s]:    235.65
SCF: Cycle: 23   Etot: -105.812007061519012   dEtot: +1.167e-06   |Residual|: 2.097e-03   |deigs|: 5.574e-04  t[s]:    235.85
	Linear fluid (dielectric constant: 64) occupying 0.997047 of unit cell:	Completed after 4 iterations at t[s]:    236.46
	Linear fluid (dielectric constant: 64) occupying 0.997046 of unit cell:	Completed after 3 iterations at t[s]:    237.33
SCF: Cycle: 24   Etot: -105.812007585030941   dEtot: -5.235e-07   |Residual|: 1.690e-03   |deigs|: 1.216e-04  t[s]:    237.53
	Linear fluid (dielectric constant: 64) occupying 0.997047 of unit cell:	Completed after 3 iterations at t[s]:    238.10
	Linear fluid (dielectric constant: 64) occupying 0.997046 of unit cell:	Completed after 2 iterations at t[s]:    238.92
SCF: Cycle: 25   Etot: -105.812008130354556   dEtot: -5.453e-07   |Residual|: 1.473e-03   |deigs|: 7.960e-05  t[s]:    239.12
	Linear fluid (dielectric constant: 64) occupying 0.997047 of unit cell:	Completed after 1 iterations at t[s]:    239.61
	Linear fluid (dielectric constant: 64) occupying 0.997047 of unit cell:	Completed after 0 iterations at t[s]:    240.30
SCF: Cycle: 26   Etot: -105.812008325341850   dEtot: -1.950e-07   |Residual|: 6.327e-04   |deigs|: 3.008e-04  t[s]:    240.50
	Linear fluid (dielectric constant: 64) occupying 0.997047 of unit cell:	Completed after 0 iterations at t[s]:    240.86
	Linear fluid (dielectric constant: 64) occupying 0.997047 of unit cell:	Completed after 0 iterations at t[s]:    241.48
SCF: Cycle: 27   Etot: -105.812008430577137   dEtot: -1.052e-07   |Residual|: 5.115e-04   |deigs|: 4.524e-05  t[s]:    241.68
	Linear fluid (dielectric constant: 64) occupying 0.997047 of unit cell:	Completed after 0 iterations at t[s]:    242.01
	Linear fluid (dielectric constant: 64) occupying 0.997047 of unit cell:	Completed after 0 iterations at t[s]:    242.64
SCF: Cycle: 28   Etot: -105.812008383072339   dEtot: +4.750e-08   |Residual|: 4.927e-04   |deigs|: 1.305e-06  t[s]:    242.83
	Linear fluid (dielectric constant: 64) occupying 0.997047 of unit cell:	Completed after 0 iterations at t[s]:    243.17
	Linear fluid (dielectric constant: 64) occupying 0.997048 of unit cell:	Completed after 0 iterations at t[s]:    243.80
SCF: Cycle: 29   Etot: -105.812008512393575   dEtot: -1.293e-07   |Residual|: 4.685e-04   |deigs|: 3.537e-06  t[s]:    244.00
	Linear fluid (dielectric constant: 64) occupying 0.997047 of unit cell:	Completed after 0 iterations at t[s]:    244.33
	Linear fluid (dielectric constant: 64) occupying 0.997048 of unit cell:	Completed after 0 iterations at t[s]:    244.95
SCF: Cycle: 30   Etot: -105.812008447653994   dEtot: +6.474e-08   |Residual|: 4.547e-04   |deigs|: 2.975e-06  t[s]:    245.14
	Linear fluid (dielectric constant: 64) occupying 0.997047 of unit cell:	Completed after 0 iterations at t[s]:    245.48
	Linear fluid (dielectric constant: 64) occupying 0.997048 of unit cell:	Completed after 0 iterations at t[s]:    246.09
SCF: Cycle: 31   Etot: -105.812008516565186   dEtot: -6.891e-08   |Residual|: 4.131e-04   |deigs|: 2.028e-06  t[s]:    246.29
	Linear fluid (dielectric constant: 64) occupying 0.997047 of unit cell:	Completed after 0 iterations at t[s]:    246.66
	Linear fluid (dielectric constant: 64) occupying 0.997047 of unit cell:	Completed after 0 iterations at t[s]:    247.33
SCF: Cycle: 32   Etot: -105.812008350962913   dEtot: +1.656e-07   |Residual|: 7.002e-04   |deigs|: 4.965e-05  t[s]:    247.53
	Linear fluid (dielectric constant: 64) occupying 0.997048 of unit cell:	Completed after 0 iterations at t[s]:    247.90
	Linear fluid (dielectric constant: 64) occupying 0.997048 of unit cell:	Completed after 0 iterations at t[s]:    248.55
SCF: Cycle: 33   Etot: -105.812008620999890   dEtot: -2.700e-07   |Residual|: 2.856e-04   |deigs|: 4.869e-05  t[s]:    248.74
	Linear fluid (dielectric constant: 64) occupying 0.997048 of unit cell:	Completed after 0 iterations at t[s]:    249.08
	Linear fluid (dielectric constant: 64) occupying 0.997048 of unit cell:	Completed after 2 iterations at t[s]:    249.81
SCF: Cycle: 34   Etot: -105.812007881435562   dEtot: +7.396e-07   |Residual|: 2.043e-04   |deigs|: 4.309e-06  t[s]:    250.01
	Linear fluid (dielectric constant: 64) occupying 0.997049 of unit cell:	Completed after 3 iterations at t[s]:    250.58
	Linear fluid (dielectric constant: 64) occupying 0.997046 of unit cell:	Completed after 3 iterations at t[s]:    251.47
SCF: Cycle: 35   Etot: -105.812007304868388   dEtot: +5.766e-07   |Residual|: 1.995e-03   |deigs|: 8.301e-04  t[s]:    251.67
	Linear fluid (dielectric constant: 64) occupying 0.997048 of unit cell:	Completed after 3 iterations at t[s]:    252.24
	Linear fluid (dielectric constant: 64) occupying 0.997046 of unit cell:	Completed after 1 iterations at t[s]:    253.03
SCF: Cycle: 36   Etot: -105.812008462718296   dEtot: -1.158e-06   |Residual|: 7.460e-04   |deigs|: 4.353e-04  t[s]:    253.22
	Linear fluid (dielectric constant: 64) occupying 0.997048 of unit cell:	Completed after 0 iterations at t[s]:    253.65
	Linear fluid (dielectric constant: 64) occupying 0.997047 of unit cell:	Completed after 0 iterations at t[s]:    254.32
SCF: Cycle: 37   Etot: -105.812008434529417   dEtot: +2.819e-08   |Residual|: 4.772e-04   |deigs|: 9.405e-05  t[s]:    254.51
	Linear fluid (dielectric constant: 64) occupying 0.997048 of unit cell:	Completed after 0 iterations at t[s]:    254.88
	Linear fluid (dielectric constant: 64) occupying 0.997047 of unit cell:	Completed after 0 iterations at t[s]:    255.52
SCF: Cycle: 38   Etot: -105.812008539675276   dEtot: -1.051e-07   |Residual|: 3.621e-04   |deigs|: 3.913e-05  t[s]:    255.74
	Linear fluid (dielectric constant: 64) occupying 0.997048 of unit cell:	Completed after 0 iterations at t[s]:    256.07
	Linear fluid (dielectric constant: 64) occupying 0.997047 of unit cell:	Completed after 0 iterations at t[s]:    256.69
SCF: Cycle: 39   Etot: -105.812008549283334   dEtot: -9.608e-09   |Residual|: 3.472e-04   |deigs|: 5.441e-07  t[s]:    256.88
	Linear fluid (dielectric constant: 64) occupying 0.997048 of unit cell:	Completed after 0 iterations at t[s]:    257.22
	Linear fluid (dielectric constant: 64) occupying 0.997047 of unit cell:	Completed after 0 iterations at t[s]:    257.85
SCF: Cycle: 40   Etot: -105.812008573790408   dEtot: -2.451e-08   |Residual|: 4.308e-04   |deigs|: 2.996e-06  t[s]:    258.05
	Linear fluid (dielectric constant: 64) occupying 0.997048 of unit cell:	Completed after 0 iterations at t[s]:    258.38
	Linear fluid (dielectric constant: 64) occupying 0.997047 of unit cell:	Completed after 0 iterations at t[s]:    259.04
SCF: Cycle: 41   Etot: -105.812008672246563   dEtot: -9.846e-08   |Residual|: 4.481e-04   |deigs|: 3.164e-06  t[s]:    259.23
	Linear fluid (dielectric constant: 64) occupying 0.997048 of unit cell:	Completed after 0 iterations at t[s]:    259.56
	Linear fluid (dielectric constant: 64) occupying 0.997047 of unit cell:	Completed after 0 iterations at t[s]:    260.19
SCF: Cycle: 42   Etot: -105.812008730257574   dEtot: -5.801e-08   |Residual|: 4.476e-04   |deigs|: 1.318e-06  t[s]:    260.38
	Linear fluid (dielectric constant: 64) occupying 0.997048 of unit cell:	Completed after 0 iterations at t[s]:    260.72
	Linear fluid (dielectric constant: 64) occupying 0.997047 of unit cell:	Completed after 0 iterations at t[s]:    261.34
SCF: Cycle: 43   Etot: -105.812008786657628   dEtot: -5.640e-08   |Residual|: 4.323e-04   |deigs|: 1.292e-06  t[s]:    261.54
	Linear fluid (dielectric constant: 64) occupying 0.997048 of unit cell:	Completed after 0 iterations at t[s]:    261.87
	Linear fluid (dielectric constant: 64) occupying 0.997047 of unit cell:	Completed after 0 iterations at t[s]:    262.52
SCF: Cycle: 44   Etot: -105.812008663263057   dEtot: +1.234e-07   |Residual|: 3.864e-04   |deigs|: 1.396e-06  t[s]:    262.72
	Linear fluid (dielectric constant: 64) occupying 0.997048 of unit cell:	Completed after 0 iterations at t[s]:    263.12
	Linear fluid (dielectric constant: 64) occupying 0.997047 of unit cell:	Completed after 0 iterations at t[s]:    263.74
SCF: Cycle: 45   Etot: -105.812008617272070   dEtot: +4.599e-08   |Residual|: 2.292e-04   |deigs|: 5.317e-05  t[s]:    263.94
	Linear fluid (dielectric constant: 64) occupying 0.997047 of unit cell:	Completed after 0 iterations at t[s]:    264.28
	Linear fluid (dielectric constant: 64) occupying 0.997047 of unit cell:	Completed after 0 iterations at t[s]:    264.91
SCF: Cycle: 46   Etot: -105.812008640643469   dEtot: -2.337e-08   |Residual|: 2.094e-04   |deigs|: 1.146e-06  t[s]:    265.10
	Linear fluid (dielectric constant: 64) occupying 0.997047 of unit cell:	Completed after 2 iterations at t[s]:    265.55
	Linear fluid (dielectric constant: 64) occupying 0.997045 of unit cell:	Completed after 3 iterations at t[s]:    266.41
SCF: Cycle: 47   Etot: -105.812007699271504   dEtot: +9.414e-07   |Residual|: 9.010e-04   |deigs|: 3.394e-04  t[s]:    266.60
	Linear fluid (dielectric constant: 64) occupying 0.997047 of unit cell:	Completed after 3 iterations at t[s]:    267.17
	Linear fluid (dielectric constant: 64) occupying 0.997046 of unit cell:	Completed after 3 iterations at t[s]:    268.03
SCF: Cycle: 48   Etot: -105.812007769508241   dEtot: -7.024e-08   |Residual|: 1.274e-03   |deigs|: 1.815e-04  t[s]:    268.22
	Linear fluid (dielectric constant: 64) occupying 0.997047 of unit cell:	Completed after 3 iterations at t[s]:    268.80
	Linear fluid (dielectric constant: 64) occupying 0.997046 of unit cell:	Completed after 1 iterations at t[s]:    269.61
SCF: Cycle: 49   Etot: -105.812008431461578   dEtot: -6.620e-07   |Residual|: 8.023e-04   |deigs|: 1.607e-04  t[s]:    269.81
	Linear fluid (dielectric constant: 64) occupying 0.997047 of unit cell:	Completed after 0 iterations at t[s]:    270.23
Setting wave functions to eigenvectors of Hamiltonian
IonicMinimize: 	Wrong curvature in test step, increasing alphaT to 2.700000e+01.

-------- Electronic minimization -----------
Will mix electronic density at each iteration.
	Linear fluid (dielectric constant: 64) occupying 0.997046 of unit cell:	Completed after 0 iterations at t[s]:    270.87
	Linear fluid (dielectric constant: 64) occupying 0.997046 of unit cell:	Completed after 0 iterations at t[s]:    271.54
SCF: Cycle:  0   Etot: -105.812008541960907   dEtot: -1.242e-07   |Residual|: 1.480e-04   |deigs|: 7.669e-09  t[s]:    271.73
	Linear fluid (dielectric constant: 64) occupying 0.997046 of unit cell:	Completed after 0 iterations at t[s]:    272.09
	Linear fluid (dielectric constant: 64) occupying 0.997047 of unit cell:	Completed after 0 iterations at t[s]:    272.71
SCF: Cycle:  1   Etot: -105.812008554477188   dEtot: -1.252e-08   |Residual|: 6.387e-05   |deigs|: 5.552e-05  t[s]:    272.91
	Linear fluid (dielectric constant: 64) occupying 0.997046 of unit cell:	Completed after 0 iterations at t[s]:    273.23
	Linear fluid (dielectric constant: 64) occupying 0.997047 of unit cell:	Completed after 0 iterations at t[s]:    273.85
SCF: Cycle:  2   Etot: -105.812008587515805   dEtot: -3.304e-08   |Residual|: 7.120e-05   |deigs|: 1.880e-06  t[s]:    274.04
	Linear fluid (dielectric constant: 64) occupying 0.997046 of unit cell:	Completed after 0 iterations at t[s]:    274.37
	Linear fluid (dielectric constant: 64) occupying 0.997047 of unit cell:	Completed after 0 iterations at t[s]:    274.99
SCF: Cycle:  3   Etot: -105.812008581685006   dEtot: +5.831e-09   |Residual|: 7.366e-05   |deigs|: 6.482e-07  t[s]:    275.18
	Linear fluid (dielectric constant: 64) occupying 0.997047 of unit cell:	Completed after 0 iterations at t[s]:    275.51
	Linear fluid (dielectric constant: 64) occupying 0.997047 of unit cell:	Completed after 0 iterations at t[s]:    276.16
SCF: Cycle:  4   Etot: -105.812008634299787   dEtot: -5.261e-08   |Residual|: 6.856e-05   |deigs|: 3.610e-06  t[s]:    276.36
	Linear fluid (dielectric constant: 64) occupying 0.997046 of unit cell:	Completed after 0 iterations at t[s]:    276.69
	Linear fluid (dielectric constant: 64) occupying 0.997047 of unit cell:	Completed after 0 iterations at t[s]:    277.31
SCF: Cycle:  5   Etot: -105.812008633280271   dEtot: +1.020e-09   |Residual|: 7.165e-05   |deigs|: 1.740e-07  t[s]:    277.52
	Linear fluid (dielectric constant: 64) occupying 0.997047 of unit cell:	Completed after 0 iterations at t[s]:    277.84
	Linear fluid (dielectric constant: 64) occupying 0.997047 of unit cell:	Completed after 0 iterations at t[s]:    278.46
SCF: Cycle:  6   Etot: -105.812008639379457   dEtot: -6.099e-09   |Residual|: 7.110e-05   |deigs|: 3.664e-07  t[s]:    278.65
	Linear fluid (dielectric constant: 64) occupying 0.997047 of unit cell:	Completed after 0 iterations at t[s]:    278.98
	Linear fluid (dielectric constant: 64) occupying 0.997047 of unit cell:	Completed after 0 iterations at t[s]:    279.63
SCF: Cycle:  7   Etot: -105.812008680722982   dEtot: -4.134e-08   |Residual|: 6.371e-05   |deigs|: 2.398e-06  t[s]:    279.82
	Linear fluid (dielectric constant: 64) occupying 0.997047 of unit cell:	Completed after 0 iterations at t[s]:    280.15
	Linear fluid (dielectric constant: 64) occupying 0.997047 of unit cell:	Completed after 0 iterations at t[s]:    280.77
SCF: Cycle:  8   Etot: -105.812008678535278   dEtot: +2.188e-09   |Residual|: 6.666e-05   |deigs|: 3.415e-07  t[s]:    280.96
	Linear fluid (dielectric constant: 64) occupying 0.997047 of unit cell:	Completed after 0 iterations at t[s]:    281.29
	Linear fluid (dielectric constant: 64) occupying 0.997047 of unit cell:	Completed after 0 iterations at t[s]:    281.94
SCF: Cycle:  9   Etot: -105.812008689858530   dEtot: -1.132e-08   |Residual|: 5.927e-05   |deigs|: 1.218e-06  t[s]:    282.13
	Linear fluid (dielectric constant: 64) occupying 0.997047 of unit cell:	Completed after 0 iterations at t[s]:    282.47
	Linear fluid (dielectric constant: 64) occupying 0.997047 of unit cell:	Completed after 0 iterations at t[s]:    283.08
SCF: Cycle: 10   Etot: -105.812008690653798   dEtot: -7.953e-10   |Residual|: 5.825e-05   |deigs|: 1.364e-07  t[s]:    283.28
	Linear fluid (dielectric constant: 64) occupying 0.997047 of unit cell:	Completed after 0 iterations at t[s]:    283.61
	Linear fluid (dielectric constant: 64) occupying 0.997047 of unit cell:	Completed after 0 iterations at t[s]:    284.26
SCF: Cycle: 11   Etot: -105.812008708795716   dEtot: -1.814e-08   |Residual|: 5.489e-05   |deigs|: 1.472e-06  t[s]:    284.46
	Linear fluid (dielectric constant: 64) occupying 0.997047 of unit cell:	Completed after 0 iterations at t[s]:    284.79
	Linear fluid (dielectric constant: 64) occupying 0.997047 of unit cell:	Completed after 0 iterations at t[s]:    285.42
SCF: Cycle: 12   Etot: -105.812008713260866   dEtot: -4.465e-09   |Residual|: 5.555e-05   |deigs|: 4.441e-07  t[s]:    285.62
	Linear fluid (dielectric constant: 64) occupying 0.997047 of unit cell:	Completed after 0 iterations at t[s]:    285.95
	Linear fluid (dielectric constant: 64) occupying 0.997047 of unit cell:	Completed after 2 iterations at t[s]:    286.71
SCF: Cycle: 13   Etot: -105.812007780111088   dEtot: +9.331e-07   |Residual|: 4.820e-05   |deigs|: 3.066e-06  t[s]:    286.90
	Linear fluid (dielectric constant: 64) occupying 0.997047 of unit cell:	Completed after 0 iterations at t[s]:    287.33
	Linear fluid (dielectric constant: 64) occupying 0.997047 of unit cell:	Completed after 0 iterations at t[s]:    287.99
SCF: Cycle: 14   Etot: -105.812008454092421   dEtot: -6.740e-07   |Residual|: 7.453e-04   |deigs|: 3.192e-04  t[s]:    288.18
	Linear fluid (dielectric constant: 64) occupying 0.997047 of unit cell:	Completed after 0 iterations at t[s]:    288.58
	Linear fluid (dielectric constant: 64) occupying 0.997047 of unit cell:	Completed after 0 iterations at t[s]:    289.21
SCF: Cycle: 15   Etot: -105.812008368123344   dEtot: +8.597e-08   |Residual|: 6.512e-04   |deigs|: 4.049e-05  t[s]:    289.43
	Linear fluid (dielectric constant: 64) occupying 0.997047 of unit cell:	Completed after 0 iterations at t[s]:    289.75
	Linear fluid (dielectric constant: 64) occupying 0.997047 of unit cell:	Completed after 0 iterations at t[s]:    290.37
SCF: Cycle: 16   Etot: -105.812008424657535   dEtot: -5.653e-08   |Residual|: 6.540e-04   |deigs|: 9.754e-07  t[s]:    290.56
	Linear fluid (dielectric constant: 64) occupying 0.997048 of unit cell:	Completed after 0 iterations at t[s]:    290.90
	Linear fluid (dielectric constant: 64) occupying 0.997047 of unit cell:	Completed after 0 iterations at t[s]:    291.51
SCF: Cycle: 17   Etot: -105.812008346981429   dEtot: +7.768e-08   |Residual|: 6.671e-04   |deigs|: 1.296e-06  t[s]:    291.71
	Linear fluid (dielectric constant: 64) occupying 0.997047 of unit cell:	Completed after 0 iterations at t[s]:    292.04
	Linear fluid (dielectric constant: 64) occupying 0.997047 of unit cell:	Completed after 0 iterations at t[s]:    292.67
SCF: Cycle: 18   Etot: -105.812008350701518   dEtot: -3.720e-09   |Residual|: 7.181e-04   |deigs|: 1.981e-06  t[s]:    292.86
	Linear fluid (dielectric constant: 64) occupying 0.997047 of unit cell:	Completed after 0 iterations at t[s]:    293.20
	Linear fluid (dielectric constant: 64) occupying 0.997047 of unit cell:	Completed after 0 iterations at t[s]:    293.82
SCF: Cycle: 19   Etot: -105.812008339161650   dEtot: +1.154e-08   |Residual|: 7.254e-04   |deigs|: 2.334e-07  t[s]:    294.02
	Linear fluid (dielectric constant: 64) occupying 0.997048 of unit cell:	Completed after 0 iterations at t[s]:    294.36
	Linear fluid (dielectric constant: 64) occupying 0.997047 of unit cell:	Completed after 0 iterations at t[s]:    295.01
SCF: Cycle: 20   Etot: -105.812008297533538   dEtot: +4.163e-08   |Residual|: 6.891e-04   |deigs|: 2.286e-06  t[s]:    295.21
	Linear fluid (dielectric constant: 64) occupying 0.997048 of unit cell:	Completed after 0 iterations at t[s]:    295.54
	Linear fluid (dielectric constant: 64) occupying 0.997047 of unit cell:	Completed after 0 iterations at t[s]:    296.17
SCF: Cycle: 21   Etot: -105.812008237662127   dEtot: +5.987e-08   |Residual|: 6.918e-04   |deigs|: 1.119e-06  t[s]:    296.36
	Linear fluid (dielectric constant: 64) occupying 0.997048 of unit cell:	Completed after 0 iterations at t[s]:    296.70
	Linear fluid (dielectric constant: 64) occupying 0.997047 of unit cell:	Completed after 0 iterations at t[s]:    297.33
SCF: Cycle: 22   Etot: -105.812008391421500   dEtot: -1.538e-07   |Residual|: 6.779e-04   |deigs|: 3.044e-06  t[s]:    297.53
	Linear fluid (dielectric constant: 64) occupying 0.997047 of unit cell:	Completed after 0 iterations at t[s]:    297.86
	Linear fluid (dielectric constant: 64) occupying 0.997047 of unit cell:	Completed after 0 iterations at t[s]:    298.47
SCF: Cycle: 23   Etot: -105.812008446069996   dEtot: -5.465e-08   |Residual|: 6.635e-04   |deigs|: 6.699e-07  t[s]:    298.67
	Linear fluid (dielectric constant: 64) occupying 0.997046 of unit cell:	Completed after 3 iterations at t[s]:    299.15
	Linear fluid (dielectric constant: 64) occupying 0.997046 of unit cell:	Completed after 3 iterations at t[s]:    300.04
SCF: Cycle: 24   Etot: -105.812008004847826   dEtot: +4.412e-07   |Residual|: 1.484e-03   |deigs|: 6.894e-04  t[s]:    300.23
	Linear fluid (dielectric constant: 64) occupying 0.997046 of unit cell:	Completed after 0 iterations at t[s]:    300.66
[...]
	Linear fluid (dielectric constant: 64) occupying 0.996764 of unit cell:	Completed after 0 iterations at t[s]:   2803.09
	Linear fluid (dielectric constant: 64) occupying 0.996763 of unit cell:	Completed after 0 iterations at t[s]:   2803.76
SCF: Cycle: 27   Etot: -105.830535540475665   dEtot: +2.210e-07   |Residual|: 2.684e-04   |deigs|: 8.196e-06  t[s]:   2803.95
	Linear fluid (dielectric constant: 64) occupying 0.996764 of unit cell:	Completed after 0 iterations at t[s]:   2804.28
	Linear fluid (dielectric constant: 64) occupying 0.996763 of unit cell:	Completed after 0 iterations at t[s]:   2804.90
SCF: Cycle: 28   Etot: -105.830535564876385   dEtot: -2.440e-08   |Residual|: 2.548e-04   |deigs|: 9.163e-07  t[s]:   2805.10
	Linear fluid (dielectric constant: 64) occupying 0.996764 of unit cell:	Completed after 0 iterations at t[s]:   2805.43
	Linear fluid (dielectric constant: 64) occupying 0.996763 of unit cell:	Completed after 0 iterations at t[s]:   2806.08
SCF: Cycle: 29   Etot: -105.830535697065244   dEtot: -1.322e-07   |Residual|: 2.244e-04   |deigs|: 2.042e-06  t[s]:   2806.28
	Linear fluid (dielectric constant: 64) occupying 0.996764 of unit cell:	Completed after 0 iterations at t[s]:   2806.61
	Linear fluid (dielectric constant: 64) occupying 0.996763 of unit cell:	Completed after 0 iterations at t[s]:   2807.23
SCF: Cycle: 30   Etot: -105.830535773575036   dEtot: -7.651e-08   |Residual|: 2.229e-04   |deigs|: 1.704e-06  t[s]:   2807.43
	Linear fluid (dielectric constant: 64) occupying 0.996762 of unit cell:	Completed after 2 iterations at t[s]:   2807.87
	Linear fluid (dielectric constant: 64) occupying 0.996765 of unit cell:	Completed after 1 iterations at t[s]:   2808.65
SCF: Cycle: 31   Etot: -105.830535599061676   dEtot: +1.745e-07   |Residual|: 4.606e-04   |deigs|: 1.444e-04  t[s]:   2808.84
	Linear fluid (dielectric constant: 64) occupying 0.996764 of unit cell:	Completed after 0 iterations at t[s]:   2809.23
	Linear fluid (dielectric constant: 64) occupying 0.996765 of unit cell:	Completed after 1 iterations at t[s]:   2809.94
SCF: Cycle: 32   Etot: -105.830535382205568   dEtot: +2.169e-07   |Residual|: 2.146e-04   |deigs|: 4.682e-05  t[s]:   2810.14
	Linear fluid (dielectric constant: 64) occupying 0.996764 of unit cell:	Completed after 0 iterations at t[s]:   2810.57
	Linear fluid (dielectric constant: 64) occupying 0.996764 of unit cell:	Completed after 0 iterations at t[s]:   2811.21
SCF: Cycle: 33   Etot: -105.830535609184565   dEtot: -2.270e-07   |Residual|: 1.354e-04   |deigs|: 8.138e-05  t[s]:   2811.40
	Linear fluid (dielectric constant: 64) occupying 0.996764 of unit cell:	Completed after 0 iterations at t[s]:   2811.74
	Linear fluid (dielectric constant: 64) occupying 0.996764 of unit cell:	Completed after 0 iterations at t[s]:   2812.36
SCF: Cycle: 34   Etot: -105.830535690482094   dEtot: -8.130e-08   |Residual|: 1.480e-04   |deigs|: 6.878e-07  t[s]:   2812.56
	Linear fluid (dielectric constant: 64) occupying 0.996765 of unit cell:	Completed after 0 iterations at t[s]:   2812.89
	Linear fluid (dielectric constant: 64) occupying 0.996764 of unit cell:	Completed after 0 iterations at t[s]:   2813.54
SCF: Cycle: 35   Etot: -105.830535594218688   dEtot: +9.626e-08   |Residual|: 1.638e-04   |deigs|: 1.172e-06  t[s]:   2813.73
	Linear fluid (dielectric constant: 64) occupying 0.996765 of unit cell:	Completed after 0 iterations at t[s]:   2814.10
	Linear fluid (dielectric constant: 64) occupying 0.996764 of unit cell:	Completed after 0 iterations at t[s]:   2814.75
SCF: Cycle: 36   Etot: -105.830535603977211   dEtot: -9.759e-09   |Residual|: 1.569e-04   |deigs|: 1.228e-05  t[s]:   2814.94
	Linear fluid (dielectric constant: 64) occupying 0.996765 of unit cell:	Completed after 0 iterations at t[s]:   2815.27
	Linear fluid (dielectric constant: 64) occupying 0.996764 of unit cell:	Completed after 0 iterations at t[s]:   2815.94
SCF: Cycle: 37   Etot: -105.830535602388409   dEtot: +1.589e-09   |Residual|: 1.395e-04   |deigs|: 1.470e-06  t[s]:   2816.13
	Linear fluid (dielectric constant: 64) occupying 0.996765 of unit cell:	Completed after 0 iterations at t[s]:   2816.47
	Linear fluid (dielectric constant: 64) occupying 0.996764 of unit cell:	Completed after 0 iterations at t[s]:   2817.13
SCF: Cycle: 38   Etot: -105.830535619134977   dEtot: -1.675e-08   |Residual|: 1.277e-04   |deigs|: 1.853e-06  t[s]:   2817.33
	Linear fluid (dielectric constant: 64) occupying 0.996765 of unit cell:	Completed after 0 iterations at t[s]:   2817.66
	Linear fluid (dielectric constant: 64) occupying 0.996764 of unit cell:	Completed after 0 iterations at t[s]:   2818.28
SCF: Cycle: 39   Etot: -105.830535619159122   dEtot: -2.414e-11   |Residual|: 1.292e-04   |deigs|: 2.075e-07  t[s]:   2818.48
	Linear fluid (dielectric constant: 64) occupying 0.996765 of unit cell:	Completed after 0 iterations at t[s]:   2818.81
	Linear fluid (dielectric constant: 64) occupying 0.996764 of unit cell:	Completed after 0 iterations at t[s]:   2819.48
SCF: Cycle: 40   Etot: -105.830535620111419   dEtot: -9.523e-10   |Residual|: 1.316e-04   |deigs|: 1.308e-07  t[s]:   2819.68
SCF: Converged (|Delta E|<1.000000e-08 for 2 iters).

Setting wave functions to eigenvectors of Hamiltonian

-------- Electronic minimization -----------
Will mix electronic density at each iteration.
	Linear fluid (dielectric constant: 64) occupying 0.996764 of unit cell:	Completed after 9 iterations at t[s]:   2820.49
	Linear fluid (dielectric constant: 64) occupying 0.996764 of unit cell:	Completed after 4 iterations at t[s]:   2821.43
SCF: Cycle:  0   Etot: -105.830537142267048   dEtot: -7.549e-06   |Residual|: 1.655e-03   |deigs|: 1.330e-06  t[s]:   2821.63
	Linear fluid (dielectric constant: 64) occupying 0.996764 of unit cell:	Completed after 3 iterations at t[s]:   2822.20
	Linear fluid (dielectric constant: 64) occupying 0.996764 of unit cell:	Completed after 3 iterations at t[s]:   2823.06
SCF: Cycle:  1   Etot: -105.830539372822784   dEtot: -2.231e-06   |Residual|: 8.649e-04   |deigs|: 3.076e-05  t[s]:   2823.26
	Linear fluid (dielectric constant: 64) occupying 0.996764 of unit cell:	Completed after 0 iterations at t[s]:   2823.71
	Linear fluid (dielectric constant: 64) occupying 0.996764 of unit cell:	Completed after 3 iterations at t[s]:   2824.60
SCF: Cycle:  2   Etot: -105.830540028124346   dEtot: -6.553e-07   |Residual|: 4.758e-04   |deigs|: 2.914e-05  t[s]:   2824.79
	Linear fluid (dielectric constant: 64) occupying 0.996764 of unit cell:	Completed after 0 iterations at t[s]:   2825.21
	Linear fluid (dielectric constant: 64) occupying 0.996764 of unit cell:	Completed after 1 iterations at t[s]:   2825.92
SCF: Cycle:  3   Etot: -105.830540702231858   dEtot: -6.741e-07   |Residual|: 2.375e-04   |deigs|: 8.585e-06  t[s]:   2826.12
	Linear fluid (dielectric constant: 64) occupying 0.996764 of unit cell:	Completed after 0 iterations at t[s]:   2826.55
	Linear fluid (dielectric constant: 64) occupying 0.996764 of unit cell:	Completed after 0 iterations at t[s]:   2827.17
SCF: Cycle:  4   Etot: -105.830540665729586   dEtot: +3.650e-08   |Residual|: 1.357e-04   |deigs|: 5.521e-06  t[s]:   2827.37
	Linear fluid (dielectric constant: 64) occupying 0.996764 of unit cell:	Completed after 0 iterations at t[s]:   2827.70
	Linear fluid (dielectric constant: 64) occupying 0.996764 of unit cell:	Completed after 0 iterations at t[s]:   2828.33
SCF: Cycle:  5   Etot: -105.830540670615363   dEtot: -4.886e-09   |Residual|: 8.169e-05   |deigs|: 4.184e-07  t[s]:   2828.53
	Linear fluid (dielectric constant: 64) occupying 0.996764 of unit cell:	Completed after 0 iterations at t[s]:   2828.87
	Linear fluid (dielectric constant: 64) occupying 0.996764 of unit cell:	Completed after 0 iterations at t[s]:   2829.50
SCF: Cycle:  6   Etot: -105.830540666519937   dEtot: +4.095e-09   |Residual|: 4.333e-05   |deigs|: 3.600e-07  t[s]:   2829.70
	Linear fluid (dielectric constant: 64) occupying 0.996764 of unit cell:	Completed after 0 iterations at t[s]:   2830.03
	Linear fluid (dielectric constant: 64) occupying 0.996764 of unit cell:	Completed after 0 iterations at t[s]:   2830.64
SCF: Cycle:  7   Etot: -105.830540668461083   dEtot: -1.941e-09   |Residual|: 4.262e-05   |deigs|: 1.624e-07  t[s]:   2830.83
	Linear fluid (dielectric constant: 64) occupying 0.996764 of unit cell:	Completed after 0 iterations at t[s]:   2831.16
	Linear fluid (dielectric constant: 64) occupying 0.996764 of unit cell:	Completed after 0 iterations at t[s]:   2831.78
SCF: Cycle:  8   Etot: -105.830540670681245   dEtot: -2.220e-09   |Residual|: 4.239e-05   |deigs|: 3.631e-07  t[s]:   2831.98
SCF: Converged (|Delta E|<1.000000e-08 for 2 iters).

Setting wave functions to eigenvectors of Hamiltonian
IonicMinimize: 	Step increased Etot by 3.513415e-06, reducing alpha to 6.824424e-01.

-------- Electronic minimization -----------
Will mix electronic density at each iteration.
	Linear fluid (dielectric constant: 64) occupying 0.996764 of unit cell:	Completed after 8 iterations at t[s]:   2833.03
	Linear fluid (dielectric constant: 64) occupying 0.996764 of unit cell:	Completed after 3 iterations at t[s]:   2833.93
SCF: Cycle:  0   Etot: -105.830542540308016   dEtot: -2.661e-06   |Residual|: 8.662e-04   |deigs|: 4.836e-07  t[s]:   2834.12
	Linear fluid (dielectric constant: 64) occupying 0.996764 of unit cell:	Completed after 3 iterations at t[s]:   2834.70
	Linear fluid (dielectric constant: 64) occupying 0.996764 of unit cell:	Completed after 1 iterations at t[s]:   2835.50
SCF: Cycle:  1   Etot: -105.830543772941112   dEtot: -1.233e-06   |Residual|: 4.100e-04   |deigs|: 3.408e-05  t[s]:   2835.69
	Linear fluid (dielectric constant: 64) occupying 0.996764 of unit cell:	Completed after 0 iterations at t[s]:   2836.15
	Linear fluid (dielectric constant: 64) occupying 0.996764 of unit cell:	Completed after 0 iterations at t[s]:   2836.78
SCF: Cycle:  2   Etot: -105.830543767725302   dEtot: +5.216e-09   |Residual|: 1.228e-04   |deigs|: 1.635e-05  t[s]:   2836.98
	Linear fluid (dielectric constant: 64) occupying 0.996764 of unit cell:	Completed after 0 iterations at t[s]:   2837.31
	Linear fluid (dielectric constant: 64) occupying 0.996764 of unit cell:	Completed after 0 iterations at t[s]:   2837.95
SCF: Cycle:  3   Etot: -105.830543788091205   dEtot: -2.037e-08   |Residual|: 5.941e-05   |deigs|: 4.854e-07  t[s]:   2838.16
	Linear fluid (dielectric constant: 64) occupying 0.996764 of unit cell:	Completed after 0 iterations at t[s]:   2838.48
	Linear fluid (dielectric constant: 64) occupying 0.996764 of unit cell:	Completed after 0 iterations at t[s]:   2839.09
SCF: Cycle:  4   Etot: -105.830543794421345   dEtot: -6.330e-09   |Residual|: 5.131e-05   |deigs|: 1.768e-07  t[s]:   2839.28
	Linear fluid (dielectric constant: 64) occupying 0.996764 of unit cell:	Completed after 0 iterations at t[s]:   2839.61
	Linear fluid (dielectric constant: 64) occupying 0.996764 of unit cell:	Completed after 0 iterations at t[s]:   2840.25
SCF: Cycle:  5   Etot: -105.830543811755646   dEtot: -1.733e-08   |Residual|: 4.711e-05   |deigs|: 3.731e-07  t[s]:   2840.44
	Linear fluid (dielectric constant: 64) occupying 0.996764 of unit cell:	Completed after 0 iterations at t[s]:   2840.77
	Linear fluid (dielectric constant: 64) occupying 0.996764 of unit cell:	Completed after 0 iterations at t[s]:   2841.41
SCF: Cycle:  6   Etot: -105.830543865504993   dEtot: -5.375e-08   |Residual|: 4.782e-05   |deigs|: 1.013e-06  t[s]:   2841.60
	Linear fluid (dielectric constant: 64) occupying 0.996764 of unit cell:	Completed after 0 iterations at t[s]:   2841.94
	Linear fluid (dielectric constant: 64) occupying 0.996764 of unit cell:	Completed after 0 iterations at t[s]:   2842.58
SCF: Cycle:  7   Etot: -105.830543730216135   dEtot: +1.353e-07   |Residual|: 5.915e-05   |deigs|: 2.507e-06  t[s]:   2842.77
	Linear fluid (dielectric constant: 64) occupying 0.996764 of unit cell:	Completed after 0 iterations at t[s]:   2843.11
	Linear fluid (dielectric constant: 64) occupying 0.996764 of unit cell:	Completed after 0 iterations at t[s]:   2843.72
SCF: Cycle:  8   Etot: -105.830543786448260   dEtot: -5.623e-08   |Residual|: 4.004e-05   |deigs|: 1.111e-06  t[s]:   2843.92
	Linear fluid (dielectric constant: 64) occupying 0.996764 of unit cell:	Completed after 0 iterations at t[s]:   2844.25
	Linear fluid (dielectric constant: 64) occupying 0.996764 of unit cell:	Completed after 0 iterations at t[s]:   2844.87
SCF: Cycle:  9   Etot: -105.830543818312833   dEtot: -3.186e-08   |Residual|: 5.265e-05   |deigs|: 3.149e-07  t[s]:   2845.07
	Linear fluid (dielectric constant: 64) occupying 0.996764 of unit cell:	Completed after 0 iterations at t[s]:   2845.40
	Linear fluid (dielectric constant: 64) occupying 0.996764 of unit cell:	Completed after 0 iterations at t[s]:   2846.02
SCF: Cycle: 10   Etot: -105.830543849508373   dEtot: -3.120e-08   |Residual|: 5.511e-05   |deigs|: 3.763e-07  t[s]:   2846.21
	Linear fluid (dielectric constant: 64) occupying 0.996764 of unit cell:	Completed after 0 iterations at t[s]:   2846.55
	Linear fluid (dielectric constant: 64) occupying 0.996764 of unit cell:	Completed after 0 iterations at t[s]:   2847.16
SCF: Cycle: 11   Etot: -105.830543837278469   dEtot: +1.223e-08   |Residual|: 6.159e-05   |deigs|: 2.443e-07  t[s]:   2847.35
	Linear fluid (dielectric constant: 64) occupying 0.996764 of unit cell:	Completed after 0 iterations at t[s]:   2847.69
	Linear fluid (dielectric constant: 64) occupying 0.996764 of unit cell:	Completed after 0 iterations at t[s]:   2848.37
SCF: Cycle: 12   Etot: -105.830543822100552   dEtot: +1.518e-08   |Residual|: 6.477e-05   |deigs|: 1.060e-06  t[s]:   2848.57
	Linear fluid (dielectric constant: 64) occupying 0.996764 of unit cell:	Completed after 0 iterations at t[s]:   2848.94
	Linear fluid (dielectric constant: 64) occupying 0.996764 of unit cell:	Completed after 0 iterations at t[s]:   2849.58
SCF: Cycle: 13   Etot: -105.830543836687468   dEtot: -1.459e-08   |Residual|: 5.675e-05   |deigs|: 2.068e-06  t[s]:   2849.78
	Linear fluid (dielectric constant: 64) occupying 0.996764 of unit cell:	Completed after 0 iterations at t[s]:   2850.12
	Linear fluid (dielectric constant: 64) occupying 0.996764 of unit cell:	Completed after 0 iterations at t[s]:   2850.76
SCF: Cycle: 14   Etot: -105.830543829130207   dEtot: +7.557e-09   |Residual|: 4.640e-05   |deigs|: 3.674e-07  t[s]:   2850.95
	Linear fluid (dielectric constant: 64) occupying 0.996764 of unit cell:	Completed after 0 iterations at t[s]:   2851.29
	Linear fluid (dielectric constant: 64) occupying 0.996764 of unit cell:	Completed after 0 iterations at t[s]:   2851.90
SCF: Cycle: 15   Etot: -105.830543827351676   dEtot: +1.779e-09   |Residual|: 4.245e-05   |deigs|: 1.586e-07  t[s]:   2852.10
	Linear fluid (dielectric constant: 64) occupying 0.996764 of unit cell:	Completed after 0 iterations at t[s]:   2852.43
	Linear fluid (dielectric constant: 64) occupying 0.996764 of unit cell:	Completed after 0 iterations at t[s]:   2853.08
SCF: Cycle: 16   Etot: -105.830543818518137   dEtot: +8.834e-09   |Residual|: 2.777e-05   |deigs|: 4.429e-07  t[s]:   2853.27
	Linear fluid (dielectric constant: 64) occupying 0.996764 of unit cell:	Completed after 0 iterations at t[s]:   2853.60
	Linear fluid (dielectric constant: 64) occupying 0.996764 of unit cell:	Completed after 0 iterations at t[s]:   2854.22
SCF: Cycle: 17   Etot: -105.830543818344779   dEtot: +1.734e-10   |Residual|: 2.634e-05   |deigs|: 4.116e-07  t[s]:   2854.41
	Linear fluid (dielectric constant: 64) occupying 0.996764 of unit cell:	Completed after 0 iterations at t[s]:   2854.75
	Linear fluid (dielectric constant: 64) occupying 0.996764 of unit cell:	Completed after 0 iterations at t[s]:   2855.39
SCF: Cycle: 18   Etot: -105.830543820006568   dEtot: -1.662e-09   |Residual|: 2.555e-05   |deigs|: 1.181e-07  t[s]:   2855.58
	Linear fluid (dielectric constant: 64) occupying 0.996764 of unit cell:	Completed after 0 iterations at t[s]:   2855.92
	Linear fluid (dielectric constant: 64) occupying 0.996764 of unit cell:	Completed after 0 iterations at t[s]:   2856.54
SCF: Cycle: 19   Etot: -105.830543821483346   dEtot: -1.477e-09   |Residual|: 2.428e-05   |deigs|: 1.251e-07  t[s]:   2856.74
SCF: Converged (|Delta E|<1.000000e-08 for 2 iters).

Setting wave functions to eigenvectors of Hamiltonian
IonicMinimize: 	Step increased Etot by 3.626132e-07, reducing alpha to 6.824424e-02.

-------- Electronic minimization -----------
Will mix electronic density at each iteration.
	Linear fluid (dielectric constant: 64) occupying 0.996764 of unit cell:	Completed after 3 iterations at t[s]:   2857.60
	Linear fluid (dielectric constant: 64) occupying 0.996764 of unit cell:	Completed after 0 iterations at t[s]:   2858.33
SCF: Cycle:  0   Etot: -105.830544089680814   dEtot: -5.078e-08   |Residual|: 5.239e-05   |deigs|: 2.355e-09  t[s]:   2858.52
	Linear fluid (dielectric constant: 64) occupying 0.996764 of unit cell:	Completed after 0 iterations at t[s]:   2858.86
	Linear fluid (dielectric constant: 64) occupying 0.996764 of unit cell:	Completed after 0 iterations at t[s]:   2859.49
SCF: Cycle:  1   Etot: -105.830544097478409   dEtot: -7.798e-09   |Residual|: 4.554e-05   |deigs|: 3.131e-07  t[s]:   2859.68
	Linear fluid (dielectric constant: 64) occupying 0.996764 of unit cell:	Completed after 0 iterations at t[s]:   2860.00
	Linear fluid (dielectric constant: 64) occupying 0.996764 of unit cell:	Completed after 0 iterations at t[s]:   2860.63
SCF: Cycle:  2   Etot: -105.830544108234250   dEtot: -1.076e-08   |Residual|: 2.391e-05   |deigs|: 9.557e-07  t[s]:   2860.82
	Linear fluid (dielectric constant: 64) occupying 0.996764 of unit cell:	Completed after 0 iterations at t[s]:   2861.15
	Linear fluid (dielectric constant: 64) occupying 0.996764 of unit cell:	Completed after 0 iterations at t[s]:   2861.77
SCF: Cycle:  3   Etot: -105.830544113772547   dEtot: -5.538e-09   |Residual|: 2.227e-05   |deigs|: 5.660e-07  t[s]:   2861.97
	Linear fluid (dielectric constant: 64) occupying 0.996764 of unit cell:	Completed after 0 iterations at t[s]:   2862.29
	Linear fluid (dielectric constant: 64) occupying 0.996764 of unit cell:	Completed after 0 iterations at t[s]:   2862.90
SCF: Cycle:  4   Etot: -105.830544113957842   dEtot: -1.853e-10   |Residual|: 2.172e-05   |deigs|: 5.474e-09  t[s]:   2863.10
SCF: Converged (|Delta E|<1.000000e-08 for 2 iters).

Setting wave functions to eigenvectors of Hamiltonian
IonicMinimize: 	Step increased Etot by 7.013873e-08, reducing alpha to 6.824424e-03.
IonicMinimize: 	Step failed to reduce Etot after 3 attempts. Quitting step.
IonicMinimize: 	Undoing step.

-------- Electronic minimization -----------
Will mix electronic density at each iteration.
	Linear fluid (dielectric constant: 64) occupying 0.996764 of unit cell:	Completed after 0 iterations at t[s]:   2863.81
	Linear fluid (dielectric constant: 64) occupying 0.996764 of unit cell:	Completed after 0 iterations at t[s]:   2864.46
SCF: Cycle:  0   Etot: -105.830544126682099   dEtot: -7.588e-09   |Residual|: 2.032e-05   |deigs|: 2.732e-10  t[s]:   2864.66
	Linear fluid (dielectric constant: 64) occupying 0.996764 of unit cell:	Completed after 0 iterations at t[s]:   2864.99
	Linear fluid (dielectric constant: 64) occupying 0.996764 of unit cell:	Completed after 0 iterations at t[s]:   2865.61
SCF: Cycle:  1   Etot: -105.830544128986048   dEtot: -2.304e-09   |Residual|: 2.089e-05   |deigs|: 1.791e-07  t[s]:   2865.80
SCF: Converged (|Delta E|<1.000000e-08 for 2 iters).

Setting wave functions to eigenvectors of Hamiltonian
IonicMinimize: 	Step failed along negative gradient direction.
IonicMinimize: Probably at roundoff error limit. (Stopping)

Dumping 'Na2S-PC.wfns' ... done
Dumping 'Na2S-PC.fluidState' ... done
Dumping 'Na2S-PC.ionpos' ... done
End date and time: Sat Dec 28 19:28:39 2024  (Duration: 0-0:47:46.81)
Done!
