CRYSTAL
PRIMVEC
 14.820031   0.000000   0.000000
 -7.410015  12.834505   0.000000
  0.000000   0.000000  20.000041
PRIMCOORD
3 1
16   4.002014   4.250300  14.000028
11   1.132060   7.264520  14.000028
11   6.870268   7.265738  14.000028
