
*************** JDFTx 1.7.0  ***************

Start date and time: Mon Dec 23 11:48:27 2024
Executable jdftx_gpu with command-line: -i /home/akim2/JDFTx/Na2S-PC/Na2S-PC.in -o /home/akim2/JDFTx/Na2S-PC/Na2S-PC.out
Running on hosts (process indices):  exp-1-60 (0)
Divided in process groups (process indices):  0 (0)
gpuInit: Found compatible cuda device 0 'Tesla V100-SXM2-32GB'
gpuInit: Selected device 0
Resource initialization completed at t[s]:      0.39
Run totals: 1 processes, 1 threads, 1 GPUs


Input parsed successfully to the following command list (including defaults):

basis kpoint-dependent
coords-type Cartesian
core-overlap-check vector
coulomb-interaction Isolated
coulomb-truncation-embed 7.56227 10.1817 26.4562
davidson-band-ratio 1.1
dump End State
dump-name Na2S-PC.$VAR
elec-cutoff 20 100
elec-eigen-algo Davidson
elec-ex-corr gga-PBE
electronic-minimize  \
	dirUpdateScheme      FletcherReeves \
	linminMethod         DirUpdateRecommended \
	nIterations          100 \
	history              15 \
	knormThreshold       0 \
	energyDiffThreshold  1e-08 \
	nEnergyDiff          2 \
	alphaTstart          1 \
	alphaTmin            1e-10 \
	updateTestStepSize   yes \
	alphaTreduceFactor   0.1 \
	alphaTincreaseFactor 3 \
	nAlphaAdjustMax      3 \
	wolfeEnergy          0.0001 \
	wolfeGradient        0.9 \
	fdTest               no
exchange-regularization None
fluid LinearPCM 298.000000 1.013250
fluid-ex-corr lda-TF lda-PZ
fluid-gummel-loop 10 1.000000e-05
fluid-minimize  \
	dirUpdateScheme      PolakRibiere \
	linminMethod         DirUpdateRecommended \
	nIterations          400 \
	history              15 \
	knormThreshold       1e-11 \
	energyDiffThreshold  0 \
	nEnergyDiff          2 \
	alphaTstart          1 \
	alphaTmin            1e-10 \
	updateTestStepSize   yes \
	alphaTreduceFactor   0.1 \
	alphaTincreaseFactor 3 \
	nAlphaAdjustMax      6 \
	wolfeEnergy          0.0001 \
	wolfeGradient        0.9 \
	fdTest               no
fluid-solvent PC 11.6429 ScalarEOS \
	epsBulk 64 \
	pMol 2.95 \
	epsInf 2.02 \
	Pvap 1.53277e-13 \
	sigmaBulk 2.88e-05 \
	Rvdw 0 \
	Res 0 \
	tauNuc 343133
forces-output-coords Positions
ion S   7.562274270750001  10.181668708079998  26.456219999999998 1
ion Na   3.653322412229999  12.652545485250002  26.456219999999998 1
ion Na  11.469323171159999  12.655897866269999  26.456219999999998 1
ion-species GBRV/$ID_pbe.uspp
ion-width Ecut
ionic-minimize  \
	dirUpdateScheme      FletcherReeves \
	linminMethod         DirUpdateRecommended \
	nIterations          200 \
	history              15 \
	knormThreshold       0.0001 \
	energyDiffThreshold  1e-06 \
	nEnergyDiff          2 \
	alphaTstart          1 \
	alphaTmin            1e-10 \
	updateTestStepSize   yes \
	alphaTreduceFactor   0.1 \
	alphaTincreaseFactor 3 \
	nAlphaAdjustMax      3 \
	wolfeEnergy          0.0001 \
	wolfeGradient        0.9 \
	fdTest               no
kpoint   0.000000000000   0.000000000000   0.000000000000  1.00000000000000
kpoint-folding 1 1 1 
latt-move-scale 1 1 1
latt-scale 1 1 1 
lattice Triclinic 28.0058 28.0058 37.7946 90 90 120
lattice-minimize  \
	dirUpdateScheme      L-BFGS \
	linminMethod         DirUpdateRecommended \
	nIterations          0 \
	history              15 \
	knormThreshold       0 \
	energyDiffThreshold  1e-06 \
	nEnergyDiff          2 \
	alphaTstart          1 \
	alphaTmin            1e-10 \
	updateTestStepSize   yes \
	alphaTreduceFactor   0.1 \
	alphaTincreaseFactor 3 \
	nAlphaAdjustMax      3 \
	wolfeEnergy          0.0001 \
	wolfeGradient        0.9 \
	fdTest               no
lcao-params -1 1e-06 0.001
pcm-variant GLSSA13
spintype no-spin
subspace-rotation-factor 1 yes
symmetries automatic
symmetry-threshold 0.0001



---------- Setting up symmetries ----------

Found 24 point-group symmetries of the bravais lattice
Found 2 space-group symmetries with basis
Applied RMS atom displacement 0 bohrs to make symmetries exact.

---------- Initializing the Grid ----------
R = 
[      28.0058     -14.0029            0  ]
[            0      24.2537            0  ]
[            0            0      37.7946  ]
unit cell volume = 25671.8
G =
[   0.224353    0.12953         -0  ]
[          0   0.259061          0  ]
[          0         -0   0.166246  ]
Minimum fftbox size, Smin = [  128  128  172  ]
Chosen fftbox size, S = [  128  128  180  ]

---------- Initializing tighter grid for wavefunction operations ----------
R = 
[      28.0058     -14.0029            0  ]
[            0      24.2537            0  ]
[            0            0      37.7946  ]
unit cell volume = 25671.8
G =
[   0.224353    0.12953         -0  ]
[          0   0.259061          0  ]
[          0         -0   0.166246  ]
Minimum fftbox size, Smin = [  116  116  156  ]
Chosen fftbox size, S = [  120  120  160  ]

---------- Exchange Correlation functional ----------
Initalized PBE GGA exchange.
Initalized PBE GGA correlation.

---------- Setting up pseudopotentials ----------
Width of ionic core gaussian charges (only for fluid interactions / plotting) set to 0.397384

Reading pseudopotential file '/home/akim2/jdftx_install/build/pseudopotentials/GBRV/s_pbe.uspp':
  Title: S.  Created by USPP 7.3.6 on 1-4-15
  Reference state energy: -11.898476.  6 valence electrons in orbitals:
    |300>  occupation: 2  eigenvalue: -0.634167
    |310>  occupation: 4  eigenvalue: -0.257568
  lMax: 2  lLocal: 3  QijEcut: 6
  6 projectors sampled on a log grid with 635 points:
    l: 0  eig: -0.634161  rCut: 1.5
    l: 0  eig: 1.500000  rCut: 1.5
    l: 1  eig: -0.257567  rCut: 1.5
    l: 1  eig: 1.500000  rCut: 1.5
    l: 2  eig: -1.000000  rCut: 1.5
    l: 2  eig: 1.500000  rCut: 1.5
  Partial core density with radius 1.15
  Transforming core density to a uniform radial grid of dG=0.02 with 1625 points.
  Transforming local potential to a uniform radial grid of dG=0.02 with 1625 points.
  Transforming nonlocal projectors to a uniform radial grid of dG=0.02 with 432 points.
  Transforming density augmentations to a uniform radial grid of dG=0.02 with 1625 points.
  Transforming atomic orbitals to a uniform radial grid of dG=0.02 with 432 points.
  Core radius for overlap checks: 1.50 bohrs.

Reading pseudopotential file '/home/akim2/jdftx_install/build/pseudopotentials/GBRV/na_pbe.uspp':
  Title: Na.  Created by USPP 7.3.6 on 23-9-15
  Reference state energy: -47.625620.  9 valence electrons in orbitals:
    |200>  occupation: 2  eigenvalue: -2.085638
    |210>  occupation: 6  eigenvalue: -1.053708
    |300>  occupation: 1  eigenvalue: -0.100838
  lMax: 2  lLocal: 0  QijEcut: 6
  5 projectors sampled on a log grid with 657 points:
    l: 0  eig: -2.085640  rCut: 1.37
    l: 0  eig: -0.100839  rCut: 1.37
    l: 1  eig: -1.053708  rCut: 1.47
    l: 1  eig: 0.500000  rCut: 1.47
    l: 2  eig: 0.750000  rCut: 2
  Transforming local potential to a uniform radial grid of dG=0.02 with 1625 points.
  Transforming nonlocal projectors to a uniform radial grid of dG=0.02 with 432 points.
  Transforming density augmentations to a uniform radial grid of dG=0.02 with 1625 points.
  Transforming atomic orbitals to a uniform radial grid of dG=0.02 with 432 points.
  Core radius for overlap checks: 2.00 bohrs.

Initialized 2 species with 3 total atoms.

Folded 1 k-points by 1x1x1 to 1 k-points.

---------- Setting up k-points, bands, fillings ----------
No reducable k-points. 
Computing the number of bands and number of electrons
Calculating initial fillings.
nElectrons:  24.000000   nBands: 12   nStates: 1

----- Setting up reduced wavefunction bases (one per k-point) -----
average nbasis = 109673.000 , ideal nbasis = 109671.883

---------- Setting up coulomb interaction ----------
Fluid mode embedding: using embedded box, but periodic Coulomb kernel.
(Fluid response is responsible for (approximate) separation between periodic images.)
Setting up double-sized grid for truncated Coulomb potentials:
R = 
[      56.0116     -28.0058            0  ]
[            0      48.5075            0  ]
[            0            0      75.5892  ]
unit cell volume = 205374
G =
[   0.112177  0.0647651         -0  ]
[          0    0.12953          0  ]
[          0         -0  0.0831228  ]
Chosen fftbox size, S = [  256  256  360  ]
Integer grid location selected as the embedding center:
   Grid: [  61  54  126  ]
   Lattice: [  0.479924  0.419798  0.7  ]
   Cartesian: [  7.56227  10.1817  26.4562  ]
Constructing Wigner-Seitz cell: 8 faces (6 quadrilaterals, 2 hexagons)
Range-separation parameter for embedded mesh potentials due to point charges: 0.590105 bohrs.

---------- Setting up ewald sum ----------
Optimum gaussian width for ewald sums = 19.599212 bohr.
Real space sum over 1089 unit cells with max indices [  5  5  4  ]
Reciprocal space sum over 2535 terms with max indices [  6  6  7  ]

---------- Allocating electronic variables ----------
Initializing wave functions:  linear combination of atomic orbitals
S pseudo-atom occupations:   s ( 2 )  p ( 4 )
Na pseudo-atom occupations:   s ( 2 1 )  p ( 6 )
	FillingsUpdate:  mu: +0.165998795  nElectrons: 24.000000
LCAOMinimize: Iter:   0  Etot: -105.3819047582366153  |grad|_K:  2.992e-02  alpha:  1.000e+00
	FillingsUpdate:  mu: +0.152324303  nElectrons: 24.000000
LCAOMinimize: Iter:   1  Etot: -105.4040390302707522  |grad|_K:  3.288e-02  alpha:  9.339e-02  linmin: -2.186e-01  cgtest:  7.956e-01  t[s]:      4.06
LCAOMinimize: 	Wrong curvature in test step, increasing alphaT to 2.801624e-01.
	FillingsUpdate:  mu: +0.123010102  nElectrons: 24.000000
LCAOMinimize: Iter:   2  Etot: -105.4430266016949105  |grad|_K:  3.618e-02  alpha: -1.921e-01  linmin: -2.669e-01  cgtest:  7.198e-01  t[s]:      4.33
	FillingsUpdate:  mu: -0.020007581  nElectrons: 24.000000
LCAOMinimize: Iter:   3  Etot: -105.5433584276554910  |grad|_K:  1.743e-02  alpha:  1.580e-01  linmin: -3.964e-01  cgtest:  4.795e-01  t[s]:      4.62
LCAOMinimize: None of the convergence criteria satisfied after 3 iterations.
----- createFluidSolver() ----- (Fluid-side solver setup)
   Initializing fluid molecule 'PC'
     Net charge: 0   dipole magnitude: 0
     Initializing spherical shell mfKernel with radius 0 Bohr
     deltaS corrections:

Correction to mu due to finite nuclear width = -0.000115948
   Cavity determined by nc: 0.00098 and sigma: 0.6
   Effective cavity tension: 9.53e-06 Eh/bohr^2 to account for cavitation and dispersion.


---- Citations for features of the code used in this run ----

   Software package:
      R. Sundararaman, K. Letchworth-Weaver, K.A. Schwarz, D. Gunceler, Y. Ozhabes and T.A. Arias, 'JDFTx: software for joint density-functional theory', SoftwareX 6, 278 (2017)

   gga-PBE exchange-correlation functional:
      J.P. Perdew, K. Burke and M. Ernzerhof, Phys. Rev. Lett. 77, 3865 (1996)

   Pseudopotentials:
      KF Garrity, JW Bennett, KM Rabe and D Vanderbilt, Comput. Mater. Sci. 81, 446 (2014)

   Truncated Coulomb potentials:
      R. Sundararaman and T.A. Arias, Phys. Rev. B 87, 165122 (2013)

   Linear/nonlinear dielectric/ionic fluid model with effective cavity tension:
      D. Gunceler, K. Letchworth-Weaver, R. Sundararaman, K.A. Schwarz and T.A. Arias, Modelling Simul. Mater. Sci. Eng. 21, 074005 (2013)

   Total energy minimization:
      T.A. Arias, M.C. Payne and J.D. Joannopoulos, Phys. Rev. Lett. 69, 1077 (1992)

This list may not be complete. Please suggest additional citations or
report any other bugs at https://github.com/shankar1729/jdftx/issues

Initialization completed successfully at t[s]:      4.63

Fluid solver invoked on fresh (random / LCAO) wavefunctions
Running a vacuum solve first:

-------- Initial electronic minimization -----------
ElecMinimize: Iter:   0  Etot: -105.543358427655136  |grad|_K:  2.123e-04  alpha:  1.000e+00
ElecMinimize: Iter:   1  Etot: -105.590997484113970  |grad|_K:  9.180e-05  alpha:  8.013e-01  linmin:  3.507e-03  t[s]:      5.12
ElecMinimize: Iter:   2  Etot: -105.598823083812917  |grad|_K:  7.563e-05  alpha:  7.069e-01  linmin:  7.209e-04  t[s]:      5.40
ElecMinimize: Iter:   3  Etot: -105.604938740726610  |grad|_K:  6.186e-05  alpha:  8.133e-01  linmin:  1.866e-04  t[s]:      5.68
ElecMinimize: Iter:   4  Etot: -105.608139089794662  |grad|_K:  5.808e-05  alpha:  6.361e-01  linmin: -2.494e-04  t[s]:      5.95
ElecMinimize: Iter:   5  Etot: -105.611413597253517  |grad|_K:  4.345e-05  alpha:  7.366e-01  linmin: -1.296e-03  t[s]:      6.24
ElecMinimize: Iter:   6  Etot: -105.612979704401738  |grad|_K:  3.362e-05  alpha:  6.288e-01  linmin: -4.643e-04  t[s]:      6.53
ElecMinimize: Iter:   7  Etot: -105.613900546711221  |grad|_K:  2.294e-05  alpha:  6.185e-01  linmin: -5.617e-04  t[s]:      6.81
ElecMinimize: Iter:   8  Etot: -105.614490509614001  |grad|_K:  1.436e-05  alpha:  8.499e-01  linmin: -1.425e-03  t[s]:      7.10
ElecMinimize: Iter:   9  Etot: -105.614762510704878  |grad|_K:  1.054e-05  alpha:  1.000e+00  linmin: -6.323e-04  t[s]:      7.39
ElecMinimize: Iter:  10  Etot: -105.614878672436134  |grad|_K:  8.983e-06  alpha:  7.937e-01  linmin: -6.133e-05  t[s]:      7.67
ElecMinimize: Iter:  11  Etot: -105.614932357181345  |grad|_K:  6.931e-06  alpha:  5.054e-01  linmin: -5.528e-06  t[s]:      7.95
ElecMinimize: Iter:  12  Etot: -105.614977587613495  |grad|_K:  4.628e-06  alpha:  7.154e-01  linmin:  1.202e-04  t[s]:      8.23
ElecMinimize: Iter:  13  Etot: -105.614999360359661  |grad|_K:  3.582e-06  alpha:  7.726e-01  linmin:  7.099e-05  t[s]:      8.51
ElecMinimize: Iter:  14  Etot: -105.615012256954117  |grad|_K:  2.489e-06  alpha:  7.640e-01  linmin: -2.038e-05  t[s]:      8.79
ElecMinimize: Iter:  15  Etot: -105.615018578365550  |grad|_K:  2.031e-06  alpha:  7.750e-01  linmin:  5.812e-06  t[s]:      9.07
ElecMinimize: Iter:  16  Etot: -105.615022162613826  |grad|_K:  1.516e-06  alpha:  6.605e-01  linmin:  2.222e-06  t[s]:      9.35
ElecMinimize: Iter:  17  Etot: -105.615024455749193  |grad|_K:  1.197e-06  alpha:  7.581e-01  linmin:  1.764e-05  t[s]:      9.63
ElecMinimize: Iter:  18  Etot: -105.615025700278267  |grad|_K:  1.019e-06  alpha:  6.605e-01  linmin: -2.600e-06  t[s]:      9.92
ElecMinimize: Iter:  19  Etot: -105.615026464044192  |grad|_K:  7.606e-07  alpha:  5.590e-01  linmin: -9.478e-07  t[s]:     10.20
ElecMinimize: Iter:  20  Etot: -105.615027079478992  |grad|_K:  5.437e-07  alpha:  8.084e-01  linmin: -1.417e-05  t[s]:     10.49
ElecMinimize: Iter:  21  Etot: -105.615027420201699  |grad|_K:  4.362e-07  alpha:  8.758e-01  linmin: -1.203e-05  t[s]:     10.77
ElecMinimize: Iter:  22  Etot: -105.615027635809611  |grad|_K:  3.330e-07  alpha:  8.609e-01  linmin: -6.513e-06  t[s]:     11.04
ElecMinimize: Iter:  23  Etot: -105.615027750469793  |grad|_K:  2.955e-07  alpha:  7.856e-01  linmin: -3.673e-06  t[s]:     11.32
ElecMinimize: Iter:  24  Etot: -105.615027825363740  |grad|_K:  2.227e-07  alpha:  6.515e-01  linmin: -2.393e-06  t[s]:     11.60
ElecMinimize: Iter:  25  Etot: -105.615027874847698  |grad|_K:  2.030e-07  alpha:  7.584e-01  linmin: -6.313e-07  t[s]:     11.88
ElecMinimize: Iter:  26  Etot: -105.615027905898273  |grad|_K:  1.559e-07  alpha:  5.727e-01  linmin: -3.224e-07  t[s]:     12.16
ElecMinimize: Iter:  27  Etot: -105.615027929495767  |grad|_K:  1.141e-07  alpha:  7.379e-01  linmin: -2.346e-06  t[s]:     12.44
ElecMinimize: Iter:  28  Etot: -105.615027943038854  |grad|_K:  8.257e-08  alpha:  7.906e-01  linmin: -1.897e-06  t[s]:     12.72
ElecMinimize: Iter:  29  Etot: -105.615027950880148  |grad|_K:  5.900e-08  alpha:  8.739e-01  linmin:  4.264e-06  t[s]:     13.00
ElecMinimize: Iter:  30  Etot: -105.615027954734984  |grad|_K:  4.508e-08  alpha:  8.414e-01  linmin: -9.741e-06  t[s]:     13.28
ElecMinimize: Converged (|Delta Etot|<1.000000e-08 for 2 iters).
Setting wave functions to eigenvectors of Hamiltonian
Vacuum energy after initial minimize, Etot = -105.615027954734984


-------- Electronic minimization -----------
	Linear fluid (dielectric constant: 64) occupying 0.996943 of unit cell:	Completed after 24 iterations at t[s]:     14.73
ElecMinimize: Iter:   0  Etot: -105.739218200993861  |grad|_K:  1.469e-04  alpha:  1.000e+00
	Linear fluid (dielectric constant: 64) occupying 0.997102 of unit cell:	Completed after 20 iterations at t[s]:     16.79
	Linear fluid (dielectric constant: 64) occupying 0.997089 of unit cell:	Completed after 10 iterations at t[s]:     18.08
ElecMinimize: Iter:   1  Etot: -105.765671996543915  |grad|_K:  1.218e-04  alpha:  9.302e-01  linmin:  5.066e-03  t[s]:     18.40
	Linear fluid (dielectric constant: 64) occupying 0.997205 of unit cell:	Completed after 20 iterations at t[s]:     20.11
	Linear fluid (dielectric constant: 64) occupying 0.997179 of unit cell:	Completed after 12 iterations at t[s]:     21.53
ElecMinimize: Iter:   2  Etot: -105.778841994560580  |grad|_K:  1.019e-04  alpha:  6.784e-01  linmin:  1.114e-04  t[s]:     21.85
	Linear fluid (dielectric constant: 64) occupying 0.997206 of unit cell:	Completed after 14 iterations at t[s]:     23.13
	Linear fluid (dielectric constant: 64) occupying 0.997203 of unit cell:	Completed after 9 iterations at t[s]:     24.32
ElecMinimize: Iter:   3  Etot: -105.786307651895470  |grad|_K:  6.820e-05  alpha:  5.467e-01  linmin: -1.581e-04  t[s]:     24.64
	Linear fluid (dielectric constant: 64) occupying 0.997199 of unit cell:	Completed after 13 iterations at t[s]:     25.87
	Linear fluid (dielectric constant: 64) occupying 0.997198 of unit cell:	Completed after 4 iterations at t[s]:     26.78
ElecMinimize: Iter:   4  Etot: -105.789987595676280  |grad|_K:  5.088e-05  alpha:  6.013e-01  linmin:  8.270e-04  t[s]:     27.00
	Linear fluid (dielectric constant: 64) occupying 0.997191 of unit cell:	Completed after 11 iterations at t[s]:     28.08
	Linear fluid (dielectric constant: 64) occupying 0.997188 of unit cell:	Completed after 7 iterations at t[s]:     29.15
ElecMinimize: Iter:   5  Etot: -105.792705917062221  |grad|_K:  4.058e-05  alpha:  8.001e-01  linmin:  1.265e-03  t[s]:     29.46
	Linear fluid (dielectric constant: 64) occupying 0.997170 of unit cell:	Completed after 11 iterations at t[s]:     30.55
	Linear fluid (dielectric constant: 64) occupying 0.997174 of unit cell:	Completed after 4 iterations at t[s]:     31.46
ElecMinimize: Iter:   6  Etot: -105.794079907003209  |grad|_K:  3.192e-05  alpha:  6.360e-01  linmin: -1.846e-04  t[s]:     31.70
	Linear fluid (dielectric constant: 64) occupying 0.997160 of unit cell:	Completed after 6 iterations at t[s]:     32.43
	Linear fluid (dielectric constant: 64) occupying 0.997157 of unit cell:	Completed after 3 iterations at t[s]:     33.30
ElecMinimize: Iter:   7  Etot: -105.795105520649400  |grad|_K:  2.125e-05  alpha:  7.649e-01  linmin: -6.146e-05  t[s]:     33.53
	Linear fluid (dielectric constant: 64) occupying 0.997154 of unit cell:	Completed after 5 iterations at t[s]:     34.20
	Linear fluid (dielectric constant: 64) occupying 0.997153 of unit cell:	Completed after 3 iterations at t[s]:     35.05
ElecMinimize: Iter:   8  Etot: -105.795720721609200  |grad|_K:  1.735e-05  alpha:  1.036e+00  linmin:  1.173e-03  t[s]:     35.27
	Linear fluid (dielectric constant: 64) occupying 0.997149 of unit cell:	Completed after 9 iterations at t[s]:     36.18
	Linear fluid (dielectric constant: 64) occupying 0.997151 of unit cell:	Completed after 4 iterations at t[s]:     37.08
ElecMinimize: Iter:   9  Etot: -105.795953813771831  |grad|_K:  1.532e-05  alpha:  5.894e-01  linmin:  1.116e-03  t[s]:     37.35
	Linear fluid (dielectric constant: 64) occupying 0.997150 of unit cell:	Completed after 5 iterations at t[s]:     38.02
	Linear fluid (dielectric constant: 64) occupying 0.997150 of unit cell:	Completed after 0 iterations at t[s]:     38.72
ElecMinimize: Iter:  10  Etot: -105.796134727907173  |grad|_K:  1.066e-05  alpha:  5.870e-01  linmin: -1.089e-03  t[s]:     38.95
	Linear fluid (dielectric constant: 64) occupying 0.997150 of unit cell:	Completed after 4 iterations at t[s]:     39.59
	Linear fluid (dielectric constant: 64) occupying 0.997150 of unit cell:	Completed after 0 iterations at t[s]:     40.23
ElecMinimize: Iter:  11  Etot: -105.796246721291155  |grad|_K:  7.319e-06  alpha:  7.418e-01  linmin: -1.678e-02  t[s]:     40.46
	Linear fluid (dielectric constant: 64) occupying 0.997151 of unit cell:	Completed after 4 iterations at t[s]:     41.09
	Linear fluid (dielectric constant: 64) occupying 0.997151 of unit cell:	Completed after 0 iterations at t[s]:     41.74
ElecMinimize: Iter:  12  Etot: -105.796307145099675  |grad|_K:  5.829e-06  alpha:  8.329e-01  linmin: -7.545e-03  t[s]:     41.96
	Linear fluid (dielectric constant: 64) occupying 0.997151 of unit cell:	Completed after 3 iterations at t[s]:     42.56
	Linear fluid (dielectric constant: 64) occupying 0.997151 of unit cell:	Completed after 0 iterations at t[s]:     43.20
ElecMinimize: Iter:  13  Etot: -105.796336795518670  |grad|_K:  4.972e-06  alpha:  6.479e-01  linmin:  1.235e-02  t[s]:     43.43
	Linear fluid (dielectric constant: 64) occupying 0.997151 of unit cell:	Completed after 3 iterations at t[s]:     43.93
	Linear fluid (dielectric constant: 64) occupying 0.997151 of unit cell:	Completed after 0 iterations at t[s]:     44.57
ElecMinimize: Iter:  14  Etot: -105.796352881618333  |grad|_K:  4.103e-06  alpha:  5.127e-01  linmin:  8.080e-03  t[s]:     44.79
	Linear fluid (dielectric constant: 64) occupying 0.997151 of unit cell:	Completed after 3 iterations at t[s]:     45.30
	Linear fluid (dielectric constant: 64) occupying 0.997151 of unit cell:	Completed after 0 iterations at t[s]:     45.94
ElecMinimize: Iter:  15  Etot: -105.796363396351524  |grad|_K:  2.719e-06  alpha:  4.868e-01  linmin: -3.024e-02  t[s]:     46.17
	Linear fluid (dielectric constant: 64) occupying 0.997151 of unit cell:	Completed after 0 iterations at t[s]:     46.52
	Linear fluid (dielectric constant: 64) occupying 0.997151 of unit cell:	Completed after 0 iterations at t[s]:     47.07
ElecMinimize: Iter:  16  Etot: -105.796370311674764  |grad|_K:  2.017e-06  alpha:  6.740e-01  linmin: -3.540e-05  t[s]:     47.29
	Linear fluid (dielectric constant: 64) occupying 0.997151 of unit cell:	Completed after 0 iterations at t[s]:     47.65
	Linear fluid (dielectric constant: 64) occupying 0.997151 of unit cell:	Completed after 0 iterations at t[s]:     48.19
ElecMinimize: Iter:  17  Etot: -105.796373922505211  |grad|_K:  1.421e-06  alpha:  6.742e-01  linmin: -2.623e-05  t[s]:     48.42
	Linear fluid (dielectric constant: 64) occupying 0.997151 of unit cell:	Completed after 0 iterations at t[s]:     48.78
	Linear fluid (dielectric constant: 64) occupying 0.997151 of unit cell:	Completed after 0 iterations at t[s]:     49.32
ElecMinimize: Iter:  18  Etot: -105.796376066502589  |grad|_K:  9.789e-07  alpha:  8.071e-01  linmin: -2.249e-05  t[s]:     49.55
	Linear fluid (dielectric constant: 64) occupying 0.997150 of unit cell:	Completed after 0 iterations at t[s]:     49.91
	Linear fluid (dielectric constant: 64) occupying 0.997150 of unit cell:	Completed after 0 iterations at t[s]:     50.45
ElecMinimize: Iter:  19  Etot: -105.796377061363188  |grad|_K:  7.523e-07  alpha:  7.888e-01  linmin: -8.332e-07  t[s]:     50.68
	Linear fluid (dielectric constant: 64) occupying 0.997150 of unit cell:	Completed after 2 iterations at t[s]:     51.15
	Linear fluid (dielectric constant: 64) occupying 0.997150 of unit cell:	Completed after 0 iterations at t[s]:     51.78
ElecMinimize: 	Step increased Etot by 4.370930e-07, reducing alpha to 2.665136e-02.
	Linear fluid (dielectric constant: 64) occupying 0.997150 of unit cell:	Completed after 0 iterations at t[s]:     52.36
ElecMinimize: 	Step increased Etot by 5.853287e-07, reducing alpha to 2.665136e-03.
	Linear fluid (dielectric constant: 64) occupying 0.997150 of unit cell:	Completed after 0 iterations at t[s]:     52.94
ElecMinimize: 	Step increased Etot by 6.073014e-07, reducing alpha to 2.665136e-04.
ElecMinimize: 	Step failed to reduce Etot after 3 attempts. Quitting step.
ElecMinimize: 	Undoing step.
	Linear fluid (dielectric constant: 64) occupying 0.997150 of unit cell:	Completed after 0 iterations at t[s]:     53.52
ElecMinimize: 	Step failed: resetting search direction.
ElecMinimize: Iter:  20  Etot: -105.796376453810410  |grad|_K:  1.214e-06  alpha:  2.665e-04
	Linear fluid (dielectric constant: 64) occupying 0.997151 of unit cell:	Completed after 3 iterations at t[s]:     54.25
	Linear fluid (dielectric constant: 64) occupying 0.997151 of unit cell:	Completed after 0 iterations at t[s]:     54.89
ElecMinimize: Iter:  21  Etot: -105.796377402425037  |grad|_K:  1.279e-06  alpha:  2.961e-01  linmin:  3.089e-01  t[s]:     55.12
	Linear fluid (dielectric constant: 64) occupying 0.997151 of unit cell:	Completed after 0 iterations at t[s]:     55.47
	Linear fluid (dielectric constant: 64) occupying 0.997151 of unit cell:	Completed after 0 iterations at t[s]:     56.02
ElecMinimize: Iter:  22  Etot: -105.796377673935979  |grad|_K:  1.202e-06  alpha:  3.004e-01  linmin: -3.566e-06  t[s]:     56.24
	Linear fluid (dielectric constant: 64) occupying 0.997151 of unit cell:	Completed after 2 iterations at t[s]:     56.71
	Linear fluid (dielectric constant: 64) occupying 0.997151 of unit cell:	Completed after 0 iterations at t[s]:     57.34
ElecMinimize: 	Step increased Etot by 4.707917e-07, reducing alpha to 7.585097e-03.
	Linear fluid (dielectric constant: 64) occupying 0.997151 of unit cell:	Completed after 0 iterations at t[s]:     57.92
ElecMinimize: 	Step increased Etot by 3.816948e-07, reducing alpha to 7.585097e-04.
	Linear fluid (dielectric constant: 64) occupying 0.997151 of unit cell:	Completed after 0 iterations at t[s]:     58.51
ElecMinimize: 	Step increased Etot by 3.755615e-07, reducing alpha to 7.585097e-05.
ElecMinimize: 	Step failed to reduce Etot after 3 attempts. Quitting step.
ElecMinimize: 	Undoing step.
	Linear fluid (dielectric constant: 64) occupying 0.997151 of unit cell:	Completed after 0 iterations at t[s]:     59.09
ElecMinimize: 	Step failed: resetting search direction.
ElecMinimize: Iter:  23  Etot: -105.796377298439722  |grad|_K:  8.333e-07  alpha:  7.585e-05
	Linear fluid (dielectric constant: 64) occupying 0.997151 of unit cell:	Completed after 1 iterations at t[s]:     59.75
	Linear fluid (dielectric constant: 64) occupying 0.997151 of unit cell:	Completed after 0 iterations at t[s]:     60.35
ElecMinimize: 	Step increased Etot by 9.998382e-08, reducing alpha to 1.402456e-02.
	Linear fluid (dielectric constant: 64) occupying 0.997151 of unit cell:	Completed after 0 iterations at t[s]:     60.93
ElecMinimize: 	Step increased Etot by 2.309506e-07, reducing alpha to 1.402456e-03.
	Linear fluid (dielectric constant: 64) occupying 0.997151 of unit cell:	Completed after 0 iterations at t[s]:     61.51
ElecMinimize: 	Step increased Etot by 2.480684e-07, reducing alpha to 1.402456e-04.
ElecMinimize: 	Step failed to reduce Etot after 3 attempts. Quitting step.
ElecMinimize: 	Undoing step.
	Linear fluid (dielectric constant: 64) occupying 0.997151 of unit cell:	Completed after 0 iterations at t[s]:     62.09
ElecMinimize: 	Step failed along negative gradient direction.
ElecMinimize: Probably at roundoff error limit. (Stopping)
Setting wave functions to eigenvectors of Hamiltonian
Single-point solvation energy estimate, DeltaEtot = -0.181349095441846

# Ionic positions in cartesian coordinates:
ion S   7.562274270750001  10.181668708079998  26.456219999999998 1
ion Na   3.653322412229999  12.652545485250002  26.456219999999998 1
ion Na  11.469323171159999  12.655897866269999  26.456219999999998 1

# Forces in Cartesian coordinates:
force S   0.000007808836099  -0.028672253758561   0.000000000000000 1
force Na  -0.023117950772795   0.014192091570147   0.000000000000000 1
force Na   0.023113913654430   0.014213665054382   0.000000000000000 1

# Energy components:
   A_diel =       -0.2412906664086238
   Eewald =       20.5610017335859752
       EH =      108.8902177151747139
     Eloc =      -96.9299769408014384
      Enl =     -142.1471162980994905
      Exc =      -18.6204629502094292
 Exc_core =        1.7677286263650906
       KE =       20.9235217302163825
-------------------------------------
     Etot =     -105.7963770501768295

IonicMinimize: Iter:   0  Etot: -105.796377050176829  |grad|_K:  1.597e-02  alpha:  1.000e+00

#--- Lowdin population analysis ---
# oxidation-state S -1.534
# oxidation-state Na +0.867 +0.867


-------- Electronic minimization -----------
	Linear fluid (dielectric constant: 64) occupying 0.997150 of unit cell:	Completed after 15 iterations at t[s]:     63.57
ElecMinimize: Iter:   0  Etot: -105.769439516212856  |grad|_K:  2.464e-04  alpha:  1.000e+00
	Linear fluid (dielectric constant: 64) occupying 0.997143 of unit cell:	Completed after 18 iterations at t[s]:     65.40
	Linear fluid (dielectric constant: 64) occupying 0.997147 of unit cell:	Completed after 16 iterations at t[s]:     67.12
ElecMinimize: Iter:   1  Etot: -105.796608464571960  |grad|_K:  4.866e-05  alpha:  3.412e-01  linmin: -1.745e-03  t[s]:     67.42
	Linear fluid (dielectric constant: 64) occupying 0.997144 of unit cell:	Completed after 11 iterations at t[s]:     68.49
	Linear fluid (dielectric constant: 64) occupying 0.997143 of unit cell:	Completed after 5 iterations at t[s]:     69.44
ElecMinimize: Iter:   2  Etot: -105.798123657619129  |grad|_K:  2.476e-05  alpha:  4.854e-01  linmin: -5.444e-03  t[s]:     69.74
	Linear fluid (dielectric constant: 64) occupying 0.997141 of unit cell:	Completed after 7 iterations at t[s]:     70.51
	Linear fluid (dielectric constant: 64) occupying 0.997142 of unit cell:	Completed after 3 iterations at t[s]:     71.40
ElecMinimize: Iter:   3  Etot: -105.798429422431624  |grad|_K:  1.127e-05  alpha:  3.791e-01  linmin: -2.780e-03  t[s]:     71.64
	Linear fluid (dielectric constant: 64) occupying 0.997141 of unit cell:	Completed after 5 iterations at t[s]:     72.31
	Linear fluid (dielectric constant: 64) occupying 0.997141 of unit cell:	Completed after 4 iterations at t[s]:     73.14
ElecMinimize: Iter:   4  Etot: -105.798525482292277  |grad|_K:  6.420e-06  alpha:  5.761e-01  linmin:  5.745e-03  t[s]:     73.40
	Linear fluid (dielectric constant: 64) occupying 0.997141 of unit cell:	Completed after 4 iterations at t[s]:     74.05
	Linear fluid (dielectric constant: 64) occupying 0.997141 of unit cell:	Completed after 0 iterations at t[s]:     74.71
ElecMinimize: Iter:   5  Etot: -105.798549679050780  |grad|_K:  4.368e-06  alpha:  4.462e-01  linmin:  2.896e-02  t[s]:     74.94
	Linear fluid (dielectric constant: 64) occupying 0.997141 of unit cell:	Completed after 3 iterations at t[s]:     75.54
	Linear fluid (dielectric constant: 64) occupying 0.997141 of unit cell:	Completed after 0 iterations at t[s]:     76.19
ElecMinimize: Iter:   6  Etot: -105.798564852615030  |grad|_K:  2.617e-06  alpha:  5.943e-01  linmin: -1.279e-01  t[s]:     76.43
	Linear fluid (dielectric constant: 64) occupying 0.997141 of unit cell:	Completed after 4 iterations at t[s]:     77.07
	Linear fluid (dielectric constant: 64) occupying 0.997141 of unit cell:	Completed after 0 iterations at t[s]:     77.72
ElecMinimize: Iter:   7  Etot: -105.798570844428014  |grad|_K:  2.090e-06  alpha:  5.789e-01  linmin: -2.239e-02  t[s]:     77.95
	Linear fluid (dielectric constant: 64) occupying 0.997141 of unit cell:	Completed after 0 iterations at t[s]:     78.38
	Linear fluid (dielectric constant: 64) occupying 0.997141 of unit cell:	Completed after 0 iterations at t[s]:     78.96
ElecMinimize: Iter:   8  Etot: -105.798574818037380  |grad|_K:  1.347e-06  alpha:  6.590e-01  linmin: -1.768e-02  t[s]:     79.18
	Linear fluid (dielectric constant: 64) occupying 0.997141 of unit cell:	Completed after 1 iterations at t[s]:     79.61
	Linear fluid (dielectric constant: 64) occupying 0.997141 of unit cell:	Completed after 0 iterations at t[s]:     80.25
ElecMinimize: Iter:   9  Etot: -105.798575829100102  |grad|_K:  9.269e-07  alpha:  5.253e-01  linmin: -9.876e-02  t[s]:     80.48
	Linear fluid (dielectric constant: 64) occupying 0.997141 of unit cell:	Completed after 0 iterations at t[s]:     80.86
	Linear fluid (dielectric constant: 64) occupying 0.997141 of unit cell:	Completed after 0 iterations at t[s]:     81.40
ElecMinimize: Iter:  10  Etot: -105.798576805560501  |grad|_K:  8.598e-07  alpha:  7.469e-01  linmin: -2.224e-06  t[s]:     81.63
	Linear fluid (dielectric constant: 64) occupying 0.997140 of unit cell:	Completed after 0 iterations at t[s]:     82.02
	Linear fluid (dielectric constant: 64) occupying 0.997141 of unit cell:	Completed after 0 iterations at t[s]:     82.59
ElecMinimize: Iter:  11  Etot: -105.798577319957218  |grad|_K:  7.364e-07  alpha:  5.734e-01  linmin: -3.750e-02  t[s]:     82.82
	Linear fluid (dielectric constant: 64) occupying 0.997140 of unit cell:	Completed after 0 iterations at t[s]:     83.19
	Linear fluid (dielectric constant: 64) occupying 0.997140 of unit cell:	Completed after 1 iterations at t[s]:     83.81
ElecMinimize: Iter:  12  Etot: -105.798577391715583  |grad|_K:  6.979e-07  alpha:  7.125e-01  linmin:  9.711e-02  t[s]:     84.04
	Linear fluid (dielectric constant: 64) occupying 0.997140 of unit cell:	Completed after 0 iterations at t[s]:     84.44
	Linear fluid (dielectric constant: 64) occupying 0.997140 of unit cell:	Completed after 0 iterations at t[s]:     84.99
ElecMinimize: Iter:  13  Etot: -105.798577577734335  |grad|_K:  5.979e-07  alpha:  4.193e-01  linmin:  2.675e-07  t[s]:     85.22
	Linear fluid (dielectric constant: 64) occupying 0.997140 of unit cell:	Completed after 0 iterations at t[s]:     85.57
	Linear fluid (dielectric constant: 64) occupying 0.997140 of unit cell:	Completed after 0 iterations at t[s]:     86.13
ElecMinimize: Iter:  14  Etot: -105.798577799157641  |grad|_K:  4.442e-07  alpha:  4.706e-01  linmin:  7.311e-06  t[s]:     86.36
	Linear fluid (dielectric constant: 64) occupying 0.997140 of unit cell:	Completed after 0 iterations at t[s]:     86.72
	Linear fluid (dielectric constant: 64) occupying 0.997140 of unit cell:	Completed after 0 iterations at t[s]:     87.27
ElecMinimize: Iter:  15  Etot: -105.798577909703340  |grad|_K:  3.552e-07  alpha:  4.256e-01  linmin:  3.244e-06  t[s]:     87.49
	Linear fluid (dielectric constant: 64) occupying 0.997140 of unit cell:	Completed after 0 iterations at t[s]:     87.85
	Linear fluid (dielectric constant: 64) occupying 0.997140 of unit cell:	Completed after 0 iterations at t[s]:     88.39
ElecMinimize: Iter:  16  Etot: -105.798578003059646  |grad|_K:  2.977e-07  alpha:  5.622e-01  linmin: -4.803e-06  t[s]:     88.62
	Linear fluid (dielectric constant: 64) occupying 0.997140 of unit cell:	Completed after 0 iterations at t[s]:     88.98
	Linear fluid (dielectric constant: 64) occupying 0.997140 of unit cell:	Completed after 0 iterations at t[s]:     89.52
ElecMinimize: Iter:  17  Etot: -105.798578050419209  |grad|_K:  2.281e-07  alpha:  4.060e-01  linmin: -5.048e-07  t[s]:     89.75
	Linear fluid (dielectric constant: 64) occupying 0.997140 of unit cell:	Completed after 0 iterations at t[s]:     90.11
	Linear fluid (dielectric constant: 64) occupying 0.997140 of unit cell:	Completed after 0 iterations at t[s]:     90.66
ElecMinimize: Iter:  18  Etot: -105.798578092675342  |grad|_K:  2.166e-07  alpha:  6.170e-01  linmin:  4.552e-06  t[s]:     90.88
	Linear fluid (dielectric constant: 64) occupying 0.997140 of unit cell:	Completed after 0 iterations at t[s]:     91.24
	Linear fluid (dielectric constant: 64) occupying 0.997140 of unit cell:	Completed after 0 iterations at t[s]:     91.79
ElecMinimize: Iter:  19  Etot: -105.798578118757192  |grad|_K:  1.646e-07  alpha:  4.223e-01  linmin: -7.657e-07  t[s]:     92.01
	Linear fluid (dielectric constant: 64) occupying 0.997140 of unit cell:	Completed after 0 iterations at t[s]:     92.37
	Linear fluid (dielectric constant: 64) occupying 0.997140 of unit cell:	Completed after 0 iterations at t[s]:     92.92
ElecMinimize: Iter:  20  Etot: -105.798578139995541  |grad|_K:  1.581e-07  alpha:  5.959e-01  linmin:  2.360e-06  t[s]:     93.16
	Linear fluid (dielectric constant: 64) occupying 0.997140 of unit cell:	Completed after 0 iterations at t[s]:     93.52
	Linear fluid (dielectric constant: 64) occupying 0.997140 of unit cell:	Completed after 0 iterations at t[s]:     94.06
ElecMinimize: Iter:  21  Etot: -105.798578154498813  |grad|_K:  1.193e-07  alpha:  4.410e-01  linmin:  1.276e-06  t[s]:     94.29
	Linear fluid (dielectric constant: 64) occupying 0.997140 of unit cell:	Completed after 0 iterations at t[s]:     94.65
	Linear fluid (dielectric constant: 64) occupying 0.997140 of unit cell:	Completed after 0 iterations at t[s]:     95.21
ElecMinimize: Iter:  22  Etot: -105.798578164449097  |grad|_K:  1.067e-07  alpha:  5.310e-01  linmin:  8.278e-07  t[s]:     95.44
	Linear fluid (dielectric constant: 64) occupying 0.997140 of unit cell:	Completed after 0 iterations at t[s]:     95.80
	Linear fluid (dielectric constant: 64) occupying 0.997140 of unit cell:	Completed after 0 iterations at t[s]:     96.34
ElecMinimize: Iter:  23  Etot: -105.798578171814270  |grad|_K:  9.335e-08  alpha:  4.911e-01  linmin:  1.641e-06  t[s]:     96.57
ElecMinimize: Converged (|Delta Etot|<1.000000e-08 for 2 iters).
Setting wave functions to eigenvectors of Hamiltonian
IonicMinimize: 	Predicted alpha/alphaT>3.000000, increasing alphaT to 3.000000e+00.

-------- Electronic minimization -----------
	Linear fluid (dielectric constant: 64) occupying 0.997138 of unit cell:	Completed after 18 iterations at t[s]:     97.67
ElecMinimize: Iter:   0  Etot: -105.685628426142458  |grad|_K:  4.957e-04  alpha:  1.000e+00
	Linear fluid (dielectric constant: 64) occupying 0.997128 of unit cell:	Completed after 24 iterations at t[s]:    100.02
	Linear fluid (dielectric constant: 64) occupying 0.997135 of unit cell:	Completed after 19 iterations at t[s]:    101.95
ElecMinimize: Iter:   1  Etot: -105.794009506335726  |grad|_K:  1.055e-04  alpha:  3.397e-01  linmin: -8.880e-03  t[s]:    102.25
	Linear fluid (dielectric constant: 64) occupying 0.997127 of unit cell:	Completed after 14 iterations at t[s]:    103.53
	Linear fluid (dielectric constant: 64) occupying 0.997125 of unit cell:	Completed after 9 iterations at t[s]:    104.74
ElecMinimize: Iter:   2  Etot: -105.800144934460263  |grad|_K:  5.705e-05  alpha:  4.180e-01  linmin: -3.341e-04  t[s]:    105.06
	Linear fluid (dielectric constant: 64) occupying 0.997122 of unit cell:	Completed after 10 iterations at t[s]:    106.04
	Linear fluid (dielectric constant: 64) occupying 0.997122 of unit cell:	Completed after 3 iterations at t[s]:    106.92
ElecMinimize: Iter:   3  Etot: -105.801819556538049  |grad|_K:  2.321e-05  alpha:  3.909e-01  linmin: -6.977e-05  t[s]:    107.16
	Linear fluid (dielectric constant: 64) occupying 0.997122 of unit cell:	Completed after 7 iterations at t[s]:    107.91
	Linear fluid (dielectric constant: 64) occupying 0.997122 of unit cell:	Completed after 5 iterations at t[s]:    108.87
ElecMinimize: Iter:   4  Etot: -105.802236475522861  |grad|_K:  1.351e-05  alpha:  5.892e-01  linmin:  1.208e-03  t[s]:    109.18
	Linear fluid (dielectric constant: 64) occupying 0.997122 of unit cell:	Completed after 5 iterations at t[s]:    109.85
	Linear fluid (dielectric constant: 64) occupying 0.997122 of unit cell:	Completed after 3 iterations at t[s]:    110.68
ElecMinimize: Iter:   5  Etot: -105.802345863035654  |grad|_K:  8.004e-06  alpha:  4.597e-01  linmin: -2.815e-03  t[s]:    110.91
	Linear fluid (dielectric constant: 64) occupying 0.997122 of unit cell:	Completed after 3 iterations at t[s]:    111.51
	Linear fluid (dielectric constant: 64) occupying 0.997122 of unit cell:	Completed after 4 iterations at t[s]:    112.33
ElecMinimize: Iter:   6  Etot: -105.802416455584478  |grad|_K:  4.682e-06  alpha:  8.370e-01  linmin: -1.798e-03  t[s]:    112.56
	Linear fluid (dielectric constant: 64) occupying 0.997122 of unit cell:	Completed after 3 iterations at t[s]:    113.16
	Linear fluid (dielectric constant: 64) occupying 0.997122 of unit cell:	Completed after 0 iterations at t[s]:    113.82
ElecMinimize: Iter:   7  Etot: -105.802441944450777  |grad|_K:  3.025e-06  alpha:  8.811e-01  linmin: -6.466e-03  t[s]:    114.05
	Linear fluid (dielectric constant: 64) occupying 0.997121 of unit cell:	Completed after 1 iterations at t[s]:    114.58
	Linear fluid (dielectric constant: 64) occupying 0.997121 of unit cell:	Completed after 0 iterations at t[s]:    115.23
ElecMinimize: Iter:   8  Etot: -105.802451068227924  |grad|_K:  1.932e-06  alpha:  7.540e-01  linmin: -4.326e-03  t[s]:    115.46
	Linear fluid (dielectric constant: 64) occupying 0.997121 of unit cell:	Completed after 0 iterations at t[s]:    115.90
	Linear fluid (dielectric constant: 64) occupying 0.997121 of unit cell:	Completed after 1 iterations at t[s]:    116.53
ElecMinimize: Iter:   9  Etot: -105.802455058924920  |grad|_K:  1.627e-06  alpha:  9.211e-01  linmin:  3.289e-02  t[s]:    116.76
	Linear fluid (dielectric constant: 64) occupying 0.997120 of unit cell:	Completed after 2 iterations at t[s]:    117.27
	Linear fluid (dielectric constant: 64) occupying 0.997120 of unit cell:	Completed after 0 iterations at t[s]:    117.90
ElecMinimize: Iter:  10  Etot: -105.802457061929033  |grad|_K:  1.132e-06  alpha:  6.703e-01  linmin: -3.990e-02  t[s]:    118.13
	Linear fluid (dielectric constant: 64) occupying 0.997120 of unit cell:	Completed after 0 iterations at t[s]:    118.48
	Linear fluid (dielectric constant: 64) occupying 0.997120 of unit cell:	Completed after 0 iterations at t[s]:    119.04
ElecMinimize: Iter:  11  Etot: -105.802458430340408  |grad|_K:  9.555e-07  alpha:  7.618e-01  linmin: -1.448e-06  t[s]:    119.27
	Linear fluid (dielectric constant: 64) occupying 0.997120 of unit cell:	Completed after 0 iterations at t[s]:    119.63
	Linear fluid (dielectric constant: 64) occupying 0.997120 of unit cell:	Completed after 0 iterations at t[s]:    120.17
ElecMinimize: Iter:  12  Etot: -105.802459379094017  |grad|_K:  6.712e-07  alpha:  7.896e-01  linmin: -2.581e-06  t[s]:    120.40
	Linear fluid (dielectric constant: 64) occupying 0.997120 of unit cell:	Completed after 0 iterations at t[s]:    120.76
	Linear fluid (dielectric constant: 64) occupying 0.997120 of unit cell:	Completed after 0 iterations at t[s]:    121.30
ElecMinimize: Iter:  13  Etot: -105.802459956463025  |grad|_K:  5.422e-07  alpha:  9.737e-01  linmin: -1.053e-05  t[s]:    121.53
	Linear fluid (dielectric constant: 64) occupying 0.997120 of unit cell:	Completed after 0 iterations at t[s]:    121.92
	Linear fluid (dielectric constant: 64) occupying 0.997120 of unit cell:	Completed after 0 iterations at t[s]:    122.50
ElecMinimize: Iter:  14  Etot: -105.802460055454631  |grad|_K:  3.709e-07  alpha:  5.416e-01  linmin: -1.363e-01  t[s]:    122.72
	Linear fluid (dielectric constant: 64) occupying 0.997120 of unit cell:	Completed after 0 iterations at t[s]:    123.08
	Linear fluid (dielectric constant: 64) occupying 0.997120 of unit cell:	Completed after 0 iterations at t[s]:    123.63
ElecMinimize: Iter:  15  Etot: -105.802460234657090  |grad|_K:  3.508e-07  alpha:  8.248e-01  linmin:  2.425e-06  t[s]:    123.87
	Linear fluid (dielectric constant: 64) occupying 0.997120 of unit cell:	Completed after 0 iterations at t[s]:    124.26
	Linear fluid (dielectric constant: 64) occupying 0.997120 of unit cell:	Completed after 0 iterations at t[s]:    124.84
ElecMinimize: 	Step increased Etot by 2.701898e-08, reducing alpha to 3.831703e-02.
	Linear fluid (dielectric constant: 64) occupying 0.997120 of unit cell:	Completed after 0 iterations at t[s]:    125.42
ElecMinimize: 	Step increased Etot by 9.458466e-08, reducing alpha to 3.831703e-03.
	Linear fluid (dielectric constant: 64) occupying 0.997120 of unit cell:	Completed after 0 iterations at t[s]:    126.00
ElecMinimize: 	Step increased Etot by 1.043500e-07, reducing alpha to 3.831703e-04.
ElecMinimize: 	Step failed to reduce Etot after 3 attempts. Quitting step.
ElecMinimize: 	Undoing step.
	Linear fluid (dielectric constant: 64) occupying 0.997120 of unit cell:	Completed after 0 iterations at t[s]:    126.58
ElecMinimize: 	Step failed: resetting search direction.
ElecMinimize: Iter:  16  Etot: -105.802460130195570  |grad|_K:  3.508e-07  alpha:  3.832e-04
	Linear fluid (dielectric constant: 64) occupying 0.997120 of unit cell:	Completed after 0 iterations at t[s]:    127.18
	Linear fluid (dielectric constant: 64) occupying 0.997120 of unit cell:	Completed after 0 iterations at t[s]:    127.72
ElecMinimize: Iter:  17  Etot: -105.802460214934001  |grad|_K:  2.081e-07  alpha:  5.231e-01  linmin: -1.578e-06  t[s]:    127.95
	Linear fluid (dielectric constant: 64) occupying 0.997120 of unit cell:	Completed after 0 iterations at t[s]:    128.32
	Linear fluid (dielectric constant: 64) occupying 0.997120 of unit cell:	Completed after 0 iterations at t[s]:    128.86
ElecMinimize: Iter:  18  Etot: -105.802460280304217  |grad|_K:  2.217e-07  alpha:  1.147e+00  linmin:  3.566e-06  t[s]:    129.09
	Linear fluid (dielectric constant: 64) occupying 0.997120 of unit cell:	Completed after 0 iterations at t[s]:    129.45
	Linear fluid (dielectric constant: 64) occupying 0.997120 of unit cell:	Completed after 0 iterations at t[s]:    129.99
ElecMinimize: Iter:  19  Etot: -105.802460333361154  |grad|_K:  1.794e-07  alpha:  8.199e-01  linmin:  4.818e-07  t[s]:    130.22
	Linear fluid (dielectric constant: 64) occupying 0.997120 of unit cell:	Completed after 0 iterations at t[s]:    130.58
	Linear fluid (dielectric constant: 64) occupying 0.997120 of unit cell:	Completed after 0 iterations at t[s]:    131.12
ElecMinimize: Iter:  20  Etot: -105.802460368417471  |grad|_K:  1.587e-07  alpha:  8.277e-01  linmin:  4.720e-06  t[s]:    131.36
	Linear fluid (dielectric constant: 64) occupying 0.997120 of unit cell:	Completed after 0 iterations at t[s]:    131.72
	Linear fluid (dielectric constant: 64) occupying 0.997120 of unit cell:	Completed after 0 iterations at t[s]:    132.27
ElecMinimize: Iter:  21  Etot: -105.802460403249071  |grad|_K:  1.555e-07  alpha:  1.051e+00  linmin:  5.016e-06  t[s]:    132.49
	Linear fluid (dielectric constant: 64) occupying 0.997119 of unit cell:	Completed after 0 iterations at t[s]:    132.85
	Linear fluid (dielectric constant: 64) occupying 0.997119 of unit cell:	Completed after 0 iterations at t[s]:    133.40
ElecMinimize: Iter:  22  Etot: -105.802460444494827  |grad|_K:  1.617e-07  alpha:  1.296e+00  linmin:  6.027e-06  t[s]:    133.63
	Linear fluid (dielectric constant: 64) occupying 0.997119 of unit cell:	Completed after 2 iterations at t[s]:    134.09
	Linear fluid (dielectric constant: 64) occupying 0.997119 of unit cell:	Completed after 0 iterations at t[s]:    134.73
ElecMinimize: 	Step increased Etot by 4.269119e-07, reducing alpha to 7.930461e-03.
	Linear fluid (dielectric constant: 64) occupying 0.997119 of unit cell:	Completed after 0 iterations at t[s]:    135.31
ElecMinimize: 	Step increased Etot by 4.173557e-07, reducing alpha to 7.930461e-04.
	Linear fluid (dielectric constant: 64) occupying 0.997119 of unit cell:	Completed after 0 iterations at t[s]:    135.89
ElecMinimize: 	Step increased Etot by 4.164178e-07, reducing alpha to 7.930461e-05.
ElecMinimize: 	Step failed to reduce Etot after 3 attempts. Quitting step.
ElecMinimize: 	Undoing step.
	Linear fluid (dielectric constant: 64) occupying 0.997119 of unit cell:	Completed after 0 iterations at t[s]:    136.47
ElecMinimize: 	Step failed: resetting search direction.
ElecMinimize: Iter:  23  Etot: -105.802460028087523  |grad|_K:  4.678e-07  alpha:  7.930e-05
	Linear fluid (dielectric constant: 64) occupying 0.997119 of unit cell:	Completed after 1 iterations at t[s]:    137.13
	Linear fluid (dielectric constant: 64) occupying 0.997119 of unit cell:	Completed after 0 iterations at t[s]:    137.73
ElecMinimize: Iter:  24  Etot: -105.802460029613911  |grad|_K:  2.311e-07  alpha:  5.812e-01  linmin: -4.884e-02  t[s]:    137.97
	Linear fluid (dielectric constant: 64) occupying 0.997119 of unit cell:	Completed after 0 iterations at t[s]:    138.34
	Linear fluid (dielectric constant: 64) occupying 0.997119 of unit cell:	Completed after 0 iterations at t[s]:    138.88
ElecMinimize: Iter:  25  Etot: -105.802460088946134  |grad|_K:  1.762e-07  alpha:  8.100e-01  linmin: -1.993e-06  t[s]:    139.11
	Linear fluid (dielectric constant: 64) occupying 0.997119 of unit cell:	Completed after 0 iterations at t[s]:    139.47
	Linear fluid (dielectric constant: 64) occupying 0.997119 of unit cell:	Completed after 0 iterations at t[s]:    140.01
ElecMinimize: Iter:  26  Etot: -105.802460137574258  |grad|_K:  1.706e-07  alpha:  1.190e+00  linmin: -2.184e-05  t[s]:    140.25
	Linear fluid (dielectric constant: 64) occupying 0.997120 of unit cell:	Completed after 0 iterations at t[s]:    140.61
	Linear fluid (dielectric constant: 64) occupying 0.997120 of unit cell:	Completed after 0 iterations at t[s]:    141.16
ElecMinimize: Iter:  27  Etot: -105.802460174448797  |grad|_K:  1.830e-07  alpha:  9.628e-01  linmin: -8.488e-06  t[s]:    141.39
	Linear fluid (dielectric constant: 64) occupying 0.997120 of unit cell:	Completed after 0 iterations at t[s]:    141.75
	Linear fluid (dielectric constant: 64) occupying 0.997120 of unit cell:	Completed after 0 iterations at t[s]:    142.29
ElecMinimize: Iter:  28  Etot: -105.802460213105178  |grad|_K:  1.774e-07  alpha:  8.767e-01  linmin: -2.195e-05  t[s]:    142.52
	Linear fluid (dielectric constant: 64) occupying 0.997120 of unit cell:	Completed after 0 iterations at t[s]:    142.88
	Linear fluid (dielectric constant: 64) occupying 0.997120 of unit cell:	Completed after 0 iterations at t[s]:    143.42
ElecMinimize: Iter:  29  Etot: -105.802460273005551  |grad|_K:  2.194e-07  alpha:  1.445e+00  linmin: -1.039e-04  t[s]:    143.65
	Linear fluid (dielectric constant: 64) occupying 0.997121 of unit cell:	Completed after 3 iterations at t[s]:    144.15
	Linear fluid (dielectric constant: 64) occupying 0.997120 of unit cell:	Completed after 0 iterations at t[s]:    144.80
ElecMinimize: 	Step increased Etot by 4.291037e-07, reducing alpha to 8.103898e-03.
	Linear fluid (dielectric constant: 64) occupying 0.997120 of unit cell:	Completed after 0 iterations at t[s]:    145.38
ElecMinimize: 	Step increased Etot by 3.805853e-07, reducing alpha to 8.103898e-04.
	Linear fluid (dielectric constant: 64) occupying 0.997120 of unit cell:	Completed after 0 iterations at t[s]:    145.96
ElecMinimize: 	Step increased Etot by 3.757675e-07, reducing alpha to 8.103898e-05.
ElecMinimize: 	Step failed to reduce Etot after 3 attempts. Quitting step.
ElecMinimize: 	Undoing step.
	Linear fluid (dielectric constant: 64) occupying 0.997120 of unit cell:	Completed after 0 iterations at t[s]:    146.55
ElecMinimize: 	Step failed: resetting search direction.
ElecMinimize: Iter:  30  Etot: -105.802459897291541  |grad|_K:  8.394e-07  alpha:  8.104e-05
	Linear fluid (dielectric constant: 64) occupying 0.997120 of unit cell:	Completed after 3 iterations at t[s]:    147.28
	Linear fluid (dielectric constant: 64) occupying 0.997120 of unit cell:	Completed after 0 iterations at t[s]:    147.95
ElecMinimize: Iter:  31  Etot: -105.802460349170403  |grad|_K:  8.794e-07  alpha:  5.237e-01  linmin:  3.146e-01  t[s]:    148.19
	Linear fluid (dielectric constant: 64) occupying 0.997120 of unit cell:	Completed after 0 iterations at t[s]:    148.60
	Linear fluid (dielectric constant: 64) occupying 0.997120 of unit cell:	Completed after 0 iterations at t[s]:    149.17
ElecMinimize: Iter:  32  Etot: -105.802460405052614  |grad|_K:  6.195e-07  alpha:  2.955e-01  linmin: -1.016e-01  t[s]:    149.41
	Linear fluid (dielectric constant: 64) occupying 0.997120 of unit cell:	Completed after 2 iterations at t[s]:    149.87
	Linear fluid (dielectric constant: 64) occupying 0.997120 of unit cell:	Completed after 0 iterations at t[s]:    150.50
ElecMinimize: 	Step increased Etot by 3.010341e-07, reducing alpha to 5.612226e-03.
	Linear fluid (dielectric constant: 64) occupying 0.997120 of unit cell:	Completed after 0 iterations at t[s]:    151.09
ElecMinimize: 	Step increased Etot by 2.681374e-07, reducing alpha to 5.612226e-04.
	Linear fluid (dielectric constant: 64) occupying 0.997120 of unit cell:	Completed after 0 iterations at t[s]:    151.68
ElecMinimize: 	Step increased Etot by 2.651624e-07, reducing alpha to 5.612226e-05.
ElecMinimize: 	Step failed to reduce Etot after 3 attempts. Quitting step.
ElecMinimize: 	Undoing step.
	Linear fluid (dielectric constant: 64) occupying 0.997120 of unit cell:	Completed after 0 iterations at t[s]:    152.26
ElecMinimize: 	Step failed: resetting search direction.
ElecMinimize: Iter:  33  Etot: -105.802460139922971  |grad|_K:  6.076e-07  alpha:  5.612e-05
	Linear fluid (dielectric constant: 64) occupying 0.997120 of unit cell:	Completed after 0 iterations at t[s]:    152.85
	Linear fluid (dielectric constant: 64) occupying 0.997120 of unit cell:	Completed after 0 iterations at t[s]:    153.40
ElecMinimize: Iter:  34  Etot: -105.802460364997984  |grad|_K:  2.439e-07  alpha:  4.632e-01  linmin: -1.287e-05  t[s]:    153.63
	Linear fluid (dielectric constant: 64) occupying 0.997120 of unit cell:	Completed after 0 iterations at t[s]:    153.98
	Linear fluid (dielectric constant: 64) occupying 0.997120 of unit cell:	Completed after 1 iterations at t[s]:    154.61
ElecMinimize: 	Step increased Etot by 4.015845e-07, reducing alpha to 9.849056e-02.
	Linear fluid (dielectric constant: 64) occupying 0.997120 of unit cell:	Completed after 0 iterations at t[s]:    155.23
ElecMinimize: 	Step increased Etot by 2.731872e-07, reducing alpha to 9.849056e-03.
	Linear fluid (dielectric constant: 64) occupying 0.997120 of unit cell:	Completed after 0 iterations at t[s]:    155.82
ElecMinimize: 	Step increased Etot by 2.672247e-07, reducing alpha to 9.849056e-04.
ElecMinimize: 	Step failed to reduce Etot after 3 attempts. Quitting step.
ElecMinimize: 	Undoing step.
	Linear fluid (dielectric constant: 64) occupying 0.997120 of unit cell:	Completed after 0 iterations at t[s]:    156.40
ElecMinimize: 	Step failed: resetting search direction.
ElecMinimize: Iter:  35  Etot: -105.802460097832437  |grad|_K:  5.351e-07  alpha:  9.849e-04
	Linear fluid (dielectric constant: 64) occupying 0.997120 of unit cell:	Completed after 0 iterations at t[s]:    157.02
	Linear fluid (dielectric constant: 64) occupying 0.997120 of unit cell:	Completed after 0 iterations at t[s]:    157.59
ElecMinimize: Iter:  36  Etot: -105.802460141962371  |grad|_K:  2.063e-07  alpha:  2.860e-01  linmin: -6.727e-01  t[s]:    157.82
	Linear fluid (dielectric constant: 64) occupying 0.997120 of unit cell:	Completed after 0 iterations at t[s]:    158.17
	Linear fluid (dielectric constant: 64) occupying 0.997120 of unit cell:	Completed after 0 iterations at t[s]:    162.86
ElecMinimize: Iter:  37  Etot: -105.802460185642460  |grad|_K:  1.801e-07  alpha:  5.853e-01  linmin:  1.239e-04  t[s]:    163.10
	Linear fluid (dielectric constant: 64) occupying 0.997119 of unit cell:	Completed after 0 iterations at t[s]:    163.46
	Linear fluid (dielectric constant: 64) occupying 0.997119 of unit cell:	Completed after 0 iterations at t[s]:    169.46
ElecMinimize: Iter:  38  Etot: -105.802460219718114  |grad|_K:  1.591e-07  alpha:  7.987e-01  linmin:  3.633e-04  t[s]:    169.69
	Linear fluid (dielectric constant: 64) occupying 0.997119 of unit cell:	Completed after 0 iterations at t[s]:    170.04
	Linear fluid (dielectric constant: 64) occupying 0.997119 of unit cell:	Completed after 0 iterations at t[s]:    170.59
ElecMinimize: Iter:  39  Etot: -105.802460238302984  |grad|_K:  1.333e-07  alpha:  5.582e-01  linmin:  6.794e-06  t[s]:    170.82
	Linear fluid (dielectric constant: 64) occupying 0.997119 of unit cell:	Completed after 0 iterations at t[s]:    171.18
	Linear fluid (dielectric constant: 64) occupying 0.997119 of unit cell:	Completed after 0 iterations at t[s]:    171.73
ElecMinimize: Iter:  40  Etot: -105.802460256279630  |grad|_K:  1.337e-07  alpha:  7.692e-01  linmin:  3.114e-05  t[s]:    171.95
	Linear fluid (dielectric constant: 64) occupying 0.997118 of unit cell:	Completed after 0 iterations at t[s]:    172.35
	Linear fluid (dielectric constant: 64) occupying 0.997119 of unit cell:	Completed after 0 iterations at t[s]:    172.92
ElecMinimize: 	Step increased Etot by 1.501305e-07, reducing alpha to 6.749378e-03.
	Linear fluid (dielectric constant: 64) occupying 0.997119 of unit cell:	Completed after 0 iterations at t[s]:    173.50
ElecMinimize: 	Step increased Etot by 1.498877e-07, reducing alpha to 6.749378e-04.
	Linear fluid (dielectric constant: 64) occupying 0.997119 of unit cell:	Completed after 0 iterations at t[s]:    177.27
ElecMinimize: 	Step increased Etot by 1.498765e-07, reducing alpha to 6.749378e-05.
ElecMinimize: 	Step failed to reduce Etot after 3 attempts. Quitting step.
ElecMinimize: 	Undoing step.
	Linear fluid (dielectric constant: 64) occupying 0.997119 of unit cell:	Completed after 0 iterations at t[s]:    177.86
ElecMinimize: 	Step failed: resetting search direction.
ElecMinimize: Iter:  41  Etot: -105.802460106403259  |grad|_K:  2.356e-07  alpha:  6.749e-05
	Linear fluid (dielectric constant: 64) occupying 0.997119 of unit cell:	Completed after 0 iterations at t[s]:    178.44
	Linear fluid (dielectric constant: 64) occupying 0.997119 of unit cell:	Completed after 0 iterations at t[s]:    178.99
ElecMinimize: Iter:  42  Etot: -105.802460200165640  |grad|_K:  2.019e-07  alpha:  1.283e+00  linmin: -9.612e-04  t[s]:    179.22
	Linear fluid (dielectric constant: 64) occupying 0.997119 of unit cell:	Completed after 0 iterations at t[s]:    179.61
	Linear fluid (dielectric constant: 64) occupying 0.997119 of unit cell:	Completed after 0 iterations at t[s]:    180.19
ElecMinimize: 	Step increased Etot by 5.271976e-08, reducing alpha to 3.374288e-02.
	Linear fluid (dielectric constant: 64) occupying 0.997119 of unit cell:	Completed after 0 iterations at t[s]:    180.78
ElecMinimize: 	Step increased Etot by 5.845260e-08, reducing alpha to 3.374288e-03.
	Linear fluid (dielectric constant: 64) occupying 0.997119 of unit cell:	Completed after 0 iterations at t[s]:    181.36
ElecMinimize: 	Step increased Etot by 5.979365e-08, reducing alpha to 3.374288e-04.
ElecMinimize: 	Step failed to reduce Etot after 3 attempts. Quitting step.
ElecMinimize: 	Undoing step.
	Linear fluid (dielectric constant: 64) occupying 0.997119 of unit cell:	Completed after 0 iterations at t[s]:    181.95
ElecMinimize: 	Step failed: resetting search direction.
ElecMinimize: Iter:  43  Etot: -105.802460140356331  |grad|_K:  2.095e-07  alpha:  3.374e-04
	Linear fluid (dielectric constant: 64) occupying 0.997119 of unit cell:	Completed after 0 iterations at t[s]:    182.54
	Linear fluid (dielectric constant: 64) occupying 0.997119 of unit cell:	Completed after 0 iterations at t[s]:    183.08
ElecMinimize: Iter:  44  Etot: -105.802460166346634  |grad|_K:  7.290e-08  alpha:  4.502e-01  linmin: -1.147e-05  t[s]:    183.31
	Linear fluid (dielectric constant: 64) occupying 0.997119 of unit cell:	Completed after 0 iterations at t[s]:    183.66
	Linear fluid (dielectric constant: 64) occupying 0.997119 of unit cell:	Completed after 0 iterations at t[s]:    184.23
ElecMinimize: Iter:  45  Etot: -105.802460169991591  |grad|_K:  4.788e-08  alpha:  5.212e-01  linmin:  2.690e-05  t[s]:    184.46
	Linear fluid (dielectric constant: 64) occupying 0.997119 of unit cell:	Completed after 0 iterations at t[s]:    184.82
	Linear fluid (dielectric constant: 64) occupying 0.997119 of unit cell:	Completed after 0 iterations at t[s]:    185.37
ElecMinimize: Iter:  46  Etot: -105.802460172596000  |grad|_K:  4.017e-08  alpha:  8.634e-01  linmin:  9.093e-05  t[s]:    185.60
ElecMinimize: Converged (|Delta Etot|<1.000000e-08 for 2 iters).
Setting wave functions to eigenvectors of Hamiltonian
IonicMinimize: 	Predicted alpha/alphaT>3.000000, increasing alphaT to 9.000000e+00.

-------- Electronic minimization -----------
	Linear fluid (dielectric constant: 64) occupying 0.997109 of unit cell:	Completed after 24 iterations at t[s]:    187.13
ElecMinimize: Iter:   0  Etot: -104.723727032299280  |grad|_K:  1.592e-03  alpha:  1.000e+00
	Linear fluid (dielectric constant: 64) occupying 0.997114 of unit cell:	Completed after 39 iterations at t[s]:    190.52
	Linear fluid (dielectric constant: 64) occupying 0.997111 of unit cell:	Completed after 29 iterations at t[s]:    193.17
ElecMinimize: Iter:   1  Etot: -105.692588498915626  |grad|_K:  4.440e-04  alpha:  3.342e-01  linmin: -1.692e-01  t[s]:    193.49
	Linear fluid (dielectric constant: 64) occupying 0.997079 of unit cell:	Completed after 21 iterations at t[s]:    195.28
	Linear fluid (dielectric constant: 64) occupying 0.997080 of unit cell:	Completed after 9 iterations at t[s]:    196.46
ElecMinimize: Iter:   2  Etot: -105.781276461218027  |grad|_K:  1.876e-04  alpha:  3.217e-01  linmin:  1.016e-02  t[s]:    196.79
	Linear fluid (dielectric constant: 64) occupying 0.997071 of unit cell:	Completed after 17 iterations at t[s]:    198.30
	Linear fluid (dielectric constant: 64) occupying 0.997066 of unit cell:	Completed after 12 iterations at t[s]:    199.72
ElecMinimize: Iter:   3  Etot: -105.804289192994958  |grad|_K:  7.874e-05  alpha:  4.997e-01  linmin: -2.898e-03  t[s]:    200.05
	Linear fluid (dielectric constant: 64) occupying 0.997064 of unit cell:	Completed after 12 iterations at t[s]:    201.17
	Linear fluid (dielectric constant: 64) occupying 0.997064 of unit cell:	Completed after 0 iterations at t[s]:    201.93
ElecMinimize: Iter:   4  Etot: -105.808291295247827  |grad|_K:  4.793e-05  alpha:  4.895e-01  linmin:  1.796e-03  t[s]:    202.17
	Linear fluid (dielectric constant: 64) occupying 0.997063 of unit cell:	Completed after 12 iterations at t[s]:    203.19
	Linear fluid (dielectric constant: 64) occupying 0.997063 of unit cell:	Completed after 3 iterations at t[s]:    204.08
ElecMinimize: Iter:   5  Etot: -105.809682396796461  |grad|_K:  2.597e-05  alpha:  4.611e-01  linmin:  1.896e-03  t[s]:    204.32
	Linear fluid (dielectric constant: 64) occupying 0.997064 of unit cell:	Completed after 10 iterations at t[s]:    205.26
	Linear fluid (dielectric constant: 64) occupying 0.997065 of unit cell:	Completed after 4 iterations at t[s]:    206.18
ElecMinimize: Iter:   6  Etot: -105.810211224708254  |grad|_K:  2.189e-05  alpha:  5.967e-01  linmin: -1.904e-03  t[s]:    206.44
	Linear fluid (dielectric constant: 64) occupying 0.997065 of unit cell:	Completed after 9 iterations at t[s]:    207.37
	Linear fluid (dielectric constant: 64) occupying 0.997065 of unit cell:	Completed after 3 iterations at t[s]:    208.25
ElecMinimize: Iter:   7  Etot: -105.810533653222961  |grad|_K:  1.249e-05  alpha:  5.101e-01  linmin:  7.921e-05  t[s]:    208.47
	Linear fluid (dielectric constant: 64) occupying 0.997065 of unit cell:	Completed after 4 iterations at t[s]:    209.11
	Linear fluid (dielectric constant: 64) occupying 0.997065 of unit cell:	Completed after 4 iterations at t[s]:    209.94
ElecMinimize: Iter:   8  Etot: -105.810687285012591  |grad|_K:  8.720e-06  alpha:  7.521e-01  linmin:  4.068e-03  t[s]:    210.21
	Linear fluid (dielectric constant: 64) occupying 0.997063 of unit cell:	Completed after 5 iterations at t[s]:    210.88
	Linear fluid (dielectric constant: 64) occupying 0.997064 of unit cell:	Completed after 3 iterations at t[s]:    211.71
ElecMinimize: Iter:   9  Etot: -105.810740349251404  |grad|_K:  6.784e-06  alpha:  5.355e-01  linmin:  2.293e-03  t[s]:    211.94
	Linear fluid (dielectric constant: 64) occupying 0.997062 of unit cell:	Completed after 4 iterations at t[s]:    212.58
	Linear fluid (dielectric constant: 64) occupying 0.997062 of unit cell:	Completed after 0 iterations at t[s]:    213.25
ElecMinimize: Iter:  10  Etot: -105.810769260430362  |grad|_K:  4.637e-06  alpha:  4.797e-01  linmin:  6.456e-03  t[s]:    213.48
	Linear fluid (dielectric constant: 64) occupying 0.997061 of unit cell:	Completed after 0 iterations at t[s]:    213.97
	Linear fluid (dielectric constant: 64) occupying 0.997060 of unit cell:	Completed after 3 iterations at t[s]:    214.75
ElecMinimize: Iter:  11  Etot: -105.810792693188489  |grad|_K:  3.556e-06  alpha:  8.701e-01  linmin:  1.423e-02  t[s]:    214.98
	Linear fluid (dielectric constant: 64) occupying 0.997059 of unit cell:	Completed after 1 iterations at t[s]:    215.51
	Linear fluid (dielectric constant: 64) occupying 0.997059 of unit cell:	Completed after 0 iterations at t[s]:    216.15
ElecMinimize: Iter:  12  Etot: -105.810806915499569  |grad|_K:  2.669e-06  alpha:  8.801e-01  linmin: -1.251e-03  t[s]:    216.37
	Linear fluid (dielectric constant: 64) occupying 0.997059 of unit cell:	Completed after 2 iterations at t[s]:    216.86
	Linear fluid (dielectric constant: 64) occupying 0.997059 of unit cell:	Completed after 0 iterations at t[s]:    217.49
ElecMinimize: Iter:  13  Etot: -105.810815024503512  |grad|_K:  2.012e-06  alpha:  8.634e-01  linmin: -5.003e-03  t[s]:    217.73
	Linear fluid (dielectric constant: 64) occupying 0.997058 of unit cell:	Completed after 0 iterations at t[s]:    218.09
	Linear fluid (dielectric constant: 64) occupying 0.997059 of unit cell:	Completed after 0 iterations at t[s]:    218.63
ElecMinimize: Iter:  14  Etot: -105.810819315476280  |grad|_K:  1.596e-06  alpha:  7.977e-01  linmin:  2.407e-06  t[s]:    218.86
	Linear fluid (dielectric constant: 64) occupying 0.997058 of unit cell:	Completed after 3 iterations at t[s]:    219.36
	Linear fluid (dielectric constant: 64) occupying 0.997058 of unit cell:	Completed after 0 iterations at t[s]:    220.01
ElecMinimize: Iter:  15  Etot: -105.810820439800949  |grad|_K:  1.568e-06  alpha:  4.907e-01  linmin: -4.788e-02  t[s]:    220.24
	Linear fluid (dielectric constant: 64) occupying 0.997058 of unit cell:	Completed after 2 iterations at t[s]:    220.70
	Linear fluid (dielectric constant: 64) occupying 0.997058 of unit cell:	Completed after 0 iterations at t[s]:    221.33
ElecMinimize: Iter:  16  Etot: -105.810821476089771  |grad|_K:  1.184e-06  alpha:  2.777e-01  linmin:  6.806e-02  t[s]:    221.56
	Linear fluid (dielectric constant: 64) occupying 0.997058 of unit cell:	Completed after 0 iterations at t[s]:    221.91
	Linear fluid (dielectric constant: 64) occupying 0.997058 of unit cell:	Completed after 0 iterations at t[s]:    222.46
ElecMinimize: Iter:  17  Etot: -105.810822434064235  |grad|_K:  1.033e-06  alpha:  6.247e-01  linmin:  9.919e-06  t[s]:    222.69
	Linear fluid (dielectric constant: 64) occupying 0.997058 of unit cell:	Completed after 2 iterations at t[s]:    223.15
	Linear fluid (dielectric constant: 64) occupying 0.997058 of unit cell:	Completed after 0 iterations at t[s]:    223.82
ElecMinimize: Iter:  18  Etot: -105.810822442037988  |grad|_K:  1.177e-06  alpha:  2.494e-01  linmin:  4.375e-02  t[s]:    224.05
	Linear fluid (dielectric constant: 64) occupying 0.997058 of unit cell:	Completed after 0 iterations at t[s]:    224.43
	Linear fluid (dielectric constant: 64) occupying 0.997058 of unit cell:	Completed after 0 iterations at t[s]:    224.97
ElecMinimize: Iter:  19  Etot: -105.810822915480898  |grad|_K:  1.072e-06  alpha:  3.077e-01  linmin:  8.250e-07  t[s]:    225.20
	Linear fluid (dielectric constant: 64) occupying 0.997058 of unit cell:	Completed after 0 iterations at t[s]:    225.55
	Linear fluid (dielectric constant: 64) occupying 0.997058 of unit cell:	Completed after 0 iterations at t[s]:    226.10
ElecMinimize: Iter:  20  Etot: -105.810823392895514  |grad|_K:  8.881e-07  alpha:  3.157e-01  linmin:  1.981e-06  t[s]:    226.32
	Linear fluid (dielectric constant: 64) occupying 0.997058 of unit cell:	Completed after 3 iterations at t[s]:    226.83
	Linear fluid (dielectric constant: 64) occupying 0.997058 of unit cell:	Completed after 0 iterations at t[s]:    227.47
ElecMinimize: 	Step increased Etot by 4.793713e-07, reducing alpha to 5.331918e-03.
	Linear fluid (dielectric constant: 64) occupying 0.997058 of unit cell:	Completed after 0 iterations at t[s]:    228.05
ElecMinimize: 	Step increased Etot by 3.840146e-07, reducing alpha to 5.331918e-04.
	Linear fluid (dielectric constant: 64) occupying 0.997058 of unit cell:	Completed after 0 iterations at t[s]:    228.63
ElecMinimize: 	Step increased Etot by 3.753625e-07, reducing alpha to 5.331918e-05.
ElecMinimize: 	Step failed to reduce Etot after 3 attempts. Quitting step.
ElecMinimize: 	Undoing step.
	Linear fluid (dielectric constant: 64) occupying 0.997058 of unit cell:	Completed after 0 iterations at t[s]:    229.21
ElecMinimize: 	Step failed: resetting search direction.
ElecMinimize: Iter:  21  Etot: -105.810823017628294  |grad|_K:  1.605e-06  alpha:  5.332e-05
	Linear fluid (dielectric constant: 64) occupying 0.997058 of unit cell:	Completed after 2 iterations at t[s]:    229.90
	Linear fluid (dielectric constant: 64) occupying 0.997058 of unit cell:	Completed after 0 iterations at t[s]:    230.53
ElecMinimize: Iter:  22  Etot: -105.810823336740143  |grad|_K:  7.680e-07  alpha:  1.614e-01  linmin:  1.295e-01  t[s]:    230.76
	Linear fluid (dielectric constant: 64) occupying 0.997058 of unit cell:	Completed after 0 iterations at t[s]:    231.11
	Linear fluid (dielectric constant: 64) occupying 0.997058 of unit cell:	Completed after 0 iterations at t[s]:    231.66
ElecMinimize: Iter:  23  Etot: -105.810823671679799  |grad|_K:  5.252e-07  alpha:  4.788e-01  linmin:  9.696e-07  t[s]:    231.89
	Linear fluid (dielectric constant: 64) occupying 0.997058 of unit cell:	Completed after 1 iterations at t[s]:    232.32
	Linear fluid (dielectric constant: 64) occupying 0.997058 of unit cell:	Completed after 0 iterations at t[s]:    232.92
ElecMinimize: 	Step increased Etot by 1.596327e-07, reducing alpha to 1.517370e-02.
	Linear fluid (dielectric constant: 64) occupying 0.997058 of unit cell:	Completed after 0 iterations at t[s]:    233.51
ElecMinimize: 	Step increased Etot by 1.833564e-07, reducing alpha to 1.517370e-03.
	Linear fluid (dielectric constant: 64) occupying 0.997058 of unit cell:	Completed after 0 iterations at t[s]:    234.10
ElecMinimize: 	Step increased Etot by 1.870555e-07, reducing alpha to 1.517370e-04.
ElecMinimize: 	Step failed to reduce Etot after 3 attempts. Quitting step.
ElecMinimize: 	Undoing step.
	Linear fluid (dielectric constant: 64) occupying 0.997058 of unit cell:	Completed after 0 iterations at t[s]:    234.68
ElecMinimize: 	Step failed: resetting search direction.
ElecMinimize: Iter:  24  Etot: -105.810823484581874  |grad|_K:  4.271e-07  alpha:  1.517e-04
	Linear fluid (dielectric constant: 64) occupying 0.997058 of unit cell:	Completed after 0 iterations at t[s]:    235.27
	Linear fluid (dielectric constant: 64) occupying 0.997058 of unit cell:	Completed after 0 iterations at t[s]:    235.81
ElecMinimize: Iter:  25  Etot: -105.810823593753412  |grad|_K:  2.508e-07  alpha:  4.548e-01  linmin: -1.894e-06  t[s]:    236.05
	Linear fluid (dielectric constant: 64) occupying 0.997058 of unit cell:	Completed after 0 iterations at t[s]:    236.41
	Linear fluid (dielectric constant: 64) occupying 0.997058 of unit cell:	Completed after 0 iterations at t[s]:    236.95
ElecMinimize: Iter:  26  Etot: -105.810823685157331  |grad|_K:  2.657e-07  alpha:  1.104e+00  linmin: -5.617e-06  t[s]:    237.18
	Linear fluid (dielectric constant: 64) occupying 0.997059 of unit cell:	Completed after 0 iterations at t[s]:    237.54
	Linear fluid (dielectric constant: 64) occupying 0.997058 of unit cell:	Completed after 0 iterations at t[s]:    238.08
ElecMinimize: Iter:  27  Etot: -105.810823745790572  |grad|_K:  1.538e-07  alpha:  6.526e-01  linmin:  3.166e-06  t[s]:    238.32
	Linear fluid (dielectric constant: 64) occupying 0.997059 of unit cell:	Completed after 0 iterations at t[s]:    238.68
	Linear fluid (dielectric constant: 64) occupying 0.997059 of unit cell:	Completed after 0 iterations at t[s]:    239.23
ElecMinimize: Iter:  28  Etot: -105.810823782749225  |grad|_K:  1.361e-07  alpha:  1.188e+00  linmin: -1.666e-05  t[s]:    239.46
	Linear fluid (dielectric constant: 64) occupying 0.997059 of unit cell:	Completed after 0 iterations at t[s]:    239.82
	Linear fluid (dielectric constant: 64) occupying 0.997059 of unit cell:	Completed after 0 iterations at t[s]:    240.36
ElecMinimize: Iter:  29  Etot: -105.810823805474215  |grad|_K:  1.005e-07  alpha:  9.323e-01  linmin:  2.435e-07  t[s]:    240.60
	Linear fluid (dielectric constant: 64) occupying 0.997059 of unit cell:	Completed after 0 iterations at t[s]:    240.96
	Linear fluid (dielectric constant: 64) occupying 0.997059 of unit cell:	Completed after 0 iterations at t[s]:    241.51
ElecMinimize: Iter:  30  Etot: -105.810823817305305  |grad|_K:  8.782e-08  alpha:  8.899e-01  linmin: -4.574e-06  t[s]:    241.74
	Linear fluid (dielectric constant: 64) occupying 0.997059 of unit cell:	Completed after 0 iterations at t[s]:    242.09
	Linear fluid (dielectric constant: 64) occupying 0.997059 of unit cell:	Completed after 0 iterations at t[s]:    242.65
ElecMinimize: Iter:  31  Etot: -105.810823825095738  |grad|_K:  7.480e-08  alpha:  7.675e-01  linmin: -1.266e-06  t[s]:    242.87
	Linear fluid (dielectric constant: 64) occupying 0.997059 of unit cell:	Completed after 0 iterations at t[s]:    243.23
	Linear fluid (dielectric constant: 64) occupying 0.997059 of unit cell:	Completed after 0 iterations at t[s]:    243.78
ElecMinimize: Iter:  32  Etot: -105.810823830922160  |grad|_K:  5.732e-08  alpha:  7.913e-01  linmin:  8.253e-06  t[s]:    244.02
ElecMinimize: Converged (|Delta Etot|<1.000000e-08 for 2 iters).
Setting wave functions to eigenvectors of Hamiltonian

-------- Electronic minimization -----------
	Linear fluid (dielectric constant: 64) occupying 0.997048 of unit cell:	Completed after 24 iterations at t[s]:    245.56
ElecMinimize: Iter:   0  Etot: -104.739608463375632  |grad|_K:  1.581e-03  alpha:  1.000e+00
	Linear fluid (dielectric constant: 64) occupying 0.997064 of unit cell:	Completed after 38 iterations at t[s]:    248.88
	Linear fluid (dielectric constant: 64) occupying 0.997054 of unit cell:	Completed after 29 iterations at t[s]:    251.53
ElecMinimize: Iter:   1  Etot: -105.698187173828202  |grad|_K:  4.412e-04  alpha:  3.345e-01  linmin: -1.655e-01  t[s]:    251.84
	Linear fluid (dielectric constant: 64) occupying 0.997023 of unit cell:	Completed after 23 iterations at t[s]:    253.76
	Linear fluid (dielectric constant: 64) occupying 0.997024 of unit cell:	Completed after 9 iterations at t[s]:    254.95
ElecMinimize: Iter:   2  Etot: -105.786005793945264  |grad|_K:  1.879e-04  alpha:  3.231e-01  linmin:  9.912e-03  t[s]:    255.27
	Linear fluid (dielectric constant: 64) occupying 0.997016 of unit cell:	Completed after 17 iterations at t[s]:    256.77
	Linear fluid (dielectric constant: 64) occupying 0.997011 of unit cell:	Completed after 12 iterations at t[s]:    258.18
ElecMinimize: Iter:   3  Etot: -105.809227528331874  |grad|_K:  7.943e-05  alpha:  5.026e-01  linmin: -2.982e-03  t[s]:    258.50
	Linear fluid (dielectric constant: 64) occupying 0.997009 of unit cell:	Completed after 12 iterations at t[s]:    259.61
	Linear fluid (dielectric constant: 64) occupying 0.997009 of unit cell:	Completed after 1 iterations at t[s]:    260.41
ElecMinimize: Iter:   4  Etot: -105.813304833878803  |grad|_K:  4.817e-05  alpha:  4.900e-01  linmin:  1.264e-03  t[s]:    260.63
	Linear fluid (dielectric constant: 64) occupying 0.997007 of unit cell:	Completed after 12 iterations at t[s]:    261.73
	Linear fluid (dielectric constant: 64) occupying 0.997007 of unit cell:	Completed after 3 iterations at t[s]:    262.61
ElecMinimize: Iter:   5  Etot: -105.814711143049948  |grad|_K:  2.590e-05  alpha:  4.612e-01  linmin:  1.443e-03  t[s]:    262.84
	Linear fluid (dielectric constant: 64) occupying 0.997008 of unit cell:	Completed after 10 iterations at t[s]:    263.82
	Linear fluid (dielectric constant: 64) occupying 0.997008 of unit cell:	Completed after 4 iterations at t[s]:    264.75
ElecMinimize: Iter:   6  Etot: -105.815241203540140  |grad|_K:  2.196e-05  alpha:  6.012e-01  linmin: -1.597e-03  t[s]:    265.01
	Linear fluid (dielectric constant: 64) occupying 0.997008 of unit cell:	Completed after 9 iterations at t[s]:    265.92
	Linear fluid (dielectric constant: 64) occupying 0.997008 of unit cell:	Completed after 3 iterations at t[s]:    266.80
ElecMinimize: Iter:   7  Etot: -105.815564407540393  |grad|_K:  1.251e-05  alpha:  5.086e-01  linmin:  3.985e-04  t[s]:    267.03
	Linear fluid (dielectric constant: 64) occupying 0.997008 of unit cell:	Completed after 4 iterations at t[s]:    267.66
	Linear fluid (dielectric constant: 64) occupying 0.997007 of unit cell:	Completed after 4 iterations at t[s]:    268.49
ElecMinimize: Iter:   8  Etot: -105.815719064910184  |grad|_K:  8.685e-06  alpha:  7.553e-01  linmin:  4.069e-03  t[s]:    268.74
	Linear fluid (dielectric constant: 64) occupying 0.997006 of unit cell:	Completed after 5 iterations at t[s]:    269.41
	Linear fluid (dielectric constant: 64) occupying 0.997006 of unit cell:	Completed after 3 iterations at t[s]:    270.26
ElecMinimize: Iter:   9  Etot: -105.815772347174658  |grad|_K:  6.767e-06  alpha:  5.421e-01  linmin:  2.084e-03  t[s]:    270.49
	Linear fluid (dielectric constant: 64) occupying 0.997004 of unit cell:	Completed after 4 iterations at t[s]:    271.12
	Linear fluid (dielectric constant: 64) occupying 0.997005 of unit cell:	Completed after 0 iterations at t[s]:    271.79
ElecMinimize: Iter:  10  Etot: -105.815801189612557  |grad|_K:  4.681e-06  alpha:  4.804e-01  linmin:  8.968e-03  t[s]:    272.02
	Linear fluid (dielectric constant: 64) occupying 0.997004 of unit cell:	Completed after 1 iterations at t[s]:    272.55
	Linear fluid (dielectric constant: 64) occupying 0.997003 of unit cell:	Completed after 0 iterations at t[s]:    273.19
ElecMinimize: Iter:  11  Etot: -105.815825601986461  |grad|_K:  3.543e-06  alpha:  8.434e-01  linmin: -1.784e-02  t[s]:    273.41
	Linear fluid (dielectric constant: 64) occupying 0.997001 of unit cell:	Completed after 3 iterations at t[s]:    274.01
	Linear fluid (dielectric constant: 64) occupying 0.997002 of unit cell:	Completed after 0 iterations at t[s]:    274.65
ElecMinimize: Iter:  12  Etot: -105.815835593457109  |grad|_K:  3.898e-06  alpha:  6.238e-01  linmin: -1.101e-02  t[s]:    274.88
	Linear fluid (dielectric constant: 64) occupying 0.997001 of unit cell:	Completed after 3 iterations at t[s]:    275.38
	Linear fluid (dielectric constant: 64) occupying 0.997001 of unit cell:	Completed after 1 iterations at t[s]:    276.10
ElecMinimize: Iter:  13  Etot: -105.815842967635731  |grad|_K:  2.736e-06  alpha:  3.605e-01  linmin:  2.683e-02  t[s]:    276.33
	Linear fluid (dielectric constant: 64) occupying 0.997001 of unit cell:	Completed after 1 iterations at t[s]:    276.80
	Linear fluid (dielectric constant: 64) occupying 0.997001 of unit cell:	Completed after 0 iterations at t[s]:    277.40
ElecMinimize: Iter:  14  Etot: -105.815849484121216  |grad|_K:  1.760e-06  alpha:  6.347e-01  linmin: -1.035e-01  t[s]:    277.63
	Linear fluid (dielectric constant: 64) occupying 0.997001 of unit cell:	Completed after 3 iterations at t[s]:    278.13
	Linear fluid (dielectric constant: 64) occupying 0.997001 of unit cell:	Completed after 0 iterations at t[s]:    278.77
ElecMinimize: Iter:  15  Etot: -105.815850655813421  |grad|_K:  2.240e-06  alpha:  3.563e-01  linmin:  3.299e-04  t[s]:    279.00
	Linear fluid (dielectric constant: 64) occupying 0.997001 of unit cell:	Completed after 0 iterations at t[s]:    279.36
[...]
	Linear fluid (dielectric constant: 64) occupying 0.996766 of unit cell:	Completed after 0 iterations at t[s]:   2118.95
ElecMinimize: 	Predicted alpha/alphaT>3.000000, increasing alphaT to 1.128211e+00.
	Linear fluid (dielectric constant: 64) occupying 0.996766 of unit cell:	Completed after 3 iterations at t[s]:   2119.63
	Linear fluid (dielectric constant: 64) occupying 0.996766 of unit cell:	Completed after 0 iterations at t[s]:   2120.27
ElecMinimize: 	Step increased Etot by 5.045955e-07, reducing alpha to 2.569133e-02.
	Linear fluid (dielectric constant: 64) occupying 0.996766 of unit cell:	Completed after 0 iterations at t[s]:   2120.86
ElecMinimize: 	Step increased Etot by 4.497485e-07, reducing alpha to 2.569133e-03.
	Linear fluid (dielectric constant: 64) occupying 0.996766 of unit cell:	Completed after 0 iterations at t[s]:   2121.44
ElecMinimize: 	Step increased Etot by 4.461174e-07, reducing alpha to 2.569133e-04.
ElecMinimize: 	Step failed to reduce Etot after 3 attempts. Quitting step.
ElecMinimize: 	Undoing step.
	Linear fluid (dielectric constant: 64) occupying 0.996766 of unit cell:	Completed after 0 iterations at t[s]:   2122.02
ElecMinimize: 	Step failed: resetting search direction.
ElecMinimize: Iter:   9  Etot: -105.830609456439205  |grad|_K:  1.503e-06  alpha:  2.569e-04
	Linear fluid (dielectric constant: 64) occupying 0.996766 of unit cell:	Completed after 2 iterations at t[s]:   2122.71
	Linear fluid (dielectric constant: 64) occupying 0.996766 of unit cell:	Completed after 0 iterations at t[s]:   2123.34
ElecMinimize: Iter:  10  Etot: -105.830609864026258  |grad|_K:  7.170e-07  alpha:  1.763e-01  linmin:  3.610e-01  t[s]:   2123.57
	Linear fluid (dielectric constant: 64) occupying 0.996766 of unit cell:	Completed after 0 iterations at t[s]:   2123.92
ElecMinimize: 	Predicted alpha/alphaT>3.000000, increasing alphaT to 5.289779e-01.
	Linear fluid (dielectric constant: 64) occupying 0.996766 of unit cell:	Completed after 0 iterations at t[s]:   2124.50
	Linear fluid (dielectric constant: 64) occupying 0.996766 of unit cell:	Completed after 0 iterations at t[s]:   2125.08
ElecMinimize: Iter:  11  Etot: -105.830610011713731  |grad|_K:  4.391e-07  alpha:  4.194e-01  linmin: -4.625e-01  t[s]:   2125.31
	Linear fluid (dielectric constant: 64) occupying 0.996766 of unit cell:	Completed after 0 iterations at t[s]:   2125.70
	Linear fluid (dielectric constant: 64) occupying 0.996766 of unit cell:	Completed after 0 iterations at t[s]:   2126.27
ElecMinimize: Iter:  12  Etot: -105.830610096243234  |grad|_K:  3.168e-07  alpha:  3.392e-01  linmin: -4.991e-01  t[s]:   2126.50
	Linear fluid (dielectric constant: 64) occupying 0.996766 of unit cell:	Completed after 0 iterations at t[s]:   2126.86
ElecMinimize: 	Predicted alpha/alphaT>3.000000, increasing alphaT to 1.017535e+00.
	Linear fluid (dielectric constant: 64) occupying 0.996766 of unit cell:	Completed after 0 iterations at t[s]:   2127.40
	Linear fluid (dielectric constant: 64) occupying 0.996766 of unit cell:	Completed after 2 iterations at t[s]:   2128.05
ElecMinimize: 	Step increased Etot by 5.723175e-07, reducing alpha to 1.315454e-01.
	Linear fluid (dielectric constant: 64) occupying 0.996766 of unit cell:	Completed after 0 iterations at t[s]:   2128.71
ElecMinimize: 	Step increased Etot by 2.466970e-07, reducing alpha to 1.315454e-02.
	Linear fluid (dielectric constant: 64) occupying 0.996766 of unit cell:	Completed after 0 iterations at t[s]:   2129.29
ElecMinimize: 	Step increased Etot by 2.394150e-07, reducing alpha to 1.315454e-03.
ElecMinimize: 	Step failed to reduce Etot after 3 attempts. Quitting step.
ElecMinimize: 	Undoing step.
	Linear fluid (dielectric constant: 64) occupying 0.996766 of unit cell:	Completed after 0 iterations at t[s]:   2129.87
ElecMinimize: 	Step failed: resetting search direction.
ElecMinimize: Iter:  13  Etot: -105.830609856883328  |grad|_K:  1.143e-06  alpha:  1.315e-03
	Linear fluid (dielectric constant: 64) occupying 0.996766 of unit cell:	Completed after 1 iterations at t[s]:   2130.52
	Linear fluid (dielectric constant: 64) occupying 0.996766 of unit cell:	Completed after 0 iterations at t[s]:   2131.12
ElecMinimize: Iter:  14  Etot: -105.830610138969760  |grad|_K:  3.182e-07  alpha:  2.292e-01  linmin: -5.567e-01  t[s]:   2131.35
	Linear fluid (dielectric constant: 64) occupying 0.996766 of unit cell:	Completed after 0 iterations at t[s]:   2131.71
ElecMinimize: 	Predicted alpha/alphaT>3.000000, increasing alphaT to 6.877486e-01.
	Linear fluid (dielectric constant: 64) occupying 0.996766 of unit cell:	Completed after 0 iterations at t[s]:   2132.25
	Linear fluid (dielectric constant: 64) occupying 0.996766 of unit cell:	Completed after 1 iterations at t[s]:   2132.87
ElecMinimize: 	Step increased Etot by 2.511958e-07, reducing alpha to 1.247809e-01.
	Linear fluid (dielectric constant: 64) occupying 0.996766 of unit cell:	Completed after 0 iterations at t[s]:   2133.50
ElecMinimize: 	Step increased Etot by 8.969617e-08, reducing alpha to 1.247809e-02.
	Linear fluid (dielectric constant: 64) occupying 0.996766 of unit cell:	Completed after 0 iterations at t[s]:   2134.08
ElecMinimize: 	Step increased Etot by 9.073413e-08, reducing alpha to 1.247809e-03.
ElecMinimize: 	Step failed to reduce Etot after 3 attempts. Quitting step.
ElecMinimize: 	Undoing step.
	Linear fluid (dielectric constant: 64) occupying 0.996766 of unit cell:	Completed after 0 iterations at t[s]:   2134.66
ElecMinimize: 	Step failed: resetting search direction.
ElecMinimize: Iter:  15  Etot: -105.830610048206580  |grad|_K:  3.957e-07  alpha:  1.248e-03
	Linear fluid (dielectric constant: 64) occupying 0.996766 of unit cell:	Completed after 0 iterations at t[s]:   2135.24
ElecMinimize: 	Predicted alpha/alphaT>3.000000, increasing alphaT to 6.877486e-01.
	Linear fluid (dielectric constant: 64) occupying 0.996766 of unit cell:	Completed after 0 iterations at t[s]:   2135.78
	Linear fluid (dielectric constant: 64) occupying 0.996766 of unit cell:	Completed after 0 iterations at t[s]:   2136.33
ElecMinimize: Iter:  16  Etot: -105.830610200861372  |grad|_K:  3.531e-07  alpha:  7.407e-01  linmin:  5.901e-06  t[s]:   2136.55
	Linear fluid (dielectric constant: 64) occupying 0.996766 of unit cell:	Completed after 0 iterations at t[s]:   2136.95
	Linear fluid (dielectric constant: 64) occupying 0.996766 of unit cell:	Completed after 0 iterations at t[s]:   2137.52
ElecMinimize: 	Step increased Etot by 1.197964e-08, reducing alpha to 4.456310e-02.
	Linear fluid (dielectric constant: 64) occupying 0.996766 of unit cell:	Completed after 0 iterations at t[s]:   2138.10
ElecMinimize: 	Step increased Etot by 1.041522e-07, reducing alpha to 4.456310e-03.
	Linear fluid (dielectric constant: 64) occupying 0.996766 of unit cell:	Completed after 0 iterations at t[s]:   2138.68
ElecMinimize: 	Step increased Etot by 1.146424e-07, reducing alpha to 4.456310e-04.
ElecMinimize: 	Step failed to reduce Etot after 3 attempts. Quitting step.
ElecMinimize: 	Undoing step.
	Linear fluid (dielectric constant: 64) occupying 0.996766 of unit cell:	Completed after 0 iterations at t[s]:   2139.26
ElecMinimize: 	Step failed: resetting search direction.
ElecMinimize: Iter:  17  Etot: -105.830610086101260  |grad|_K:  3.702e-07  alpha:  4.456e-04
	Linear fluid (dielectric constant: 64) occupying 0.996766 of unit cell:	Completed after 0 iterations at t[s]:   2139.84
	Linear fluid (dielectric constant: 64) occupying 0.996766 of unit cell:	Completed after 0 iterations at t[s]:   2140.39
ElecMinimize: Iter:  18  Etot: -105.830610187676925  |grad|_K:  2.514e-07  alpha:  5.630e-01  linmin: -1.205e-06  t[s]:   2140.62
	Linear fluid (dielectric constant: 64) occupying 0.996766 of unit cell:	Completed after 0 iterations at t[s]:   2140.97
ElecMinimize: 	Predicted alpha/alphaT>3.000000, increasing alphaT to 1.689111e+00.
	Linear fluid (dielectric constant: 64) occupying 0.996766 of unit cell:	Completed after 0 iterations at t[s]:   2141.52
	Linear fluid (dielectric constant: 64) occupying 0.996767 of unit cell:	Completed after 0 iterations at t[s]:   2142.10
ElecMinimize: Iter:  19  Etot: -105.830610367529246  |grad|_K:  2.824e-07  alpha:  3.140e+00  linmin:  3.271e-02  t[s]:   2142.33
	Linear fluid (dielectric constant: 64) occupying 0.996767 of unit cell:	Completed after 0 iterations at t[s]:   2142.70
	Linear fluid (dielectric constant: 64) occupying 0.996767 of unit cell:	Completed after 0 iterations at t[s]:   2143.25
ElecMinimize: Iter:  20  Etot: -105.830610426851763  |grad|_K:  1.774e-07  alpha:  6.120e-01  linmin: -6.758e-06  t[s]:   2143.47
	Linear fluid (dielectric constant: 64) occupying 0.996767 of unit cell:	Completed after 0 iterations at t[s]:   2143.83
	Linear fluid (dielectric constant: 64) occupying 0.996767 of unit cell:	Completed after 0 iterations at t[s]:   2144.37
ElecMinimize: Iter:  21  Etot: -105.830610455131691  |grad|_K:  1.503e-07  alpha:  6.829e-01  linmin:  3.418e-05  t[s]:   2144.60
	Linear fluid (dielectric constant: 64) occupying 0.996766 of unit cell:	Completed after 0 iterations at t[s]:   2144.96
	Linear fluid (dielectric constant: 64) occupying 0.996766 of unit cell:	Completed after 0 iterations at t[s]:   2145.50
ElecMinimize: Iter:  22  Etot: -105.830610485504423  |grad|_K:  9.916e-08  alpha:  1.022e+00  linmin:  2.644e-04  t[s]:   2145.73
	Linear fluid (dielectric constant: 64) occupying 0.996766 of unit cell:	Completed after 0 iterations at t[s]:   2146.09
	Linear fluid (dielectric constant: 64) occupying 0.996766 of unit cell:	Completed after 0 iterations at t[s]:   2146.63
ElecMinimize: Iter:  23  Etot: -105.830610495931992  |grad|_K:  6.844e-08  alpha:  8.062e-01  linmin:  4.375e-06  t[s]:   2146.86
	Linear fluid (dielectric constant: 64) occupying 0.996766 of unit cell:	Completed after 0 iterations at t[s]:   2147.21
	Linear fluid (dielectric constant: 64) occupying 0.996766 of unit cell:	Completed after 0 iterations at t[s]:   2147.76
ElecMinimize: Iter:  24  Etot: -105.830610507144968  |grad|_K:  8.620e-08  alpha:  1.819e+00  linmin:  2.030e-06  t[s]:   2147.99
	Linear fluid (dielectric constant: 64) occupying 0.996767 of unit cell:	Completed after 0 iterations at t[s]:   2148.35
	Linear fluid (dielectric constant: 64) occupying 0.996767 of unit cell:	Completed after 0 iterations at t[s]:   2148.90
ElecMinimize: Iter:  25  Etot: -105.830610521819921  |grad|_K:  9.916e-08  alpha:  1.501e+00  linmin: -7.332e-06  t[s]:   2149.12
	Linear fluid (dielectric constant: 64) occupying 0.996767 of unit cell:	Completed after 0 iterations at t[s]:   2149.48
	Linear fluid (dielectric constant: 64) occupying 0.996767 of unit cell:	Completed after 0 iterations at t[s]:   2150.02
ElecMinimize: Iter:  26  Etot: -105.830610537376941  |grad|_K:  1.046e-07  alpha:  1.202e+00  linmin: -1.373e-05  t[s]:   2150.25
	Linear fluid (dielectric constant: 64) occupying 0.996767 of unit cell:	Completed after 1 iterations at t[s]:   2150.68
	Linear fluid (dielectric constant: 64) occupying 0.996767 of unit cell:	Completed after 0 iterations at t[s]:   2151.28
ElecMinimize: 	Step increased Etot by 2.461443e-07, reducing alpha to 4.889042e-03.
	Linear fluid (dielectric constant: 64) occupying 0.996767 of unit cell:	Completed after 0 iterations at t[s]:   2151.87
ElecMinimize: 	Step increased Etot by 2.410272e-07, reducing alpha to 4.889042e-04.
	Linear fluid (dielectric constant: 64) occupying 0.996767 of unit cell:	Completed after 0 iterations at t[s]:   2152.45
ElecMinimize: 	Step increased Etot by 2.405173e-07, reducing alpha to 4.889042e-05.
ElecMinimize: 	Step failed to reduce Etot after 3 attempts. Quitting step.
ElecMinimize: 	Undoing step.
	Linear fluid (dielectric constant: 64) occupying 0.996767 of unit cell:	Completed after 0 iterations at t[s]:   2153.03
ElecMinimize: 	Step failed: resetting search direction.
ElecMinimize: Iter:  27  Etot: -105.830610296865331  |grad|_K:  2.579e-07  alpha:  4.889e-05
	Linear fluid (dielectric constant: 64) occupying 0.996767 of unit cell:	Completed after 0 iterations at t[s]:   2153.61
	Linear fluid (dielectric constant: 64) occupying 0.996767 of unit cell:	Completed after 0 iterations at t[s]:   2154.16
ElecMinimize: Iter:  28  Etot: -105.830610460016317  |grad|_K:  3.799e-07  alpha:  1.864e+00  linmin:  7.738e-05  t[s]:   2154.38
	Linear fluid (dielectric constant: 64) occupying 0.996766 of unit cell:	Completed after 1 iterations at t[s]:   2154.81
	Linear fluid (dielectric constant: 64) occupying 0.996767 of unit cell:	Completed after 0 iterations at t[s]:   2155.45
ElecMinimize: 	Step increased Etot by 1.220908e-07, reducing alpha to 4.679170e-02.
	Linear fluid (dielectric constant: 64) occupying 0.996767 of unit cell:	Completed after 0 iterations at t[s]:   2156.05
ElecMinimize: 	Step increased Etot by 5.904349e-08, reducing alpha to 4.679170e-03.
	Linear fluid (dielectric constant: 64) occupying 0.996767 of unit cell:	Completed after 0 iterations at t[s]:   2156.63
ElecMinimize: 	Step increased Etot by 5.520367e-08, reducing alpha to 4.679170e-04.
ElecMinimize: 	Step failed to reduce Etot after 3 attempts. Quitting step.
ElecMinimize: 	Undoing step.
	Linear fluid (dielectric constant: 64) occupying 0.996767 of unit cell:	Completed after 0 iterations at t[s]:   2157.21
ElecMinimize: 	Step failed: resetting search direction.
ElecMinimize: Iter:  29  Etot: -105.830610404852820  |grad|_K:  4.061e-07  alpha:  4.679e-04
	Linear fluid (dielectric constant: 64) occupying 0.996767 of unit cell:	Completed after 1 iterations at t[s]:   2157.86
	Linear fluid (dielectric constant: 64) occupying 0.996767 of unit cell:	Completed after 0 iterations at t[s]:   2158.47
ElecMinimize: 	Step increased Etot by 1.820794e-08, reducing alpha to 4.129492e-02.
	Linear fluid (dielectric constant: 64) occupying 0.996767 of unit cell:	Completed after 0 iterations at t[s]:   2159.04
ElecMinimize: 	Step increased Etot by 5.362963e-08, reducing alpha to 4.129492e-03.
	Linear fluid (dielectric constant: 64) occupying 0.996767 of unit cell:	Completed after 0 iterations at t[s]:   2159.63
ElecMinimize: 	Step increased Etot by 6.370421e-08, reducing alpha to 4.129492e-04.
ElecMinimize: 	Step failed to reduce Etot after 3 attempts. Quitting step.
ElecMinimize: 	Undoing step.
	Linear fluid (dielectric constant: 64) occupying 0.996767 of unit cell:	Completed after 0 iterations at t[s]:   2160.21
ElecMinimize: 	Step failed along negative gradient direction.
ElecMinimize: Probably at roundoff error limit. (Stopping)
Setting wave functions to eigenvectors of Hamiltonian

# Ionic positions in cartesian coordinates:
ion S   7.561215810807719   7.744943686462812  26.456219999999998 1
ion Na   2.056730510559584  13.863779593675861  26.456219999999998 1
ion Na  13.066973532772696  13.881388779461325  26.456219999999998 1

# Forces in Cartesian coordinates:
force S  -0.000007538445455  -0.000653645846541   0.000000000000000 1
force Na  -0.000060222646993  -0.000074111944506   0.000000000000000 1
force Na   0.000104653647058  -0.000090051570732   0.000000000000000 1

# Energy components:
   A_diel =       -0.4940228396226477
   Eewald =        7.4689148309684095
       EH =       94.8000949274741913
     Eloc =      -69.4436336291972509
      Enl =     -142.1457776253701013
      Exc =      -18.5544538028266786
 Exc_core =        1.7677287804669657
       KE =       20.7705390170772155
-------------------------------------
     Etot =     -105.8306103410298959

IonicMinimize: Iter:  12  Etot: -105.830610341029896  |grad|_K:  1.606e-04  alpha:  3.143e+00  linmin: -6.826e-01  t[s]:   2160.71

#--- Lowdin population analysis ---
# oxidation-state S -1.686
# oxidation-state Na +0.968 +0.968


-------- Electronic minimization -----------
	Linear fluid (dielectric constant: 64) occupying 0.996767 of unit cell:	Completed after 3 iterations at t[s]:   2161.26
ElecMinimize: Iter:   0  Etot: -105.830610897310649  |grad|_K:  1.088e-06  alpha:  1.000e+00
	Linear fluid (dielectric constant: 64) occupying 0.996767 of unit cell:	Completed after 3 iterations at t[s]:   2162.08
	Linear fluid (dielectric constant: 64) occupying 0.996767 of unit cell:	Completed after 1 iterations at t[s]:   2162.79
ElecMinimize: 	Step increased Etot by 9.461797e-07, reducing alpha to 3.210690e-02.
	Linear fluid (dielectric constant: 64) occupying 0.996767 of unit cell:	Completed after 0 iterations at t[s]:   2163.43
ElecMinimize: 	Step increased Etot by 9.999430e-07, reducing alpha to 3.210690e-03.
	Linear fluid (dielectric constant: 64) occupying 0.996767 of unit cell:	Completed after 0 iterations at t[s]:   2164.01
ElecMinimize: 	Step increased Etot by 1.018493e-06, reducing alpha to 3.210690e-04.
ElecMinimize: 	Step failed to reduce Etot after 3 attempts. Quitting step.
ElecMinimize: 	Undoing step.
	Linear fluid (dielectric constant: 64) occupying 0.996767 of unit cell:	Completed after 0 iterations at t[s]:   2164.59
ElecMinimize: 	Step failed along negative gradient direction.
ElecMinimize: Probably at roundoff error limit. (Stopping)
Setting wave functions to eigenvectors of Hamiltonian

-------- Electronic minimization -----------
	Linear fluid (dielectric constant: 64) occupying 0.996767 of unit cell:	Completed after 4 iterations at t[s]:   2165.40
ElecMinimize: Iter:   0  Etot: -105.830610687676000  |grad|_K:  7.109e-07  alpha:  1.000e+00
	Linear fluid (dielectric constant: 64) occupying 0.996767 of unit cell:	Completed after 3 iterations at t[s]:   2166.22
	Linear fluid (dielectric constant: 64) occupying 0.996767 of unit cell:	Completed after 0 iterations at t[s]:   2166.90
ElecMinimize: 	Step increased Etot by 2.720733e-07, reducing alpha to 2.737394e-02.
	Linear fluid (dielectric constant: 64) occupying 0.996767 of unit cell:	Completed after 0 iterations at t[s]:   2167.52
ElecMinimize: 	Step increased Etot by 1.864357e-07, reducing alpha to 2.737394e-03.
	Linear fluid (dielectric constant: 64) occupying 0.996767 of unit cell:	Completed after 0 iterations at t[s]:   2168.10
ElecMinimize: 	Step increased Etot by 1.837915e-07, reducing alpha to 2.737394e-04.
ElecMinimize: 	Step failed to reduce Etot after 3 attempts. Quitting step.
ElecMinimize: 	Undoing step.
	Linear fluid (dielectric constant: 64) occupying 0.996767 of unit cell:	Completed after 0 iterations at t[s]:   2168.68
ElecMinimize: 	Step failed along negative gradient direction.
ElecMinimize: Probably at roundoff error limit. (Stopping)
Setting wave functions to eigenvectors of Hamiltonian

# Ionic positions in cartesian coordinates:
ion S   7.561174696019183   7.743368228615929  26.456219999999998 1
ion Na   2.056088862812061  13.864566023169395  26.456219999999998 1
ion Na  13.067656295308751  13.882177807814676  26.456219999999998 1

# Forces in Cartesian coordinates:
force S   0.000013148869090   0.000186761451177   0.000000000000000 1
force Na  -0.000423378099567   0.000355794235302   0.000000000000000 1
force Na   0.000493456739113   0.000346702102027   0.000000000000000 1

# Energy components:
   A_diel =       -0.4941548443533221
   Eewald =        7.4646290667879294
       EH =       94.7952533308257159
     Eloc =      -69.4344054624452980
      Enl =     -142.1457530469743631
      Exc =      -18.5544538370194161
 Exc_core =        1.7677287811603077
       KE =       20.7705455081106116
-------------------------------------
     Etot =     -105.8306105039078346

IonicMinimize: Iter:  13  Etot: -105.830610503907835  |grad|_K:  2.208e-04  alpha:  1.318e+00  linmin: -4.815e-01  t[s]:   2169.20
IonicMinimize: Converged (|Delta Etot|<1.000000e-06 for 2 iters).

#--- Lowdin population analysis ---
# oxidation-state S -1.686
# oxidation-state Na +0.968 +0.969


Dumping 'Na2S-PC.wfns' ... done
Dumping 'Na2S-PC.fluidState' ... done
Dumping 'Na2S-PC.ionpos' ... done
End date and time: Mon Dec 23 12:24:36 2024  (Duration: 0-0:36:09.91)
Done!
