CRYSTAL
PRIMVEC
 14.820031   0.000000   0.000000
 -7.410015  12.834505   0.000000
  0.000000   0.000000  20.000041
PRIMCOORD
3 1
16   4.000009   4.079535   8.235583
11   1.837032   7.350416   8.137439
11   6.167302   7.350607   8.164216
