CRYSTAL
PRIMVEC
 14.820031   0.000000   0.000000
 -7.410015  12.834505   0.000000
  0.000000   0.000000  20.000041
PRIMCOORD
4 1
16   4.964389   6.555175  14.892815
16   3.171893   5.348128  14.934629
11   5.746651   3.395052  12.985247
11   2.279365   8.555111  13.154507
