
*************** JDFTx 1.7.0  ***************

Start date and time: Mon Aug 19 04:26:31 2024
Executable jdftx with command-line: -i Na2S2-glyme-vdw.in -o Na2S2-glyme-vdw.out
Running on hosts (process indices):  DESKTOP-H9SOOLG (0)
Divided in process groups (process indices):  0 (0)
Resource initialization completed at t[s]:      0.00
Run totals: 1 processes, 4 threads, 0 GPUs


Input parsed successfully to the following command list (including defaults):

basis kpoint-dependent
coords-type Cartesian
core-overlap-check vector
coulomb-interaction Isolated
coulomb-truncation-embed 9.40288 12.4301 27.2635
davidson-band-ratio 1.1
dump End State
dump-name Na2S2-glyme-vdw.$VAR
elec-cutoff 20 100
elec-eigen-algo Davidson
elec-ex-corr gga-PBE
electronic-minimize  \
	dirUpdateScheme      FletcherReeves \
	linminMethod         DirUpdateRecommended \
	nIterations          100 \
	history              15 \
	knormThreshold       0 \
	energyDiffThreshold  1e-08 \
	nEnergyDiff          2 \
	alphaTstart          1 \
	alphaTmin            1e-10 \
	updateTestStepSize   yes \
	alphaTreduceFactor   0.1 \
	alphaTincreaseFactor 3 \
	nAlphaAdjustMax      3 \
	wolfeEnergy          0.0001 \
	wolfeGradient        0.9 \
	fdTest               no
electronic-scf  \
	nIterations	50 \
	energyDiffThreshold	1e-08 \
	residualThreshold	1e-07 \
	mixFraction	0.5 \
	qMetric	0.8 \
	history	10 \
	nEigSteps	2 \
	eigDiffThreshold	1e-08 \
	mixedVariable	Density \
	qKerker	0.8 \
	qKappa	-1 \
	verbose	no \
	mixFractionMag	1.5
exchange-regularization None
fluid LinearPCM 298.000000 1.013250
fluid-ex-corr lda-TF lda-PZ
fluid-gummel-loop 10 1.000000e-05
fluid-minimize  \
	dirUpdateScheme      PolakRibiere \
	linminMethod         DirUpdateRecommended \
	nIterations          400 \
	history              15 \
	knormThreshold       1e-11 \
	energyDiffThreshold  0 \
	nEnergyDiff          2 \
	alphaTstart          1 \
	alphaTmin            1e-10 \
	updateTestStepSize   yes \
	alphaTreduceFactor   0.1 \
	alphaTincreaseFactor 3 \
	nAlphaAdjustMax      6 \
	wolfeEnergy          0.0001 \
	wolfeGradient        0.9 \
	fdTest               no
fluid-solvent Glyme 9.62137 ScalarEOS \
	epsBulk 7.2 \
	pMol 0 \
	epsInf 1.9 \
	Pvap 0 \
	sigmaBulk 0 \
	Rvdw 0 \
	Res 0 \
	tauNuc 343133
forces-output-coords Positions
ion S   9.402875070209999  12.430078910730000  27.263527773840000 1
ion S   5.921463285810000  10.087698104369998  27.341467797959996 1
ion Na   9.852901041599997   7.943043527369999  25.470895880699999 1
ion Na   5.365079530559999  14.615699054669998  25.686786194819998 1
ion-species GBRV/$ID_pbe.uspp
ion-width Ecut
ionic-minimize  \
	dirUpdateScheme      FletcherReeves \
	linminMethod         DirUpdateRecommended \
	nIterations          200 \
	history              15 \
	knormThreshold       0.0001 \
	energyDiffThreshold  1e-06 \
	nEnergyDiff          2 \
	alphaTstart          1 \
	alphaTmin            1e-10 \
	updateTestStepSize   yes \
	alphaTreduceFactor   0.1 \
	alphaTincreaseFactor 3 \
	nAlphaAdjustMax      3 \
	wolfeEnergy          0.0001 \
	wolfeGradient        0.9 \
	fdTest               no
kpoint   0.000000000000   0.000000000000   0.000000000000  1.00000000000000
kpoint-folding 1 1 1 
latt-move-scale 1 1 1
latt-scale 1 1 1 
lattice Triclinic 28.0058 28.0058 37.7946 90 90 120
lattice-minimize  \
	dirUpdateScheme      L-BFGS \
	linminMethod         DirUpdateRecommended \
	nIterations          0 \
	history              15 \
	knormThreshold       0 \
	energyDiffThreshold  1e-06 \
	nEnergyDiff          2 \
	alphaTstart          1 \
	alphaTmin            1e-10 \
	updateTestStepSize   yes \
	alphaTreduceFactor   0.1 \
	alphaTincreaseFactor 3 \
	nAlphaAdjustMax      3 \
	wolfeEnergy          0.0001 \
	wolfeGradient        0.9 \
	fdTest               no
lcao-params -1 1e-06 0.001
pcm-variant GLSSA13
spintype no-spin
subspace-rotation-factor 1 yes
symmetries automatic
symmetry-threshold 0.0001
van-der-waals D3



---------- Setting up symmetries ----------

Found 24 point-group symmetries of the bravais lattice
Found 1 space-group symmetries with basis
Applied RMS atom displacement 0 bohrs to make symmetries exact.

---------- Initializing the Grid ----------
R = 
[      28.0058     -14.0029            0  ]
[            0      24.2537            0  ]
[            0            0      37.7946  ]
unit cell volume = 25671.8
G =
[   0.224353    0.12953         -0  ]
[          0   0.259061          0  ]
[          0         -0   0.166246  ]
Minimum fftbox size, Smin = [  128  128  172  ]
Chosen fftbox size, S = [  128  128  180  ]

---------- Initializing tighter grid for wavefunction operations ----------
R = 
[      28.0058     -14.0029            0  ]
[            0      24.2537            0  ]
[            0            0      37.7946  ]
unit cell volume = 25671.8
G =
[   0.224353    0.12953         -0  ]
[          0   0.259061          0  ]
[          0         -0   0.166246  ]
Minimum fftbox size, Smin = [  116  116  156  ]
Chosen fftbox size, S = [  120  120  160  ]

---------- Exchange Correlation functional ----------
Initalized PBE GGA exchange.
Initalized PBE GGA correlation.

---------- Setting up pseudopotentials ----------
Width of ionic core gaussian charges (only for fluid interactions / plotting) set to 0.397384

Reading pseudopotential file '/home/danielkim/jdftx_install/build/pseudopotentials/GBRV/s_pbe.uspp':
  Title: S.  Created by USPP 7.3.6 on 1-4-15
  Reference state energy: -11.898476.  6 valence electrons in orbitals:
    |300>  occupation: 2  eigenvalue: -0.634167
    |310>  occupation: 4  eigenvalue: -0.257568
  lMax: 2  lLocal: 3  QijEcut: 6
  6 projectors sampled on a log grid with 635 points:
    l: 0  eig: -0.634161  rCut: 1.5
    l: 0  eig: 1.500000  rCut: 1.5
    l: 1  eig: -0.257567  rCut: 1.5
    l: 1  eig: 1.500000  rCut: 1.5
    l: 2  eig: -1.000000  rCut: 1.5
    l: 2  eig: 1.500000  rCut: 1.5
  Partial core density with radius 1.15
  Transforming core density to a uniform radial grid of dG=0.02 with 1625 points.
  Transforming local potential to a uniform radial grid of dG=0.02 with 1625 points.
  Transforming nonlocal projectors to a uniform radial grid of dG=0.02 with 432 points.
  Transforming density augmentations to a uniform radial grid of dG=0.02 with 1625 points.
  Transforming atomic orbitals to a uniform radial grid of dG=0.02 with 432 points.
  Core radius for overlap checks: 1.50 bohrs.

Reading pseudopotential file '/home/danielkim/jdftx_install/build/pseudopotentials/GBRV/na_pbe.uspp':
  Title: Na.  Created by USPP 7.3.6 on 23-9-15
  Reference state energy: -47.625620.  9 valence electrons in orbitals:
    |200>  occupation: 2  eigenvalue: -2.085638
    |210>  occupation: 6  eigenvalue: -1.053708
    |300>  occupation: 1  eigenvalue: -0.100838
  lMax: 2  lLocal: 0  QijEcut: 6
  5 projectors sampled on a log grid with 657 points:
    l: 0  eig: -2.085640  rCut: 1.37
    l: 0  eig: -0.100839  rCut: 1.37
    l: 1  eig: -1.053708  rCut: 1.47
    l: 1  eig: 0.500000  rCut: 1.47
    l: 2  eig: 0.750000  rCut: 2
  Transforming local potential to a uniform radial grid of dG=0.02 with 1625 points.
  Transforming nonlocal projectors to a uniform radial grid of dG=0.02 with 432 points.
  Transforming density augmentations to a uniform radial grid of dG=0.02 with 1625 points.
  Transforming atomic orbitals to a uniform radial grid of dG=0.02 with 432 points.
  Core radius for overlap checks: 2.00 bohrs.

Initialized 2 species with 4 total atoms.

Folded 1 k-points by 1x1x1 to 1 k-points.

---------- Setting up k-points, bands, fillings ----------
No reducable k-points. 
Computing the number of bands and number of electrons
Calculating initial fillings.
nElectrons:  30.000000   nBands: 15   nStates: 1

----- Setting up reduced wavefunction bases (one per k-point) -----
average nbasis = 109673.000 , ideal nbasis = 109671.883

---------- Setting up coulomb interaction ----------
Fluid mode embedding: using embedded box, but periodic Coulomb kernel.
(Fluid response is responsible for (approximate) separation between periodic images.)
Setting up double-sized grid for truncated Coulomb potentials:
R = 
[      56.0116     -28.0058            0  ]
[            0      48.5075            0  ]
[            0            0      75.5892  ]
unit cell volume = 205374
G =
[   0.112177  0.0647651         -0  ]
[          0    0.12953          0  ]
[          0         -0  0.0831228  ]
Chosen fftbox size, S = [  256  256  360  ]
Integer grid location selected as the embedding center:
   Grid: [  76  66  130  ]
   Lattice: [  0.591998  0.512502  0.72136  ]
   Cartesian: [  9.40288  12.4301  27.2635  ]
Constructing Wigner-Seitz cell: 8 faces (6 quadrilaterals, 2 hexagons)
Range-separation parameter for embedded mesh potentials due to point charges: 0.590105 bohrs.

Initializing DFT-D3 calculator:
	Parameters set for gga-PBE functional
	s6:  1.000  s_r6:  1.217
	s8:  0.722  s_r8:  1.000
	Per-atom parameters loaded for:
	 S:  sqrtQ[a0]:  4.041  Rcov[a0]:  1.928  CN: [ 0.00 0.99 1.99 ]
	Na:  sqrtQ[a0]:  6.586  Rcov[a0]:  2.646  CN: [ 0.00 0.97 ]

---------- Setting up ewald sum ----------
Optimum gaussian width for ewald sums = 18.681662 bohr.
Real space sum over 1089 unit cells with max indices [  5  5  4  ]
Reciprocal space sum over 2873 terms with max indices [  6  6  8  ]

Computing DFT-D3 correction:
# coordination-number S 2.941 2.941
# coordination-number Na 2.090 2.090
# diagonal-C6 S 125.81 125.81
# diagonal-C6 Na 186.11 186.11
EvdW_6 =   -0.000068
EvdW_8 =   -0.001099

---------- Allocating electronic variables ----------
Initializing wave functions:  linear combination of atomic orbitals
S pseudo-atom occupations:   s ( 2 )  p ( 4 )
Na pseudo-atom occupations:   s ( 2 1 )  p ( 6 )
	FillingsUpdate:  mu: -0.000443411  nElectrons: 30.000000
LCAOMinimize: Iter:   0  Etot: -115.7673199047678736  |grad|_K:  1.230e-02  alpha:  1.000e+00
	FillingsUpdate:  mu: -0.002888541  nElectrons: 30.000000
LCAOMinimize: Iter:   1  Etot: -115.7714529670468977  |grad|_K:  1.213e-02  alpha:  7.333e-02  linmin: -1.090e-01  cgtest:  9.274e-01  t[s]:     31.36
LCAOMinimize: 	Wrong curvature in test step, increasing alphaT to 2.199864e-01.
	FillingsUpdate:  mu: -0.005609494  nElectrons: 30.000000
LCAOMinimize: Iter:   2  Etot: -115.7757190024605904  |grad|_K:  1.189e-02  alpha: -1.248e+00  linmin: -1.144e-01  cgtest:  9.257e-01  t[s]:     39.17
	FillingsUpdate:  mu: -0.008105406  nElectrons: 30.000000
LCAOMinimize: Iter:   3  Etot: -115.7793553379372042  |grad|_K:  1.163e-02  alpha:  6.556e-02  linmin: -1.193e-01  cgtest:  9.365e-01  t[s]:     46.83
LCAOMinimize: None of the convergence criteria satisfied after 3 iterations.
----- createFluidSolver() ----- (Fluid-side solver setup)
   Initializing fluid molecule 'Glyme'
     Net charge: 0   dipole magnitude: 0
     Initializing spherical shell mfKernel with radius 0 Bohr
     deltaS corrections:

Correction to mu due to finite nuclear width = -0.000144935
   Cavity determined by nc: 8.36e-05 and sigma: 0.6
   Effective cavity tension: -8.03e-06 Eh/bohr^2 to account for cavitation and dispersion.


---- Citations for features of the code used in this run ----

   Software package:
      R. Sundararaman, K. Letchworth-Weaver, K.A. Schwarz, D. Gunceler, Y. Ozhabes and T.A. Arias, 'JDFTx: software for joint density-functional theory', SoftwareX 6, 278 (2017)

   gga-PBE exchange-correlation functional:
      J.P. Perdew, K. Burke and M. Ernzerhof, Phys. Rev. Lett. 77, 3865 (1996)

   Pseudopotentials:
      KF Garrity, JW Bennett, KM Rabe and D Vanderbilt, Comput. Mater. Sci. 81, 446 (2014)

   Truncated Coulomb potentials:
      R. Sundararaman and T.A. Arias, Phys. Rev. B 87, 165122 (2013)

   DFT-D3 dispersion correction:
      S. Grimme, J. Antony, S. Ehrlich and H. Krieg, J. Chem. Phys. 132, 154104 (2010)

   Linear/nonlinear dielectric/ionic fluid model with effective cavity tension:
      D. Gunceler, K. Letchworth-Weaver, R. Sundararaman, K.A. Schwarz and T.A. Arias, Modelling Simul. Mater. Sci. Eng. 21, 074005 (2013)

This list may not be complete. Please suggest additional citations or
report any other bugs at https://github.com/shankar1729/jdftx/issues

Initialization completed successfully at t[s]:     47.30


Computing DFT-D3 correction:
# coordination-number S 2.941 2.941
# coordination-number Na 2.090 2.090
# diagonal-C6 S 125.81 125.81
# diagonal-C6 Na 186.11 186.11
EvdW_6 =   -0.000068
EvdW_8 =   -0.001099
Fluid solver invoked on fresh (random / LCAO) wavefunctions
Running a vacuum solve first:

-------- Initial electronic minimization -----------
Will mix electronic density at each iteration.
SCF: Cycle:  0   Etot: -115.780681294978251   dEtot: -1.326e-03   |Residual|: 2.532e-01   |deigs|: 1.379e-02  t[s]:     58.88
SCF: Cycle:  1   Etot: -115.880793334108802   dEtot: -1.001e-01   |Residual|: 1.089e-01   |deigs|: 3.336e-02  t[s]:     67.32
SCF: Cycle:  2   Etot: -115.921549871588979   dEtot: -4.076e-02   |Residual|: 3.882e-02   |deigs|: 2.741e-02  t[s]:     76.21
SCF: Cycle:  3   Etot: -115.920501792767155   dEtot: +1.048e-03   |Residual|: 2.218e-02   |deigs|: 8.416e-03  t[s]:     84.93
SCF: Cycle:  4   Etot: -115.921831345241898   dEtot: -1.330e-03   |Residual|: 1.140e-02   |deigs|: 4.869e-03  t[s]:     93.22
SCF: Cycle:  5   Etot: -115.922489153618642   dEtot: -6.578e-04   |Residual|: 5.370e-03   |deigs|: 3.156e-03  t[s]:    101.88
SCF: Cycle:  6   Etot: -115.922662227146247   dEtot: -1.731e-04   |Residual|: 4.019e-03   |deigs|: 2.274e-03  t[s]:    110.13
SCF: Cycle:  7   Etot: -115.922708740048989   dEtot: -4.651e-05   |Residual|: 3.930e-03   |deigs|: 1.844e-03  t[s]:    118.51
SCF: Cycle:  8   Etot: -115.922741783068403   dEtot: -3.304e-05   |Residual|: 2.330e-03   |deigs|: 1.016e-03  t[s]:    125.92
SCF: Cycle:  9   Etot: -115.922755822978914   dEtot: -1.404e-05   |Residual|: 2.560e-03   |deigs|: 1.651e-03  t[s]:    134.36
SCF: Cycle: 10   Etot: -115.922762831543878   dEtot: -7.009e-06   |Residual|: 1.499e-03   |deigs|: 1.689e-04  t[s]:    141.73
SCF: Cycle: 11   Etot: -115.922740289920171   dEtot: +2.254e-05   |Residual|: 3.714e-03   |deigs|: 6.052e-04  t[s]:    150.13
SCF: Cycle: 12   Etot: -115.922762665143779   dEtot: -2.238e-05   |Residual|: 1.403e-03   |deigs|: 7.245e-04  t[s]:    158.49
SCF: Cycle: 13   Etot: -115.922766772690508   dEtot: -4.108e-06   |Residual|: 1.282e-03   |deigs|: 4.884e-04  t[s]:    166.00
SCF: Cycle: 14   Etot: -115.922758295200495   dEtot: +8.477e-06   |Residual|: 2.065e-03   |deigs|: 2.718e-04  t[s]:    174.51
SCF: Cycle: 15   Etot: -115.922766875489870   dEtot: -8.580e-06   |Residual|: 7.204e-04   |deigs|: 8.603e-04  t[s]:    181.74
SCF: Cycle: 16   Etot: -115.922769407002022   dEtot: -2.532e-06   |Residual|: 5.782e-04   |deigs|: 2.890e-04  t[s]:    188.92
SCF: Cycle: 17   Etot: -115.922771362309945   dEtot: -1.955e-06   |Residual|: 4.562e-04   |deigs|: 1.272e-04  t[s]:    196.17
SCF: Cycle: 18   Etot: -115.922772055399591   dEtot: -6.931e-07   |Residual|: 4.817e-04   |deigs|: 2.720e-04  t[s]:    203.15
SCF: Cycle: 19   Etot: -115.922772929110266   dEtot: -8.737e-07   |Residual|: 2.017e-04   |deigs|: 2.021e-04  t[s]:    211.17
SCF: Cycle: 20   Etot: -115.922773138888900   dEtot: -2.098e-07   |Residual|: 1.531e-04   |deigs|: 7.729e-05  t[s]:    218.35
SCF: Cycle: 21   Etot: -115.922773346916571   dEtot: -2.080e-07   |Residual|: 1.171e-04   |deigs|: 8.614e-05  t[s]:    226.50
SCF: Cycle: 22   Etot: -115.922773435658797   dEtot: -8.874e-08   |Residual|: 6.726e-05   |deigs|: 1.834e-05  t[s]:    233.78
SCF: Cycle: 23   Etot: -115.922773508440613   dEtot: -7.278e-08   |Residual|: 5.951e-05   |deigs|: 1.049e-05  t[s]:    241.03
SCF: Cycle: 24   Etot: -115.922773578256937   dEtot: -6.982e-08   |Residual|: 5.240e-05   |deigs|: 3.260e-05  t[s]:    249.27
SCF: Cycle: 25   Etot: -115.922773608899874   dEtot: -3.064e-08   |Residual|: 3.143e-05   |deigs|: 1.274e-05  t[s]:    256.51
SCF: Cycle: 26   Etot: -115.922773632554424   dEtot: -2.365e-08   |Residual|: 2.310e-05   |deigs|: 7.599e-06  t[s]:    264.55
SCF: Cycle: 27   Etot: -115.922773639483623   dEtot: -6.929e-09   |Residual|: 1.246e-05   |deigs|: 1.737e-06  t[s]:    271.76
SCF: Cycle: 28   Etot: -115.922773642120831   dEtot: -2.637e-09   |Residual|: 9.665e-06   |deigs|: 1.130e-06  t[s]:    278.95
SCF: Converged (|Delta E|<1.000000e-08 for 2 iters).

Setting wave functions to eigenvectors of Hamiltonian
Vacuum energy after initial minimize, Etot = -115.922773642120831


-------- Electronic minimization -----------
Will mix electronic density at each iteration.
	Linear fluid (dielectric constant: 7.2) occupying 0.991966 of unit cell:	Completed after 8 iterations at t[s]:    309.76
	Linear fluid (dielectric constant: 7.2) occupying 0.992437 of unit cell:	Completed after 7 iterations at t[s]:    336.78
SCF: Cycle:  0   Etot: -115.969101115591386   dEtot: -9.163e-03   |Residual|: 1.359e-02   |deigs|: 5.104e-04  t[s]:    339.43
	Linear fluid (dielectric constant: 7.2) occupying 0.991958 of unit cell:	Completed after 6 iterations at t[s]:    353.32
	Linear fluid (dielectric constant: 7.2) occupying 0.992541 of unit cell:	Completed after 7 iterations at t[s]:    378.34
SCF: Cycle:  1   Etot: -115.969737987735229   dEtot: -6.369e-04   |Residual|: 1.090e-02   |deigs|: 1.138e-03  t[s]:    380.96
	Linear fluid (dielectric constant: 7.2) occupying 0.991937 of unit cell:	Completed after 7 iterations at t[s]:    396.18
	Linear fluid (dielectric constant: 7.2) occupying 0.992588 of unit cell:	Completed after 7 iterations at t[s]:    421.82
SCF: Cycle:  2   Etot: -115.970547693601176   dEtot: -8.097e-04   |Residual|: 5.567e-03   |deigs|: 3.258e-03  t[s]:    424.50
	Linear fluid (dielectric constant: 7.2) occupying 0.992063 of unit cell:	Completed after 6 iterations at t[s]:    438.59
	Linear fluid (dielectric constant: 7.2) occupying 0.992606 of unit cell:	Completed after 7 iterations at t[s]:    463.34
SCF: Cycle:  3   Etot: -115.970707527940888   dEtot: -1.598e-04   |Residual|: 4.615e-03   |deigs|: 1.643e-03  t[s]:    465.86
	Linear fluid (dielectric constant: 7.2) occupying 0.992420 of unit cell:	Completed after 6 iterations at t[s]:    479.52
	Linear fluid (dielectric constant: 7.2) occupying 0.992657 of unit cell:	Completed after 7 iterations at t[s]:    504.70
SCF: Cycle:  4   Etot: -115.971524187654325   dEtot: -8.167e-04   |Residual|: 3.951e-03   |deigs|: 7.659e-03  t[s]:    507.37
	Linear fluid (dielectric constant: 7.2) occupying 0.992472 of unit cell:	Completed after 6 iterations at t[s]:    521.46
	Linear fluid (dielectric constant: 7.2) occupying 0.992654 of unit cell:	Completed after 7 iterations at t[s]:    546.62
SCF: Cycle:  5   Etot: -115.971651404042007   dEtot: -1.272e-04   |Residual|: 2.898e-03   |deigs|: 1.372e-03  t[s]:    549.29
	Linear fluid (dielectric constant: 7.2) occupying 0.992697 of unit cell:	Completed after 5 iterations at t[s]:    562.13
	Linear fluid (dielectric constant: 7.2) occupying 0.992642 of unit cell:	Completed after 6 iterations at t[s]:    586.00
SCF: Cycle:  6   Etot: -115.971837355949290   dEtot: -1.860e-04   |Residual|: 1.621e-03   |deigs|: 4.176e-03  t[s]:    588.46
	Linear fluid (dielectric constant: 7.2) occupying 0.992750 of unit cell:	Completed after 5 iterations at t[s]:    601.34
	Linear fluid (dielectric constant: 7.2) occupying 0.992630 of unit cell:	Completed after 6 iterations at t[s]:    624.47
SCF: Cycle:  7   Etot: -115.971870454403813   dEtot: -3.310e-05   |Residual|: 2.137e-03   |deigs|: 9.733e-04  t[s]:    627.12
	Linear fluid (dielectric constant: 7.2) occupying 0.992739 of unit cell:	Completed after 5 iterations at t[s]:    639.64
	Linear fluid (dielectric constant: 7.2) occupying 0.992611 of unit cell:	Completed after 4 iterations at t[s]:    660.62
SCF: Cycle:  8   Etot: -115.971905801440812   dEtot: -3.535e-05   |Residual|: 1.484e-03   |deigs|: 2.004e-03  t[s]:    663.31
	Linear fluid (dielectric constant: 7.2) occupying 0.992546 of unit cell:	Completed after 5 iterations at t[s]:    675.97
	Linear fluid (dielectric constant: 7.2) occupying 0.992601 of unit cell:	Completed after 5 iterations at t[s]:    696.67
SCF: Cycle:  9   Etot: -115.971912510094199   dEtot: -6.709e-06   |Residual|: 2.257e-03   |deigs|: 1.327e-03  t[s]:    699.35
	Linear fluid (dielectric constant: 7.2) occupying 0.992466 of unit cell:	Completed after 4 iterations at t[s]:    710.72
	Linear fluid (dielectric constant: 7.2) occupying 0.992591 of unit cell:	Completed after 3 iterations at t[s]:    729.17
SCF: Cycle: 10   Etot: -115.971926727316486   dEtot: -1.422e-05   |Residual|: 1.292e-03   |deigs|: 3.487e-04  t[s]:    731.82
	Linear fluid (dielectric constant: 7.2) occupying 0.992431 of unit cell:	Completed after 3 iterations at t[s]:    742.03
	Linear fluid (dielectric constant: 7.2) occupying 0.992588 of unit cell:	Completed after 3 iterations at t[s]:    759.82
SCF: Cycle: 11   Etot: -115.971928460404968   dEtot: -1.733e-06   |Residual|: 6.616e-04   |deigs|: 1.058e-04  t[s]:    762.50
	Linear fluid (dielectric constant: 7.2) occupying 0.992498 of unit cell:	Completed after 3 iterations at t[s]:    772.46
	Linear fluid (dielectric constant: 7.2) occupying 0.992570 of unit cell:	Completed after 3 iterations at t[s]:    791.38
SCF: Cycle: 12   Etot: -115.971931832149721   dEtot: -3.372e-06   |Residual|: 9.635e-04   |deigs|: 2.786e-04  t[s]:    793.97
	Linear fluid (dielectric constant: 7.2) occupying 0.992505 of unit cell:	Completed after 5 iterations at t[s]:    806.66
	Linear fluid (dielectric constant: 7.2) occupying 0.992570 of unit cell:	Completed after 5 iterations at t[s]:    827.38
SCF: Cycle: 13   Etot: -115.971930043965287   dEtot: +1.788e-06   |Residual|: 5.907e-04   |deigs|: 6.590e-04  t[s]:    830.01
	Linear fluid (dielectric constant: 7.2) occupying 0.992584 of unit cell:	Completed after 3 iterations at t[s]:    839.75
	Linear fluid (dielectric constant: 7.2) occupying 0.992573 of unit cell:	Completed after 2 iterations at t[s]:    858.13
SCF: Cycle: 14   Etot: -115.971934795921570   dEtot: -4.752e-06   |Residual|: 6.940e-04   |deigs|: 6.165e-04  t[s]:    860.83
	Linear fluid (dielectric constant: 7.2) occupying 0.992610 of unit cell:	Completed after 3 iterations at t[s]:    870.81
	Linear fluid (dielectric constant: 7.2) occupying 0.992577 of unit cell:	Completed after 3 iterations at t[s]:    889.56
SCF: Cycle: 15   Etot: -115.971934573093819   dEtot: +2.228e-07   |Residual|: 4.750e-04   |deigs|: 1.292e-04  t[s]:    892.38
	Linear fluid (dielectric constant: 7.2) occupying 0.992599 of unit cell:	Completed after 3 iterations at t[s]:    902.68
	Linear fluid (dielectric constant: 7.2) occupying 0.992580 of unit cell:	Completed after 3 iterations at t[s]:    923.59
SCF: Cycle: 16   Etot: -115.971935007811481   dEtot: -4.347e-07   |Residual|: 3.995e-04   |deigs|: 1.140e-04  t[s]:    926.65
	Linear fluid (dielectric constant: 7.2) occupying 0.992579 of unit cell:	Completed after 3 iterations at t[s]:    937.54
	Linear fluid (dielectric constant: 7.2) occupying 0.992583 of unit cell:	Completed after 3 iterations at t[s]:    957.19
SCF: Cycle: 17   Etot: -115.971935208867137   dEtot: -2.011e-07   |Residual|: 2.658e-04   |deigs|: 1.932e-05  t[s]:    959.74
	Linear fluid (dielectric constant: 7.2) occupying 0.992576 of unit cell:	Completed after 2 iterations at t[s]:    967.88
	Linear fluid (dielectric constant: 7.2) occupying 0.992580 of unit cell:	Completed after 2 iterations at t[s]:    987.44
SCF: Cycle: 18   Etot: -115.971935707335462   dEtot: -4.985e-07   |Residual|: 2.328e-04   |deigs|: 7.163e-05  t[s]:    990.34
	Linear fluid (dielectric constant: 7.2) occupying 0.992570 of unit cell:	Completed after 2 iterations at t[s]:    999.51
	Linear fluid (dielectric constant: 7.2) occupying 0.992580 of unit cell:	Completed after 2 iterations at t[s]:   1016.80
SCF: Cycle: 19   Etot: -115.971935937021172   dEtot: -2.297e-07   |Residual|: 1.342e-04   |deigs|: 2.445e-05  t[s]:   1019.34
	Linear fluid (dielectric constant: 7.2) occupying 0.992573 of unit cell:	Completed after 2 iterations at t[s]:   1027.42
	Linear fluid (dielectric constant: 7.2) occupying 0.992580 of unit cell:	Completed after 1 iterations at t[s]:   1042.67
SCF: Cycle: 20   Etot: -115.971936109471784   dEtot: -1.725e-07   |Residual|: 1.010e-04   |deigs|: 5.879e-05  t[s]:   1045.30
	Linear fluid (dielectric constant: 7.2) occupying 0.992580 of unit cell:	Completed after 1 iterations at t[s]:   1051.86
	Linear fluid (dielectric constant: 7.2) occupying 0.992580 of unit cell:	Completed after 1 iterations at t[s]:   1066.74
SCF: Cycle: 21   Etot: -115.971936208689755   dEtot: -9.922e-08   |Residual|: 6.884e-05   |deigs|: 2.385e-05  t[s]:   1069.29
	Linear fluid (dielectric constant: 7.2) occupying 0.992583 of unit cell:	Completed after 0 iterations at t[s]:   1075.06
	Linear fluid (dielectric constant: 7.2) occupying 0.992580 of unit cell:	Completed after 0 iterations at t[s]:   1088.56
SCF: Cycle: 22   Etot: -115.971936270737274   dEtot: -6.205e-08   |Residual|: 4.339e-05   |deigs|: 4.232e-05  t[s]:   1091.05
	Linear fluid (dielectric constant: 7.2) occupying 0.992583 of unit cell:	Completed after 1 iterations at t[s]:   1098.30
	Linear fluid (dielectric constant: 7.2) occupying 0.992580 of unit cell:	Completed after 0 iterations at t[s]:   1112.31
SCF: Cycle: 23   Etot: -115.971936292553465   dEtot: -2.182e-08   |Residual|: 3.732e-05   |deigs|: 2.202e-05  t[s]:   1114.94
	Linear fluid (dielectric constant: 7.2) occupying 0.992580 of unit cell:	Completed after 0 iterations at t[s]:   1120.42
	Linear fluid (dielectric constant: 7.2) occupying 0.992580 of unit cell:	Completed after 0 iterations at t[s]:   1135.85
SCF: Cycle: 24   Etot: -115.971936330018210   dEtot: -3.746e-08   |Residual|: 3.348e-05   |deigs|: 2.165e-05  t[s]:   1138.48
	Linear fluid (dielectric constant: 7.2) occupying 0.992578 of unit cell:	Completed after 0 iterations at t[s]:   1143.97
	Linear fluid (dielectric constant: 7.2) occupying 0.992580 of unit cell:	Completed after 0 iterations at t[s]:   1157.52
SCF: Cycle: 25   Etot: -115.971936336204550   dEtot: -6.186e-09   |Residual|: 2.453e-05   |deigs|: 1.522e-05  t[s]:   1160.29
	Linear fluid (dielectric constant: 7.2) occupying 0.992577 of unit cell:	Completed after 0 iterations at t[s]:   1165.71
	Linear fluid (dielectric constant: 7.2) occupying 0.992580 of unit cell:	Completed after 0 iterations at t[s]:   1180.56
SCF: Cycle: 26   Etot: -115.971936341659045   dEtot: -5.454e-09   |Residual|: 2.169e-05   |deigs|: 1.533e-05  t[s]:   1183.19
SCF: Converged (|Delta E|<1.000000e-08 for 2 iters).

Setting wave functions to eigenvectors of Hamiltonian
Single-point solvation energy estimate, DeltaEtot = -0.049162699538215

Computing DFT-D3 correction:
# coordination-number S 2.941 2.941
# coordination-number Na 2.090 2.090
# diagonal-C6 S 125.81 125.81
# diagonal-C6 Na 186.11 186.11
EvdW_6 =   -0.000068
EvdW_8 =   -0.001099

# Ionic positions in cartesian coordinates:
ion S   9.402875070209999  12.430078910730000  27.263527773840000 1
ion S   5.921463285810000  10.087698104369998  27.341467797959996 1
ion Na   9.852901041599997   7.943043527369999  25.470895880699999 1
ion Na   5.365079530559999  14.615699054669998  25.686786194819998 1

# Forces in Cartesian coordinates:
force S  -0.001039733180064  -0.000713366050638   0.004220096923465 1
force S   0.001221808893082   0.000748402512921   0.004489003962832 1
force Na   0.005524482391678  -0.007999921165584  -0.004348206768483 1
force Na  -0.005408832371570   0.008262386250618  -0.003903423838826 1

# Energy components:
   A_diel =       -0.0610816870794858
   Eewald =       42.5786531081733202
       EH =      139.5366928470780579
     Eloc =     -163.2477030130592937
      Enl =     -140.2317652452738344
     EvdW =       -0.0011664941892986
      Exc =      -22.8133740807265397
 Exc_core =        3.5354580038101910
       KE =       24.7323502196078344
-------------------------------------
     Etot =     -115.9719363416590454

IonicMinimize: Iter:   0  Etot: -115.971936341659045  |grad|_K:  4.723e-03  alpha:  1.000e+00

#--- Lowdin population analysis ---
# oxidation-state S -0.766 -0.766
# oxidation-state Na +0.862 +0.862


Computing DFT-D3 correction:
# coordination-number S 2.940 2.940
# coordination-number Na 2.085 2.085
# diagonal-C6 S 125.81 125.81
# diagonal-C6 Na 186.11 186.11
EvdW_6 =   -0.000069
EvdW_8 =   -0.001104

-------- Electronic minimization -----------
Will mix electronic density at each iteration.
	Linear fluid (dielectric constant: 7.2) occupying 0.992577 of unit cell:	Completed after 4 iterations at t[s]:   1207.04
	Linear fluid (dielectric constant: 7.2) occupying 0.992575 of unit cell:	Completed after 2 iterations at t[s]:   1224.13
SCF: Cycle:  0   Etot: -115.972194394997075   dEtot: -4.355e-06   |Residual|: 7.010e-04   |deigs|: 2.686e-07  t[s]:   1226.71
	Linear fluid (dielectric constant: 7.2) occupying 0.992582 of unit cell:	Completed after 2 iterations at t[s]:   1234.68
	Linear fluid (dielectric constant: 7.2) occupying 0.992571 of unit cell:	Completed after 1 iterations at t[s]:   1249.29
SCF: Cycle:  1   Etot: -115.972195181442885   dEtot: -7.864e-07   |Residual|: 4.015e-04   |deigs|: 1.114e-04  t[s]:   1251.86
	Linear fluid (dielectric constant: 7.2) occupying 0.992583 of unit cell:	Completed after 2 iterations at t[s]:   1260.29
	Linear fluid (dielectric constant: 7.2) occupying 0.992572 of unit cell:	Completed after 1 iterations at t[s]:   1275.29
SCF: Cycle:  2   Etot: -115.972195541644339   dEtot: -3.602e-07   |Residual|: 1.187e-04   |deigs|: 8.527e-05  t[s]:   1277.95
	Linear fluid (dielectric constant: 7.2) occupying 0.992581 of unit cell:	Completed after 1 iterations at t[s]:   1284.73
	Linear fluid (dielectric constant: 7.2) occupying 0.992572 of unit cell:	Completed after 1 iterations at t[s]:   1299.70
SCF: Cycle:  3   Etot: -115.972195624117390   dEtot: -8.247e-08   |Residual|: 7.903e-05   |deigs|: 4.098e-05  t[s]:   1302.22
	Linear fluid (dielectric constant: 7.2) occupying 0.992574 of unit cell:	Completed after 0 iterations at t[s]:   1307.32
	Linear fluid (dielectric constant: 7.2) occupying 0.992572 of unit cell:	Completed after 1 iterations at t[s]:   1322.45
SCF: Cycle:  4   Etot: -115.972195653858591   dEtot: -2.974e-08   |Residual|: 3.535e-05   |deigs|: 3.297e-05  t[s]:   1324.94
	Linear fluid (dielectric constant: 7.2) occupying 0.992572 of unit cell:	Completed after 0 iterations at t[s]:   1330.05
	Linear fluid (dielectric constant: 7.2) occupying 0.992572 of unit cell:	Completed after 0 iterations at t[s]:   1343.43
SCF: Cycle:  5   Etot: -115.972195667100564   dEtot: -1.324e-08   |Residual|: 2.993e-05   |deigs|: 1.447e-05  t[s]:   1346.00
	Linear fluid (dielectric constant: 7.2) occupying 0.992571 of unit cell:	Completed after 0 iterations at t[s]:   1351.66
	Linear fluid (dielectric constant: 7.2) occupying 0.992572 of unit cell:	Completed after 0 iterations at t[s]:   1365.03
SCF: Cycle:  6   Etot: -115.972195674217332   dEtot: -7.117e-09   |Residual|: 2.164e-05   |deigs|: 9.383e-06  t[s]:   1367.56
	Linear fluid (dielectric constant: 7.2) occupying 0.992569 of unit cell:	Completed after 0 iterations at t[s]:   1372.94
	Linear fluid (dielectric constant: 7.2) occupying 0.992572 of unit cell:	Completed after 0 iterations at t[s]:   1387.73
SCF: Cycle:  7   Etot: -115.972195679371850   dEtot: -5.155e-09   |Residual|: 2.360e-05   |deigs|: 1.335e-05  t[s]:   1390.25
SCF: Converged (|Delta E|<1.000000e-08 for 2 iters).

Setting wave functions to eigenvectors of Hamiltonian
IonicMinimize: 	Predicted alpha/alphaT>3.000000, increasing alphaT to 3.000000e+00.

Computing DFT-D3 correction:
# coordination-number S 2.937 2.937
# coordination-number Na 2.075 2.075
# diagonal-C6 S 125.81 125.81
# diagonal-C6 Na 186.11 186.11
EvdW_6 =   -0.000071
EvdW_8 =   -0.001116

-------- Electronic minimization -----------
Will mix electronic density at each iteration.
	Linear fluid (dielectric constant: 7.2) occupying 0.992572 of unit cell:	Completed after 6 iterations at t[s]:   1408.68
	Linear fluid (dielectric constant: 7.2) occupying 0.992461 of unit cell:	Completed after 6 iterations at t[s]:   1432.87
SCF: Cycle:  0   Etot: -115.971414950161261   dEtot: -1.653e-02   |Residual|: 5.832e-02   |deigs|: 1.084e-03  t[s]:   1435.41
	Linear fluid (dielectric constant: 7.2) occupying 0.992674 of unit cell:	Completed after 9 iterations at t[s]:   1453.65
	Linear fluid (dielectric constant: 7.2) occupying 0.992477 of unit cell:	Completed after 7 iterations at t[s]:   1478.53
SCF: Cycle:  1   Etot: -115.971934789553799   dEtot: -5.198e-04   |Residual|: 2.877e-02   |deigs|: 3.475e-03  t[s]:   1481.11
	Linear fluid (dielectric constant: 7.2) occupying 0.992647 of unit cell:	Completed after 10 iterations at t[s]:   1500.45
	Linear fluid (dielectric constant: 7.2) occupying 0.992520 of unit cell:	Completed after 8 iterations at t[s]:   1526.82
SCF: Cycle:  2   Etot: -115.972267972748213   dEtot: -3.332e-04   |Residual|: 4.495e-03   |deigs|: 1.755e-03  t[s]:   1529.38
	Linear fluid (dielectric constant: 7.2) occupying 0.992616 of unit cell:	Completed after 9 iterations at t[s]:   1547.54
	Linear fluid (dielectric constant: 7.2) occupying 0.992537 of unit cell:	Completed after 7 iterations at t[s]:   1572.77
SCF: Cycle:  3   Etot: -115.972293434882744   dEtot: -2.546e-05   |Residual|: 2.506e-03   |deigs|: 1.645e-03  t[s]:   1575.35
	Linear fluid (dielectric constant: 7.2) occupying 0.992554 of unit cell:	Completed after 7 iterations at t[s]:   1590.43
	Linear fluid (dielectric constant: 7.2) occupying 0.992547 of unit cell:	Completed after 7 iterations at t[s]:   1615.10
SCF: Cycle:  4   Etot: -115.972370896289092   dEtot: -7.746e-05   |Residual|: 1.228e-03   |deigs|: 1.506e-03  t[s]:   1617.71
	Linear fluid (dielectric constant: 7.2) occupying 0.992501 of unit cell:	Completed after 6 iterations at t[s]:   1631.90
	Linear fluid (dielectric constant: 7.2) occupying 0.992550 of unit cell:	Completed after 6 iterations at t[s]:   1655.74
SCF: Cycle:  5   Etot: -115.972464531889131   dEtot: -9.364e-05   |Residual|: 1.032e-03   |deigs|: 1.124e-03  t[s]:   1658.29
	Linear fluid (dielectric constant: 7.2) occupying 0.992453 of unit cell:	Completed after 5 iterations at t[s]:   1670.55
	Linear fluid (dielectric constant: 7.2) occupying 0.992550 of unit cell:	Completed after 5 iterations at t[s]:   1693.17
SCF: Cycle:  6   Etot: -115.972591684180770   dEtot: -1.272e-04   |Residual|: 6.508e-04   |deigs|: 1.324e-03  t[s]:   1695.69
	Linear fluid (dielectric constant: 7.2) occupying 0.992427 of unit cell:	Completed after 4 iterations at t[s]:   1706.58
	Linear fluid (dielectric constant: 7.2) occupying 0.992551 of unit cell:	Completed after 4 iterations at t[s]:   1727.32
SCF: Cycle:  7   Etot: -115.972641929855001   dEtot: -5.025e-05   |Residual|: 4.530e-04   |deigs|: 1.050e-03  t[s]:   1729.95
	Linear fluid (dielectric constant: 7.2) occupying 0.992435 of unit cell:	Completed after 4 iterations at t[s]:   1741.04
	Linear fluid (dielectric constant: 7.2) occupying 0.992552 of unit cell:	Completed after 4 iterations at t[s]:   1761.37
SCF: Cycle:  8   Etot: -115.972655683862627   dEtot: -1.375e-05   |Residual|: 2.984e-04   |deigs|: 4.745e-04  t[s]:   1764.01
	Linear fluid (dielectric constant: 7.2) occupying 0.992474 of unit cell:	Completed after 4 iterations at t[s]:   1775.16
	Linear fluid (dielectric constant: 7.2) occupying 0.992552 of unit cell:	Completed after 3 iterations at t[s]:   1794.38
SCF: Cycle:  9   Etot: -115.972661532161510   dEtot: -5.848e-06   |Residual|: 2.404e-04   |deigs|: 2.425e-04  t[s]:   1796.95
	Linear fluid (dielectric constant: 7.2) occupying 0.992500 of unit cell:	Completed after 3 iterations at t[s]:   1806.76
	Linear fluid (dielectric constant: 7.2) occupying 0.992552 of unit cell:	Completed after 3 iterations at t[s]:   1824.60
SCF: Cycle: 10   Etot: -115.972662491844972   dEtot: -9.597e-07   |Residual|: 1.921e-04   |deigs|: 8.276e-05  t[s]:   1827.26
	Linear fluid (dielectric constant: 7.2) occupying 0.992534 of unit cell:	Completed after 3 iterations at t[s]:   1836.86
	Linear fluid (dielectric constant: 7.2) occupying 0.992555 of unit cell:	Completed after 3 iterations at t[s]:   1856.07
SCF: Cycle: 11   Etot: -115.972664165784181   dEtot: -1.674e-06   |Residual|: 1.830e-04   |deigs|: 6.676e-05  t[s]:   1858.65
	Linear fluid (dielectric constant: 7.2) occupying 0.992545 of unit cell:	Completed after 3 iterations at t[s]:   1868.62
	Linear fluid (dielectric constant: 7.2) occupying 0.992555 of unit cell:	Completed after 3 iterations at t[s]:   1886.30
SCF: Cycle: 12   Etot: -115.972664832762931   dEtot: -6.670e-07   |Residual|: 1.202e-04   |deigs|: 5.571e-05  t[s]:   1888.90
	Linear fluid (dielectric constant: 7.2) occupying 0.992554 of unit cell:	Completed after 2 iterations at t[s]:   1897.51
	Linear fluid (dielectric constant: 7.2) occupying 0.992555 of unit cell:	Completed after 2 iterations at t[s]:   1915.10
SCF: Cycle: 13   Etot: -115.972665755708661   dEtot: -9.229e-07   |Residual|: 8.343e-05   |deigs|: 5.104e-05  t[s]:   1917.66
	Linear fluid (dielectric constant: 7.2) occupying 0.992555 of unit cell:	Completed after 2 iterations at t[s]:   1925.81
	Linear fluid (dielectric constant: 7.2) occupying 0.992555 of unit cell:	Completed after 2 iterations at t[s]:   1942.10
SCF: Cycle: 14   Etot: -115.972665952417799   dEtot: -1.967e-07   |Residual|: 6.722e-05   |deigs|: 1.358e-05  t[s]:   1944.64
	Linear fluid (dielectric constant: 7.2) occupying 0.992555 of unit cell:	Completed after 1 iterations at t[s]:   1951.63
	Linear fluid (dielectric constant: 7.2) occupying 0.992556 of unit cell:	Completed after 1 iterations at t[s]:   1967.67
SCF: Cycle: 15   Etot: -115.972666228170468   dEtot: -2.758e-07   |Residual|: 4.643e-05   |deigs|: 3.671e-05  t[s]:   1970.22
	Linear fluid (dielectric constant: 7.2) occupying 0.992555 of unit cell:	Completed after 1 iterations at t[s]:   1976.95
	Linear fluid (dielectric constant: 7.2) occupying 0.992556 of unit cell:	Completed after 0 iterations at t[s]:   1990.68
SCF: Cycle: 16   Etot: -115.972666258240480   dEtot: -3.007e-08   |Residual|: 3.754e-05   |deigs|: 1.534e-05  t[s]:   1993.26
	Linear fluid (dielectric constant: 7.2) occupying 0.992555 of unit cell:	Completed after 1 iterations at t[s]:   2000.19
	Linear fluid (dielectric constant: 7.2) occupying 0.992556 of unit cell:	Completed after 0 iterations at t[s]:   2015.31
SCF: Cycle: 17   Etot: -115.972666301031055   dEtot: -4.279e-08   |Residual|: 2.893e-05   |deigs|: 3.452e-05  t[s]:   2017.87
	Linear fluid (dielectric constant: 7.2) occupying 0.992555 of unit cell:	Completed after 0 iterations at t[s]:   2023.49
	Linear fluid (dielectric constant: 7.2) occupying 0.992556 of unit cell:	Completed after 0 iterations at t[s]:   2037.03
SCF: Cycle: 18   Etot: -115.972666287697336   dEtot: +1.333e-08   |Residual|: 2.367e-05   |deigs|: 2.239e-05  t[s]:   2039.58
	Linear fluid (dielectric constant: 7.2) occupying 0.992556 of unit cell:	Completed after 1 iterations at t[s]:   2046.30
	Linear fluid (dielectric constant: 7.2) occupying 0.992557 of unit cell:	Completed after 0 iterations at t[s]:   2061.28
SCF: Cycle: 19   Etot: -115.972666305970051   dEtot: -1.827e-08   |Residual|: 3.108e-05   |deigs|: 2.345e-05  t[s]:   2063.79
	Linear fluid (dielectric constant: 7.2) occupying 0.992555 of unit cell:	Completed after 0 iterations at t[s]:   2069.36
	Linear fluid (dielectric constant: 7.2) occupying 0.992557 of unit cell:	Completed after 0 iterations at t[s]:   2083.12
SCF: Cycle: 20   Etot: -115.972666311725504   dEtot: -5.755e-09   |Residual|: 2.054e-05   |deigs|: 9.098e-06  t[s]:   2085.84
	Linear fluid (dielectric constant: 7.2) occupying 0.992555 of unit cell:	Completed after 1 iterations at t[s]:   2092.66
	Linear fluid (dielectric constant: 7.2) occupying 0.992557 of unit cell:	Completed after 0 iterations at t[s]:   2107.78
SCF: Cycle: 21   Etot: -115.972666330091826   dEtot: -1.837e-08   |Residual|: 2.572e-05   |deigs|: 3.146e-05  t[s]:   2110.34
	Linear fluid (dielectric constant: 7.2) occupying 0.992554 of unit cell:	Completed after 0 iterations at t[s]:   2116.01
	Linear fluid (dielectric constant: 7.2) occupying 0.992557 of unit cell:	Completed after 0 iterations at t[s]:   2129.97
SCF: Cycle: 22   Etot: -115.972666325482493   dEtot: +4.609e-09   |Residual|: 1.907e-05   |deigs|: 1.108e-05  t[s]:   2132.52
	Linear fluid (dielectric constant: 7.2) occupying 0.992554 of unit cell:	Completed after 0 iterations at t[s]:   2137.87
	Linear fluid (dielectric constant: 7.2) occupying 0.992557 of unit cell:	Completed after 0 iterations at t[s]:   2151.11
SCF: Cycle: 23   Etot: -115.972666327799800   dEtot: -2.317e-09   |Residual|: 1.319e-05   |deigs|: 1.535e-06  t[s]:   2153.63
	Linear fluid (dielectric constant: 7.2) occupying 0.992555 of unit cell:	Completed after 0 iterations at t[s]:   2159.00
	Linear fluid (dielectric constant: 7.2) occupying 0.992557 of unit cell:	Completed after 0 iterations at t[s]:   2174.19
SCF: Cycle: 24   Etot: -115.972666337380574   dEtot: -9.581e-09   |Residual|: 1.195e-05   |deigs|: 3.823e-06  t[s]:   2176.96
SCF: Converged (|Delta E|<1.000000e-08 for 2 iters).

Setting wave functions to eigenvectors of Hamiltonian
IonicMinimize: 	Predicted alpha/alphaT>3.000000, increasing alphaT to 9.000000e+00.

Computing DFT-D3 correction:
# coordination-number S 2.929 2.928
# coordination-number Na 2.046 2.046
# diagonal-C6 S 125.81 125.81
# diagonal-C6 Na 186.11 186.11
EvdW_6 =   -0.000079
EvdW_8 =   -0.001150

-------- Electronic minimization -----------
Will mix electronic density at each iteration.
	Linear fluid (dielectric constant: 7.2) occupying 0.992555 of unit cell:	Completed after 7 iterations at t[s]:   2196.65
	Linear fluid (dielectric constant: 7.2) occupying 0.992239 of unit cell:	Completed after 8 iterations at t[s]:   2223.69
SCF: Cycle:  0   Etot: -115.962187229579456   dEtot: -1.494e-01   |Residual|: 1.788e-01   |deigs|: 9.802e-03  t[s]:   2226.26
	Linear fluid (dielectric constant: 7.2) occupying 0.992516 of unit cell:	Completed after 13 iterations at t[s]:   2250.11
	Linear fluid (dielectric constant: 7.2) occupying 0.992352 of unit cell:	Completed after 10 iterations at t[s]:   2279.47
SCF: Cycle:  1   Etot: -115.966730707049180   dEtot: -4.543e-03   |Residual|: 8.915e-02   |deigs|: 9.862e-03  t[s]:   2282.06
	Linear fluid (dielectric constant: 7.2) occupying 0.992144 of unit cell:	Completed after 16 iterations at t[s]:   2310.36
	Linear fluid (dielectric constant: 7.2) occupying 0.992566 of unit cell:	Completed after 10 iterations at t[s]:   2340.01
SCF: Cycle:  2   Etot: -115.968190506543593   dEtot: -1.460e-03   |Residual|: 1.139e-02   |deigs|: 5.635e-03  t[s]:   2342.52
	Linear fluid (dielectric constant: 7.2) occupying 0.992096 of unit cell:	Completed after 14 iterations at t[s]:   2367.98
	Linear fluid (dielectric constant: 7.2) occupying 0.992578 of unit cell:	Completed after 10 iterations at t[s]:   2396.90
SCF: Cycle:  3   Etot: -115.969638875745588   dEtot: -1.448e-03   |Residual|: 9.344e-03   |deigs|: 3.945e-03  t[s]:   2399.51
	Linear fluid (dielectric constant: 7.2) occupying 0.992127 of unit cell:	Completed after 12 iterations at t[s]:   2421.47
	Linear fluid (dielectric constant: 7.2) occupying 0.992512 of unit cell:	Completed after 9 iterations at t[s]:   2449.05
SCF: Cycle:  4   Etot: -115.972100248093696   dEtot: -2.461e-03   |Residual|: 9.038e-03   |deigs|: 4.946e-04  t[s]:   2451.51
	Linear fluid (dielectric constant: 7.2) occupying 0.992134 of unit cell:	Completed after 11 iterations at t[s]:   2472.47
	Linear fluid (dielectric constant: 7.2) occupying 0.992497 of unit cell:	Completed after 9 iterations at t[s]:   2500.30
SCF: Cycle:  5   Etot: -115.972821311906714   dEtot: -7.211e-04   |Residual|: 5.949e-03   |deigs|: 3.069e-03  t[s]:   2502.96
	Linear fluid (dielectric constant: 7.2) occupying 0.992153 of unit cell:	Completed after 8 iterations at t[s]:   2519.98
	Linear fluid (dielectric constant: 7.2) occupying 0.992484 of unit cell:	Completed after 8 iterations at t[s]:   2546.49
SCF: Cycle:  6   Etot: -115.973426217466624   dEtot: -6.049e-04   |Residual|: 3.574e-03   |deigs|: 6.657e-03  t[s]:   2549.10
	Linear fluid (dielectric constant: 7.2) occupying 0.992189 of unit cell:	Completed after 8 iterations at t[s]:   2565.59
	Linear fluid (dielectric constant: 7.2) occupying 0.992482 of unit cell:	Completed after 7 iterations at t[s]:   2590.34
SCF: Cycle:  7   Etot: -115.973501653609006   dEtot: -7.544e-05   |Residual|: 2.976e-03   |deigs|: 5.221e-04  t[s]:   2592.90
	Linear fluid (dielectric constant: 7.2) occupying 0.992176 of unit cell:	Completed after 6 iterations at t[s]:   2606.69
	Linear fluid (dielectric constant: 7.2) occupying 0.992488 of unit cell:	Completed after 6 iterations at t[s]:   2630.16
SCF: Cycle:  8   Etot: -115.973615432957359   dEtot: -1.138e-04   |Residual|: 2.383e-03   |deigs|: 3.310e-03  t[s]:   2632.79
	Linear fluid (dielectric constant: 7.2) occupying 0.992091 of unit cell:	Completed after 6 iterations at t[s]:   2646.95
	Linear fluid (dielectric constant: 7.2) occupying 0.992500 of unit cell:	Completed after 5 iterations at t[s]:   2669.78
SCF: Cycle:  9   Etot: -115.973647704590903   dEtot: -3.227e-05   |Residual|: 3.361e-03   |deigs|: 5.500e-03  t[s]:   2672.33
	Linear fluid (dielectric constant: 7.2) occupying 0.992175 of unit cell:	Completed after 5 iterations at t[s]:   2684.72
	Linear fluid (dielectric constant: 7.2) occupying 0.992496 of unit cell:	Completed after 5 iterations at t[s]:   2707.01
SCF: Cycle: 10   Etot: -115.973678126802284   dEtot: -3.042e-05   |Residual|: 1.322e-03   |deigs|: 1.429e-03  t[s]:   2709.54
	Linear fluid (dielectric constant: 7.2) occupying 0.992283 of unit cell:	Completed after 4 iterations at t[s]:   2720.53
	Linear fluid (dielectric constant: 7.2) occupying 0.992492 of unit cell:	Completed after 5 iterations at t[s]:   2742.25
SCF: Cycle: 11   Etot: -115.973687710562018   dEtot: -9.584e-06   |Residual|: 1.545e-03   |deigs|: 1.025e-03  t[s]:   2744.78
	Linear fluid (dielectric constant: 7.2) occupying 0.992341 of unit cell:	Completed after 3 iterations at t[s]:   2754.62
	Linear fluid (dielectric constant: 7.2) occupying 0.992491 of unit cell:	Completed after 4 iterations at t[s]:   2773.53
SCF: Cycle: 12   Etot: -115.973693508203112   dEtot: -5.798e-06   |Residual|: 1.241e-03   |deigs|: 4.024e-04  t[s]:   2776.10
	Linear fluid (dielectric constant: 7.2) occupying 0.992435 of unit cell:	Completed after 4 iterations at t[s]:   2787.52
	Linear fluid (dielectric constant: 7.2) occupying 0.992499 of unit cell:	Completed after 4 iterations at t[s]:   2806.79
SCF: Cycle: 13   Etot: -115.973696186503787   dEtot: -2.678e-06   |Residual|: 6.056e-04   |deigs|: 7.844e-04  t[s]:   2809.41
	Linear fluid (dielectric constant: 7.2) occupying 0.992454 of unit cell:	Completed after 4 iterations at t[s]:   2821.31
	Linear fluid (dielectric constant: 7.2) occupying 0.992501 of unit cell:	Completed after 4 iterations at t[s]:   2840.75
SCF: Cycle: 14   Etot: -115.973698410963436   dEtot: -2.224e-06   |Residual|: 3.616e-04   |deigs|: 1.149e-04  t[s]:   2843.32
	Linear fluid (dielectric constant: 7.2) occupying 0.992491 of unit cell:	Completed after 3 iterations at t[s]:   2852.91
	Linear fluid (dielectric constant: 7.2) occupying 0.992503 of unit cell:	Completed after 3 iterations at t[s]:   2870.41
SCF: Cycle: 15   Etot: -115.973700058319082   dEtot: -1.647e-06   |Residual|: 2.791e-04   |deigs|: 1.175e-04  t[s]:   2872.98
	Linear fluid (dielectric constant: 7.2) occupying 0.992508 of unit cell:	Completed after 2 iterations at t[s]:   2881.55
	Linear fluid (dielectric constant: 7.2) occupying 0.992505 of unit cell:	Completed after 3 iterations at t[s]:   2899.39
SCF: Cycle: 16   Etot: -115.973700920532906   dEtot: -8.622e-07   |Residual|: 1.807e-04   |deigs|: 1.276e-04  t[s]:   2901.94
	Linear fluid (dielectric constant: 7.2) occupying 0.992511 of unit cell:	Completed after 2 iterations at t[s]:   2910.79
	Linear fluid (dielectric constant: 7.2) occupying 0.992506 of unit cell:	Completed after 2 iterations at t[s]:   2926.80
SCF: Cycle: 17   Etot: -115.973701569154187   dEtot: -6.486e-07   |Residual|: 1.426e-04   |deigs|: 1.480e-04  t[s]:   2929.43
	Linear fluid (dielectric constant: 7.2) occupying 0.992503 of unit cell:	Completed after 2 iterations at t[s]:   2937.74
	Linear fluid (dielectric constant: 7.2) occupying 0.992507 of unit cell:	Completed after 2 iterations at t[s]:   2954.06
SCF: Cycle: 18   Etot: -115.973701740425071   dEtot: -1.713e-07   |Residual|: 9.591e-05   |deigs|: 6.324e-05  t[s]:   2956.79
	Linear fluid (dielectric constant: 7.2) occupying 0.992504 of unit cell:	Completed after 1 iterations at t[s]:   2964.28
	Linear fluid (dielectric constant: 7.2) occupying 0.992509 of unit cell:	Completed after 1 iterations at t[s]:   2980.15
SCF: Cycle: 19   Etot: -115.973701965521045   dEtot: -2.251e-07   |Residual|: 9.549e-05   |deigs|: 4.758e-05  t[s]:   2982.65
	Linear fluid (dielectric constant: 7.2) occupying 0.992503 of unit cell:	Completed after 2 iterations at t[s]:   2990.85
	Linear fluid (dielectric constant: 7.2) occupying 0.992510 of unit cell:	Completed after 1 iterations at t[s]:   3007.12
SCF: Cycle: 20   Etot: -115.973702081675768   dEtot: -1.162e-07   |Residual|: 7.079e-05   |deigs|: 1.240e-04  t[s]:   3009.59
	Linear fluid (dielectric constant: 7.2) occupying 0.992505 of unit cell:	Completed after 1 iterations at t[s]:   3016.50
	Linear fluid (dielectric constant: 7.2) occupying 0.992510 of unit cell:	Completed after 1 iterations at t[s]:   3033.32
SCF: Cycle: 21   Etot: -115.973702199527125   dEtot: -1.179e-07   |Residual|: 6.352e-05   |deigs|: 8.438e-06  t[s]:   3036.10
	Linear fluid (dielectric constant: 7.2) occupying 0.992505 of unit cell:	Completed after 2 iterations at t[s]:   3044.35
	Linear fluid (dielectric constant: 7.2) occupying 0.992510 of unit cell:	Completed after 1 iterations at t[s]:   3060.92
SCF: Cycle: 22   Etot: -115.973702309396344   dEtot: -1.099e-07   |Residual|: 5.270e-05   |deigs|: 5.901e-05  t[s]:   3063.57
	Linear fluid (dielectric constant: 7.2) occupying 0.992511 of unit cell:	Completed after 2 iterations at t[s]:   3071.70
	Linear fluid (dielectric constant: 7.2) occupying 0.992510 of unit cell:	Completed after 1 iterations at t[s]:   3086.74
SCF: Cycle: 23   Etot: -115.973702342494676   dEtot: -3.310e-08   |Residual|: 4.922e-05   |deigs|: 4.640e-05  t[s]:   3089.27
	Linear fluid (dielectric constant: 7.2) occupying 0.992510 of unit cell:	Completed after 1 iterations at t[s]:   3096.40
	Linear fluid (dielectric constant: 7.2) occupying 0.992510 of unit cell:	Completed after 1 iterations at t[s]:   3112.36
SCF: Cycle: 24   Etot: -115.973702378529168   dEtot: -3.603e-08   |Residual|: 4.717e-05   |deigs|: 2.137e-05  t[s]:   3114.92
	Linear fluid (dielectric constant: 7.2) occupying 0.992510 of unit cell:	Completed after 1 iterations at t[s]:   3121.90
	Linear fluid (dielectric constant: 7.2) occupying 0.992510 of unit cell:	Completed after 1 iterations at t[s]:   3136.73
SCF: Cycle: 25   Etot: -115.973702383479349   dEtot: -4.950e-09   |Residual|: 4.345e-05   |deigs|: 8.415e-06  t[s]:   3139.26
	Linear fluid (dielectric constant: 7.2) occupying 0.992508 of unit cell:	Completed after 0 iterations at t[s]:   3144.93
	Linear fluid (dielectric constant: 7.2) occupying 0.992510 of unit cell:	Completed after 0 iterations at t[s]:   3159.83
SCF: Cycle: 26   Etot: -115.973702436022492   dEtot: -5.254e-08   |Residual|: 3.319e-05   |deigs|: 2.997e-05  t[s]:   3162.39
	Linear fluid (dielectric constant: 7.2) occupying 0.992507 of unit cell:	Completed after 1 iterations at t[s]:   3168.99
	Linear fluid (dielectric constant: 7.2) occupying 0.992510 of unit cell:	Completed after 0 iterations at t[s]:   3182.82
SCF: Cycle: 27   Etot: -115.973702439885955   dEtot: -3.863e-09   |Residual|: 2.784e-05   |deigs|: 2.065e-05  t[s]:   3185.25
	Linear fluid (dielectric constant: 7.2) occupying 0.992506 of unit cell:	Completed after 0 iterations at t[s]:   3190.65
	Linear fluid (dielectric constant: 7.2) occupying 0.992510 of unit cell:	Completed after 0 iterations at t[s]:   3205.90
SCF: Cycle: 28   Etot: -115.973702446457139   dEtot: -6.571e-09   |Residual|: 2.099e-05   |deigs|: 1.783e-05  t[s]:   3208.44
SCF: Converged (|Delta E|<1.000000e-08 for 2 iters).

Setting wave functions to eigenvectors of Hamiltonian

Computing DFT-D3 correction:
# coordination-number S 2.913 2.912
# coordination-number Na 2.009 2.009
# diagonal-C6 S 125.81 125.81
# diagonal-C6 Na 186.11 186.11
EvdW_6 =   -0.000089
EvdW_8 =   -0.001195

-------- Electronic minimization -----------
Will mix electronic density at each iteration.
	Linear fluid (dielectric constant: 7.2) occupying 0.992507 of unit cell:	Completed after 7 iterations at t[s]:   3228.33
	Linear fluid (dielectric constant: 7.2) occupying 0.992118 of unit cell:	Completed after 9 iterations at t[s]:   3257.23
SCF: Cycle:  0   Etot: -115.954294175762016   dEtot: -2.573e-01   |Residual|: 2.383e-01   |deigs|: 1.687e-02  t[s]:   3259.86
	Linear fluid (dielectric constant: 7.2) occupying 0.992349 of unit cell:	Completed after 15 iterations at t[s]:   3286.54
	Linear fluid (dielectric constant: 7.2) occupying 0.992291 of unit cell:	Completed after 11 iterations at t[s]:   3317.38
SCF: Cycle:  1   Etot: -115.961198048093962   dEtot: -6.904e-03   |Residual|: 1.193e-01   |deigs|: 1.234e-02  t[s]:   3320.05
	Linear fluid (dielectric constant: 7.2) occupying 0.991841 of unit cell:	Completed after 16 iterations at t[s]:   3348.31
	Linear fluid (dielectric constant: 7.2) occupying 0.992518 of unit cell:	Completed after 11 iterations at t[s]:   3379.45
SCF: Cycle:  2   Etot: -115.964776442329793   dEtot: -3.578e-03   |Residual|: 1.681e-02   |deigs|: 6.933e-03  t[s]:   3382.12
	Linear fluid (dielectric constant: 7.2) occupying 0.991728 of unit cell:	Completed after 15 iterations at t[s]:   3408.73
	Linear fluid (dielectric constant: 7.2) occupying 0.992554 of unit cell:	Completed after 11 iterations at t[s]:   3439.62
SCF: Cycle:  3   Etot: -115.966815584765158   dEtot: -2.039e-03   |Residual|: 1.040e-02   |deigs|: 4.124e-03  t[s]:   3442.17
	Linear fluid (dielectric constant: 7.2) occupying 0.991777 of unit cell:	Completed after 10 iterations at t[s]:   3462.03
	Linear fluid (dielectric constant: 7.2) occupying 0.992447 of unit cell:	Completed after 9 iterations at t[s]:   3489.62
SCF: Cycle:  4   Etot: -115.972199995285820   dEtot: -5.384e-03   |Residual|: 8.957e-03   |deigs|: 1.453e-03  t[s]:   3492.31
	Linear fluid (dielectric constant: 7.2) occupying 0.991798 of unit cell:	Completed after 10 iterations at t[s]:   3511.77
	Linear fluid (dielectric constant: 7.2) occupying 0.992430 of unit cell:	Completed after 8 iterations at t[s]:   3538.32
SCF: Cycle:  5   Etot: -115.972815543518706   dEtot: -6.155e-04   |Residual|: 7.828e-03   |deigs|: 1.859e-03  t[s]:   3540.97
	Linear fluid (dielectric constant: 7.2) occupying 0.991879 of unit cell:	Completed after 9 iterations at t[s]:   3559.34
	Linear fluid (dielectric constant: 7.2) occupying 0.992419 of unit cell:	Completed after 8 iterations at t[s]:   3586.05
SCF: Cycle:  6   Etot: -115.973569083128126   dEtot: -7.535e-04   |Residual|: 4.032e-03   |deigs|: 6.529e-03  t[s]:   3588.52
	Linear fluid (dielectric constant: 7.2) occupying 0.991949 of unit cell:	Completed after 8 iterations at t[s]:   3605.30
	Linear fluid (dielectric constant: 7.2) occupying 0.992417 of unit cell:	Completed after 7 iterations at t[s]:   3630.17
SCF: Cycle:  7   Etot: -115.973954798140667   dEtot: -3.857e-04   |Residual|: 2.937e-03   |deigs|: 3.177e-03  t[s]:   3632.71
	Linear fluid (dielectric constant: 7.2) occupying 0.991966 of unit cell:	Completed after 6 iterations at t[s]:   3646.55
	Linear fluid (dielectric constant: 7.2) occupying 0.992422 of unit cell:	Completed after 6 iterations at t[s]:   3670.21
SCF: Cycle:  8   Etot: -115.974203736254623   dEtot: -2.489e-04   |Residual|: 2.036e-03   |deigs|: 6.235e-03  t[s]:   3672.74
	Linear fluid (dielectric constant: 7.2) occupying 0.991969 of unit cell:	Completed after 5 iterations at t[s]:   3685.17
	Linear fluid (dielectric constant: 7.2) occupying 0.992426 of unit cell:	Completed after 5 iterations at t[s]:   3707.40
SCF: Cycle:  9   Etot: -115.974251568062527   dEtot: -4.783e-05   |Residual|: 1.362e-03   |deigs|: 1.831e-03  t[s]:   3710.08
	Linear fluid (dielectric constant: 7.2) occupying 0.992032 of unit cell:	Completed after 5 iterations at t[s]:   3722.53
	Linear fluid (dielectric constant: 7.2) occupying 0.992433 of unit cell:	Completed after 5 iterations at t[s]:   3744.88
SCF: Cycle: 10   Etot: -115.974255932472488   dEtot: -4.364e-06   |Residual|: 1.278e-03   |deigs|: 1.616e-03  t[s]:   3747.45
	Linear fluid (dielectric constant: 7.2) occupying 0.992152 of unit cell:	Completed after 5 iterations at t[s]:   3759.80
	Linear fluid (dielectric constant: 7.2) occupying 0.992429 of unit cell:	Completed after 5 iterations at t[s]:   3782.12
SCF: Cycle: 11   Etot: -115.974277049446812   dEtot: -2.112e-05   |Residual|: 1.424e-03   |deigs|: 1.752e-03  t[s]:   3784.65
	Linear fluid (dielectric constant: 7.2) occupying 0.992278 of unit cell:	Completed after 4 iterations at t[s]:   3796.09
	Linear fluid (dielectric constant: 7.2) occupying 0.992432 of unit cell:	Completed after 5 iterations at t[s]:   3816.63
SCF: Cycle: 12   Etot: -115.974284421300041   dEtot: -7.372e-06   |Residual|: 8.283e-04   |deigs|: 5.271e-04  t[s]:   3819.16
	Linear fluid (dielectric constant: 7.2) occupying 0.992384 of unit cell:	Completed after 3 iterations at t[s]:   3829.27
	Linear fluid (dielectric constant: 7.2) occupying 0.992437 of unit cell:	Completed after 4 iterations at t[s]:   3848.45
SCF: Cycle: 13   Etot: -115.974289623058979   dEtot: -5.202e-06   |Residual|: 6.170e-04   |deigs|: 4.158e-04  t[s]:   3850.99
	Linear fluid (dielectric constant: 7.2) occupying 0.992422 of unit cell:	Completed after 4 iterations at t[s]:   3862.42
	Linear fluid (dielectric constant: 7.2) occupying 0.992440 of unit cell:	Completed after 4 iterations at t[s]:   3881.51
SCF: Cycle: 14   Etot: -115.974291009704558   dEtot: -1.387e-06   |Residual|: 3.668e-04   |deigs|: 1.927e-04  t[s]:   3884.03
	Linear fluid (dielectric constant: 7.2) occupying 0.992446 of unit cell:	Completed after 3 iterations at t[s]:   3893.97
	Linear fluid (dielectric constant: 7.2) occupying 0.992442 of unit cell:	Completed after 4 iterations at t[s]:   3913.18
SCF: Cycle: 15   Etot: -115.974292737406074   dEtot: -1.728e-06   |Residual|: 2.973e-04   |deigs|: 1.466e-04  t[s]:   3915.80
	Linear fluid (dielectric constant: 7.2) occupying 0.992451 of unit cell:	Completed after 2 iterations at t[s]:   3924.10
	Linear fluid (dielectric constant: 7.2) occupying 0.992443 of unit cell:	Completed after 2 iterations at t[s]:   3940.78
SCF: Cycle: 16   Etot: -115.974293844325160   dEtot: -1.107e-06   |Residual|: 2.085e-04   |deigs|: 3.461e-04  t[s]:   3943.38
	Linear fluid (dielectric constant: 7.2) occupying 0.992445 of unit cell:	Completed after 2 iterations at t[s]:   3951.93
	Linear fluid (dielectric constant: 7.2) occupying 0.992444 of unit cell:	Completed after 2 iterations at t[s]:   3968.09
SCF: Cycle: 17   Etot: -115.974294219952640   dEtot: -3.756e-07   |Residual|: 1.795e-04   |deigs|: 3.844e-05  t[s]:   3970.63
	Linear fluid (dielectric constant: 7.2) occupying 0.992437 of unit cell:	Completed after 2 iterations at t[s]:   3979.11
	Linear fluid (dielectric constant: 7.2) occupying 0.992447 of unit cell:	Completed after 2 iterations at t[s]:   3996.20
SCF: Cycle: 18   Etot: -115.974294338904599   dEtot: -1.190e-07   |Residual|: 1.370e-04   |deigs|: 1.202e-04  t[s]:   3998.78
	Linear fluid (dielectric constant: 7.2) occupying 0.992440 of unit cell:	Completed after 2 iterations at t[s]:   4006.91
	Linear fluid (dielectric constant: 7.2) occupying 0.992448 of unit cell:	Completed after 2 iterations at t[s]:   4024.56
SCF: Cycle: 19   Etot: -115.974294534568912   dEtot: -1.957e-07   |Residual|: 1.114e-04   |deigs|: 2.262e-04  t[s]:   4027.17
	Linear fluid (dielectric constant: 7.2) occupying 0.992436 of unit cell:	Completed after 2 iterations at t[s]:   4035.30
	Linear fluid (dielectric constant: 7.2) occupying 0.992448 of unit cell:	Completed after 2 iterations at t[s]:   4051.68
SCF: Cycle: 20   Etot: -115.974294589481403   dEtot: -5.491e-08   |Residual|: 9.541e-05   |deigs|: 5.236e-05  t[s]:   4054.20
	Linear fluid (dielectric constant: 7.2) occupying 0.992441 of unit cell:	Completed after 2 iterations at t[s]:   4062.74
	Linear fluid (dielectric constant: 7.2) occupying 0.992448 of unit cell:	Completed after 1 iterations at t[s]:   4079.07
SCF: Cycle: 21   Etot: -115.974294758728831   dEtot: -1.692e-07   |Residual|: 7.904e-05   |deigs|: 4.027e-05  t[s]:   4081.61
	Linear fluid (dielectric constant: 7.2) occupying 0.992445 of unit cell:	Completed after 2 iterations at t[s]:   4089.83
	Linear fluid (dielectric constant: 7.2) occupying 0.992448 of unit cell:	Completed after 2 iterations at t[s]:   4106.43
SCF: Cycle: 22   Etot: -115.974294782655278   dEtot: -2.393e-08   |Residual|: 9.903e-05   |deigs|: 5.395e-05  t[s]:   4109.04
	Linear fluid (dielectric constant: 7.2) occupying 0.992447 of unit cell:	Completed after 2 iterations at t[s]:   4117.21
	Linear fluid (dielectric constant: 7.2) occupying 0.992448 of unit cell:	Completed after 1 iterations at t[s]:   4134.01
SCF: Cycle: 23   Etot: -115.974294921735222   dEtot: -1.391e-07   |Residual|: 7.255e-05   |deigs|: 1.583e-04  t[s]:   4136.55
	Linear fluid (dielectric constant: 7.2) occupying 0.992447 of unit cell:	Completed after 0 iterations at t[s]:   4141.96
	Linear fluid (dielectric constant: 7.2) occupying 0.992449 of unit cell:	Completed after 0 iterations at t[s]:   4155.64
SCF: Cycle: 24   Etot: -115.974294941459817   dEtot: -1.972e-08   |Residual|: 4.521e-05   |deigs|: 3.820e-05  t[s]:   4158.11
	Linear fluid (dielectric constant: 7.2) occupying 0.992446 of unit cell:	Completed after 0 iterations at t[s]:   4163.80
	Linear fluid (dielectric constant: 7.2) occupying 0.992448 of unit cell:	Completed after 0 iterations at t[s]:   4178.87
SCF: Cycle: 25   Etot: -115.974294960696028   dEtot: -1.924e-08   |Residual|: 5.121e-05   |deigs|: 1.810e-05  t[s]:   4181.42
	Linear fluid (dielectric constant: 7.2) occupying 0.992444 of unit cell:	Completed after 0 iterations at t[s]:   4187.05
	Linear fluid (dielectric constant: 7.2) occupying 0.992448 of unit cell:	Completed after 0 iterations at t[s]:   4201.83
SCF: Cycle: 26   Etot: -115.974294964394971   dEtot: -3.699e-09   |Residual|: 4.526e-05   |deigs|: 2.201e-05  t[s]:   4204.28
	Linear fluid (dielectric constant: 7.2) occupying 0.992446 of unit cell:	Completed after 0 iterations at t[s]:   4209.69
	Linear fluid (dielectric constant: 7.2) occupying 0.992448 of unit cell:	Completed after 0 iterations at t[s]:   4225.04
SCF: Cycle: 27   Etot: -115.974294966078475   dEtot: -1.684e-09   |Residual|: 2.859e-05   |deigs|: 3.131e-05  t[s]:   4227.77
SCF: Converged (|Delta E|<1.000000e-08 for 2 iters).

Setting wave functions to eigenvectors of Hamiltonian

Computing DFT-D3 correction:
# coordination-number S 2.913 2.912
# coordination-number Na 2.009 2.009
# diagonal-C6 S 125.81 125.81
# diagonal-C6 Na 186.11 186.11
EvdW_6 =   -0.000089
EvdW_8 =   -0.001195

# Ionic positions in cartesian coordinates:
ion S   9.384092789133842  12.416799381909367  27.332741031755834 1
ion S   5.940805459930674  10.099060668558066  27.415214216897322 1
ion Na   9.944776503945384   7.806929253479797  25.395667028033234 1
ion Na   5.272644175170095  14.753730293192765  25.619055370633610 1

# Forces in Cartesian coordinates:
force S  -0.000359210188419  -0.000205556516651   0.000847332078407 1
force S   0.000389122843777   0.000308388947090   0.000105521663716 1
force Na   0.000597891091832  -0.000770895375929  -0.000240544799412 1
force Na  -0.000440283830443   0.000940291509892   0.000015324517874 1

# Energy components:
   A_diel =       -0.0668472550621316
   Eewald =       40.6980961783212649
       EH =      137.6354378539802781
     Eloc =     -159.4599299250615445
      Enl =     -140.2136956582330640
     EvdW =       -0.0012837580590899
      Exc =      -22.7985657060892173
 Exc_core =        3.5354584458308813
       KE =       24.6970348582941526
-------------------------------------
     Etot =     -115.9742949660784745

IonicMinimize: Iter:   1  Etot: -115.974294966078475  |grad|_K:  5.062e-04  alpha:  1.686e+01  linmin: -8.756e-01  t[s]:   4237.57

#--- Lowdin population analysis ---
# oxidation-state S -0.766 -0.766
# oxidation-state Na +0.869 +0.869


Computing DFT-D3 correction:
# coordination-number S 2.910 2.910
# coordination-number Na 2.000 2.001
# diagonal-C6 S 125.81 125.81
# diagonal-C6 Na 186.11 186.11
EvdW_6 =   -0.000092
EvdW_8 =   -0.001202

-------- Electronic minimization -----------
Will mix electronic density at each iteration.
	Linear fluid (dielectric constant: 7.2) occupying 0.992448 of unit cell:	Completed after 6 iterations at t[s]:   4253.73
	Linear fluid (dielectric constant: 7.2) occupying 0.992419 of unit cell:	Completed after 6 iterations at t[s]:   4277.96
SCF: Cycle:  0   Etot: -115.973339644823696   dEtot: -1.442e-02   |Residual|: 5.437e-02   |deigs|: 9.235e-04  t[s]:   4280.49
	Linear fluid (dielectric constant: 7.2) occupying 0.992509 of unit cell:	Completed after 9 iterations at t[s]:   4298.61
	Linear fluid (dielectric constant: 7.2) occupying 0.992394 of unit cell:	Completed after 8 iterations at t[s]:   4325.08
SCF: Cycle:  1   Etot: -115.973787799035819   dEtot: -4.482e-04   |Residual|: 2.671e-02   |deigs|: 3.456e-03  t[s]:   4327.63
	Linear fluid (dielectric constant: 7.2) occupying 0.992469 of unit cell:	Completed after 10 iterations at t[s]:   4347.07
	Linear fluid (dielectric constant: 7.2) occupying 0.992384 of unit cell:	Completed after 8 iterations at t[s]:   4373.27
SCF: Cycle:  2   Etot: -115.973957046663330   dEtot: -1.692e-04   |Residual|: 4.300e-03   |deigs|: 1.540e-03  t[s]:   4375.84
	Linear fluid (dielectric constant: 7.2) occupying 0.992455 of unit cell:	Completed after 9 iterations at t[s]:   4393.84
	Linear fluid (dielectric constant: 7.2) occupying 0.992406 of unit cell:	Completed after 8 iterations at t[s]:   4420.31
SCF: Cycle:  3   Etot: -115.974053985046623   dEtot: -9.694e-05   |Residual|: 2.340e-03   |deigs|: 1.560e-03  t[s]:   4422.83
	Linear fluid (dielectric constant: 7.2) occupying 0.992412 of unit cell:	Completed after 7 iterations at t[s]:   4438.18
	Linear fluid (dielectric constant: 7.2) occupying 0.992423 of unit cell:	Completed after 7 iterations at t[s]:   4463.14
SCF: Cycle:  4   Etot: -115.974136687648183   dEtot: -8.270e-05   |Residual|: 1.245e-03   |deigs|: 1.506e-03  t[s]:   4465.61
	Linear fluid (dielectric constant: 7.2) occupying 0.992382 of unit cell:	Completed after 6 iterations at t[s]:   4479.86
	Linear fluid (dielectric constant: 7.2) occupying 0.992428 of unit cell:	Completed after 6 iterations at t[s]:   4503.70
SCF: Cycle:  5   Etot: -115.974200605675350   dEtot: -6.392e-05   |Residual|: 9.643e-04   |deigs|: 7.256e-04  t[s]:   4506.27
	Linear fluid (dielectric constant: 7.2) occupying 0.992334 of unit cell:	Completed after 5 iterations at t[s]:   4518.55
	Linear fluid (dielectric constant: 7.2) occupying 0.992427 of unit cell:	Completed after 5 iterations at t[s]:   4540.98
SCF: Cycle:  6   Etot: -115.974274769573000   dEtot: -7.416e-05   |Residual|: 5.779e-04   |deigs|: 1.339e-03  t[s]:   4543.51
	Linear fluid (dielectric constant: 7.2) occupying 0.992326 of unit cell:	Completed after 4 iterations at t[s]:   4554.49
	Linear fluid (dielectric constant: 7.2) occupying 0.992427 of unit cell:	Completed after 5 iterations at t[s]:   4576.25
SCF: Cycle:  7   Etot: -115.974298220761312   dEtot: -2.345e-05   |Residual|: 4.693e-04   |deigs|: 6.469e-04  t[s]:   4578.76
	Linear fluid (dielectric constant: 7.2) occupying 0.992331 of unit cell:	Completed after 5 iterations at t[s]:   4591.14
	Linear fluid (dielectric constant: 7.2) occupying 0.992432 of unit cell:	Completed after 4 iterations at t[s]:   4611.74
SCF: Cycle:  8   Etot: -115.974313838758974   dEtot: -1.562e-05   |Residual|: 4.625e-04   |deigs|: 1.318e-03  t[s]:   4614.21
	Linear fluid (dielectric constant: 7.2) occupying 0.992340 of unit cell:	Completed after 4 iterations at t[s]:   4625.81
	Linear fluid (dielectric constant: 7.2) occupying 0.992432 of unit cell:	Completed after 4 iterations at t[s]:   4645.01
SCF: Cycle:  9   Etot: -115.974314970861883   dEtot: -1.132e-06   |Residual|: 2.893e-04   |deigs|: 6.934e-05  t[s]:   4647.68
	Linear fluid (dielectric constant: 7.2) occupying 0.992381 of unit cell:	Completed after 3 iterations at t[s]:   4657.46
	Linear fluid (dielectric constant: 7.2) occupying 0.992432 of unit cell:	Completed after 3 iterations at t[s]:   4676.44
SCF: Cycle: 10   Etot: -115.974317778322117   dEtot: -2.807e-06   |Residual|: 2.643e-04   |deigs|: 1.573e-04  t[s]:   4679.10
	Linear fluid (dielectric constant: 7.2) occupying 0.992405 of unit cell:	Completed after 3 iterations at t[s]:   4689.19
	Linear fluid (dielectric constant: 7.2) occupying 0.992432 of unit cell:	Completed after 3 iterations at t[s]:   4707.12
SCF: Cycle: 11   Etot: -115.974318266335558   dEtot: -4.880e-07   |Residual|: 1.680e-04   |deigs|: 6.095e-05  t[s]:   4709.77
	Linear fluid (dielectric constant: 7.2) occupying 0.992427 of unit cell:	Completed after 3 iterations at t[s]:   4719.41
	Linear fluid (dielectric constant: 7.2) occupying 0.992434 of unit cell:	Completed after 3 iterations at t[s]:   4737.56
SCF: Cycle: 12   Etot: -115.974318510973404   dEtot: -2.446e-07   |Residual|: 2.307e-04   |deigs|: 9.953e-05  t[s]:   4740.11
	Linear fluid (dielectric constant: 7.2) occupying 0.992436 of unit cell:	Completed after 2 iterations at t[s]:   4748.33
	Linear fluid (dielectric constant: 7.2) occupying 0.992435 of unit cell:	Completed after 2 iterations at t[s]:   4766.24
SCF: Cycle: 13   Etot: -115.974318935217937   dEtot: -4.242e-07   |Residual|: 1.296e-04   |deigs|: 1.488e-04  t[s]:   4768.77
	Linear fluid (dielectric constant: 7.2) occupying 0.992437 of unit cell:	Completed after 2 iterations at t[s]:   4777.17
	Linear fluid (dielectric constant: 7.2) occupying 0.992435 of unit cell:	Completed after 2 iterations at t[s]:   4793.40
SCF: Cycle: 14   Etot: -115.974319099041736   dEtot: -1.638e-07   |Residual|: 6.861e-05   |deigs|: 3.774e-05  t[s]:   4796.09
	Linear fluid (dielectric constant: 7.2) occupying 0.992435 of unit cell:	Completed after 1 iterations at t[s]:   4802.81
	Linear fluid (dielectric constant: 7.2) occupying 0.992435 of unit cell:	Completed after 1 iterations at t[s]:   4817.74
SCF: Cycle: 15   Etot: -115.974319242182432   dEtot: -1.431e-07   |Residual|: 4.909e-05   |deigs|: 3.804e-05  t[s]:   4820.28
	Linear fluid (dielectric constant: 7.2) occupying 0.992435 of unit cell:	Completed after 1 iterations at t[s]:   4827.15
	Linear fluid (dielectric constant: 7.2) occupying 0.992435 of unit cell:	Completed after 0 iterations at t[s]:   4841.00
SCF: Cycle: 16   Etot: -115.974319298265229   dEtot: -5.608e-08   |Residual|: 3.356e-05   |deigs|: 1.290e-05  t[s]:   4843.85
	Linear fluid (dielectric constant: 7.2) occupying 0.992434 of unit cell:	Completed after 0 iterations at t[s]:   4849.50
	Linear fluid (dielectric constant: 7.2) occupying 0.992436 of unit cell:	Completed after 0 iterations at t[s]:   4863.30
SCF: Cycle: 17   Etot: -115.974319326221590   dEtot: -2.796e-08   |Residual|: 3.024e-05   |deigs|: 1.150e-05  t[s]:   4865.87
	Linear fluid (dielectric constant: 7.2) occupying 0.992435 of unit cell:	Completed after 1 iterations at t[s]:   4872.77
	Linear fluid (dielectric constant: 7.2) occupying 0.992436 of unit cell:	Completed after 0 iterations at t[s]:   4887.28
SCF: Cycle: 18   Etot: -115.974319351328688   dEtot: -2.511e-08   |Residual|: 3.234e-05   |deigs|: 3.757e-05  t[s]:   4889.83
	Linear fluid (dielectric constant: 7.2) occupying 0.992435 of unit cell:	Completed after 0 iterations at t[s]:   4895.12
	Linear fluid (dielectric constant: 7.2) occupying 0.992436 of unit cell:	Completed after 0 iterations at t[s]:   4909.68
SCF: Cycle: 19   Etot: -115.974319339474022   dEtot: +1.185e-08   |Residual|: 1.993e-05   |deigs|: 2.984e-05  t[s]:   4912.22
	Linear fluid (dielectric constant: 7.2) occupying 0.992435 of unit cell:	Completed after 0 iterations at t[s]:   4917.77
	Linear fluid (dielectric constant: 7.2) occupying 0.992436 of unit cell:	Completed after 0 iterations at t[s]:   4932.30
SCF: Cycle: 20   Etot: -115.974319345884936   dEtot: -6.411e-09   |Residual|: 1.894e-05   |deigs|: 4.299e-06  t[s]:   4934.95
	Linear fluid (dielectric constant: 7.2) occupying 0.992435 of unit cell:	Completed after 0 iterations at t[s]:   4940.22
	Linear fluid (dielectric constant: 7.2) occupying 0.992437 of unit cell:	Completed after 0 iterations at t[s]:   4955.45
SCF: Cycle: 21   Etot: -115.974319358040702   dEtot: -1.216e-08   |Residual|: 1.575e-05   |deigs|: 2.499e-05  t[s]:   4957.98
	Linear fluid (dielectric constant: 7.2) occupying 0.992436 of unit cell:	Completed after 0 iterations at t[s]:   4963.66
	Linear fluid (dielectric constant: 7.2) occupying 0.992437 of unit cell:	Completed after 0 iterations at t[s]:   4977.20
SCF: Cycle: 22   Etot: -115.974319362063099   dEtot: -4.022e-09   |Residual|: 1.384e-05   |deigs|: 2.182e-05  t[s]:   4979.86
	Linear fluid (dielectric constant: 7.2) occupying 0.992437 of unit cell:	Completed after 0 iterations at t[s]:   4985.50
	Linear fluid (dielectric constant: 7.2) occupying 0.992436 of unit cell:	Completed after 0 iterations at t[s]:   5000.18
SCF: Cycle: 23   Etot: -115.974319366941913   dEtot: -4.879e-09   |Residual|: 1.164e-05   |deigs|: 1.711e-05  t[s]:   5002.72
SCF: Converged (|Delta E|<1.000000e-08 for 2 iters).

Setting wave functions to eigenvectors of Hamiltonian

Computing DFT-D3 correction:
# coordination-number S 2.911 2.910
# coordination-number Na 2.001 2.002
# diagonal-C6 S 125.81 125.81
# diagonal-C6 Na 186.11 186.11
EvdW_6 =   -0.000091
EvdW_8 =   -0.001201

-------- Electronic minimization -----------
Will mix electronic density at each iteration.
	Linear fluid (dielectric constant: 7.2) occupying 0.992437 of unit cell:	Completed after 2 iterations at t[s]:   5015.81
	Linear fluid (dielectric constant: 7.2) occupying 0.992438 of unit cell:	Completed after 1 iterations at t[s]:   5031.73
SCF: Cycle:  0   Etot: -115.974319421084488   dEtot: -4.186e-07   |Residual|: 2.041e-04   |deigs|: 2.496e-08  t[s]:   5034.26
	Linear fluid (dielectric constant: 7.2) occupying 0.992436 of unit cell:	Completed after 1 iterations at t[s]:   5040.62
	Linear fluid (dielectric constant: 7.2) occupying 0.992438 of unit cell:	Completed after 0 iterations at t[s]:   5054.09
SCF: Cycle:  1   Etot: -115.974319511863996   dEtot: -9.078e-08   |Residual|: 1.204e-04   |deigs|: 2.618e-05  t[s]:   5056.76
	Linear fluid (dielectric constant: 7.2) occupying 0.992436 of unit cell:	Completed after 0 iterations at t[s]:   5062.01
	Linear fluid (dielectric constant: 7.2) occupying 0.992438 of unit cell:	Completed after 0 iterations at t[s]:   5075.45
SCF: Cycle:  2   Etot: -115.974319531777525   dEtot: -1.991e-08   |Residual|: 3.791e-05   |deigs|: 2.619e-05  t[s]:   5077.99
	Linear fluid (dielectric constant: 7.2) occupying 0.992436 of unit cell:	Completed after 0 iterations at t[s]:   5083.61
	Linear fluid (dielectric constant: 7.2) occupying 0.992438 of unit cell:	Completed after 0 iterations at t[s]:   5095.82
SCF: Cycle:  3   Etot: -115.974319544257156   dEtot: -1.248e-08   |Residual|: 2.041e-05   |deigs|: 8.141e-06  t[s]:   5098.35
	Linear fluid (dielectric constant: 7.2) occupying 0.992437 of unit cell:	Completed after 0 iterations at t[s]:   5102.24
	Linear fluid (dielectric constant: 7.2) occupying 0.992438 of unit cell:	Completed after 0 iterations at t[s]:   5115.83
SCF: Cycle:  4   Etot: -115.974319541772559   dEtot: +2.485e-09   |Residual|: 1.796e-05   |deigs|: 4.463e-07  t[s]:   5118.49
	Linear fluid (dielectric constant: 7.2) occupying 0.992437 of unit cell:	Completed after 0 iterations at t[s]:   5122.20
	Linear fluid (dielectric constant: 7.2) occupying 0.992438 of unit cell:	Completed after 0 iterations at t[s]:   5135.06
SCF: Cycle:  5   Etot: -115.974319543442036   dEtot: -1.669e-09   |Residual|: 8.637e-06   |deigs|: 2.557e-05  t[s]:   5137.59
	Linear fluid (dielectric constant: 7.2) occupying 0.992438 of unit cell:	Completed after 0 iterations at t[s]:   5141.47
	Linear fluid (dielectric constant: 7.2) occupying 0.992438 of unit cell:	Completed after 0 iterations at t[s]:   5153.52
SCF: Cycle:  6   Etot: -115.974319545084342   dEtot: -1.642e-09   |Residual|: 6.306e-06   |deigs|: 1.719e-07  t[s]:   5156.15
SCF: Converged (|Delta E|<1.000000e-08 for 2 iters).

Setting wave functions to eigenvectors of Hamiltonian

Computing DFT-D3 correction:
# coordination-number S 2.911 2.910
# coordination-number Na 2.001 2.002
# diagonal-C6 S 125.81 125.81
# diagonal-C6 Na 186.11 186.11
EvdW_6 =   -0.000091
EvdW_8 =   -0.001201

# Ionic positions in cartesian coordinates:
ion S   9.377905221927398  12.412624064044270  27.343266935223429 1
ion S   5.946055550354386  10.102725072099020  27.414828189496678 1
ion Na   9.953840486839542   7.793166685368937  25.388669582647964 1
ion Na   5.264517669058668  14.768003775627770  25.615912939951919 1

# Forces in Cartesian coordinates:
force S   0.000667262110802   0.000438327658715   0.000463042856652 1
force S  -0.000675769213194  -0.000406478611253  -0.000130289572117 1
force Na   0.000231721832235  -0.000113912064664  -0.000026973737810 1
force Na  -0.000014555062722   0.000378838593125   0.000279868701416 1

# Energy components:
   A_diel =       -0.0674394157491487
   Eewald =       40.5667077012291202
       EH =      137.5022250144025406
     Eloc =     -159.1962732467978299
      Enl =     -140.2128627714817526
     EvdW =       -0.0012921453445468
      Exc =      -22.7988960660190862
 Exc_core =        3.5354585825844285
       KE =       24.6980528020919472
-------------------------------------
     Etot =     -115.9743195450843416

IonicMinimize: Iter:   2  Etot: -115.974319545084342  |grad|_K:  3.721e-04  alpha:  1.477e+01  linmin: -6.411e-02  t[s]:   5165.97

#--- Lowdin population analysis ---
# oxidation-state S -0.765 -0.765
# oxidation-state Na +0.870 +0.870


Computing DFT-D3 correction:
# coordination-number S 2.904 2.905
# coordination-number Na 1.994 1.995
# diagonal-C6 S 125.81 125.81
# diagonal-C6 Na 186.11 186.11
EvdW_6 =   -0.000093
EvdW_8 =   -0.001211

-------- Electronic minimization -----------
Will mix electronic density at each iteration.
	Linear fluid (dielectric constant: 7.2) occupying 0.992429 of unit cell:	Completed after 5 iterations at t[s]:   5181.43
	Linear fluid (dielectric constant: 7.2) occupying 0.992420 of unit cell:	Completed after 2 iterations at t[s]:   5199.46
SCF: Cycle:  0   Etot: -115.974317394482824   dEtot: -2.458e-05   |Residual|: 1.457e-03   |deigs|: 1.518e-06  t[s]:   5201.99
	Linear fluid (dielectric constant: 7.2) occupying 0.992433 of unit cell:	Completed after 2 iterations at t[s]:   5210.25
	Linear fluid (dielectric constant: 7.2) occupying 0.992422 of unit cell:	Completed after 2 iterations at t[s]:   5226.64
SCF: Cycle:  1   Etot: -115.974319174569260   dEtot: -1.780e-06   |Residual|: 8.042e-04   |deigs|: 1.432e-04  t[s]:   5229.24
	Linear fluid (dielectric constant: 7.2) occupying 0.992436 of unit cell:	Completed after 2 iterations at t[s]:   5237.49
	Linear fluid (dielectric constant: 7.2) occupying 0.992423 of unit cell:	Completed after 2 iterations at t[s]:   5253.54
[...]
ElecMinimize: 	Step increased Etot by 8.281503e-09, reducing alpha to 2.038595e-01.
	Linear fluid (dielectric constant: 7.2) occupying 0.992427 of unit cell:	Completed after 0 iterations at t[s]:   2492.19
ElecMinimize: Iter:  13  Etot: -115.974392158303047  |grad|_K:  9.537e-08  alpha:  2.039e-01  linmin:  1.885e-01  t[s]:   2497.89
	Linear fluid (dielectric constant: 7.2) occupying 0.992427 of unit cell:	Completed after 0 iterations at t[s]:   2504.46
	Linear fluid (dielectric constant: 7.2) occupying 0.992427 of unit cell:	Completed after 0 iterations at t[s]:   2514.01
ElecMinimize: Iter:  14  Etot: -115.974392159533139  |grad|_K:  8.856e-08  alpha:  1.478e-01  linmin:  1.289e-04  t[s]:   2519.75
ElecMinimize: Converged (|Delta Etot|<1.000000e-08 for 2 iters).
Setting wave functions to eigenvectors of Hamiltonian

Computing DFT-D3 correction:
# coordination-number S 2.907 2.906
# coordination-number Na 2.000 2.001
# diagonal-C6 S 125.81 125.81
# diagonal-C6 Na 186.11 186.11
EvdW_6 =   -0.000091
EvdW_8 =   -0.001219

# Ionic positions in cartesian coordinates:
ion S   9.383944772718046  12.377584297417913  27.404031779975885 1
ion S   5.931983374195759  10.079151559010432  27.402357344967907 1
ion Na   9.935612002548844   7.824279844815326  25.268780850186733 1
ion Na   5.290778778717334  14.795503895896315  25.687507672189458 1

# Forces in Cartesian coordinates:
force S  -0.000252488723856  -0.000228511233923  -0.000254596559417 1
force S   0.000419742890969   0.000229679263178  -0.000277872510338 1
force Na  -0.000016298197265   0.000109324512455   0.000145621763376 1
force Na   0.000098312383970  -0.000041981731595   0.000004277179296 1

# Energy components:
   A_diel =       -0.0678760083570876
   Eewald =       40.4654277396068807
       EH =      137.3959648532683389
     Eloc =     -158.9854349617082789
      Enl =     -140.2123506987382484
     EvdW =       -0.0013098044407140
      Exc =      -22.7964306122813056
 Exc_core =        3.5354588323594558
       KE =       24.6921585007577988
-------------------------------------
     Etot =     -115.9743921595331386

IonicMinimize: Iter:   3  Etot: -115.974392159533139  |grad|_K:  1.997e-04  alpha:  5.707e+00  linmin:  5.836e-03  t[s]:   2527.38

#--- Lowdin population analysis ---
# oxidation-state S -0.765 -0.765
# oxidation-state Na +0.870 +0.870


Computing DFT-D3 correction:
# coordination-number S 2.908 2.905
# coordination-number Na 1.997 1.999
# diagonal-C6 S 125.81 125.81
# diagonal-C6 Na 186.11 186.11
EvdW_6 =   -0.000092
EvdW_8 =   -0.001218

-------- Electronic minimization -----------
	Linear fluid (dielectric constant: 7.2) occupying 0.992428 of unit cell:	Completed after 4 iterations at t[s]:   2542.25
ElecMinimize: Iter:   0  Etot: -115.974386873092840  |grad|_K:  1.973e-06  alpha:  1.000e+00
	Linear fluid (dielectric constant: 7.2) occupying 0.992428 of unit cell:	Completed after 2 iterations at t[s]:   2559.39
	Linear fluid (dielectric constant: 7.2) occupying 0.992428 of unit cell:	Completed after 1 iterations at t[s]:   2572.18
ElecMinimize: Iter:   1  Etot: -115.974391143272157  |grad|_K:  9.020e-07  alpha:  6.662e-01  linmin:  4.016e-03  t[s]:   2577.91
	Linear fluid (dielectric constant: 7.2) occupying 0.992427 of unit cell:	Completed after 1 iterations at t[s]:   2587.50
	Linear fluid (dielectric constant: 7.2) occupying 0.992427 of unit cell:	Completed after 0 iterations at t[s]:   2597.03
ElecMinimize: Iter:   2  Etot: -115.974392051230623  |grad|_K:  4.536e-07  alpha:  6.803e-01  linmin:  4.717e-03  t[s]:   2602.72
	Linear fluid (dielectric constant: 7.2) occupying 0.992427 of unit cell:	Completed after 0 iterations at t[s]:   2610.83
	Linear fluid (dielectric constant: 7.2) occupying 0.992427 of unit cell:	Completed after 0 iterations at t[s]:   2620.52
ElecMinimize: Iter:   3  Etot: -115.974392275519435  |grad|_K:  3.470e-07  alpha:  6.661e-01  linmin: -2.454e-02  t[s]:   2626.35
	Linear fluid (dielectric constant: 7.2) occupying 0.992427 of unit cell:	Completed after 0 iterations at t[s]:   2634.46
	Linear fluid (dielectric constant: 7.2) occupying 0.992427 of unit cell:	Completed after 0 iterations at t[s]:   2644.03
ElecMinimize: Iter:   4  Etot: -115.974392407905142  |grad|_K:  1.963e-07  alpha:  6.474e-01  linmin: -3.773e-02  t[s]:   2649.70
	Linear fluid (dielectric constant: 7.2) occupying 0.992426 of unit cell:	Completed after 0 iterations at t[s]:   2656.20
	Linear fluid (dielectric constant: 7.2) occupying 0.992426 of unit cell:	Completed after 0 iterations at t[s]:   2667.28
ElecMinimize: Iter:   5  Etot: -115.974392464377047  |grad|_K:  1.868e-07  alpha:  1.095e+00  linmin:  6.462e-02  t[s]:   2673.04
	Linear fluid (dielectric constant: 7.2) occupying 0.992425 of unit cell:	Completed after 0 iterations at t[s]:   2681.18
	Linear fluid (dielectric constant: 7.2) occupying 0.992425 of unit cell:	Completed after 0 iterations at t[s]:   2692.29
ElecMinimize: Iter:   6  Etot: -115.974392485172757  |grad|_K:  1.197e-07  alpha:  5.439e-01  linmin:  2.716e-02  t[s]:   2698.00
	Linear fluid (dielectric constant: 7.2) occupying 0.992425 of unit cell:	Completed after 0 iterations at t[s]:   2704.45
	Linear fluid (dielectric constant: 7.2) occupying 0.992425 of unit cell:	Completed after 0 iterations at t[s]:   2714.02
ElecMinimize: Iter:   7  Etot: -115.974392500394629  |grad|_K:  9.013e-08  alpha:  6.776e-01  linmin: -1.777e-05  t[s]:   2719.76
	Linear fluid (dielectric constant: 7.2) occupying 0.992425 of unit cell:	Completed after 0 iterations at t[s]:   2726.31
	Linear fluid (dielectric constant: 7.2) occupying 0.992425 of unit cell:	Completed after 0 iterations at t[s]:   2735.86
ElecMinimize: Iter:   8  Etot: -115.974392509680825  |grad|_K:  7.077e-08  alpha:  6.951e-01  linmin: -2.592e-04  t[s]:   2741.64
	Linear fluid (dielectric constant: 7.2) occupying 0.992425 of unit cell:	Completed after 0 iterations at t[s]:   2748.22
	Linear fluid (dielectric constant: 7.2) occupying 0.992425 of unit cell:	Completed after 0 iterations at t[s]:   2757.76
ElecMinimize: Iter:   9  Etot: -115.974392516570759  |grad|_K:  6.702e-08  alpha:  8.367e-01  linmin:  5.126e-04  t[s]:   2763.46
ElecMinimize: Converged (|Delta Etot|<1.000000e-08 for 2 iters).
Setting wave functions to eigenvectors of Hamiltonian

Computing DFT-D3 correction:
# coordination-number S 2.907 2.905
# coordination-number Na 1.998 2.000
# diagonal-C6 S 125.81 125.81
# diagonal-C6 Na 186.11 186.11
EvdW_6 =   -0.000091
EvdW_8 =   -0.001218

-------- Electronic minimization -----------
	Linear fluid (dielectric constant: 7.2) occupying 0.992425 of unit cell:	Completed after 3 iterations at t[s]:   2776.81
ElecMinimize: Iter:   0  Etot: -115.974391914508089  |grad|_K:  8.334e-07  alpha:  1.000e+00
	Linear fluid (dielectric constant: 7.2) occupying 0.992424 of unit cell:	Completed after 1 iterations at t[s]:   2792.44
	Linear fluid (dielectric constant: 7.2) occupying 0.992425 of unit cell:	Completed after 0 iterations at t[s]:   2803.53
ElecMinimize: Iter:   1  Etot: -115.974392699400937  |grad|_K:  3.811e-07  alpha:  6.859e-01  linmin:  2.697e-02  t[s]:   2809.35
	Linear fluid (dielectric constant: 7.2) occupying 0.992425 of unit cell:	Completed after 0 iterations at t[s]:   2817.53
	Linear fluid (dielectric constant: 7.2) occupying 0.992425 of unit cell:	Completed after 0 iterations at t[s]:   2827.12
ElecMinimize: Iter:   2  Etot: -115.974392853069332  |grad|_K:  2.104e-07  alpha:  6.556e-01  linmin: -4.206e-03  t[s]:   2832.81
	Linear fluid (dielectric constant: 7.2) occupying 0.992425 of unit cell:	Completed after 0 iterations at t[s]:   2839.31
	Linear fluid (dielectric constant: 7.2) occupying 0.992425 of unit cell:	Completed after 0 iterations at t[s]:   2850.43
ElecMinimize: Iter:   3  Etot: -115.974392897437724  |grad|_K:  1.718e-07  alpha:  7.400e-01  linmin:  5.301e-02  t[s]:   2856.15
	Linear fluid (dielectric constant: 7.2) occupying 0.992425 of unit cell:	Completed after 0 iterations at t[s]:   2864.23
	Linear fluid (dielectric constant: 7.2) occupying 0.992425 of unit cell:	Completed after 0 iterations at t[s]:   2873.85
ElecMinimize: Iter:   4  Etot: -115.974392922003545  |grad|_K:  1.032e-07  alpha:  5.930e-01  linmin: -6.780e-02  t[s]:   2879.52
	Linear fluid (dielectric constant: 7.2) occupying 0.992426 of unit cell:	Completed after 0 iterations at t[s]:   2886.05
	Linear fluid (dielectric constant: 7.2) occupying 0.992426 of unit cell:	Completed after 0 iterations at t[s]:   2895.59
ElecMinimize: Iter:   5  Etot: -115.974392936212070  |grad|_K:  9.388e-08  alpha:  7.431e-01  linmin:  5.873e-04  t[s]:   2901.29
	Linear fluid (dielectric constant: 7.2) occupying 0.992426 of unit cell:	Completed after 0 iterations at t[s]:   2909.29
	Linear fluid (dielectric constant: 7.2) occupying 0.992426 of unit cell:	Completed after 0 iterations at t[s]:   2918.79
ElecMinimize: 	Step increased Etot by 8.896421e-10, reducing alpha to 3.089752e-02.
	Linear fluid (dielectric constant: 7.2) occupying 0.992426 of unit cell:	Completed after 0 iterations at t[s]:   2932.28
ElecMinimize: 	Step increased Etot by 7.707257e-09, reducing alpha to 3.089752e-03.
	Linear fluid (dielectric constant: 7.2) occupying 0.992426 of unit cell:	Completed after 0 iterations at t[s]:   2944.25
ElecMinimize: 	Step increased Etot by 8.140532e-09, reducing alpha to 3.089752e-04.
ElecMinimize: 	Step failed to reduce Etot after 3 attempts. Quitting step.
ElecMinimize: 	Undoing step.
	Linear fluid (dielectric constant: 7.2) occupying 0.992426 of unit cell:	Completed after 0 iterations at t[s]:   2956.12
ElecMinimize: 	Step failed: resetting search direction.
ElecMinimize: Iter:   6  Etot: -115.974392928066806  |grad|_K:  1.171e-07  alpha:  3.090e-04
	Linear fluid (dielectric constant: 7.2) occupying 0.992426 of unit cell:	Completed after 0 iterations at t[s]:   2968.35
	Linear fluid (dielectric constant: 7.2) occupying 0.992426 of unit cell:	Completed after 0 iterations at t[s]:   2977.95
ElecMinimize: Iter:   7  Etot: -115.974392938680509  |grad|_K:  4.743e-08  alpha:  4.703e-01  linmin: -2.242e-04  t[s]:   2983.66
	Linear fluid (dielectric constant: 7.2) occupying 0.992426 of unit cell:	Completed after 0 iterations at t[s]:   2990.12
	Linear fluid (dielectric constant: 7.2) occupying 0.992426 of unit cell:	Completed after 0 iterations at t[s]:   2999.73
ElecMinimize: Iter:   8  Etot: -115.974392943240986  |grad|_K:  5.542e-08  alpha:  1.224e+00  linmin: -3.368e-03  t[s]:   3005.41
	Linear fluid (dielectric constant: 7.2) occupying 0.992426 of unit cell:	Completed after 0 iterations at t[s]:   3013.55
	Linear fluid (dielectric constant: 7.2) occupying 0.992426 of unit cell:	Completed after 0 iterations at t[s]:   3024.77
ElecMinimize: 	Step increased Etot by 1.060832e-08, reducing alpha to 2.360276e-02.
	Linear fluid (dielectric constant: 7.2) occupying 0.992426 of unit cell:	Completed after 0 iterations at t[s]:   3036.72
ElecMinimize: 	Step increased Etot by 9.733498e-09, reducing alpha to 2.360276e-03.
	Linear fluid (dielectric constant: 7.2) occupying 0.992426 of unit cell:	Completed after 0 iterations at t[s]:   3048.66
ElecMinimize: 	Step increased Etot by 9.669577e-09, reducing alpha to 2.360276e-04.
ElecMinimize: 	Step failed to reduce Etot after 3 attempts. Quitting step.
ElecMinimize: 	Undoing step.
	Linear fluid (dielectric constant: 7.2) occupying 0.992426 of unit cell:	Completed after 0 iterations at t[s]:   3060.57
ElecMinimize: 	Step failed: resetting search direction.
ElecMinimize: Iter:   9  Etot: -115.974392933572119  |grad|_K:  1.173e-07  alpha:  2.360e-04
	Linear fluid (dielectric constant: 7.2) occupying 0.992426 of unit cell:	Completed after 0 iterations at t[s]:   3074.38
	Linear fluid (dielectric constant: 7.2) occupying 0.992426 of unit cell:	Completed after 0 iterations at t[s]:   3085.44
ElecMinimize: Iter:  10  Etot: -115.974392942940511  |grad|_K:  7.281e-08  alpha:  3.734e-01  linmin:  3.655e-01  t[s]:   3091.19
	Linear fluid (dielectric constant: 7.2) occupying 0.992426 of unit cell:	Completed after 0 iterations at t[s]:   3097.78
	Linear fluid (dielectric constant: 7.2) occupying 0.992426 of unit cell:	Completed after 0 iterations at t[s]:   3107.28
ElecMinimize: Iter:  11  Etot: -115.974392947213289  |grad|_K:  5.364e-08  alpha:  8.237e-01  linmin:  4.648e-03  t[s]:   3112.99
ElecMinimize: Converged (|Delta Etot|<1.000000e-08 for 2 iters).
Setting wave functions to eigenvectors of Hamiltonian

Computing DFT-D3 correction:
# coordination-number S 2.907 2.905
# coordination-number Na 1.998 2.000
# diagonal-C6 S 125.81 125.81
# diagonal-C6 Na 186.11 186.11
EvdW_6 =   -0.000091
EvdW_8 =   -0.001218

# Ionic positions in cartesian coordinates:
ion S   9.381382731195558  12.376398222569964  27.401349488568762 1
ion S   5.931465374111614  10.080309587038657  27.402011889221210 1
ion Na   9.939052045616737   7.820603581449406  25.271846426314813 1
ion Na   5.290418777256077  14.799208206081955  25.687469843215197 1

# Forces in Cartesian coordinates:
force S   0.000016093844011  -0.000061752254236  -0.000244755010193 1
force S   0.000227107897101   0.000079846800042  -0.000330172346182 1
force Na  -0.000085535118899   0.000179450226276   0.000168238613260 1
force Na   0.000088693118594  -0.000088457250523   0.000017449299996 1

# Energy components:
   A_diel =       -0.0679384876032317
   Eewald =       40.4495533995935190
       EH =      137.3804224092412767
     Eloc =     -158.9540067041353097
      Enl =     -140.2125467983926796
     EvdW =       -0.0013097838258409
      Exc =      -22.7966946595614033
 Exc_core =        3.5354588387259844
       KE =       24.6926688387444031
-------------------------------------
     Etot =     -115.9743929472132891

IonicMinimize: Iter:   4  Etot: -115.974392947213289  |grad|_K:  1.468e-04  alpha:  3.293e+00  linmin:  4.640e-03  t[s]:   3120.56

#--- Lowdin population analysis ---
# oxidation-state S -0.765 -0.765
# oxidation-state Na +0.870 +0.870


Computing DFT-D3 correction:
# coordination-number S 2.908 2.905
# coordination-number Na 1.998 2.000
# diagonal-C6 S 125.81 125.81
# diagonal-C6 Na 186.11 186.11
EvdW_6 =   -0.000091
EvdW_8 =   -0.001217

-------- Electronic minimization -----------
	Linear fluid (dielectric constant: 7.2) occupying 0.992426 of unit cell:	Completed after 2 iterations at t[s]:   3132.39
ElecMinimize: Iter:   0  Etot: -115.974392566528849  |grad|_K:  7.378e-07  alpha:  1.000e+00
	Linear fluid (dielectric constant: 7.2) occupying 0.992426 of unit cell:	Completed after 1 iterations at t[s]:   3148.16
	Linear fluid (dielectric constant: 7.2) occupying 0.992426 of unit cell:	Completed after 0 iterations at t[s]:   3159.38
ElecMinimize: Iter:   1  Etot: -115.974393179787768  |grad|_K:  4.115e-07  alpha:  6.937e-01  linmin:  3.664e-03  t[s]:   3165.13
	Linear fluid (dielectric constant: 7.2) occupying 0.992426 of unit cell:	Completed after 1 iterations at t[s]:   3174.85
	Linear fluid (dielectric constant: 7.2) occupying 0.992426 of unit cell:	Completed after 0 iterations at t[s]:   3186.06
ElecMinimize: Iter:   2  Etot: -115.974393285086293  |grad|_K:  2.616e-07  alpha:  3.880e-01  linmin:  1.933e-02  t[s]:   3191.81
	Linear fluid (dielectric constant: 7.2) occupying 0.992426 of unit cell:	Completed after 0 iterations at t[s]:   3198.35
	Linear fluid (dielectric constant: 7.2) occupying 0.992426 of unit cell:	Completed after 0 iterations at t[s]:   3209.50
ElecMinimize: Iter:   3  Etot: -115.974393336720624  |grad|_K:  1.676e-07  alpha:  6.369e-01  linmin:  1.365e-01  t[s]:   3215.27
	Linear fluid (dielectric constant: 7.2) occupying 0.992426 of unit cell:	Completed after 0 iterations at t[s]:   3221.84
	Linear fluid (dielectric constant: 7.2) occupying 0.992426 of unit cell:	Completed after 0 iterations at t[s]:   3231.35
ElecMinimize: Iter:   4  Etot: -115.974393366112054  |grad|_K:  1.026e-07  alpha:  7.826e-01  linmin: -1.499e-04  t[s]:   3237.08
	Linear fluid (dielectric constant: 7.2) occupying 0.992427 of unit cell:	Completed after 0 iterations at t[s]:   3245.16
	Linear fluid (dielectric constant: 7.2) occupying 0.992426 of unit cell:	Completed after 0 iterations at t[s]:   3254.84
ElecMinimize: Iter:   5  Etot: -115.974393368644300  |grad|_K:  8.222e-08  alpha:  3.937e-01  linmin: -3.206e-02  t[s]:   3260.50
	Linear fluid (dielectric constant: 7.2) occupying 0.992426 of unit cell:	Completed after 0 iterations at t[s]:   3267.03
	Linear fluid (dielectric constant: 7.2) occupying 0.992426 of unit cell:	Completed after 0 iterations at t[s]:   3276.59
ElecMinimize: Iter:   6  Etot: -115.974393375286567  |grad|_K:  7.687e-08  alpha:  5.705e-01  linmin:  3.775e-04  t[s]:   3282.32
ElecMinimize: Converged (|Delta Etot|<1.000000e-08 for 2 iters).
Setting wave functions to eigenvectors of Hamiltonian

Computing DFT-D3 correction:
# coordination-number S 2.908 2.905
# coordination-number Na 1.998 2.000
# diagonal-C6 S 125.81 125.81
# diagonal-C6 Na 186.11 186.11
EvdW_6 =   -0.000091
EvdW_8 =   -0.001217

-------- Electronic minimization -----------
	Linear fluid (dielectric constant: 7.2) occupying 0.992426 of unit cell:	Completed after 1 iterations at t[s]:   3292.71
ElecMinimize: Iter:   0  Etot: -115.974393371552168  |grad|_K:  7.267e-08  alpha:  1.000e+00
	Linear fluid (dielectric constant: 7.2) occupying 0.992426 of unit cell:	Completed after 0 iterations at t[s]:   3305.34
	Linear fluid (dielectric constant: 7.2) occupying 0.992426 of unit cell:	Completed after 0 iterations at t[s]:   3314.85
ElecMinimize: Iter:   1  Etot: -115.974393375336959  |grad|_K:  4.039e-08  alpha:  4.355e-01  linmin: -1.362e-04  t[s]:   3320.58
	Linear fluid (dielectric constant: 7.2) occupying 0.992426 of unit cell:	Completed after 0 iterations at t[s]:   3327.07
	Linear fluid (dielectric constant: 7.2) occupying 0.992426 of unit cell:	Completed after 0 iterations at t[s]:   3336.55
ElecMinimize: Iter:   2  Etot: -115.974393378297918  |grad|_K:  5.116e-08  alpha:  1.103e+00  linmin: -1.698e-03  t[s]:   3342.25
ElecMinimize: Converged (|Delta Etot|<1.000000e-08 for 2 iters).
Setting wave functions to eigenvectors of Hamiltonian

Computing DFT-D3 correction:
# coordination-number S 2.908 2.905
# coordination-number Na 1.998 2.000
# diagonal-C6 S 125.81 125.81
# diagonal-C6 Na 186.11 186.11
EvdW_6 =   -0.000091
EvdW_8 =   -0.001217

# Ionic positions in cartesian coordinates:
ion S   9.379818814258719  12.375446214399142  27.399377303480012 1
ion S   5.931735334541012  10.081123862178821  27.401040365983690 1
ion Na   9.940453377704314   7.819089082446371  25.274425966401555 1
ion Na   5.290311401675936  14.800860438115651  25.687834011454726 1

# Forces in Cartesian coordinates:
force S   0.000262044556156   0.000110710898595  -0.000225880458685 1
force S   0.000022163370129  -0.000052055896974  -0.000329603320739 1
force Na  -0.000071010417790   0.000145160644793   0.000151086695723 1
force Na   0.000062599827995  -0.000062852196057   0.000008333847329 1

# Energy components:
   A_diel =       -0.0679457239302125
   Eewald =       40.4531272113604956
       EH =      137.3836791284528829
     Eloc =     -158.9624384461691307
      Enl =     -140.2116235112180220
     EvdW =       -0.0013087666965016
      Exc =      -22.7969249104323488
 Exc_core =        3.5354588451304827
       KE =       24.6935827952044420
-------------------------------------
     Etot =     -115.9743933782979184

IonicMinimize: Iter:   5  Etot: -115.974393378297918  |grad|_K:  1.407e-04  alpha:  3.355e+00  linmin: -6.771e-02  t[s]:   3349.87
IonicMinimize: Converged (|Delta Etot|<1.000000e-06 for 2 iters).

#--- Lowdin population analysis ---
# oxidation-state S -0.765 -0.765
# oxidation-state Na +0.870 +0.870


Dumping 'Na2S2-glyme-vdw.wfns' ... done
Dumping 'Na2S2-glyme-vdw.fluidState' ... done
Dumping 'Na2S2-glyme-vdw.ionpos' ... done
End date and time: Sat Oct  5 19:16:18 2024  (Duration: 0-0:55:50.82)
Done!
