CRYSTAL
PRIMVEC
 14.820031   0.000000   0.000000
 -7.410015  12.834505   0.000000
  0.000000   0.000000  20.000041
PRIMCOORD
3 1
16   4.000011   4.079274   8.235576
11   1.837077   7.350541   8.137442
11   6.167254   7.350743   8.164220
