
*************** JDFTx 1.7.0  ***************

Start date and time: Mon Aug 19 15:37:07 2024
Executable jdftx with command-line: -i Na2S6-glyme-vdw.in -o Na2S6-glyme-vdw.out
Running on hosts (process indices):  DESKTOP-H9SOOLG (0)
Divided in process groups (process indices):  0 (0)
Resource initialization completed at t[s]:      0.00
Run totals: 1 processes, 4 threads, 0 GPUs


Input parsed successfully to the following command list (including defaults):

basis kpoint-dependent
coords-type Cartesian
core-overlap-check vector
coulomb-interaction Isolated
coulomb-truncation-embed 3.92133 11.8496 23.1275
davidson-band-ratio 1.1
dump End State
dump-name Na2S6-glyme-vdw.$VAR
elec-cutoff 20 100
elec-eigen-algo Davidson
elec-ex-corr gga-PBE
electronic-minimize  \
	dirUpdateScheme      FletcherReeves \
	linminMethod         DirUpdateRecommended \
	nIterations          100 \
	history              15 \
	knormThreshold       0 \
	energyDiffThreshold  1e-08 \
	nEnergyDiff          2 \
	alphaTstart          1 \
	alphaTmin            1e-10 \
	updateTestStepSize   yes \
	alphaTreduceFactor   0.1 \
	alphaTincreaseFactor 3 \
	nAlphaAdjustMax      3 \
	wolfeEnergy          0.0001 \
	wolfeGradient        0.9 \
	fdTest               no
electronic-scf  \
	nIterations	50 \
	energyDiffThreshold	1e-08 \
	residualThreshold	1e-07 \
	mixFraction	0.5 \
	qMetric	0.8 \
	history	10 \
	nEigSteps	2 \
	eigDiffThreshold	1e-08 \
	mixedVariable	Density \
	qKerker	0.8 \
	qKappa	-1 \
	verbose	no \
	mixFractionMag	1.5
exchange-regularization None
fluid LinearPCM 298.000000 1.013250
fluid-ex-corr lda-TF lda-PZ
fluid-gummel-loop 10 1.000000e-05
fluid-minimize  \
	dirUpdateScheme      PolakRibiere \
	linminMethod         DirUpdateRecommended \
	nIterations          400 \
	history              15 \
	knormThreshold       1e-11 \
	energyDiffThreshold  0 \
	nEnergyDiff          2 \
	alphaTstart          1 \
	alphaTmin            1e-10 \
	updateTestStepSize   yes \
	alphaTreduceFactor   0.1 \
	alphaTincreaseFactor 3 \
	nAlphaAdjustMax      6 \
	wolfeEnergy          0.0001 \
	wolfeGradient        0.9 \
	fdTest               no
fluid-solvent Glyme 9.62137 ScalarEOS \
	epsBulk 7.2 \
	pMol 0 \
	epsInf 1.9 \
	Pvap 0 \
	sigmaBulk 0 \
	Rvdw 0 \
	Res 0 \
	tauNuc 343133
forces-output-coords Positions
ion S   3.921331479750000  11.849557634189999  23.127532414739999 1
ion S   7.567480476899996  11.351192369400000  23.945456691719997 1
ion S   8.668781105760003   7.743174344189998  23.234262475409999 1
ion S   6.502139520210000   7.687128731849999  29.705151530609999 1
ion S   7.556913106740001  11.318358310649998  29.045040495659997 1
ion S  11.194673592419999  11.852526400019999  29.882693553839999 1
ion Na   3.832890226020000   7.182347833710000  25.239470096249999 1
ion Na  11.349661688099999   7.228066071600000  27.689512600169998 1
ion-species GBRV/$ID_pbe.uspp
ion-width Ecut
ionic-minimize  \
	dirUpdateScheme      FletcherReeves \
	linminMethod         DirUpdateRecommended \
	nIterations          200 \
	history              15 \
	knormThreshold       0.0001 \
	energyDiffThreshold  1e-06 \
	nEnergyDiff          2 \
	alphaTstart          1 \
	alphaTmin            1e-10 \
	updateTestStepSize   yes \
	alphaTreduceFactor   0.1 \
	alphaTincreaseFactor 3 \
	nAlphaAdjustMax      3 \
	wolfeEnergy          0.0001 \
	wolfeGradient        0.9 \
	fdTest               no
kpoint   0.000000000000   0.000000000000   0.000000000000  1.00000000000000
kpoint-folding 1 1 1 
latt-move-scale 1 1 1
latt-scale 1 1 1 
lattice Triclinic 28.0058 28.0058 37.7946 90 90 120
lattice-minimize  \
	dirUpdateScheme      L-BFGS \
	linminMethod         DirUpdateRecommended \
	nIterations          0 \
	history              15 \
	knormThreshold       0 \
	energyDiffThreshold  1e-06 \
	nEnergyDiff          2 \
	alphaTstart          1 \
	alphaTmin            1e-10 \
	updateTestStepSize   yes \
	alphaTreduceFactor   0.1 \
	alphaTincreaseFactor 3 \
	nAlphaAdjustMax      3 \
	wolfeEnergy          0.0001 \
	wolfeGradient        0.9 \
	fdTest               no
lcao-params -1 1e-06 0.001
pcm-variant GLSSA13
spintype no-spin
subspace-rotation-factor 1 yes
symmetries automatic
symmetry-threshold 0.0001
van-der-waals D3



---------- Setting up symmetries ----------

Found 24 point-group symmetries of the bravais lattice
Found 1 space-group symmetries with basis
Applied RMS atom displacement 0 bohrs to make symmetries exact.

---------- Initializing the Grid ----------
R = 
[      28.0058     -14.0029            0  ]
[            0      24.2537            0  ]
[            0            0      37.7946  ]
unit cell volume = 25671.8
G =
[   0.224353    0.12953         -0  ]
[          0   0.259061          0  ]
[          0         -0   0.166246  ]
Minimum fftbox size, Smin = [  128  128  172  ]
Chosen fftbox size, S = [  128  128  180  ]

---------- Initializing tighter grid for wavefunction operations ----------
R = 
[      28.0058     -14.0029            0  ]
[            0      24.2537            0  ]
[            0            0      37.7946  ]
unit cell volume = 25671.8
G =
[   0.224353    0.12953         -0  ]
[          0   0.259061          0  ]
[          0         -0   0.166246  ]
Minimum fftbox size, Smin = [  116  116  156  ]
Chosen fftbox size, S = [  120  120  160  ]

---------- Exchange Correlation functional ----------
Initalized PBE GGA exchange.
Initalized PBE GGA correlation.

---------- Setting up pseudopotentials ----------
Width of ionic core gaussian charges (only for fluid interactions / plotting) set to 0.397384

Reading pseudopotential file '/home/danielkim/jdftx_install/build/pseudopotentials/GBRV/s_pbe.uspp':
  Title: S.  Created by USPP 7.3.6 on 1-4-15
  Reference state energy: -11.898476.  6 valence electrons in orbitals:
    |300>  occupation: 2  eigenvalue: -0.634167
    |310>  occupation: 4  eigenvalue: -0.257568
  lMax: 2  lLocal: 3  QijEcut: 6
  6 projectors sampled on a log grid with 635 points:
    l: 0  eig: -0.634161  rCut: 1.5
    l: 0  eig: 1.500000  rCut: 1.5
    l: 1  eig: -0.257567  rCut: 1.5
    l: 1  eig: 1.500000  rCut: 1.5
    l: 2  eig: -1.000000  rCut: 1.5
    l: 2  eig: 1.500000  rCut: 1.5
  Partial core density with radius 1.15
  Transforming core density to a uniform radial grid of dG=0.02 with 1625 points.
  Transforming local potential to a uniform radial grid of dG=0.02 with 1625 points.
  Transforming nonlocal projectors to a uniform radial grid of dG=0.02 with 432 points.
  Transforming density augmentations to a uniform radial grid of dG=0.02 with 1625 points.
  Transforming atomic orbitals to a uniform radial grid of dG=0.02 with 432 points.
  Core radius for overlap checks: 1.50 bohrs.

Reading pseudopotential file '/home/danielkim/jdftx_install/build/pseudopotentials/GBRV/na_pbe.uspp':
  Title: Na.  Created by USPP 7.3.6 on 23-9-15
  Reference state energy: -47.625620.  9 valence electrons in orbitals:
    |200>  occupation: 2  eigenvalue: -2.085638
    |210>  occupation: 6  eigenvalue: -1.053708
    |300>  occupation: 1  eigenvalue: -0.100838
  lMax: 2  lLocal: 0  QijEcut: 6
  5 projectors sampled on a log grid with 657 points:
    l: 0  eig: -2.085640  rCut: 1.37
    l: 0  eig: -0.100839  rCut: 1.37
    l: 1  eig: -1.053708  rCut: 1.47
    l: 1  eig: 0.500000  rCut: 1.47
    l: 2  eig: 0.750000  rCut: 2
  Transforming local potential to a uniform radial grid of dG=0.02 with 1625 points.
  Transforming nonlocal projectors to a uniform radial grid of dG=0.02 with 432 points.
  Transforming density augmentations to a uniform radial grid of dG=0.02 with 1625 points.
  Transforming atomic orbitals to a uniform radial grid of dG=0.02 with 432 points.
  Core radius for overlap checks: 2.00 bohrs.

Initialized 2 species with 8 total atoms.

Folded 1 k-points by 1x1x1 to 1 k-points.

---------- Setting up k-points, bands, fillings ----------
No reducable k-points. 
Computing the number of bands and number of electrons
Calculating initial fillings.
nElectrons:  54.000000   nBands: 27   nStates: 1

----- Setting up reduced wavefunction bases (one per k-point) -----
average nbasis = 109673.000 , ideal nbasis = 109671.883

---------- Setting up coulomb interaction ----------
Fluid mode embedding: using embedded box, but periodic Coulomb kernel.
(Fluid response is responsible for (approximate) separation between periodic images.)
Setting up double-sized grid for truncated Coulomb potentials:
R = 
[      56.0116     -28.0058            0  ]
[            0      48.5075            0  ]
[            0            0      75.5892  ]
unit cell volume = 205374
G =
[   0.112177  0.0647651         -0  ]
[          0    0.12953          0  ]
[          0         -0  0.0831228  ]
Chosen fftbox size, S = [  256  256  360  ]
Integer grid location selected as the embedding center:
   Grid: [  49  63  110  ]
   Lattice: [  0.384302  0.488566  0.611927  ]
   Cartesian: [  3.92133  11.8496  23.1275  ]
Constructing Wigner-Seitz cell: 8 faces (6 quadrilaterals, 2 hexagons)
Range-separation parameter for embedded mesh potentials due to point charges: 0.590105 bohrs.

Initializing DFT-D3 calculator:
	Parameters set for gga-PBE functional
	s6:  1.000  s_r6:  1.217
	s8:  0.722  s_r8:  1.000
	Per-atom parameters loaded for:
	 S:  sqrtQ[a0]:  4.041  Rcov[a0]:  1.928  CN: [ 0.00 0.99 1.99 ]
	Na:  sqrtQ[a0]:  6.586  Rcov[a0]:  2.646  CN: [ 0.00 0.97 ]

---------- Setting up ewald sum ----------
Optimum gaussian width for ewald sums = 16.643468 bohr.
Real space sum over 1089 unit cells with max indices [  5  5  4  ]
Reciprocal space sum over 3825 terms with max indices [  7  7  8  ]

Computing DFT-D3 correction:
# coordination-number S 2.024 3.464 2.947 2.946 3.463 2.024
# coordination-number Na 3.875 3.880
# diagonal-C6 S 125.88 125.81 125.81 125.81 125.81 125.88
# diagonal-C6 Na 186.11 186.11
EvdW_6 =   -0.001208
EvdW_8 =   -0.007715

---------- Allocating electronic variables ----------
Initializing wave functions:  linear combination of atomic orbitals
S pseudo-atom occupations:   s ( 2 )  p ( 4 )
Na pseudo-atom occupations:   s ( 2 1 )  p ( 6 )
	FillingsUpdate:  mu: -0.164955365  nElectrons: 54.000000
LCAOMinimize: Iter:   0  Etot: -156.5684252419385700  |grad|_K:  2.735e-02  alpha:  1.000e+00
	FillingsUpdate:  mu: -0.148280260  nElectrons: 54.000000
LCAOMinimize: Iter:   1  Etot: -156.7063077388863519  |grad|_K:  7.073e-03  alpha:  3.525e-01  linmin:  3.116e-01  cgtest: -7.197e-01  t[s]:     50.03
	FillingsUpdate:  mu: -0.152264760  nElectrons: 54.000000
LCAOMinimize: Iter:   2  Etot: -156.7091604733875556  |grad|_K:  7.228e-03  alpha:  3.169e-01  linmin:  3.447e-03  cgtest:  8.448e-01  t[s]:     64.73
	FillingsUpdate:  mu: -0.166441425  nElectrons: 54.000000
LCAOMinimize: Iter:   3  Etot: -156.7191345881315101  |grad|_K:  7.707e-04  alpha:  3.123e-01  linmin:  3.211e-02  cgtest: -2.577e-01  t[s]:     79.23
LCAOMinimize: None of the convergence criteria satisfied after 3 iterations.
----- createFluidSolver() ----- (Fluid-side solver setup)
   Initializing fluid molecule 'Glyme'
     Net charge: 0   dipole magnitude: 0
     Initializing spherical shell mfKernel with radius 0 Bohr
     deltaS corrections:

Correction to mu due to finite nuclear width = -0.000260884
   Cavity determined by nc: 8.36e-05 and sigma: 0.6
   Effective cavity tension: -8.03e-06 Eh/bohr^2 to account for cavitation and dispersion.


---- Citations for features of the code used in this run ----

   Software package:
      R. Sundararaman, K. Letchworth-Weaver, K.A. Schwarz, D. Gunceler, Y. Ozhabes and T.A. Arias, 'JDFTx: software for joint density-functional theory', SoftwareX 6, 278 (2017)

   gga-PBE exchange-correlation functional:
      J.P. Perdew, K. Burke and M. Ernzerhof, Phys. Rev. Lett. 77, 3865 (1996)

   Pseudopotentials:
      KF Garrity, JW Bennett, KM Rabe and D Vanderbilt, Comput. Mater. Sci. 81, 446 (2014)

   Truncated Coulomb potentials:
      R. Sundararaman and T.A. Arias, Phys. Rev. B 87, 165122 (2013)

   DFT-D3 dispersion correction:
      S. Grimme, J. Antony, S. Ehrlich and H. Krieg, J. Chem. Phys. 132, 154104 (2010)

   Linear/nonlinear dielectric/ionic fluid model with effective cavity tension:
      D. Gunceler, K. Letchworth-Weaver, R. Sundararaman, K.A. Schwarz and T.A. Arias, Modelling Simul. Mater. Sci. Eng. 21, 074005 (2013)

This list may not be complete. Please suggest additional citations or
report any other bugs at https://github.com/shankar1729/jdftx/issues

Initialization completed successfully at t[s]:     80.61


Computing DFT-D3 correction:
# coordination-number S 2.024 3.464 2.947 2.946 3.463 2.024
# coordination-number Na 3.875 3.880
# diagonal-C6 S 125.88 125.81 125.81 125.81 125.81 125.88
# diagonal-C6 Na 186.11 186.11
EvdW_6 =   -0.001208
EvdW_8 =   -0.007715
Fluid solver invoked on fresh (random / LCAO) wavefunctions
Running a vacuum solve first:

-------- Initial electronic minimization -----------
Will mix electronic density at each iteration.
SCF: Cycle:  0   Etot: -156.915885882371441   dEtot: -1.968e-01   |Residual|: 2.743e-01   |deigs|: 1.230e-02  t[s]:    105.19
SCF: Cycle:  1   Etot: -157.051122638566824   dEtot: -1.352e-01   |Residual|: 1.407e-01   |deigs|: 1.583e-02  t[s]:    123.95
SCF: Cycle:  2   Etot: -157.100104348505795   dEtot: -4.898e-02   |Residual|: 5.628e-02   |deigs|: 1.500e-02  t[s]:    142.90
SCF: Cycle:  3   Etot: -157.103905689423073   dEtot: -3.801e-03   |Residual|: 3.193e-02   |deigs|: 5.117e-03  t[s]:    161.36
SCF: Cycle:  4   Etot: -157.106480209322626   dEtot: -2.575e-03   |Residual|: 1.594e-02   |deigs|: 6.370e-03  t[s]:    179.73
SCF: Cycle:  5   Etot: -157.107135807694448   dEtot: -6.556e-04   |Residual|: 1.293e-02   |deigs|: 1.699e-03  t[s]:    198.03
SCF: Cycle:  6   Etot: -157.107234419746902   dEtot: -9.861e-05   |Residual|: 8.497e-03   |deigs|: 4.015e-03  t[s]:    216.34
SCF: Cycle:  7   Etot: -157.107208108938352   dEtot: +2.631e-05   |Residual|: 9.046e-03   |deigs|: 7.061e-04  t[s]:    233.85
SCF: Cycle:  8   Etot: -157.107481892217862   dEtot: -2.738e-04   |Residual|: 3.802e-03   |deigs|: 3.308e-03  t[s]:    251.77
SCF: Cycle:  9   Etot: -157.107474226661083   dEtot: +7.666e-06   |Residual|: 4.200e-03   |deigs|: 1.408e-03  t[s]:    269.16
SCF: Cycle: 10   Etot: -157.107504491372509   dEtot: -3.026e-05   |Residual|: 3.099e-03   |deigs|: 1.398e-03  t[s]:    286.55
SCF: Cycle: 11   Etot: -157.107503221994818   dEtot: +1.269e-06   |Residual|: 3.018e-03   |deigs|: 4.720e-04  t[s]:    304.12
SCF: Cycle: 12   Etot: -157.107526315954715   dEtot: -2.309e-05   |Residual|: 3.110e-03   |deigs|: 2.504e-04  t[s]:    322.55
SCF: Cycle: 13   Etot: -157.107538946100846   dEtot: -1.263e-05   |Residual|: 2.003e-03   |deigs|: 5.327e-04  t[s]:    339.91
SCF: Cycle: 14   Etot: -157.107547179745382   dEtot: -8.234e-06   |Residual|: 1.389e-03   |deigs|: 1.691e-04  t[s]:    354.59
SCF: Cycle: 15   Etot: -157.107556188854915   dEtot: -9.009e-06   |Residual|: 8.456e-04   |deigs|: 2.577e-04  t[s]:    369.10
SCF: Cycle: 16   Etot: -157.107560259574285   dEtot: -4.071e-06   |Residual|: 6.896e-04   |deigs|: 1.511e-04  t[s]:    383.82
SCF: Cycle: 17   Etot: -157.107561586986975   dEtot: -1.327e-06   |Residual|: 6.443e-04   |deigs|: 1.372e-04  t[s]:    398.35
SCF: Cycle: 18   Etot: -157.107562444651336   dEtot: -8.577e-07   |Residual|: 5.044e-04   |deigs|: 1.792e-04  t[s]:    412.71
SCF: Cycle: 19   Etot: -157.107561546490274   dEtot: +8.982e-07   |Residual|: 6.595e-04   |deigs|: 1.259e-04  t[s]:    427.29
SCF: Cycle: 20   Etot: -157.107562470803913   dEtot: -9.243e-07   |Residual|: 3.958e-04   |deigs|: 2.246e-04  t[s]:    441.82
SCF: Cycle: 21   Etot: -157.107562807076533   dEtot: -3.363e-07   |Residual|: 3.104e-04   |deigs|: 2.571e-05  t[s]:    456.46
SCF: Cycle: 22   Etot: -157.107562864066949   dEtot: -5.699e-08   |Residual|: 2.732e-04   |deigs|: 9.858e-05  t[s]:    471.13
SCF: Cycle: 23   Etot: -157.107563079324962   dEtot: -2.153e-07   |Residual|: 1.448e-04   |deigs|: 6.712e-05  t[s]:    489.58
SCF: Cycle: 24   Etot: -157.107563374083270   dEtot: -2.948e-07   |Residual|: 1.152e-04   |deigs|: 2.915e-05  t[s]:    504.31
SCF: Cycle: 25   Etot: -157.107563544729629   dEtot: -1.706e-07   |Residual|: 1.040e-04   |deigs|: 2.619e-05  t[s]:    518.80
SCF: Cycle: 26   Etot: -157.107563646535255   dEtot: -1.018e-07   |Residual|: 9.928e-05   |deigs|: 6.774e-05  t[s]:    533.33
SCF: Cycle: 27   Etot: -157.107563704557720   dEtot: -5.802e-08   |Residual|: 7.264e-05   |deigs|: 1.921e-05  t[s]:    548.12
SCF: Cycle: 28   Etot: -157.107563730575208   dEtot: -2.602e-08   |Residual|: 7.979e-05   |deigs|: 1.081e-05  t[s]:    562.58
SCF: Cycle: 29   Etot: -157.107563775127687   dEtot: -4.455e-08   |Residual|: 3.078e-05   |deigs|: 8.528e-06  t[s]:    580.94
SCF: Cycle: 30   Etot: -157.107563787174115   dEtot: -1.205e-08   |Residual|: 2.947e-05   |deigs|: 4.195e-06  t[s]:    595.54
SCF: Cycle: 31   Etot: -157.107563799620380   dEtot: -1.245e-08   |Residual|: 1.909e-05   |deigs|: 4.022e-06  t[s]:    614.06
SCF: Cycle: 32   Etot: -157.107563803146803   dEtot: -3.526e-09   |Residual|: 1.664e-05   |deigs|: 1.138e-05  t[s]:    628.94
SCF: Cycle: 33   Etot: -157.107563810685775   dEtot: -7.539e-09   |Residual|: 8.023e-06   |deigs|: 3.228e-06  t[s]:    648.51
SCF: Converged (|Delta E|<1.000000e-08 for 2 iters).

Setting wave functions to eigenvectors of Hamiltonian
Vacuum energy after initial minimize, Etot = -157.107563810685775


-------- Electronic minimization -----------
Will mix electronic density at each iteration.
	Linear fluid (dielectric constant: 7.2) occupying 0.986719 of unit cell:	Completed after 9 iterations at t[s]:    684.40
	Linear fluid (dielectric constant: 7.2) occupying 0.986934 of unit cell:	Completed after 7 iterations at t[s]:    722.95
SCF: Cycle:  0   Etot: -157.141575176389694   dEtot: -6.965e-03   |Residual|: 1.597e-02   |deigs|: 2.442e-04  t[s]:    725.84
	Linear fluid (dielectric constant: 7.2) occupying 0.986721 of unit cell:	Completed after 7 iterations at t[s]:    742.06
	Linear fluid (dielectric constant: 7.2) occupying 0.987018 of unit cell:	Completed after 7 iterations at t[s]:    778.21
SCF: Cycle:  1   Etot: -157.142779229720617   dEtot: -1.204e-03   |Residual|: 1.170e-02   |deigs|: 1.098e-03  t[s]:    780.92
	Linear fluid (dielectric constant: 7.2) occupying 0.986628 of unit cell:	Completed after 7 iterations at t[s]:    797.66
	Linear fluid (dielectric constant: 7.2) occupying 0.987069 of unit cell:	Completed after 7 iterations at t[s]:    834.52
SCF: Cycle:  2   Etot: -157.143819688799454   dEtot: -1.040e-03   |Residual|: 7.657e-03   |deigs|: 2.436e-03  t[s]:    837.30
	Linear fluid (dielectric constant: 7.2) occupying 0.986704 of unit cell:	Completed after 7 iterations at t[s]:    854.47
	Linear fluid (dielectric constant: 7.2) occupying 0.987078 of unit cell:	Completed after 7 iterations at t[s]:    890.29
SCF: Cycle:  3   Etot: -157.143897174277612   dEtot: -7.749e-05   |Residual|: 6.964e-03   |deigs|: 1.425e-03  t[s]:    893.10
	Linear fluid (dielectric constant: 7.2) occupying 0.986643 of unit cell:	Completed after 6 iterations at t[s]:    908.08
	Linear fluid (dielectric constant: 7.2) occupying 0.987134 of unit cell:	Completed after 7 iterations at t[s]:    945.70
SCF: Cycle:  4   Etot: -157.144724085145583   dEtot: -8.269e-04   |Residual|: 6.791e-03   |deigs|: 1.840e-03  t[s]:    948.48
	Linear fluid (dielectric constant: 7.2) occupying 0.986643 of unit cell:	Completed after 6 iterations at t[s]:    963.24
	Linear fluid (dielectric constant: 7.2) occupying 0.987138 of unit cell:	Completed after 7 iterations at t[s]:    995.60
SCF: Cycle:  5   Etot: -157.144787395273170   dEtot: -6.331e-05   |Residual|: 6.413e-03   |deigs|: 9.275e-05  t[s]:    998.39
	Linear fluid (dielectric constant: 7.2) occupying 0.986633 of unit cell:	Completed after 7 iterations at t[s]:   1015.31
	Linear fluid (dielectric constant: 7.2) occupying 0.987134 of unit cell:	Completed after 7 iterations at t[s]:   1048.03
SCF: Cycle:  6   Etot: -157.144705898435660   dEtot: +8.150e-05   |Residual|: 7.140e-03   |deigs|: 3.250e-04  t[s]:   1050.78
	Linear fluid (dielectric constant: 7.2) occupying 0.986911 of unit cell:	Completed after 6 iterations at t[s]:   1066.11
	Linear fluid (dielectric constant: 7.2) occupying 0.987153 of unit cell:	Completed after 6 iterations at t[s]:   1101.94
SCF: Cycle:  7   Etot: -157.145836258105049   dEtot: -1.130e-03   |Residual|: 4.528e-03   |deigs|: 6.611e-03  t[s]:   1104.73
	Linear fluid (dielectric constant: 7.2) occupying 0.986969 of unit cell:	Completed after 5 iterations at t[s]:   1118.34
	Linear fluid (dielectric constant: 7.2) occupying 0.987151 of unit cell:	Completed after 6 iterations at t[s]:   1154.32
SCF: Cycle:  8   Etot: -157.145916607966598   dEtot: -8.035e-05   |Residual|: 4.190e-03   |deigs|: 5.992e-04  t[s]:   1157.26
	Linear fluid (dielectric constant: 7.2) occupying 0.987008 of unit cell:	Completed after 5 iterations at t[s]:   1170.63
	Linear fluid (dielectric constant: 7.2) occupying 0.987150 of unit cell:	Completed after 6 iterations at t[s]:   1201.94
SCF: Cycle:  9   Etot: -157.145965242836667   dEtot: -4.863e-05   |Residual|: 1.776e-03   |deigs|: 4.212e-04  t[s]:   1204.70
	Linear fluid (dielectric constant: 7.2) occupying 0.987130 of unit cell:	Completed after 5 iterations at t[s]:   1218.53
	Linear fluid (dielectric constant: 7.2) occupying 0.987127 of unit cell:	Completed after 6 iterations at t[s]:   1257.14
SCF: Cycle: 10   Etot: -157.145911805969462   dEtot: +5.344e-05   |Residual|: 6.616e-03   |deigs|: 1.425e-03  t[s]:   1259.92
	Linear fluid (dielectric constant: 7.2) occupying 0.987153 of unit cell:	Completed after 4 iterations at t[s]:   1273.17
	Linear fluid (dielectric constant: 7.2) occupying 0.987124 of unit cell:	Completed after 5 iterations at t[s]:   1307.40
SCF: Cycle: 11   Etot: -157.145950908196880   dEtot: -3.910e-05   |Residual|: 6.146e-03   |deigs|: 7.011e-04  t[s]:   1310.24
	Linear fluid (dielectric constant: 7.2) occupying 0.987159 of unit cell:	Completed after 5 iterations at t[s]:   1324.16
	Linear fluid (dielectric constant: 7.2) occupying 0.987115 of unit cell:	Completed after 5 iterations at t[s]:   1358.95
SCF: Cycle: 12   Etot: -157.146059343148551   dEtot: -1.084e-04   |Residual|: 3.081e-03   |deigs|: 1.019e-03  t[s]:   1361.75
	Linear fluid (dielectric constant: 7.2) occupying 0.987062 of unit cell:	Completed after 5 iterations at t[s]:   1375.50
	Linear fluid (dielectric constant: 7.2) occupying 0.987113 of unit cell:	Completed after 5 iterations at t[s]:   1409.61
SCF: Cycle: 13   Etot: -157.146089394054428   dEtot: -3.005e-05   |Residual|: 1.536e-03   |deigs|: 2.579e-04  t[s]:   1412.33
	Linear fluid (dielectric constant: 7.2) occupying 0.987047 of unit cell:	Completed after 5 iterations at t[s]:   1427.11
	Linear fluid (dielectric constant: 7.2) occupying 0.987105 of unit cell:	Completed after 5 iterations at t[s]:   1458.01
SCF: Cycle: 14   Etot: -157.146094710461085   dEtot: -5.316e-06   |Residual|: 1.848e-03   |deigs|: 1.084e-04  t[s]:   1460.80
	Linear fluid (dielectric constant: 7.2) occupying 0.987032 of unit cell:	Completed after 4 iterations at t[s]:   1473.16
	Linear fluid (dielectric constant: 7.2) occupying 0.987094 of unit cell:	Completed after 5 iterations at t[s]:   1507.57
SCF: Cycle: 15   Etot: -157.146119772362795   dEtot: -2.506e-05   |Residual|: 8.260e-04   |deigs|: 7.489e-04  t[s]:   1510.34
	Linear fluid (dielectric constant: 7.2) occupying 0.987015 of unit cell:	Completed after 3 iterations at t[s]:   1521.14
	Linear fluid (dielectric constant: 7.2) occupying 0.987094 of unit cell:	Completed after 3 iterations at t[s]:   1548.05
SCF: Cycle: 16   Etot: -157.146121941248055   dEtot: -2.169e-06   |Residual|: 1.092e-03   |deigs|: 4.627e-04  t[s]:   1550.91
	Linear fluid (dielectric constant: 7.2) occupying 0.987015 of unit cell:	Completed after 5 iterations at t[s]:   1565.08
	Linear fluid (dielectric constant: 7.2) occupying 0.987096 of unit cell:	Completed after 5 iterations at t[s]:   1600.43
SCF: Cycle: 17   Etot: -157.146118152013599   dEtot: +3.789e-06   |Residual|: 1.277e-03   |deigs|: 5.955e-04  t[s]:   1603.36
	Linear fluid (dielectric constant: 7.2) occupying 0.987028 of unit cell:	Completed after 4 iterations at t[s]:   1616.37
	Linear fluid (dielectric constant: 7.2) occupying 0.987095 of unit cell:	Completed after 4 iterations at t[s]:   1645.85
SCF: Cycle: 18   Etot: -157.146122466836800   dEtot: -4.315e-06   |Residual|: 5.389e-04   |deigs|: 8.816e-05  t[s]:   1648.76
	Linear fluid (dielectric constant: 7.2) occupying 0.987041 of unit cell:	Completed after 3 iterations at t[s]:   1659.66
	Linear fluid (dielectric constant: 7.2) occupying 0.987094 of unit cell:	Completed after 3 iterations at t[s]:   1687.14
SCF: Cycle: 19   Etot: -157.146124581189383   dEtot: -2.114e-06   |Residual|: 2.838e-04   |deigs|: 8.710e-05  t[s]:   1690.00
	Linear fluid (dielectric constant: 7.2) occupying 0.987065 of unit cell:	Completed after 4 iterations at t[s]:   1702.35
	Linear fluid (dielectric constant: 7.2) occupying 0.987095 of unit cell:	Completed after 4 iterations at t[s]:   1731.06
SCF: Cycle: 20   Etot: -157.146123839995255   dEtot: +7.412e-07   |Residual|: 2.314e-04   |deigs|: 1.008e-04  t[s]:   1733.86
	Linear fluid (dielectric constant: 7.2) occupying 0.987074 of unit cell:	Completed after 4 iterations at t[s]:   1746.65
	Linear fluid (dielectric constant: 7.2) occupying 0.987096 of unit cell:	Completed after 4 iterations at t[s]:   1775.15
SCF: Cycle: 21   Etot: -157.146124520998882   dEtot: -6.810e-07   |Residual|: 2.210e-04   |deigs|: 5.231e-05  t[s]:   1777.96
	Linear fluid (dielectric constant: 7.2) occupying 0.987089 of unit cell:	Completed after 2 iterations at t[s]:   1787.22
	Linear fluid (dielectric constant: 7.2) occupying 0.987098 of unit cell:	Completed after 3 iterations at t[s]:   1818.40
SCF: Cycle: 22   Etot: -157.146126220826261   dEtot: -1.700e-06   |Residual|: 1.839e-04   |deigs|: 2.513e-04  t[s]:   1821.21
	Linear fluid (dielectric constant: 7.2) occupying 0.987092 of unit cell:	Completed after 2 iterations at t[s]:   1830.63
	Linear fluid (dielectric constant: 7.2) occupying 0.987098 of unit cell:	Completed after 2 iterations at t[s]:   1856.89
SCF: Cycle: 23   Etot: -157.146126490519976   dEtot: -2.697e-07   |Residual|: 1.559e-04   |deigs|: 1.926e-05  t[s]:   1860.08
	Linear fluid (dielectric constant: 7.2) occupying 0.987092 of unit cell:	Completed after 2 iterations at t[s]:   1869.43
	Linear fluid (dielectric constant: 7.2) occupying 0.987099 of unit cell:	Completed after 2 iterations at t[s]:   1894.97
SCF: Cycle: 24   Etot: -157.146126778656310   dEtot: -2.881e-07   |Residual|: 1.561e-04   |deigs|: 2.100e-05  t[s]:   1897.84
	Linear fluid (dielectric constant: 7.2) occupying 0.987092 of unit cell:	Completed after 2 iterations at t[s]:   1907.01
	Linear fluid (dielectric constant: 7.2) occupying 0.987099 of unit cell:	Completed after 1 iterations at t[s]:   1931.29
SCF: Cycle: 25   Etot: -157.146127018027357   dEtot: -2.394e-07   |Residual|: 1.051e-04   |deigs|: 7.784e-05  t[s]:   1933.99
	Linear fluid (dielectric constant: 7.2) occupying 0.987092 of unit cell:	Completed after 2 iterations at t[s]:   1943.65
	Linear fluid (dielectric constant: 7.2) occupying 0.987100 of unit cell:	Completed after 1 iterations at t[s]:   1967.59
SCF: Cycle: 26   Etot: -157.146127027685679   dEtot: -9.658e-09   |Residual|: 1.378e-04   |deigs|: 6.378e-05  t[s]:   1970.09
	Linear fluid (dielectric constant: 7.2) occupying 0.987092 of unit cell:	Completed after 1 iterations at t[s]:   1978.20
	Linear fluid (dielectric constant: 7.2) occupying 0.987100 of unit cell:	Completed after 1 iterations at t[s]:   2007.04
SCF: Cycle: 27   Etot: -157.146127169559890   dEtot: -1.419e-07   |Residual|: 6.888e-05   |deigs|: 2.788e-05  t[s]:   2009.73
	Linear fluid (dielectric constant: 7.2) occupying 0.987094 of unit cell:	Completed after 1 iterations at t[s]:   2017.18
	Linear fluid (dielectric constant: 7.2) occupying 0.987099 of unit cell:	Completed after 1 iterations at t[s]:   2044.87
SCF: Cycle: 28   Etot: -157.146127229269638   dEtot: -5.971e-08   |Residual|: 9.857e-05   |deigs|: 3.782e-05  t[s]:   2047.70
	Linear fluid (dielectric constant: 7.2) occupying 0.987096 of unit cell:	Completed after 1 iterations at t[s]:   2055.20
	Linear fluid (dielectric constant: 7.2) occupying 0.987099 of unit cell:	Completed after 1 iterations at t[s]:   2079.17
SCF: Cycle: 29   Etot: -157.146127262807340   dEtot: -3.354e-08   |Residual|: 4.514e-05   |deigs|: 1.138e-05  t[s]:   2082.11
	Linear fluid (dielectric constant: 7.2) occupying 0.987098 of unit cell:	Completed after 0 iterations at t[s]:   2088.03
	Linear fluid (dielectric constant: 7.2) occupying 0.987099 of unit cell:	Completed after 0 iterations at t[s]:   2110.34
SCF: Cycle: 30   Etot: -157.146127293845041   dEtot: -3.104e-08   |Residual|: 3.552e-05   |deigs|: 1.509e-05  t[s]:   2113.10
	Linear fluid (dielectric constant: 7.2) occupying 0.987099 of unit cell:	Completed after 1 iterations at t[s]:   2120.48
	Linear fluid (dielectric constant: 7.2) occupying 0.987099 of unit cell:	Completed after 0 iterations at t[s]:   2142.24
SCF: Cycle: 31   Etot: -157.146127316998417   dEtot: -2.315e-08   |Residual|: 4.388e-05   |deigs|: 3.551e-05  t[s]:   2145.16
	Linear fluid (dielectric constant: 7.2) occupying 0.987098 of unit cell:	Completed after 0 iterations at t[s]:   2151.18
	Linear fluid (dielectric constant: 7.2) occupying 0.987099 of unit cell:	Completed after 0 iterations at t[s]:   2173.63
SCF: Cycle: 32   Etot: -157.146127323023961   dEtot: -6.026e-09   |Residual|: 2.202e-05   |deigs|: 6.235e-06  t[s]:   2176.62
	Linear fluid (dielectric constant: 7.2) occupying 0.987098 of unit cell:	Completed after 0 iterations at t[s]:   2182.60
	Linear fluid (dielectric constant: 7.2) occupying 0.987100 of unit cell:	Completed after 0 iterations at t[s]:   2208.74
SCF: Cycle: 33   Etot: -157.146127335619610   dEtot: -1.260e-08   |Residual|: 1.490e-05   |deigs|: 5.658e-06  t[s]:   2211.66
	Linear fluid (dielectric constant: 7.2) occupying 0.987099 of unit cell:	Completed after 0 iterations at t[s]:   2216.29
	Linear fluid (dielectric constant: 7.2) occupying 0.987100 of unit cell:	Completed after 0 iterations at t[s]:   2236.89
SCF: Cycle: 34   Etot: -157.146127341939206   dEtot: -6.320e-09   |Residual|: 1.101e-05   |deigs|: 1.677e-05  t[s]:   2239.68
	Linear fluid (dielectric constant: 7.2) occupying 0.987099 of unit cell:	Completed after 0 iterations at t[s]:   2244.29
	Linear fluid (dielectric constant: 7.2) occupying 0.987100 of unit cell:	Completed after 0 iterations at t[s]:   2265.21
SCF: Cycle: 35   Etot: -157.146127346566573   dEtot: -4.627e-09   |Residual|: 9.092e-06   |deigs|: 5.970e-08  t[s]:   2268.08
SCF: Converged (|Delta E|<1.000000e-08 for 2 iters).

Setting wave functions to eigenvectors of Hamiltonian
Single-point solvation energy estimate, DeltaEtot = -0.038563535880797

Computing DFT-D3 correction:
# coordination-number S 2.024 3.464 2.947 2.946 3.463 2.024
# coordination-number Na 3.875 3.880
# diagonal-C6 S 125.88 125.81 125.81 125.81 125.81 125.88
# diagonal-C6 Na 186.11 186.11
EvdW_6 =   -0.001208
EvdW_8 =   -0.007715

# Ionic positions in cartesian coordinates:
ion S   3.921331479750000  11.849557634189999  23.127532414739999 1
ion S   7.567480476899996  11.351192369400000  23.945456691719997 1
ion S   8.668781105760003   7.743174344189998  23.234262475409999 1
ion S   6.502139520210000   7.687128731849999  29.705151530609999 1
ion S   7.556913106740001  11.318358310649998  29.045040495659997 1
ion S  11.194673592419999  11.852526400019999  29.882693553839999 1
ion Na   3.832890226020000   7.182347833710000  25.239470096249999 1
ion Na  11.349661688099999   7.228066071600000  27.689512600169998 1

# Forces in Cartesian coordinates:
force S  -0.001059339913985   0.004397371004658  -0.001175427373036 1
force S   0.003215253533197  -0.001522870513746  -0.001629719123592 1
force S  -0.000137084791928   0.004354157165397  -0.000949995010959 1
force S   0.000151713521872   0.004376496213301   0.001136562337103 1
force S  -0.003093242357195  -0.001599619989451   0.001794622233059 1
force S   0.000762106234025   0.004373734594793   0.001472796118578 1
force Na  -0.007079440054108  -0.007167960421341  -0.000202866053002 1
force Na   0.007188506139168  -0.007348952215470  -0.000183177303281 1

# Energy components:
   A_diel =       -0.0518236654079654
   Eewald =      146.4436344602262920
       EH =      275.8292142265701727
     Eloc =     -457.1998943055788232
      Enl =     -133.1813058378395169
     EvdW =       -0.0089227127969592
      Exc =      -39.6131138913757752
 Exc_core =       10.6063786150839778
       KE =       40.0297057645519914
-------------------------------------
     Etot =     -157.1461273465665727

IonicMinimize: Iter:   0  Etot: -157.146127346566573  |grad|_K:  3.663e-03  alpha:  1.000e+00

#--- Lowdin population analysis ---
# oxidation-state S -0.439 +0.374 -0.464 -0.464 +0.373 -0.439
# oxidation-state Na +0.792 +0.792


Computing DFT-D3 correction:
# coordination-number S 2.022 3.453 2.944 2.942 3.452 2.022
# coordination-number Na 3.858 3.863
# diagonal-C6 S 125.89 125.81 125.81 125.81 125.81 125.89
# diagonal-C6 Na 186.11 186.11
EvdW_6 =   -0.001210
EvdW_8 =   -0.007740

-------- Electronic minimization -----------
Will mix electronic density at each iteration.
	Linear fluid (dielectric constant: 7.2) occupying 0.987095 of unit cell:	Completed after 4 iterations at t[s]:   2304.63
	Linear fluid (dielectric constant: 7.2) occupying 0.987088 of unit cell:	Completed after 2 iterations at t[s]:   2334.77
SCF: Cycle:  0   Etot: -157.146428191071294   dEtot: -1.773e-05   |Residual|: 1.720e-03   |deigs|: 6.451e-07  t[s]:   2337.59
	Linear fluid (dielectric constant: 7.2) occupying 0.987101 of unit cell:	Completed after 2 iterations at t[s]:   2346.44
	Linear fluid (dielectric constant: 7.2) occupying 0.987090 of unit cell:	Completed after 2 iterations at t[s]:   2371.82
SCF: Cycle:  1   Etot: -157.146431696204019   dEtot: -3.505e-06   |Residual|: 9.516e-04   |deigs|: 5.664e-05  t[s]:   2374.58
	Linear fluid (dielectric constant: 7.2) occupying 0.987107 of unit cell:	Completed after 2 iterations at t[s]:   2383.59
	Linear fluid (dielectric constant: 7.2) occupying 0.987090 of unit cell:	Completed after 2 iterations at t[s]:   2408.46
SCF: Cycle:  2   Etot: -157.146433648719352   dEtot: -1.953e-06   |Residual|: 2.891e-04   |deigs|: 5.378e-05  t[s]:   2411.23
	Linear fluid (dielectric constant: 7.2) occupying 0.987102 of unit cell:	Completed after 1 iterations at t[s]:   2418.58
	Linear fluid (dielectric constant: 7.2) occupying 0.987092 of unit cell:	Completed after 1 iterations at t[s]:   2442.43
SCF: Cycle:  3   Etot: -157.146434008110845   dEtot: -3.594e-07   |Residual|: 1.729e-04   |deigs|: 2.718e-05  t[s]:   2445.18
	Linear fluid (dielectric constant: 7.2) occupying 0.987097 of unit cell:	Completed after 1 iterations at t[s]:   2452.50
	Linear fluid (dielectric constant: 7.2) occupying 0.987092 of unit cell:	Completed after 0 iterations at t[s]:   2474.67
SCF: Cycle:  4   Etot: -157.146434117204194   dEtot: -1.091e-07   |Residual|: 1.104e-04   |deigs|: 2.890e-05  t[s]:   2477.68
	Linear fluid (dielectric constant: 7.2) occupying 0.987096 of unit cell:	Completed after 0 iterations at t[s]:   2483.40
	Linear fluid (dielectric constant: 7.2) occupying 0.987093 of unit cell:	Completed after 0 iterations at t[s]:   2505.44
SCF: Cycle:  5   Etot: -157.146434160348889   dEtot: -4.314e-08   |Residual|: 4.659e-05   |deigs|: 8.878e-06  t[s]:   2508.21
	Linear fluid (dielectric constant: 7.2) occupying 0.987093 of unit cell:	Completed after 0 iterations at t[s]:   2514.08
	Linear fluid (dielectric constant: 7.2) occupying 0.987092 of unit cell:	Completed after 0 iterations at t[s]:   2536.10
SCF: Cycle:  6   Etot: -157.146434180065000   dEtot: -1.972e-08   |Residual|: 4.701e-05   |deigs|: 6.276e-06  t[s]:   2539.04
	Linear fluid (dielectric constant: 7.2) occupying 0.987089 of unit cell:	Completed after 0 iterations at t[s]:   2545.08
	Linear fluid (dielectric constant: 7.2) occupying 0.987092 of unit cell:	Completed after 0 iterations at t[s]:   2567.31
SCF: Cycle:  7   Etot: -157.146434187413746   dEtot: -7.349e-09   |Residual|: 2.740e-05   |deigs|: 1.079e-05  t[s]:   2570.11
	Linear fluid (dielectric constant: 7.2) occupying 0.987089 of unit cell:	Completed after 0 iterations at t[s]:   2576.08
	Linear fluid (dielectric constant: 7.2) occupying 0.987092 of unit cell:	Completed after 0 iterations at t[s]:   2598.09
SCF: Cycle:  8   Etot: -157.146434195091473   dEtot: -7.678e-09   |Residual|: 1.907e-05   |deigs|: 4.320e-06  t[s]:   2600.97
SCF: Converged (|Delta E|<1.000000e-08 for 2 iters).

Setting wave functions to eigenvectors of Hamiltonian
IonicMinimize: 	Predicted alpha/alphaT>3.000000, increasing alphaT to 3.000000e+00.

Computing DFT-D3 correction:
# coordination-number S 2.017 3.430 2.937 2.936 3.429 2.017
# coordination-number Na 3.824 3.829
# diagonal-C6 S 125.89 125.81 125.81 125.81 125.81 125.89
# diagonal-C6 Na 186.11 186.11
EvdW_6 =   -0.001213
EvdW_8 =   -0.007793

-------- Electronic minimization -----------
Will mix electronic density at each iteration.
	Linear fluid (dielectric constant: 7.2) occupying 0.987092 of unit cell:	Completed after 6 iterations at t[s]:   2626.26
	Linear fluid (dielectric constant: 7.2) occupying 0.986974 of unit cell:	Completed after 6 iterations at t[s]:   2663.84
SCF: Cycle:  0   Etot: -157.144851431455834   dEtot: -1.494e-02   |Residual|: 5.845e-02   |deigs|: 7.409e-04  t[s]:   2666.61
	Linear fluid (dielectric constant: 7.2) occupying 0.987259 of unit cell:	Completed after 10 iterations at t[s]:   2688.27
	Linear fluid (dielectric constant: 7.2) occupying 0.986989 of unit cell:	Completed after 7 iterations at t[s]:   2726.27
SCF: Cycle:  1   Etot: -157.145835256811836   dEtot: -9.838e-04   |Residual|: 2.911e-02   |deigs|: 2.103e-03  t[s]:   2729.07
	Linear fluid (dielectric constant: 7.2) occupying 0.987354 of unit cell:	Completed after 10 iterations at t[s]:   2750.69
	Linear fluid (dielectric constant: 7.2) occupying 0.987043 of unit cell:	Completed after 8 iterations at t[s]:   2791.23
SCF: Cycle:  2   Etot: -157.146650791293723   dEtot: -8.155e-04   |Residual|: 5.922e-03   |deigs|: 1.074e-03  t[s]:   2794.21
	Linear fluid (dielectric constant: 7.2) occupying 0.987314 of unit cell:	Completed after 9 iterations at t[s]:   2814.37
	Linear fluid (dielectric constant: 7.2) occupying 0.987056 of unit cell:	Completed after 7 iterations at t[s]:   2852.65
SCF: Cycle:  3   Etot: -157.146747679770215   dEtot: -9.689e-05   |Residual|: 3.737e-03   |deigs|: 1.117e-03  t[s]:   2855.69
	Linear fluid (dielectric constant: 7.2) occupying 0.987199 of unit cell:	Completed after 6 iterations at t[s]:   2871.35
	Linear fluid (dielectric constant: 7.2) occupying 0.987073 of unit cell:	Completed after 6 iterations at t[s]:   2908.49
SCF: Cycle:  4   Etot: -157.146784285257922   dEtot: -3.661e-05   |Residual|: 1.345e-03   |deigs|: 1.651e-03  t[s]:   2911.42
	Linear fluid (dielectric constant: 7.2) occupying 0.987142 of unit cell:	Completed after 5 iterations at t[s]:   2925.64
	Linear fluid (dielectric constant: 7.2) occupying 0.987078 of unit cell:	Completed after 5 iterations at t[s]:   2959.55
SCF: Cycle:  5   Etot: -157.146827611510787   dEtot: -4.333e-05   |Residual|: 1.244e-03   |deigs|: 6.846e-04  t[s]:   2962.37
	Linear fluid (dielectric constant: 7.2) occupying 0.987052 of unit cell:	Completed after 5 iterations at t[s]:   2976.72
	Linear fluid (dielectric constant: 7.2) occupying 0.987077 of unit cell:	Completed after 5 iterations at t[s]:   3011.19
SCF: Cycle:  6   Etot: -157.146903697557889   dEtot: -7.609e-05   |Residual|: 8.482e-04   |deigs|: 8.182e-04  t[s]:   3014.08
	Linear fluid (dielectric constant: 7.2) occupying 0.987001 of unit cell:	Completed after 4 iterations at t[s]:   3026.34
	Linear fluid (dielectric constant: 7.2) occupying 0.987077 of unit cell:	Completed after 5 iterations at t[s]:   3060.24
SCF: Cycle:  7   Etot: -157.146922940412708   dEtot: -1.924e-05   |Residual|: 7.225e-04   |deigs|: 4.637e-04  t[s]:   3063.17
	Linear fluid (dielectric constant: 7.2) occupying 0.986983 of unit cell:	Completed after 3 iterations at t[s]:   3073.91
	Linear fluid (dielectric constant: 7.2) occupying 0.987076 of unit cell:	Completed after 4 iterations at t[s]:   3106.38
SCF: Cycle:  8   Etot: -157.146939746686854   dEtot: -1.681e-05   |Residual|: 3.918e-04   |deigs|: 2.499e-04  t[s]:   3109.21
	Linear fluid (dielectric constant: 7.2) occupying 0.986963 of unit cell:	Completed after 4 iterations at t[s]:   3121.65
	Linear fluid (dielectric constant: 7.2) occupying 0.987073 of unit cell:	Completed after 3 iterations at t[s]:   3152.27
SCF: Cycle:  9   Etot: -157.146950784570777   dEtot: -1.104e-05   |Residual|: 4.681e-04   |deigs|: 3.139e-04  t[s]:   3155.24
	Linear fluid (dielectric constant: 7.2) occupying 0.986975 of unit cell:	Completed after 3 iterations at t[s]:   3166.03
	Linear fluid (dielectric constant: 7.2) occupying 0.987073 of unit cell:	Completed after 3 iterations at t[s]:   3193.89
SCF: Cycle: 10   Etot: -157.146953187808265   dEtot: -2.403e-06   |Residual|: 2.291e-04   |deigs|: 7.651e-05  t[s]:   3196.78
	Linear fluid (dielectric constant: 7.2) occupying 0.987017 of unit cell:	Completed after 4 iterations at t[s]:   3209.17
	Linear fluid (dielectric constant: 7.2) occupying 0.987074 of unit cell:	Completed after 4 iterations at t[s]:   3242.24
SCF: Cycle: 11   Etot: -157.146955849076505   dEtot: -2.661e-06   |Residual|: 4.280e-04   |deigs|: 1.792e-04  t[s]:   3245.09
	Linear fluid (dielectric constant: 7.2) occupying 0.987018 of unit cell:	Completed after 4 iterations at t[s]:   3257.71
	Linear fluid (dielectric constant: 7.2) occupying 0.987073 of unit cell:	Completed after 4 iterations at t[s]:   3287.53
SCF: Cycle: 12   Etot: -157.146956326514754   dEtot: -4.774e-07   |Residual|: 2.528e-04   |deigs|: 1.887e-05  t[s]:   3290.40
	Linear fluid (dielectric constant: 7.2) occupying 0.987046 of unit cell:	Completed after 3 iterations at t[s]:   3301.53
	Linear fluid (dielectric constant: 7.2) occupying 0.987074 of unit cell:	Completed after 3 iterations at t[s]:   3332.35
SCF: Cycle: 13   Etot: -157.146956937004120   dEtot: -6.105e-07   |Residual|: 3.564e-04   |deigs|: 4.994e-05  t[s]:   3335.05
	Linear fluid (dielectric constant: 7.2) occupying 0.987057 of unit cell:	Completed after 3 iterations at t[s]:   3346.07
	Linear fluid (dielectric constant: 7.2) occupying 0.987075 of unit cell:	Completed after 3 iterations at t[s]:   3373.79
SCF: Cycle: 14   Etot: -157.146957141542600   dEtot: -2.045e-07   |Residual|: 2.701e-04   |deigs|: 1.347e-05  t[s]:   3376.65
	Linear fluid (dielectric constant: 7.2) occupying 0.987067 of unit cell:	Completed after 2 iterations at t[s]:   3386.31
	Linear fluid (dielectric constant: 7.2) occupying 0.987076 of unit cell:	Completed after 2 iterations at t[s]:   3412.37
SCF: Cycle: 15   Etot: -157.146957528499286   dEtot: -3.870e-07   |Residual|: 1.511e-04   |deigs|: 3.451e-05  t[s]:   3415.29
	Linear fluid (dielectric constant: 7.2) occupying 0.987077 of unit cell:	Completed after 2 iterations at t[s]:   3425.04
	Linear fluid (dielectric constant: 7.2) occupying 0.987077 of unit cell:	Completed after 2 iterations at t[s]:   3450.88
SCF: Cycle: 16   Etot: -157.146957701902977   dEtot: -1.734e-07   |Residual|: 2.433e-04   |deigs|: 3.235e-05  t[s]:   3453.80
	Linear fluid (dielectric constant: 7.2) occupying 0.987077 of unit cell:	Completed after 2 iterations at t[s]:   3463.72
	Linear fluid (dielectric constant: 7.2) occupying 0.987077 of unit cell:	Completed after 2 iterations at t[s]:   3489.47
SCF: Cycle: 17   Etot: -157.146957919504928   dEtot: -2.176e-07   |Residual|: 1.402e-04   |deigs|: 3.617e-05  t[s]:   3492.61
	Linear fluid (dielectric constant: 7.2) occupying 0.987077 of unit cell:	Completed after 1 iterations at t[s]:   3500.18
	Linear fluid (dielectric constant: 7.2) occupying 0.987077 of unit cell:	Completed after 1 iterations at t[s]:   3524.75
SCF: Cycle: 18   Etot: -157.146958066368711   dEtot: -1.469e-07   |Residual|: 6.607e-05   |deigs|: 2.270e-05  t[s]:   3527.57
	Linear fluid (dielectric constant: 7.2) occupying 0.987077 of unit cell:	Completed after 0 iterations at t[s]:   3533.23
	Linear fluid (dielectric constant: 7.2) occupying 0.987078 of unit cell:	Completed after 0 iterations at t[s]:   3559.39
SCF: Cycle: 19   Etot: -157.146958190029125   dEtot: -1.237e-07   |Residual|: 4.562e-05   |deigs|: 2.015e-05  t[s]:   3562.14
	Linear fluid (dielectric constant: 7.2) occupying 0.987077 of unit cell:	Completed after 1 iterations at t[s]:   3569.38
	Linear fluid (dielectric constant: 7.2) occupying 0.987078 of unit cell:	Completed after 0 iterations at t[s]:   3596.39
SCF: Cycle: 20   Etot: -157.146958241499760   dEtot: -5.147e-08   |Residual|: 3.914e-05   |deigs|: 2.045e-05  t[s]:   3599.57
	Linear fluid (dielectric constant: 7.2) occupying 0.987075 of unit cell:	Completed after 0 iterations at t[s]:   3605.85
	Linear fluid (dielectric constant: 7.2) occupying 0.987078 of unit cell:	Completed after 0 iterations at t[s]:   3632.68
SCF: Cycle: 21   Etot: -157.146958233032763   dEtot: +8.467e-09   |Residual|: 3.500e-05   |deigs|: 2.022e-05  t[s]:   3635.70
	Linear fluid (dielectric constant: 7.2) occupying 0.987075 of unit cell:	Completed after 0 iterations at t[s]:   3641.76
	Linear fluid (dielectric constant: 7.2) occupying 0.987078 of unit cell:	Completed after 0 iterations at t[s]:   3668.58
SCF: Cycle: 22   Etot: -157.146958238914891   dEtot: -5.882e-09   |Residual|: 2.962e-05   |deigs|: 2.628e-06  t[s]:   3671.47
	Linear fluid (dielectric constant: 7.2) occupying 0.987075 of unit cell:	Completed after 1 iterations at t[s]:   3678.84
	Linear fluid (dielectric constant: 7.2) occupying 0.987077 of unit cell:	Completed after 0 iterations at t[s]:   3705.36
SCF: Cycle: 23   Etot: -157.146958243766136   dEtot: -4.851e-09   |Residual|: 6.662e-05   |deigs|: 1.933e-05  t[s]:   3708.18
SCF: Converged (|Delta E|<1.000000e-08 for 2 iters).

Setting wave functions to eigenvectors of Hamiltonian
IonicMinimize: 	Predicted alpha/alphaT>3.000000, increasing alphaT to 9.000000e+00.

Computing DFT-D3 correction:
# coordination-number S 2.003 3.360 2.916 2.914 3.359 2.003
# coordination-number Na 3.719 3.723
# diagonal-C6 S 125.90 125.81 125.81 125.81 125.81 125.90
# diagonal-C6 Na 186.11 186.11
EvdW_6 =   -0.001224
EvdW_8 =   -0.007951

-------- Electronic minimization -----------
Will mix electronic density at each iteration.
	Linear fluid (dielectric constant: 7.2) occupying 0.987076 of unit cell:	Completed after 7 iterations at t[s]:   3735.79
	Linear fluid (dielectric constant: 7.2) occupying 0.986730 of unit cell:	Completed after 8 iterations at t[s]:   3777.00
SCF: Cycle:  0   Etot: -157.128769308484351   dEtot: -1.352e-01   |Residual|: 1.787e-01   |deigs|: 6.704e-03  t[s]:   3779.91
	Linear fluid (dielectric constant: 7.2) occupying 0.987330 of unit cell:	Completed after 14 iterations at t[s]:   3807.59
	Linear fluid (dielectric constant: 7.2) occupying 0.986866 of unit cell:	Completed after 10 iterations at t[s]:   3850.02
SCF: Cycle:  1   Etot: -157.137655484384140   dEtot: -8.886e-03   |Residual|: 8.931e-02   |deigs|: 6.038e-03  t[s]:   3852.94
	Linear fluid (dielectric constant: 7.2) occupying 0.987363 of unit cell:	Completed after 15 iterations at t[s]:   3882.84
	Linear fluid (dielectric constant: 7.2) occupying 0.987086 of unit cell:	Completed after 10 iterations at t[s]:   3925.41
SCF: Cycle:  2   Etot: -157.144144167722999   dEtot: -6.489e-03   |Residual|: 1.626e-02   |deigs|: 4.376e-03  t[s]:   3928.21
	Linear fluid (dielectric constant: 7.2) occupying 0.987297 of unit cell:	Completed after 13 iterations at t[s]:   3955.16
	Linear fluid (dielectric constant: 7.2) occupying 0.987105 of unit cell:	Completed after 10 iterations at t[s]:   3998.23
SCF: Cycle:  3   Etot: -157.144978913633963   dEtot: -8.347e-04   |Residual|: 1.116e-02   |deigs|: 1.048e-03  t[s]:   4001.17
	Linear fluid (dielectric constant: 7.2) occupying 0.987197 of unit cell:	Completed after 9 iterations at t[s]:   4021.49
	Linear fluid (dielectric constant: 7.2) occupying 0.987037 of unit cell:	Completed after 8 iterations at t[s]:   4061.06
SCF: Cycle:  4   Etot: -157.146804839246101   dEtot: -1.826e-03   |Residual|: 6.302e-03   |deigs|: 1.883e-03  t[s]:   4064.10
	Linear fluid (dielectric constant: 7.2) occupying 0.987149 of unit cell:	Completed after 9 iterations at t[s]:   4084.49
	Linear fluid (dielectric constant: 7.2) occupying 0.987038 of unit cell:	Completed after 8 iterations at t[s]:   4124.29
SCF: Cycle:  5   Etot: -157.147166432513956   dEtot: -3.616e-04   |Residual|: 4.049e-03   |deigs|: 1.812e-03  t[s]:   4127.42
	Linear fluid (dielectric constant: 7.2) occupying 0.986984 of unit cell:	Completed after 6 iterations at t[s]:   4142.85
	Linear fluid (dielectric constant: 7.2) occupying 0.987036 of unit cell:	Completed after 7 iterations at t[s]:   4181.38
SCF: Cycle:  6   Etot: -157.147608276100982   dEtot: -4.418e-04   |Residual|: 2.576e-03   |deigs|: 3.648e-03  t[s]:   4184.39
	Linear fluid (dielectric constant: 7.2) occupying 0.986812 of unit cell:	Completed after 5 iterations at t[s]:   4198.27
	Linear fluid (dielectric constant: 7.2) occupying 0.987038 of unit cell:	Completed after 5 iterations at t[s]:   4233.10
SCF: Cycle:  7   Etot: -157.147758754226686   dEtot: -1.505e-04   |Residual|: 2.048e-03   |deigs|: 2.482e-03  t[s]:   4235.90
	Linear fluid (dielectric constant: 7.2) occupying 0.986804 of unit cell:	Completed after 5 iterations at t[s]:   4250.33
	Linear fluid (dielectric constant: 7.2) occupying 0.987016 of unit cell:	Completed after 5 iterations at t[s]:   4284.84
SCF: Cycle:  8   Etot: -157.147779863653852   dEtot: -2.111e-05   |Residual|: 2.667e-03   |deigs|: 8.301e-04  t[s]:   4287.73
	Linear fluid (dielectric constant: 7.2) occupying 0.986729 of unit cell:	Completed after 5 iterations at t[s]:   4301.41
	Linear fluid (dielectric constant: 7.2) occupying 0.987014 of unit cell:	Completed after 5 iterations at t[s]:   4335.60
SCF: Cycle:  9   Etot: -157.147797534667973   dEtot: -1.767e-05   |Residual|: 2.268e-03   |deigs|: 9.482e-04  t[s]:   4338.72
	Linear fluid (dielectric constant: 7.2) occupying 0.986740 of unit cell:	Completed after 4 iterations at t[s]:   4350.88
	Linear fluid (dielectric constant: 7.2) occupying 0.987017 of unit cell:	Completed after 4 iterations at t[s]:   4379.69
SCF: Cycle: 10   Etot: -157.147809217815677   dEtot: -1.168e-05   |Residual|: 6.435e-04   |deigs|: 7.599e-04  t[s]:   4382.50
	Linear fluid (dielectric constant: 7.2) occupying 0.986765 of unit cell:	Completed after 5 iterations at t[s]:   4396.68
	Linear fluid (dielectric constant: 7.2) occupying 0.987021 of unit cell:	Completed after 5 iterations at t[s]:   4430.63
SCF: Cycle: 11   Etot: -157.147807054005114   dEtot: +2.164e-06   |Residual|: 8.161e-04   |deigs|: 7.143e-04  t[s]:   4433.64
	Linear fluid (dielectric constant: 7.2) occupying 0.986838 of unit cell:	Completed after 4 iterations at t[s]:   4445.72
	Linear fluid (dielectric constant: 7.2) occupying 0.987020 of unit cell:	Completed after 4 iterations at t[s]:   4474.33
SCF: Cycle: 12   Etot: -157.147810863537302   dEtot: -3.810e-06   |Residual|: 5.403e-04   |deigs|: 2.555e-04  t[s]:   4477.13
	Linear fluid (dielectric constant: 7.2) occupying 0.986943 of unit cell:	Completed after 4 iterations at t[s]:   4489.74
	Linear fluid (dielectric constant: 7.2) occupying 0.987023 of unit cell:	Completed after 4 iterations at t[s]:   4522.55
SCF: Cycle: 13   Etot: -157.147812107972300   dEtot: -1.244e-06   |Residual|: 6.720e-04   |deigs|: 1.720e-04  t[s]:   4525.59
	Linear fluid (dielectric constant: 7.2) occupying 0.986971 of unit cell:	Completed after 4 iterations at t[s]:   4538.27
	Linear fluid (dielectric constant: 7.2) occupying 0.987024 of unit cell:	Completed after 4 iterations at t[s]:   4566.89
SCF: Cycle: 14   Etot: -157.147813278664813   dEtot: -1.171e-06   |Residual|: 3.908e-04   |deigs|: 2.629e-05  t[s]:   4569.79
	Linear fluid (dielectric constant: 7.2) occupying 0.987012 of unit cell:	Completed after 3 iterations at t[s]:   4581.08
	Linear fluid (dielectric constant: 7.2) occupying 0.987029 of unit cell:	Completed after 4 iterations at t[s]:   4614.06
SCF: Cycle: 15   Etot: -157.147815212057083   dEtot: -1.933e-06   |Residual|: 4.626e-04   |deigs|: 5.727e-05  t[s]:   4616.96
	Linear fluid (dielectric constant: 7.2) occupying 0.987029 of unit cell:	Completed after 3 iterations at t[s]:   4627.99
	Linear fluid (dielectric constant: 7.2) occupying 0.987030 of unit cell:	Completed after 3 iterations at t[s]:   4655.84
SCF: Cycle: 16   Etot: -157.147816301115625   dEtot: -1.089e-06   |Residual|: 3.808e-04   |deigs|: 8.671e-05  t[s]:   4658.76
	Linear fluid (dielectric constant: 7.2) occupying 0.987032 of unit cell:	Completed after 2 iterations at t[s]:   4668.55
	Linear fluid (dielectric constant: 7.2) occupying 0.987030 of unit cell:	Completed after 2 iterations at t[s]:   4694.07
SCF: Cycle: 17   Etot: -157.147817558249415   dEtot: -1.257e-06   |Residual|: 3.397e-04   |deigs|: 2.244e-04  t[s]:   4696.88
	Linear fluid (dielectric constant: 7.2) occupying 0.987035 of unit cell:	Completed after 1 iterations at t[s]:   4704.57
	Linear fluid (dielectric constant: 7.2) occupying 0.987030 of unit cell:	Completed after 1 iterations at t[s]:   4726.80
SCF: Cycle: 18   Etot: -157.147817961070388   dEtot: -4.028e-07   |Residual|: 2.816e-04   |deigs|: 3.153e-05  t[s]:   4729.31
	Linear fluid (dielectric constant: 7.2) occupying 0.987031 of unit cell:	Completed after 1 iterations at t[s]:   4736.04
	Linear fluid (dielectric constant: 7.2) occupying 0.987031 of unit cell:	Completed after 1 iterations at t[s]:   4757.01
SCF: Cycle: 19   Etot: -157.147818191669558   dEtot: -2.306e-07   |Residual|: 9.501e-05   |deigs|: 4.041e-05  t[s]:   4759.50
	Linear fluid (dielectric constant: 7.2) occupying 0.987025 of unit cell:	Completed after 1 iterations at t[s]:   4766.18
	Linear fluid (dielectric constant: 7.2) occupying 0.987031 of unit cell:	Completed after 1 iterations at t[s]:   4787.51
SCF: Cycle: 20   Etot: -157.147818215290783   dEtot: -2.362e-08   |Residual|: 2.188e-04   |deigs|: 2.437e-05  t[s]:   4789.98
	Linear fluid (dielectric constant: 7.2) occupying 0.987021 of unit cell:	Completed after 1 iterations at t[s]:   4796.60
	Linear fluid (dielectric constant: 7.2) occupying 0.987032 of unit cell:	Completed after 1 iterations at t[s]:   4821.83
SCF: Cycle: 21   Etot: -157.147818306816930   dEtot: -9.153e-08   |Residual|: 1.400e-04   |deigs|: 2.573e-05  t[s]:   4824.33
	Linear fluid (dielectric constant: 7.2) occupying 0.987020 of unit cell:	Completed after 1 iterations at t[s]:   4831.13
	Linear fluid (dielectric constant: 7.2) occupying 0.987032 of unit cell:	Completed after 1 iterations at t[s]:   4855.85
SCF: Cycle: 22   Etot: -157.147818353678502   dEtot: -4.686e-08   |Residual|: 8.113e-05   |deigs|: 1.580e-05  t[s]:   4858.47
	Linear fluid (dielectric constant: 7.2) occupying 0.987020 of unit cell:	Completed after 1 iterations at t[s]:   4865.06
	Linear fluid (dielectric constant: 7.2) occupying 0.987032 of unit cell:	Completed after 1 iterations at t[s]:   4886.35
SCF: Cycle: 23   Etot: -157.147818379815192   dEtot: -2.614e-08   |Residual|: 7.764e-05   |deigs|: 1.375e-05  t[s]:   4889.07
	Linear fluid (dielectric constant: 7.2) occupying 0.987024 of unit cell:	Completed after 2 iterations at t[s]:   4896.91
	Linear fluid (dielectric constant: 7.2) occupying 0.987032 of unit cell:	Completed after 1 iterations at t[s]:   4922.26
SCF: Cycle: 24   Etot: -157.147818412477534   dEtot: -3.266e-08   |Residual|: 5.951e-05   |deigs|: 4.463e-05  t[s]:   4924.63
	Linear fluid (dielectric constant: 7.2) occupying 0.987029 of unit cell:	Completed after 1 iterations at t[s]:   4931.24
	Linear fluid (dielectric constant: 7.2) occupying 0.987032 of unit cell:	Completed after 0 iterations at t[s]:   4951.29
SCF: Cycle: 25   Etot: -157.147818437972489   dEtot: -2.549e-08   |Residual|: 4.064e-05   |deigs|: 7.294e-06  t[s]:   4953.88
	Linear fluid (dielectric constant: 7.2) occupying 0.987032 of unit cell:	Completed after 0 iterations at t[s]:   4959.03
	Linear fluid (dielectric constant: 7.2) occupying 0.987032 of unit cell:	Completed after 1 iterations at t[s]:   4984.17
SCF: Cycle: 26   Etot: -157.147818449036805   dEtot: -1.106e-08   |Residual|: 4.712e-05   |deigs|: 1.042e-05  t[s]:   4986.53
	Linear fluid (dielectric constant: 7.2) occupying 0.987033 of unit cell:	Completed after 1 iterations at t[s]:   4993.13
	Linear fluid (dielectric constant: 7.2) occupying 0.987032 of unit cell:	Completed after 0 iterations at t[s]:   5017.34
SCF: Cycle: 27   Etot: -157.147818455566551   dEtot: -6.530e-09   |Residual|: 8.680e-05   |deigs|: 4.170e-05  t[s]:   5019.74
	Linear fluid (dielectric constant: 7.2) occupying 0.987032 of unit cell:	Completed after 0 iterations at t[s]:   5025.19
	Linear fluid (dielectric constant: 7.2) occupying 0.987032 of unit cell:	Completed after 0 iterations at t[s]:   5048.85
SCF: Cycle: 28   Etot: -157.147818456945117   dEtot: -1.379e-09   |Residual|: 4.509e-05   |deigs|: 1.760e-05  t[s]:   5051.41
SCF: Converged (|Delta E|<1.000000e-08 for 2 iters).

Setting wave functions to eigenvectors of Hamiltonian

Computing DFT-D3 correction:
# coordination-number S 1.998 3.339 2.909 2.906 3.337 1.998
# coordination-number Na 3.686 3.690
# diagonal-C6 S 125.90 125.81 125.81 125.81 125.81 125.90
# diagonal-C6 Na 186.11 186.11
EvdW_6 =   -0.001228
EvdW_8 =   -0.008000

-------- Electronic minimization -----------
Will mix electronic density at each iteration.
	Linear fluid (dielectric constant: 7.2) occupying 0.987023 of unit cell:	Completed after 5 iterations at t[s]:   5073.33
	Linear fluid (dielectric constant: 7.2) occupying 0.987011 of unit cell:	Completed after 3 iterations at t[s]:   5102.05
SCF: Cycle:  0   Etot: -157.147853390881238   dEtot: -6.153e-05   |Residual|: 3.211e-03   |deigs|: 2.190e-06  t[s]:   5104.52
	Linear fluid (dielectric constant: 7.2) occupying 0.987033 of unit cell:	Completed after 2 iterations at t[s]:   5112.55
	Linear fluid (dielectric constant: 7.2) occupying 0.987014 of unit cell:	Completed after 2 iterations at t[s]:   5135.01
SCF: Cycle:  1   Etot: -157.147862666428011   dEtot: -9.276e-06   |Residual|: 1.795e-03   |deigs|: 8.343e-05  t[s]:   5137.54
	Linear fluid (dielectric constant: 7.2) occupying 0.987044 of unit cell:	Completed after 2 iterations at t[s]:   5145.56
	Linear fluid (dielectric constant: 7.2) occupying 0.987015 of unit cell:	Completed after 2 iterations at t[s]:   5168.22
SCF: Cycle:  2   Etot: -157.147868925168268   dEtot: -6.259e-06   |Residual|: 5.688e-04   |deigs|: 8.322e-05  t[s]:   5170.94
	Linear fluid (dielectric constant: 7.2) occupying 0.987034 of unit cell:	Completed after 2 iterations at t[s]:   5178.70
	Linear fluid (dielectric constant: 7.2) occupying 0.987017 of unit cell:	Completed after 2 iterations at t[s]:   5201.32
SCF: Cycle:  3   Etot: -157.147870072381750   dEtot: -1.147e-06   |Residual|: 2.955e-04   |deigs|: 4.239e-05  t[s]:   5203.95
	Linear fluid (dielectric constant: 7.2) occupying 0.987026 of unit cell:	Completed after 1 iterations at t[s]:   5210.40
	Linear fluid (dielectric constant: 7.2) occupying 0.987017 of unit cell:	Completed after 1 iterations at t[s]:   5231.48
SCF: Cycle:  4   Etot: -157.147870370125787   dEtot: -2.977e-07   |Residual|: 2.273e-04   |deigs|: 6.230e-05  t[s]:   5234.06
	Linear fluid (dielectric constant: 7.2) occupying 0.987025 of unit cell:	Completed after 1 iterations at t[s]:   5240.35
	Linear fluid (dielectric constant: 7.2) occupying 0.987018 of unit cell:	Completed after 1 iterations at t[s]:   5261.46
SCF: Cycle:  5   Etot: -157.147870535375148   dEtot: -1.652e-07   |Residual|: 8.732e-05   |deigs|: 1.395e-05  t[s]:   5264.14
	Linear fluid (dielectric constant: 7.2) occupying 0.987017 of unit cell:	Completed after 0 iterations at t[s]:   5269.24
	Linear fluid (dielectric constant: 7.2) occupying 0.987018 of unit cell:	Completed after 1 iterations at t[s]:   5290.40
SCF: Cycle:  6   Etot: -157.147870624686249   dEtot: -8.931e-08   |Residual|: 7.086e-05   |deigs|: 3.185e-05  t[s]:   5292.91
	Linear fluid (dielectric constant: 7.2) occupying 0.987013 of unit cell:	Completed after 0 iterations at t[s]:   5298.10
	Linear fluid (dielectric constant: 7.2) occupying 0.987018 of unit cell:	Completed after 0 iterations at t[s]:   5317.97
SCF: Cycle:  7   Etot: -157.147870671430070   dEtot: -4.674e-08   |Residual|: 4.205e-05   |deigs|: 9.485e-06  t[s]:   5320.47
	Linear fluid (dielectric constant: 7.2) occupying 0.987013 of unit cell:	Completed after 0 iterations at t[s]:   5325.84
	Linear fluid (dielectric constant: 7.2) occupying 0.987018 of unit cell:	Completed after 0 iterations at t[s]:   5347.37
SCF: Cycle:  8   Etot: -157.147870694516001   dEtot: -2.309e-08   |Residual|: 3.061e-05   |deigs|: 3.200e-06  t[s]:   5349.87
	Linear fluid (dielectric constant: 7.2) occupying 0.987011 of unit cell:	Completed after 0 iterations at t[s]:   5355.29
	Linear fluid (dielectric constant: 7.2) occupying 0.987018 of unit cell:	Completed after 0 iterations at t[s]:   5378.79
SCF: Cycle:  9   Etot: -157.147870727271368   dEtot: -3.276e-08   |Residual|: 3.194e-05   |deigs|: 1.131e-05  t[s]:   5381.31
	Linear fluid (dielectric constant: 7.2) occupying 0.987011 of unit cell:	Completed after 0 iterations at t[s]:   5386.71
	Linear fluid (dielectric constant: 7.2) occupying 0.987018 of unit cell:	Completed after 0 iterations at t[s]:   5407.00
SCF: Cycle: 10   Etot: -157.147870733491828   dEtot: -6.220e-09   |Residual|: 2.951e-05   |deigs|: 7.080e-06  t[s]:   5409.47
	Linear fluid (dielectric constant: 7.2) occupying 0.987012 of unit cell:	Completed after 0 iterations at t[s]:   5414.72
	Linear fluid (dielectric constant: 7.2) occupying 0.987018 of unit cell:	Completed after 0 iterations at t[s]:   5434.55
SCF: Cycle: 11   Etot: -157.147870742905980   dEtot: -9.414e-09   |Residual|: 1.452e-05   |deigs|: 3.880e-06  t[s]:   5436.96
SCF: Converged (|Delta E|<1.000000e-08 for 2 iters).

Setting wave functions to eigenvectors of Hamiltonian

Computing DFT-D3 correction:
# coordination-number S 1.998 3.339 2.909 2.906 3.337 1.998
# coordination-number Na 3.686 3.690
# diagonal-C6 S 125.90 125.81 125.81 125.81 125.81 125.90
# diagonal-C6 Na 186.11 186.11
EvdW_6 =   -0.001228
EvdW_8 =   -0.008000

# Ionic positions in cartesian coordinates:
ion S   3.909953056681738  11.897264889696999  23.114474860490862 1
ion S   7.602296546241921  11.334921013778798  23.927489716941775 1
ion S   8.667369269634460   7.790414598239571  23.223641113904712 1
ion S   6.503848657266992   7.734610398560590  29.717079087211079 1
ion S   7.523554794323931  11.301257542099410  29.064079545610042 1
ion S  11.202979095156490  11.899978222590599  29.898254707193207 1
ion Na   3.756454043970049   7.105071363540853  25.236922775797801 1
ion Na  11.427415732624414   7.148833667103173  27.687178051250523 1

# Forces in Cartesian coordinates:
force S   0.006067943336245   0.000413253324543   0.000654258329860 1
force S  -0.007182557579365   0.010068123982227   0.000501966165679 1
force S   0.001649109660014  -0.006091971623310  -0.001540584887069 1
force S  -0.001604011654274  -0.006486717807920   0.001579756984413 1
force S   0.006588636458924   0.010109748594917  -0.000342228395442 1
force S  -0.005761190585884   0.000469223922452  -0.000594304775728 1
force Na  -0.005412864439466  -0.004427198117989  -0.000811673589339 1
force Na   0.005376725106457  -0.004311580910754   0.000471984085842 1

# Energy components:
   A_diel =       -0.0564884853702925
   Eewald =      144.4529937894942861
       EH =      273.8303670313246698
     Eloc =     -453.2081553109488823
      Enl =     -133.1740623679812359
     EvdW =       -0.0092275228411152
      Exc =      -39.6069973146666143
 Exc_core =       10.6063790508485205
       KE =       40.0173203872346974
-------------------------------------
     Etot =     -157.1478707429059796

IonicMinimize: Iter:   1  Etot: -157.147870742905980  |grad|_K:  4.816e-03  alpha:  1.081e+01  linmin: -7.879e-03  t[s]:   5453.69

#--- Lowdin population analysis ---
# oxidation-state S -0.464 +0.372 -0.443 -0.443 +0.374 -0.463
# oxidation-state Na +0.799 +0.799


Computing DFT-D3 correction:
# coordination-number S 1.972 3.218 2.863 2.858 3.215 1.971
# coordination-number Na 3.490 3.491
# diagonal-C6 S 125.92 125.81 125.81 125.81 125.81 125.92
# diagonal-C6 Na 186.11 186.11
EvdW_6 =   -0.001265
EvdW_8 =   -0.008261

-------- Electronic minimization -----------
Will mix electronic density at each iteration.
	Linear fluid (dielectric constant: 7.2) occupying 0.987015 of unit cell:	Completed after 8 iterations at t[s]:   5475.57
	Linear fluid (dielectric constant: 7.2) occupying 0.986448 of unit cell:	Completed after 9 iterations at t[s]:   5513.30
SCF: Cycle:  0   Etot: -157.091248467768196   dEtot: -3.443e-01   |Residual|: 2.970e-01   |deigs|: 1.800e-02  t[s]:   5515.76
	Linear fluid (dielectric constant: 7.2) occupying 0.987318 of unit cell:	Completed after 16 iterations at t[s]:   5543.26
	Linear fluid (dielectric constant: 7.2) occupying 0.986727 of unit cell:	Completed after 11 iterations at t[s]:   5582.36
SCF: Cycle:  1   Etot: -157.118445197966082   dEtot: -2.720e-02   |Residual|: 1.472e-01   |deigs|: 1.035e-02  t[s]:   5584.76
	Linear fluid (dielectric constant: 7.2) occupying 0.987136 of unit cell:	Completed after 16 iterations at t[s]:   5612.20
	Linear fluid (dielectric constant: 7.2) occupying 0.986994 of unit cell:	Completed after 10 iterations at t[s]:   5650.37
SCF: Cycle:  2   Etot: -157.138315239884605   dEtot: -1.987e-02   |Residual|: 3.018e-02   |deigs|: 7.181e-03  t[s]:   5652.88
	Linear fluid (dielectric constant: 7.2) occupying 0.986964 of unit cell:	Completed after 15 iterations at t[s]:   5678.75
	Linear fluid (dielectric constant: 7.2) occupying 0.987067 of unit cell:	Completed after 11 iterations at t[s]:   5718.13
SCF: Cycle:  3   Etot: -157.140644650018459   dEtot: -2.329e-03   |Residual|: 1.677e-02   |deigs|: 7.217e-04  t[s]:   5720.63
	Linear fluid (dielectric constant: 7.2) occupying 0.986835 of unit cell:	Completed after 11 iterations at t[s]:   5741.08
	Linear fluid (dielectric constant: 7.2) occupying 0.986982 of unit cell:	Completed after 9 iterations at t[s]:   5777.83
SCF: Cycle:  4   Etot: -157.146432226655094   dEtot: -5.788e-03   |Residual|: 1.073e-02   |deigs|: 1.335e-03  t[s]:   5780.39
	Linear fluid (dielectric constant: 7.2) occupying 0.986827 of unit cell:	Completed after 10 iterations at t[s]:   5799.70
	Linear fluid (dielectric constant: 7.2) occupying 0.986966 of unit cell:	Completed after 8 iterations at t[s]:   5834.77
SCF: Cycle:  5   Etot: -157.147473952333684   dEtot: -1.042e-03   |Residual|: 8.742e-03   |deigs|: 2.615e-03  t[s]:   5837.32
	Linear fluid (dielectric constant: 7.2) occupying 0.986827 of unit cell:	Completed after 9 iterations at t[s]:   5855.24
	Linear fluid (dielectric constant: 7.2) occupying 0.986944 of unit cell:	Completed after 8 iterations at t[s]:   5890.93
SCF: Cycle:  6   Etot: -157.148668895716071   dEtot: -1.195e-03   |Residual|: 5.362e-03   |deigs|: 4.189e-03  t[s]:   5893.39
	Linear fluid (dielectric constant: 7.2) occupying 0.986613 of unit cell:	Completed after 6 iterations at t[s]:   5906.91
	Linear fluid (dielectric constant: 7.2) occupying 0.986941 of unit cell:	Completed after 6 iterations at t[s]:   5939.79
SCF: Cycle:  7   Etot: -157.149372813451237   dEtot: -7.039e-04   |Residual|: 5.102e-03   |deigs|: 7.120e-03  t[s]:   5942.22
	Linear fluid (dielectric constant: 7.2) occupying 0.986680 of unit cell:	Completed after 7 iterations at t[s]:   5957.39
	Linear fluid (dielectric constant: 7.2) occupying 0.986925 of unit cell:	Completed after 6 iterations at t[s]:   5990.12
SCF: Cycle:  8   Etot: -157.149430645331051   dEtot: -5.783e-05   |Residual|: 3.487e-03   |deigs|: 2.055e-03  t[s]:   5992.59
	Linear fluid (dielectric constant: 7.2) occupying 0.986534 of unit cell:	Completed after 5 iterations at t[s]:   6005.16
	Linear fluid (dielectric constant: 7.2) occupying 0.986917 of unit cell:	Completed after 6 iterations at t[s]:   6037.17
SCF: Cycle:  9   Etot: -157.149527838733434   dEtot: -9.719e-05   |Residual|: 4.064e-03   |deigs|: 1.626e-03  t[s]:   6039.65
	Linear fluid (dielectric constant: 7.2) occupying 0.986411 of unit cell:	Completed after 5 iterations at t[s]:   6052.16
	Linear fluid (dielectric constant: 7.2) occupying 0.986926 of unit cell:	Completed after 5 iterations at t[s]:   6082.86
SCF: Cycle: 10   Etot: -157.149588146528060   dEtot: -6.031e-05   |Residual|: 1.683e-03   |deigs|: 2.621e-03  t[s]:   6085.48
	Linear fluid (dielectric constant: 7.2) occupying 0.986432 of unit cell:	Completed after 5 iterations at t[s]:   6097.83
	Linear fluid (dielectric constant: 7.2) occupying 0.986922 of unit cell:	Completed after 5 iterations at t[s]:   6128.73
SCF: Cycle: 11   Etot: -157.149594000956313   dEtot: -5.854e-06   |Residual|: 1.197e-03   |deigs|: 7.196e-04  t[s]:   6131.23
	Linear fluid (dielectric constant: 7.2) occupying 0.986584 of unit cell:	Completed after 5 iterations at t[s]:   6143.69
	Linear fluid (dielectric constant: 7.2) occupying 0.986921 of unit cell:	Completed after 5 iterations at t[s]:   6170.87
SCF: Cycle: 12   Etot: -157.149590704353812   dEtot: +3.297e-06   |Residual|: 1.448e-03   |deigs|: 2.543e-04  t[s]:   6173.28
	Linear fluid (dielectric constant: 7.2) occupying 0.986780 of unit cell:	Completed after 5 iterations at t[s]:   6185.61
	Linear fluid (dielectric constant: 7.2) occupying 0.986923 of unit cell:	Completed after 5 iterations at t[s]:   6212.65
SCF: Cycle: 13   Etot: -157.149596527042974   dEtot: -5.823e-06   |Residual|: 7.077e-04   |deigs|: 3.586e-04  t[s]:   6215.13
	Linear fluid (dielectric constant: 7.2) occupying 0.986880 of unit cell:	Completed after 4 iterations at t[s]:   6226.19
	Linear fluid (dielectric constant: 7.2) occupying 0.986931 of unit cell:	Completed after 4 iterations at t[s]:   6251.61
SCF: Cycle: 14   Etot: -157.149600454599181   dEtot: -3.928e-06   |Residual|: 4.443e-04   |deigs|: 7.961e-05  t[s]:   6254.08
	Linear fluid (dielectric constant: 7.2) occupying 0.986929 of unit cell:	Completed after 4 iterations at t[s]:   6264.76
	Linear fluid (dielectric constant: 7.2) occupying 0.986936 of unit cell:	Completed after 4 iterations at t[s]:   6290.24
SCF: Cycle: 15   Etot: -157.149602729479255   dEtot: -2.275e-06   |Residual|: 3.149e-04   |deigs|: 9.936e-05  t[s]:   6292.76
	Linear fluid (dielectric constant: 7.2) occupying 0.986941 of unit cell:	Completed after 2 iterations at t[s]:   6300.80
	Linear fluid (dielectric constant: 7.2) occupying 0.986940 of unit cell:	Completed after 3 iterations at t[s]:   6325.60
SCF: Cycle: 16   Etot: -157.149606271176708   dEtot: -3.542e-06   |Residual|: 1.940e-04   |deigs|: 3.174e-04  t[s]:   6328.09
	Linear fluid (dielectric constant: 7.2) occupying 0.986939 of unit cell:	Completed after 1 iterations at t[s]:   6334.65
	Linear fluid (dielectric constant: 7.2) occupying 0.986941 of unit cell:	Completed after 2 iterations at t[s]:   6357.07
SCF: Cycle: 17   Etot: -157.149607551094874   dEtot: -1.280e-06   |Residual|: 1.808e-04   |deigs|: 1.215e-04  t[s]:   6359.67
	Linear fluid (dielectric constant: 7.2) occupying 0.986932 of unit cell:	Completed after 2 iterations at t[s]:   6367.68
	Linear fluid (dielectric constant: 7.2) occupying 0.986942 of unit cell:	Completed after 1 iterations at t[s]:   6389.11
SCF: Cycle: 18   Etot: -157.149607942141046   dEtot: -3.910e-07   |Residual|: 1.710e-04   |deigs|: 1.085e-04  t[s]:   6391.63
	Linear fluid (dielectric constant: 7.2) occupying 0.986930 of unit cell:	Completed after 2 iterations at t[s]:   6399.75
	Linear fluid (dielectric constant: 7.2) occupying 0.986942 of unit cell:	Completed after 2 iterations at t[s]:   6422.70
SCF: Cycle: 19   Etot: -157.149608126422322   dEtot: -1.843e-07   |Residual|: 1.152e-04   |deigs|: 5.269e-05  t[s]:   6425.19
	Linear fluid (dielectric constant: 7.2) occupying 0.986930 of unit cell:	Completed after 1 iterations at t[s]:   6431.97
	Linear fluid (dielectric constant: 7.2) occupying 0.986942 of unit cell:	Completed after 1 iterations at t[s]:   6453.03
SCF: Cycle: 20   Etot: -157.149608192361768   dEtot: -6.594e-08   |Residual|: 1.099e-04   |deigs|: 6.701e-05  t[s]:   6455.49
	Linear fluid (dielectric constant: 7.2) occupying 0.986932 of unit cell:	Completed after 1 iterations at t[s]:   6462.19
	Linear fluid (dielectric constant: 7.2) occupying 0.986942 of unit cell:	Completed after 1 iterations at t[s]:   6483.22
SCF: Cycle: 21   Etot: -157.149608257889469   dEtot: -6.553e-08   |Residual|: 7.703e-05   |deigs|: 1.847e-05  t[s]:   6485.71
	Linear fluid (dielectric constant: 7.2) occupying 0.986937 of unit cell:	Completed after 2 iterations at t[s]:   6493.97
	Linear fluid (dielectric constant: 7.2) occupying 0.986942 of unit cell:	Completed after 1 iterations at t[s]:   6518.73
SCF: Cycle: 22   Etot: -157.149608294540485   dEtot: -3.665e-08   |Residual|: 6.534e-05   |deigs|: 4.742e-05  t[s]:   6521.22
	Linear fluid (dielectric constant: 7.2) occupying 0.986940 of unit cell:	Completed after 0 iterations at t[s]:   6526.44
	Linear fluid (dielectric constant: 7.2) occupying 0.986942 of unit cell:	Completed after 0 iterations at t[s]:   6546.45
SCF: Cycle: 23   Etot: -157.149608299309932   dEtot: -4.769e-09   |Residual|: 4.971e-05   |deigs|: 9.109e-06  t[s]:   6548.93
	Linear fluid (dielectric constant: 7.2) occupying 0.986942 of unit cell:	Completed after 0 iterations at t[s]:   6554.30
	Linear fluid (dielectric constant: 7.2) occupying 0.986942 of unit cell:	Completed after 0 iterations at t[s]:   6577.92
SCF: Cycle: 24   Etot: -157.149608333587111   dEtot: -3.428e-08   |Residual|: 4.796e-05   |deigs|: 2.047e-05  t[s]:   6580.45
	Linear fluid (dielectric constant: 7.2) occupying 0.986941 of unit cell:	Completed after 1 iterations at t[s]:   6587.33
	Linear fluid (dielectric constant: 7.2) occupying 0.986942 of unit cell:	Completed after 0 iterations at t[s]:   6610.81
SCF: Cycle: 25   Etot: -157.149608366763687   dEtot: -3.318e-08   |Residual|: 4.553e-05   |deigs|: 4.193e-05  t[s]:   6613.29
	Linear fluid (dielectric constant: 7.2) occupying 0.986942 of unit cell:	Completed after 0 iterations at t[s]:   6618.63
	Linear fluid (dielectric constant: 7.2) occupying 0.986943 of unit cell:	Completed after 0 iterations at t[s]:   6638.85
SCF: Cycle: 26   Etot: -157.149608376324636   dEtot: -9.561e-09   |Residual|: 3.120e-05   |deigs|: 1.482e-05  t[s]:   6641.31
	Linear fluid (dielectric constant: 7.2) occupying 0.986941 of unit cell:	Completed after 0 iterations at t[s]:   6646.56
	Linear fluid (dielectric constant: 7.2) occupying 0.986943 of unit cell:	Completed after 0 iterations at t[s]:   6670.08
SCF: Cycle: 27   Etot: -157.149608383884754   dEtot: -7.560e-09   |Residual|: 2.878e-05   |deigs|: 1.279e-05  t[s]:   6672.59
SCF: Converged (|Delta E|<1.000000e-08 for 2 iters).

Setting wave functions to eigenvectors of Hamiltonian

Computing DFT-D3 correction:
# coordination-number S 1.936 3.091 2.803 2.795 3.087 1.933
# coordination-number Na 3.269 3.267
# diagonal-C6 S 125.96 125.81 125.81 125.81 125.81 125.96
# diagonal-C6 Na 186.11 186.11
EvdW_6 =   -0.001311
EvdW_8 =   -0.008532

-------- Electronic minimization -----------
Will mix electronic density at each iteration.
	Linear fluid (dielectric constant: 7.2) occupying 0.986939 of unit cell:	Completed after 8 iterations at t[s]:   6698.57
	Linear fluid (dielectric constant: 7.2) occupying 0.986336 of unit cell:	Completed after 9 iterations at t[s]:   6736.53
SCF: Cycle:  0   Etot: -157.081985113394950   dEtot: -4.100e-01   |Residual|: 3.264e-01   |deigs|: 2.137e-02  t[s]:   6739.03
	Linear fluid (dielectric constant: 7.2) occupying 0.987214 of unit cell:	Completed after 16 iterations at t[s]:   6766.61
	Linear fluid (dielectric constant: 7.2) occupying 0.986632 of unit cell:	Completed after 11 iterations at t[s]:   6805.81
SCF: Cycle:  1   Etot: -157.114076028534669   dEtot: -3.209e-02   |Residual|: 1.611e-01   |deigs|: 1.166e-02  t[s]:   6808.40
	Linear fluid (dielectric constant: 7.2) occupying 0.986917 of unit cell:	Completed after 16 iterations at t[s]:   6836.17
	Linear fluid (dielectric constant: 7.2) occupying 0.986902 of unit cell:	Completed after 11 iterations at t[s]:   6875.47
SCF: Cycle:  2   Etot: -157.137883472183489   dEtot: -2.381e-02   |Residual|: 3.380e-02   |deigs|: 7.541e-03  t[s]:   6877.93
	Linear fluid (dielectric constant: 7.2) occupying 0.986717 of unit cell:	Completed after 16 iterations at t[s]:   6905.32
	Linear fluid (dielectric constant: 7.2) occupying 0.986991 of unit cell:	Completed after 11 iterations at t[s]:   6944.71
SCF: Cycle:  3   Etot: -157.140258323126659   dEtot: -2.375e-03   |Residual|: 1.749e-02   |deigs|: 4.528e-04  t[s]:   6947.30
	Linear fluid (dielectric constant: 7.2) occupying 0.986585 of unit cell:	Completed after 11 iterations at t[s]:   6967.78
	Linear fluid (dielectric constant: 7.2) occupying 0.986921 of unit cell:	Completed after 9 iterations at t[s]:   7004.14
SCF: Cycle:  4   Etot: -157.146687885505457   dEtot: -6.430e-03   |Residual|: 1.166e-02   |deigs|: 2.077e-03  t[s]:   7006.57
	Linear fluid (dielectric constant: 7.2) occupying 0.986589 of unit cell:	Completed after 11 iterations at t[s]:   7027.47
	Linear fluid (dielectric constant: 7.2) occupying 0.986891 of unit cell:	Completed after 8 iterations at t[s]:   7062.87
SCF: Cycle:  5   Etot: -157.148015476983090   dEtot: -1.328e-03   |Residual|: 9.293e-03   |deigs|: 2.748e-03  t[s]:   7065.44
	Linear fluid (dielectric constant: 7.2) occupying 0.986626 of unit cell:	Completed after 9 iterations at t[s]:   7083.46
	Linear fluid (dielectric constant: 7.2) occupying 0.986863 of unit cell:	Completed after 8 iterations at t[s]:   7118.43
SCF: Cycle:  6   Etot: -157.149228334337494   dEtot: -1.213e-03   |Residual|: 5.867e-03   |deigs|: 4.531e-03  t[s]:   7120.88
	Linear fluid (dielectric constant: 7.2) occupying 0.986463 of unit cell:	Completed after 6 iterations at t[s]:   7134.45
	Linear fluid (dielectric constant: 7.2) occupying 0.986854 of unit cell:	Completed after 6 iterations at t[s]:   7166.62
SCF: Cycle:  7   Etot: -157.150066102099998   dEtot: -8.378e-04   |Residual|: 5.947e-03   |deigs|: 7.815e-03  t[s]:   7169.13
	Linear fluid (dielectric constant: 7.2) occupying 0.986527 of unit cell:	Completed after 6 iterations at t[s]:   7182.95
	Linear fluid (dielectric constant: 7.2) occupying 0.986842 of unit cell:	Completed after 6 iterations at t[s]:   7215.54
SCF: Cycle:  8   Etot: -157.150148953626200   dEtot: -8.285e-05   |Residual|: 3.253e-03   |deigs|: 1.809e-03  t[s]:   7218.04
	Linear fluid (dielectric constant: 7.2) occupying 0.986431 of unit cell:	Completed after 6 iterations at t[s]:   7231.68
	Linear fluid (dielectric constant: 7.2) occupying 0.986832 of unit cell:	Completed after 6 iterations at t[s]:   7263.79
SCF: Cycle:  9   Etot: -157.150227547000725   dEtot: -7.859e-05   |Residual|: 4.703e-03   |deigs|: 9.531e-04  t[s]:   7266.35
	Linear fluid (dielectric constant: 7.2) occupying 0.986288 of unit cell:	Completed after 5 iterations at t[s]:   7278.69
	Linear fluid (dielectric constant: 7.2) occupying 0.986840 of unit cell:	Completed after 5 iterations at t[s]:   7309.47
SCF: Cycle: 10   Etot: -157.150288503803722   dEtot: -6.096e-05   |Residual|: 1.625e-03   |deigs|: 2.650e-03  t[s]:   7311.94
[...]
SCF: Cycle:  6   Etot: -157.151407541270402   dEtot: -2.792e-09   |Residual|: 1.435e-05   |deigs|: 6.533e-08  t[s]:  36170.67
SCF: Converged (|Delta E|<1.000000e-08 for 2 iters).

Setting wave functions to eigenvectors of Hamiltonian

Computing DFT-D3 correction:
# coordination-number S 1.944 3.066 2.755 2.784 3.069 1.936
# coordination-number Na 3.061 3.036
# diagonal-C6 S 125.95 125.81 125.81 125.81 125.81 125.96
# diagonal-C6 Na 186.11 186.11
EvdW_6 =   -0.001297
EvdW_8 =   -0.008453

# Ionic positions in cartesian coordinates:
ion S   3.924577237154616  12.021884317780707  23.189314694568175 1
ion S   7.584050684488685  11.448049057964738  23.985182340460785 1
ion S   8.605281581167560   7.842959840735285  23.359972451071638 1
ion S   6.592664733214650   7.669489361200061  29.504901217902411 1
ion S   7.518499008521020  11.330591576628541  29.049195675356316 1
ion S  11.155824180499561  11.970400813852656  29.895235516287762 1
ion Na   3.384553511475848   6.952726123059081  25.082391540313346 1
ion Na  11.828420259378056   6.976250604388925  27.802926422439569 1

# Forces in Cartesian coordinates:
force S   0.000040557401340  -0.000124271785248   0.000344668617328 1
force S   0.000124658134573   0.000227641003428   0.000327931451267 1
force S   0.000072711068257  -0.000165736707704   0.000093865063485 1
force S   0.000227322155029   0.000348206670788   0.000257228831551 1
force S  -0.000092365191908  -0.000012275719863   0.000365861606279 1
force S  -0.000151032671185  -0.000492275631506   0.000054652107656 1
force Na  -0.000167197147321   0.000108925397723   0.000305697829241 1
force Na   0.000115651044457   0.000292534329324   0.000467025485646 1

# Energy components:
   A_diel =       -0.0672314083187308
   Eewald =      139.5495592264415166
       EH =      269.1612033943624169
     Eloc =     -443.6024035591167944
      Enl =     -133.1716955388374970
     EvdW =       -0.0097496763628098
      Exc =      -39.5901632626531423
 Exc_core =       10.6063793821834462
       KE =       39.9726939010312208
-------------------------------------
     Etot =     -157.1514075412704017

IonicMinimize: Iter:  21  Etot: -157.151407541270402  |grad|_K:  1.860e-04  alpha:  1.616e+00  linmin:  2.175e-02  t[s]:  36188.25

#--- Lowdin population analysis ---
# oxidation-state S -0.474 +0.375 -0.451 -0.454 +0.373 -0.473
# oxidation-state Na +0.816 +0.817


Computing DFT-D3 correction:
# coordination-number S 1.944 3.065 2.755 2.785 3.070 1.937
# coordination-number Na 3.062 3.038
# diagonal-C6 S 125.95 125.81 125.81 125.81 125.81 125.96
# diagonal-C6 Na 186.11 186.11
EvdW_6 =   -0.001296
EvdW_8 =   -0.008452

-------- Electronic minimization -----------
Will mix electronic density at each iteration.
	Linear fluid (dielectric constant: 7.2) occupying 0.986915 of unit cell:	Completed after 2 iterations at t[s]:  36203.03
	Linear fluid (dielectric constant: 7.2) occupying 0.986915 of unit cell:	Completed after 1 iterations at t[s]:  36227.34
SCF: Cycle:  0   Etot: -157.151407975994630   dEtot: -7.265e-07   |Residual|: 3.343e-04   |deigs|: 2.578e-08  t[s]:  36229.87
	Linear fluid (dielectric constant: 7.2) occupying 0.986915 of unit cell:	Completed after 1 iterations at t[s]:  36236.55
	Linear fluid (dielectric constant: 7.2) occupying 0.986915 of unit cell:	Completed after 1 iterations at t[s]:  36259.06
SCF: Cycle:  1   Etot: -157.151408240109447   dEtot: -2.641e-07   |Residual|: 1.739e-04   |deigs|: 5.976e-06  t[s]:  36261.95
	Linear fluid (dielectric constant: 7.2) occupying 0.986914 of unit cell:	Completed after 0 iterations at t[s]:  36267.45
	Linear fluid (dielectric constant: 7.2) occupying 0.986915 of unit cell:	Completed after 0 iterations at t[s]:  36288.29
SCF: Cycle:  2   Etot: -157.151408314493040   dEtot: -7.438e-08   |Residual|: 6.420e-05   |deigs|: 9.777e-06  t[s]:  36290.79
	Linear fluid (dielectric constant: 7.2) occupying 0.986915 of unit cell:	Completed after 0 iterations at t[s]:  36296.10
	Linear fluid (dielectric constant: 7.2) occupying 0.986915 of unit cell:	Completed after 0 iterations at t[s]:  36316.14
SCF: Cycle:  3   Etot: -157.151408333924280   dEtot: -1.943e-08   |Residual|: 4.205e-05   |deigs|: 5.234e-06  t[s]:  36318.65
	Linear fluid (dielectric constant: 7.2) occupying 0.986915 of unit cell:	Completed after 0 iterations at t[s]:  36322.54
	Linear fluid (dielectric constant: 7.2) occupying 0.986915 of unit cell:	Completed after 0 iterations at t[s]:  36342.08
SCF: Cycle:  4   Etot: -157.151408340629530   dEtot: -6.705e-09   |Residual|: 1.880e-05   |deigs|: 1.265e-07  t[s]:  36344.84
	Linear fluid (dielectric constant: 7.2) occupying 0.986915 of unit cell:	Completed after 0 iterations at t[s]:  36348.76
	Linear fluid (dielectric constant: 7.2) occupying 0.986915 of unit cell:	Completed after 0 iterations at t[s]:  36368.27
SCF: Cycle:  5   Etot: -157.151408344918337   dEtot: -4.289e-09   |Residual|: 1.047e-05   |deigs|: 1.031e-07  t[s]:  36370.81
SCF: Converged (|Delta E|<1.000000e-08 for 2 iters).

Setting wave functions to eigenvectors of Hamiltonian

Computing DFT-D3 correction:
# coordination-number S 1.944 3.065 2.755 2.786 3.070 1.937
# coordination-number Na 3.062 3.039
# diagonal-C6 S 125.95 125.81 125.81 125.81 125.81 125.96
# diagonal-C6 Na 186.11 186.11
EvdW_6 =   -0.001296
EvdW_8 =   -0.008451

-------- Electronic minimization -----------
Will mix electronic density at each iteration.
	Linear fluid (dielectric constant: 7.2) occupying 0.986916 of unit cell:	Completed after 1 iterations at t[s]:  36387.98
	Linear fluid (dielectric constant: 7.2) occupying 0.986916 of unit cell:	Completed after 1 iterations at t[s]:  36411.44
SCF: Cycle:  0   Etot: -157.151408295960124   dEtot: -1.116e-07   |Residual|: 1.398e-04   |deigs|: 4.579e-09  t[s]:  36413.95
	Linear fluid (dielectric constant: 7.2) occupying 0.986916 of unit cell:	Completed after 0 iterations at t[s]:  36419.31
	Linear fluid (dielectric constant: 7.2) occupying 0.986916 of unit cell:	Completed after 0 iterations at t[s]:  36440.11
SCF: Cycle:  1   Etot: -157.151408360605018   dEtot: -6.464e-08   |Residual|: 6.346e-05   |deigs|: 1.579e-05  t[s]:  36442.73
	Linear fluid (dielectric constant: 7.2) occupying 0.986916 of unit cell:	Completed after 0 iterations at t[s]:  36446.78
	Linear fluid (dielectric constant: 7.2) occupying 0.986916 of unit cell:	Completed after 0 iterations at t[s]:  36466.46
SCF: Cycle:  2   Etot: -157.151408373991501   dEtot: -1.339e-08   |Residual|: 2.569e-05   |deigs|: 1.598e-05  t[s]:  36469.24
	Linear fluid (dielectric constant: 7.2) occupying 0.986916 of unit cell:	Completed after 0 iterations at t[s]:  36473.51
	Linear fluid (dielectric constant: 7.2) occupying 0.986916 of unit cell:	Completed after 0 iterations at t[s]:  36492.92
SCF: Cycle:  3   Etot: -157.151408379769151   dEtot: -5.778e-09   |Residual|: 1.931e-05   |deigs|: 6.893e-08  t[s]:  36495.62
	Linear fluid (dielectric constant: 7.2) occupying 0.986916 of unit cell:	Completed after 0 iterations at t[s]:  36499.50
	Linear fluid (dielectric constant: 7.2) occupying 0.986916 of unit cell:	Completed after 0 iterations at t[s]:  36522.50
SCF: Cycle:  4   Etot: -157.151408374663049   dEtot: +5.106e-09   |Residual|: 1.788e-05   |deigs|: 1.076e-07  t[s]:  36525.24
	Linear fluid (dielectric constant: 7.2) occupying 0.986916 of unit cell:	Completed after 0 iterations at t[s]:  36529.37
	Linear fluid (dielectric constant: 7.2) occupying 0.986916 of unit cell:	Completed after 0 iterations at t[s]:  36552.44
SCF: Cycle:  5   Etot: -157.151408383094179   dEtot: -8.431e-09   |Residual|: 1.480e-05   |deigs|: 1.629e-05  t[s]:  36555.05
	Linear fluid (dielectric constant: 7.2) occupying 0.986916 of unit cell:	Completed after 0 iterations at t[s]:  36560.13
	Linear fluid (dielectric constant: 7.2) occupying 0.986916 of unit cell:	Completed after 0 iterations at t[s]:  36581.36
SCF: Cycle:  6   Etot: -157.151408377986115   dEtot: +5.108e-09   |Residual|: 1.327e-05   |deigs|: 5.223e-08  t[s]:  36584.18
	Linear fluid (dielectric constant: 7.2) occupying 0.986916 of unit cell:	Completed after 0 iterations at t[s]:  36588.66
	Linear fluid (dielectric constant: 7.2) occupying 0.986916 of unit cell:	Completed after 0 iterations at t[s]:  36608.13
SCF: Cycle:  7   Etot: -157.151408379020467   dEtot: -1.034e-09   |Residual|: 7.013e-06   |deigs|: 1.424e-05  t[s]:  36610.71
	Linear fluid (dielectric constant: 7.2) occupying 0.986916 of unit cell:	Completed after 0 iterations at t[s]:  36614.62
	Linear fluid (dielectric constant: 7.2) occupying 0.986916 of unit cell:	Completed after 0 iterations at t[s]:  36634.07
SCF: Cycle:  8   Etot: -157.151408379451084   dEtot: -4.306e-10   |Residual|: 6.368e-06   |deigs|: 5.684e-08  t[s]:  36636.65
SCF: Converged (|Delta E|<1.000000e-08 for 2 iters).

Setting wave functions to eigenvectors of Hamiltonian

Computing DFT-D3 correction:
# coordination-number S 1.944 3.065 2.755 2.786 3.070 1.937
# coordination-number Na 3.062 3.039
# diagonal-C6 S 125.95 125.81 125.81 125.81 125.81 125.96
# diagonal-C6 Na 186.11 186.11
EvdW_6 =   -0.001296
EvdW_8 =   -0.008451

# Ionic positions in cartesian coordinates:
ion S   3.924573286442918  12.022249625121493  23.188923879087366 1
ion S   7.585220837925043  11.448663044142343  23.985381049798733 1
ion S   8.605276588151696   7.842323221619883  23.359559960846678 1
ion S   6.594152822593167   7.668784180181630  29.503548785453319 1
ion S   7.518461011577187  11.329159853269623  29.049897232417020 1
ion S  11.153490626881142  11.969400103802915  29.895316160231378 1
ion Na   3.384619381225355   6.954336974605824  25.084743474877069 1
ion Na  11.828076641103483   6.977434692866284  27.801749315688443 1

# Forces in Cartesian coordinates:
force S   0.000249707330772  -0.000119247165732   0.000386713694211 1
force S  -0.000078447796063   0.000070638396718   0.000230720526100 1
force S   0.000080501089744   0.000012623797819   0.000115034749951 1
force S   0.000121183866342   0.000095840596758   0.000351661881292 1
force S  -0.000427766826393   0.000125858523739   0.000200687284377 1
force S   0.000192472107538  -0.000412274604481   0.000159979355348 1
force Na  -0.000176953671590   0.000112668883881   0.000269004151694 1
force Na   0.000143482452149   0.000265119035659   0.000467857292416 1

# Energy components:
   A_diel =       -0.0671789242359338
   Eewald =      139.5790317887996821
       EH =      269.1903797023829270
     Eloc =     -443.6618627017473955
      Enl =     -133.1714858248075757
     EvdW =       -0.0097472900832854
      Exc =      -39.5905112190216428
 Exc_core =       10.6063793970942672
       KE =       39.9735866921678564
-------------------------------------
     Etot =     -157.1514083794510839

IonicMinimize: Iter:  22  Etot: -157.151408379451084  |grad|_K:  1.776e-04  alpha:  2.260e+00  linmin:  2.426e-02  t[s]:  36654.40

#--- Lowdin population analysis ---
# oxidation-state S -0.474 +0.374 -0.451 -0.453 +0.374 -0.473
# oxidation-state Na +0.816 +0.817


Computing DFT-D3 correction:
# coordination-number S 1.944 3.065 2.755 2.788 3.071 1.939
# coordination-number Na 3.063 3.042
# diagonal-C6 S 125.95 125.81 125.81 125.81 125.81 125.95
# diagonal-C6 Na 186.11 186.11
EvdW_6 =   -0.001295
EvdW_8 =   -0.008450

-------- Electronic minimization -----------
Will mix electronic density at each iteration.
	Linear fluid (dielectric constant: 7.2) occupying 0.986917 of unit cell:	Completed after 2 iterations at t[s]:  36668.88
	Linear fluid (dielectric constant: 7.2) occupying 0.986917 of unit cell:	Completed after 1 iterations at t[s]:  36692.58
SCF: Cycle:  0   Etot: -157.151408756104502   dEtot: -1.178e-06   |Residual|: 3.882e-04   |deigs|: 3.953e-08  t[s]:  36695.32
	Linear fluid (dielectric constant: 7.2) occupying 0.986917 of unit cell:	Completed after 1 iterations at t[s]:  36702.55
	Linear fluid (dielectric constant: 7.2) occupying 0.986917 of unit cell:	Completed after 1 iterations at t[s]:  36724.95
SCF: Cycle:  1   Etot: -157.151409124808737   dEtot: -3.687e-07   |Residual|: 2.012e-04   |deigs|: 9.629e-06  t[s]:  36727.50
	Linear fluid (dielectric constant: 7.2) occupying 0.986917 of unit cell:	Completed after 0 iterations at t[s]:  36733.00
	Linear fluid (dielectric constant: 7.2) occupying 0.986917 of unit cell:	Completed after 1 iterations at t[s]:  36755.21
SCF: Cycle:  2   Etot: -157.151409229792677   dEtot: -1.050e-07   |Residual|: 7.581e-05   |deigs|: 1.581e-05  t[s]:  36757.79
	Linear fluid (dielectric constant: 7.2) occupying 0.986917 of unit cell:	Completed after 0 iterations at t[s]:  36763.19
	Linear fluid (dielectric constant: 7.2) occupying 0.986917 of unit cell:	Completed after 0 iterations at t[s]:  36782.67
SCF: Cycle:  3   Etot: -157.151409272386502   dEtot: -4.259e-08   |Residual|: 4.436e-05   |deigs|: 9.869e-06  t[s]:  36785.40
	Linear fluid (dielectric constant: 7.2) occupying 0.986917 of unit cell:	Completed after 0 iterations at t[s]:  36789.49
	Linear fluid (dielectric constant: 7.2) occupying 0.986917 of unit cell:	Completed after 0 iterations at t[s]:  36810.48
SCF: Cycle:  4   Etot: -157.151409272854750   dEtot: -4.682e-10   |Residual|: 2.200e-05   |deigs|: 1.759e-07  t[s]:  36813.26
	Linear fluid (dielectric constant: 7.2) occupying 0.986917 of unit cell:	Completed after 0 iterations at t[s]:  36817.16
	Linear fluid (dielectric constant: 7.2) occupying 0.986917 of unit cell:	Completed after 0 iterations at t[s]:  36840.82
SCF: Cycle:  5   Etot: -157.151409285474074   dEtot: -1.262e-08   |Residual|: 2.262e-05   |deigs|: 8.346e-06  t[s]:  36843.32
	Linear fluid (dielectric constant: 7.2) occupying 0.986917 of unit cell:	Completed after 0 iterations at t[s]:  36847.17
	Linear fluid (dielectric constant: 7.2) occupying 0.986917 of unit cell:	Completed after 0 iterations at t[s]:  36866.71
SCF: Cycle:  6   Etot: -157.151409287914532   dEtot: -2.440e-09   |Residual|: 2.038e-05   |deigs|: 3.654e-08  t[s]:  36869.22
	Linear fluid (dielectric constant: 7.2) occupying 0.986917 of unit cell:	Completed after 0 iterations at t[s]:  36873.08
	Linear fluid (dielectric constant: 7.2) occupying 0.986917 of unit cell:	Completed after 0 iterations at t[s]:  36894.28
SCF: Cycle:  7   Etot: -157.151409281131947   dEtot: +6.783e-09   |Residual|: 1.491e-05   |deigs|: 8.225e-08  t[s]:  36896.83
	Linear fluid (dielectric constant: 7.2) occupying 0.986917 of unit cell:	Completed after 0 iterations at t[s]:  36900.96
	Linear fluid (dielectric constant: 7.2) occupying 0.986917 of unit cell:	Completed after 0 iterations at t[s]:  36920.33
SCF: Cycle:  8   Etot: -157.151409286969425   dEtot: -5.837e-09   |Residual|: 1.210e-05   |deigs|: 1.073e-05  t[s]:  36923.20
	Linear fluid (dielectric constant: 7.2) occupying 0.986917 of unit cell:	Completed after 0 iterations at t[s]:  36927.59
	Linear fluid (dielectric constant: 7.2) occupying 0.986917 of unit cell:	Completed after 0 iterations at t[s]:  36946.95
SCF: Cycle:  9   Etot: -157.151409288480295   dEtot: -1.511e-09   |Residual|: 1.386e-05   |deigs|: 2.326e-08  t[s]:  36949.78
SCF: Converged (|Delta E|<1.000000e-08 for 2 iters).

Setting wave functions to eigenvectors of Hamiltonian

Computing DFT-D3 correction:
# coordination-number S 1.944 3.065 2.755 2.788 3.071 1.939
# coordination-number Na 3.063 3.042
# diagonal-C6 S 125.95 125.81 125.81 125.81 125.81 125.95
# diagonal-C6 Na 186.11 186.11
EvdW_6 =   -0.001295
EvdW_8 =   -0.008449

-------- Electronic minimization -----------
Will mix electronic density at each iteration.
	Linear fluid (dielectric constant: 7.2) occupying 0.986917 of unit cell:	Completed after 1 iterations at t[s]:  36966.58
	Linear fluid (dielectric constant: 7.2) occupying 0.986917 of unit cell:	Completed after 0 iterations at t[s]:  36988.74
SCF: Cycle:  0   Etot: -157.151409300300003   dEtot: -4.347e-08   |Residual|: 6.910e-05   |deigs|: 1.333e-09  t[s]:  36991.45
	Linear fluid (dielectric constant: 7.2) occupying 0.986917 of unit cell:	Completed after 0 iterations at t[s]:  36995.44
	Linear fluid (dielectric constant: 7.2) occupying 0.986917 of unit cell:	Completed after 0 iterations at t[s]:  37015.25
SCF: Cycle:  1   Etot: -157.151409317227916   dEtot: -1.693e-08   |Residual|: 2.549e-05   |deigs|: 1.324e-05  t[s]:  37018.02
	Linear fluid (dielectric constant: 7.2) occupying 0.986917 of unit cell:	Completed after 0 iterations at t[s]:  37021.86
	Linear fluid (dielectric constant: 7.2) occupying 0.986917 of unit cell:	Completed after 0 iterations at t[s]:  37042.70
SCF: Cycle:  2   Etot: -157.151409312793874   dEtot: +4.434e-09   |Residual|: 1.913e-05   |deigs|: 5.350e-08  t[s]:  37045.42
	Linear fluid (dielectric constant: 7.2) occupying 0.986917 of unit cell:	Completed after 0 iterations at t[s]:  37049.27
	Linear fluid (dielectric constant: 7.2) occupying 0.986917 of unit cell:	Completed after 0 iterations at t[s]:  37068.80
SCF: Cycle:  3   Etot: -157.151409315247832   dEtot: -2.454e-09   |Residual|: 8.403e-06   |deigs|: 1.391e-05  t[s]:  37071.35
	Linear fluid (dielectric constant: 7.2) occupying 0.986917 of unit cell:	Completed after 0 iterations at t[s]:  37075.37
	Linear fluid (dielectric constant: 7.2) occupying 0.986917 of unit cell:	Completed after 0 iterations at t[s]:  37095.04
SCF: Cycle:  4   Etot: -157.151409316174238   dEtot: -9.264e-10   |Residual|: 7.854e-06   |deigs|: 2.734e-08  t[s]:  37097.56
SCF: Converged (|Delta E|<1.000000e-08 for 2 iters).

Setting wave functions to eigenvectors of Hamiltonian

Computing DFT-D3 correction:
# coordination-number S 1.944 3.065 2.755 2.788 3.071 1.939
# coordination-number Na 3.063 3.042
# diagonal-C6 S 125.95 125.81 125.81 125.81 125.81 125.95
# diagonal-C6 Na 186.11 186.11
EvdW_6 =   -0.001295
EvdW_8 =   -0.008449

# Ionic positions in cartesian coordinates:
ion S   3.925201222293697  12.022274004847210  23.188807541012327 1
ion S   7.586236603729389  11.449462402596723  23.985482883059518 1
ion S   8.605451448489518   7.841620902850393  23.358694622587468 1
ion S   6.596044178925775   7.668230303923507  29.502303302383979 1
ion S   7.517242738190026  11.327903775553491  29.050460339820091 1
ion S  11.151457044503637  11.967170800556627  29.895101903298922 1
ion Na   3.384182883816629   6.956322075602863  25.087266273302308 1
ion Na  11.828055075951323   6.979367429679178  27.801002992935391 1

# Forces in Cartesian coordinates:
force S   0.000313133719038  -0.000082837061825   0.000383037159093 1
force S  -0.000145401004368  -0.000181017877136   0.000190650893421 1
force S   0.000051949657468   0.000232463479856   0.000171438039007 1
force S  -0.000034654903642  -0.000159529029679   0.000400770931204 1
force S  -0.000482893681448   0.000268534320380   0.000096559210775 1
force S   0.000423042653690  -0.000286390012774   0.000245319639682 1
force Na  -0.000182258263523   0.000106732319924   0.000231455764525 1
force Na   0.000163273615542   0.000228903205689   0.000452253867637 1

# Energy components:
   A_diel =       -0.0671290968368396
   Eewald =      139.6112665163977908
       EH =      269.2227665603923583
     Eloc =     -443.7269794440011310
      Enl =     -133.1715587860729499
     EvdW =       -0.0097446764611894
      Exc =      -39.5908631982973347
 Exc_core =       10.6063794067429686
       KE =       39.9744534019620943
-------------------------------------
     Etot =     -157.1514093161742380

IonicMinimize: Iter:  23  Etot: -157.151409316174238  |grad|_K:  2.082e-04  alpha:  2.671e+00  linmin: -1.379e-02  t[s]:  37115.34
IonicMinimize: Converged (|Delta Etot|<1.000000e-06 for 2 iters).

#--- Lowdin population analysis ---
# oxidation-state S -0.475 +0.374 -0.451 -0.453 +0.375 -0.473
# oxidation-state Na +0.816 +0.817


Dumping 'Na2S6-glyme-vdw.wfns' ... done
Dumping 'Na2S6-glyme-vdw.fluidState' ... done
Dumping 'Na2S6-glyme-vdw.ionpos' ... done
End date and time: Tue Aug 20 01:55:44 2024  (Duration: 0-10:18:36.80)
Done!
