
*************** JDFTx 1.7.0  ***************

Start date and time: Sat Dec 28 17:54:48 2024
Executable jdftx_gpu with command-line: -i /home/akim2/JDFTx/Na2S6-glyme/Na2S6-glyme.in -o /home/akim2/JDFTx/Na2S6-glyme/Na2S6-glyme.out
Running on hosts (process indices):  exp-7-57 (0)
Divided in process groups (process indices):  0 (0)
gpuInit: Found compatible cuda device 0 'Tesla V100-SXM2-32GB'
gpuInit: Selected device 0
Resource initialization completed at t[s]:      0.39
Run totals: 1 processes, 1 threads, 1 GPUs


Input parsed successfully to the following command list (including defaults):

basis kpoint-dependent
coords-type Cartesian
core-overlap-check vector
coulomb-interaction Isolated
coulomb-truncation-embed 3.92133 11.8496 23.1275
davidson-band-ratio 1.1
dump End State
dump-name Na2S6-glyme.$VAR
elec-cutoff 20 100
elec-eigen-algo Davidson
elec-ex-corr gga-PBE
electronic-minimize  \
	dirUpdateScheme      FletcherReeves \
	linminMethod         DirUpdateRecommended \
	nIterations          100 \
	history              15 \
	knormThreshold       0 \
	energyDiffThreshold  1e-08 \
	nEnergyDiff          2 \
	alphaTstart          1 \
	alphaTmin            1e-10 \
	updateTestStepSize   yes \
	alphaTreduceFactor   0.1 \
	alphaTincreaseFactor 3 \
	nAlphaAdjustMax      3 \
	wolfeEnergy          0.0001 \
	wolfeGradient        0.9 \
	fdTest               no
electronic-scf  \
	nIterations	50 \
	energyDiffThreshold	1e-08 \
	residualThreshold	1e-07 \
	mixFraction	0.5 \
	qMetric	0.8 \
	history	10 \
	nEigSteps	2 \
	eigDiffThreshold	1e-08 \
	mixedVariable	Density \
	qKerker	0.8 \
	qKappa	-1 \
	verbose	no \
	mixFractionMag	1.5
exchange-regularization None
fluid LinearPCM 298.000000 1.013250
fluid-ex-corr lda-TF lda-PZ
fluid-gummel-loop 10 1.000000e-05
fluid-minimize  \
	dirUpdateScheme      PolakRibiere \
	linminMethod         DirUpdateRecommended \
	nIterations          400 \
	history              15 \
	knormThreshold       1e-11 \
	energyDiffThreshold  0 \
	nEnergyDiff          2 \
	alphaTstart          1 \
	alphaTmin            1e-10 \
	updateTestStepSize   yes \
	alphaTreduceFactor   0.1 \
	alphaTincreaseFactor 3 \
	nAlphaAdjustMax      6 \
	wolfeEnergy          0.0001 \
	wolfeGradient        0.9 \
	fdTest               no
fluid-solvent Glyme 9.62137 ScalarEOS \
	epsBulk 7.2 \
	pMol 0 \
	epsInf 1.9 \
	Pvap 0 \
	sigmaBulk 0 \
	Rvdw 0 \
	Res 0 \
	tauNuc 343133
forces-output-coords Positions
ion S   3.921331479750000  11.849557634189999  23.127532414739999 1
ion S   7.567480476899996  11.351192369400000  23.945456691719997 1
ion S   8.668781105760003   7.743174344189998  23.234262475409999 1
ion S   6.502139520210000   7.687128731849999  29.705151530609999 1
ion S   7.556913106740001  11.318358310649998  29.045040495659997 1
ion S  11.194673592419999  11.852526400019999  29.882693553839999 1
ion Na   3.832890226020000   7.182347833710000  25.239470096249999 1
ion Na  11.349661688099999   7.228066071600000  27.689512600169998 1
ion-species GBRV/$ID_pbe.uspp
ion-width Ecut
ionic-minimize  \
	dirUpdateScheme      FletcherReeves \
	linminMethod         DirUpdateRecommended \
	nIterations          200 \
	history              15 \
	knormThreshold       0.0001 \
	energyDiffThreshold  1e-06 \
	nEnergyDiff          2 \
	alphaTstart          1 \
	alphaTmin            1e-10 \
	updateTestStepSize   yes \
	alphaTreduceFactor   0.1 \
	alphaTincreaseFactor 3 \
	nAlphaAdjustMax      3 \
	wolfeEnergy          0.0001 \
	wolfeGradient        0.9 \
	fdTest               no
kpoint   0.000000000000   0.000000000000   0.000000000000  1.00000000000000
kpoint-folding 1 1 1 
latt-move-scale 1 1 1
latt-scale 1 1 1 
lattice Triclinic 28.0058 28.0058 37.7946 90 90 120
lattice-minimize  \
	dirUpdateScheme      L-BFGS \
	linminMethod         DirUpdateRecommended \
	nIterations          0 \
	history              15 \
	knormThreshold       0 \
	energyDiffThreshold  1e-06 \
	nEnergyDiff          2 \
	alphaTstart          1 \
	alphaTmin            1e-10 \
	updateTestStepSize   yes \
	alphaTreduceFactor   0.1 \
	alphaTincreaseFactor 3 \
	nAlphaAdjustMax      3 \
	wolfeEnergy          0.0001 \
	wolfeGradient        0.9 \
	fdTest               no
lcao-params -1 1e-06 0.001
pcm-variant GLSSA13
spintype no-spin
subspace-rotation-factor 1 yes
symmetries automatic
symmetry-threshold 0.0001



---------- Setting up symmetries ----------

Found 24 point-group symmetries of the bravais lattice
Found 1 space-group symmetries with basis
Applied RMS atom displacement 0 bohrs to make symmetries exact.

---------- Initializing the Grid ----------
R = 
[      28.0058     -14.0029            0  ]
[            0      24.2537            0  ]
[            0            0      37.7946  ]
unit cell volume = 25671.8
G =
[   0.224353    0.12953         -0  ]
[          0   0.259061          0  ]
[          0         -0   0.166246  ]
Minimum fftbox size, Smin = [  128  128  172  ]
Chosen fftbox size, S = [  128  128  180  ]

---------- Initializing tighter grid for wavefunction operations ----------
R = 
[      28.0058     -14.0029            0  ]
[            0      24.2537            0  ]
[            0            0      37.7946  ]
unit cell volume = 25671.8
G =
[   0.224353    0.12953         -0  ]
[          0   0.259061          0  ]
[          0         -0   0.166246  ]
Minimum fftbox size, Smin = [  116  116  156  ]
Chosen fftbox size, S = [  120  120  160  ]

---------- Exchange Correlation functional ----------
Initalized PBE GGA exchange.
Initalized PBE GGA correlation.

---------- Setting up pseudopotentials ----------
Width of ionic core gaussian charges (only for fluid interactions / plotting) set to 0.397384

Reading pseudopotential file '/home/akim2/jdftx_install/build/pseudopotentials/GBRV/s_pbe.uspp':
  Title: S.  Created by USPP 7.3.6 on 1-4-15
  Reference state energy: -11.898476.  6 valence electrons in orbitals:
    |300>  occupation: 2  eigenvalue: -0.634167
    |310>  occupation: 4  eigenvalue: -0.257568
  lMax: 2  lLocal: 3  QijEcut: 6
  6 projectors sampled on a log grid with 635 points:
    l: 0  eig: -0.634161  rCut: 1.5
    l: 0  eig: 1.500000  rCut: 1.5
    l: 1  eig: -0.257567  rCut: 1.5
    l: 1  eig: 1.500000  rCut: 1.5
    l: 2  eig: -1.000000  rCut: 1.5
    l: 2  eig: 1.500000  rCut: 1.5
  Partial core density with radius 1.15
  Transforming core density to a uniform radial grid of dG=0.02 with 1625 points.
  Transforming local potential to a uniform radial grid of dG=0.02 with 1625 points.
  Transforming nonlocal projectors to a uniform radial grid of dG=0.02 with 432 points.
  Transforming density augmentations to a uniform radial grid of dG=0.02 with 1625 points.
  Transforming atomic orbitals to a uniform radial grid of dG=0.02 with 432 points.
  Core radius for overlap checks: 1.50 bohrs.

Reading pseudopotential file '/home/akim2/jdftx_install/build/pseudopotentials/GBRV/na_pbe.uspp':
  Title: Na.  Created by USPP 7.3.6 on 23-9-15
  Reference state energy: -47.625620.  9 valence electrons in orbitals:
    |200>  occupation: 2  eigenvalue: -2.085638
    |210>  occupation: 6  eigenvalue: -1.053708
    |300>  occupation: 1  eigenvalue: -0.100838
  lMax: 2  lLocal: 0  QijEcut: 6
  5 projectors sampled on a log grid with 657 points:
    l: 0  eig: -2.085640  rCut: 1.37
    l: 0  eig: -0.100839  rCut: 1.37
    l: 1  eig: -1.053708  rCut: 1.47
    l: 1  eig: 0.500000  rCut: 1.47
    l: 2  eig: 0.750000  rCut: 2
  Transforming local potential to a uniform radial grid of dG=0.02 with 1625 points.
  Transforming nonlocal projectors to a uniform radial grid of dG=0.02 with 432 points.
  Transforming density augmentations to a uniform radial grid of dG=0.02 with 1625 points.
  Transforming atomic orbitals to a uniform radial grid of dG=0.02 with 432 points.
  Core radius for overlap checks: 2.00 bohrs.

Initialized 2 species with 8 total atoms.

Folded 1 k-points by 1x1x1 to 1 k-points.

---------- Setting up k-points, bands, fillings ----------
No reducable k-points. 
Computing the number of bands and number of electrons
Calculating initial fillings.
nElectrons:  54.000000   nBands: 27   nStates: 1

----- Setting up reduced wavefunction bases (one per k-point) -----
average nbasis = 109673.000 , ideal nbasis = 109671.883

---------- Setting up coulomb interaction ----------
Fluid mode embedding: using embedded box, but periodic Coulomb kernel.
(Fluid response is responsible for (approximate) separation between periodic images.)
Setting up double-sized grid for truncated Coulomb potentials:
R = 
[      56.0116     -28.0058            0  ]
[            0      48.5075            0  ]
[            0            0      75.5892  ]
unit cell volume = 205374
G =
[   0.112177  0.0647651         -0  ]
[          0    0.12953          0  ]
[          0         -0  0.0831228  ]
Chosen fftbox size, S = [  256  256  360  ]
Integer grid location selected as the embedding center:
   Grid: [  49  63  110  ]
   Lattice: [  0.384302  0.488566  0.611927  ]
   Cartesian: [  3.92133  11.8496  23.1275  ]
Constructing Wigner-Seitz cell: 8 faces (6 quadrilaterals, 2 hexagons)
Range-separation parameter for embedded mesh potentials due to point charges: 0.590105 bohrs.

---------- Setting up ewald sum ----------
Optimum gaussian width for ewald sums = 16.643468 bohr.
Real space sum over 1089 unit cells with max indices [  5  5  4  ]
Reciprocal space sum over 3825 terms with max indices [  7  7  8  ]

---------- Allocating electronic variables ----------
Initializing wave functions:  linear combination of atomic orbitals
S pseudo-atom occupations:   s ( 2 )  p ( 4 )
Na pseudo-atom occupations:   s ( 2 1 )  p ( 6 )
	FillingsUpdate:  mu: -0.164955365  nElectrons: 54.000000
LCAOMinimize: Iter:   0  Etot: -156.5595025291391664  |grad|_K:  2.735e-02  alpha:  1.000e+00
	FillingsUpdate:  mu: -0.148280260  nElectrons: 54.000000
LCAOMinimize: Iter:   1  Etot: -156.6973850260835377  |grad|_K:  7.073e-03  alpha:  3.525e-01  linmin:  3.116e-01  cgtest: -7.197e-01  t[s]:      3.99
	FillingsUpdate:  mu: -0.152264760  nElectrons: 54.000000
LCAOMinimize: Iter:   2  Etot: -156.7002377605796539  |grad|_K:  7.228e-03  alpha:  3.169e-01  linmin:  3.447e-03  cgtest:  8.448e-01  t[s]:      4.37
	FillingsUpdate:  mu: -0.166441425  nElectrons: 54.000000
LCAOMinimize: Iter:   3  Etot: -156.7102118753117281  |grad|_K:  7.707e-04  alpha:  3.123e-01  linmin:  3.211e-02  cgtest: -2.577e-01  t[s]:      4.77
LCAOMinimize: None of the convergence criteria satisfied after 3 iterations.
----- createFluidSolver() ----- (Fluid-side solver setup)
   Initializing fluid molecule 'Glyme'
     Net charge: 0   dipole magnitude: 0
     Initializing spherical shell mfKernel with radius 0 Bohr
     deltaS corrections:

Correction to mu due to finite nuclear width = -0.000260884
   Cavity determined by nc: 8.36e-05 and sigma: 0.6
   Effective cavity tension: -8.03e-06 Eh/bohr^2 to account for cavitation and dispersion.


---- Citations for features of the code used in this run ----

   Software package:
      R. Sundararaman, K. Letchworth-Weaver, K.A. Schwarz, D. Gunceler, Y. Ozhabes and T.A. Arias, 'JDFTx: software for joint density-functional theory', SoftwareX 6, 278 (2017)

   gga-PBE exchange-correlation functional:
      J.P. Perdew, K. Burke and M. Ernzerhof, Phys. Rev. Lett. 77, 3865 (1996)

   Pseudopotentials:
      KF Garrity, JW Bennett, KM Rabe and D Vanderbilt, Comput. Mater. Sci. 81, 446 (2014)

   Truncated Coulomb potentials:
      R. Sundararaman and T.A. Arias, Phys. Rev. B 87, 165122 (2013)

   Linear/nonlinear dielectric/ionic fluid model with effective cavity tension:
      D. Gunceler, K. Letchworth-Weaver, R. Sundararaman, K.A. Schwarz and T.A. Arias, Modelling Simul. Mater. Sci. Eng. 21, 074005 (2013)

This list may not be complete. Please suggest additional citations or
report any other bugs at https://github.com/shankar1729/jdftx/issues

Initialization completed successfully at t[s]:      4.78

Fluid solver invoked on fresh (random / LCAO) wavefunctions
Running a vacuum solve first:

-------- Initial electronic minimization -----------
Will mix electronic density at each iteration.
SCF: Cycle:  0   Etot: -156.906963169533043   dEtot: -1.968e-01   |Residual|: 2.743e-01   |deigs|: 1.230e-02  t[s]:      5.37
SCF: Cycle:  1   Etot: -157.042199925769864   dEtot: -1.352e-01   |Residual|: 1.407e-01   |deigs|: 1.583e-02  t[s]:      5.81
SCF: Cycle:  2   Etot: -157.091181635722620   dEtot: -4.898e-02   |Residual|: 5.628e-02   |deigs|: 1.500e-02  t[s]:      6.26
SCF: Cycle:  3   Etot: -157.094982976624976   dEtot: -3.801e-03   |Residual|: 3.193e-02   |deigs|: 5.117e-03  t[s]:      6.71
SCF: Cycle:  4   Etot: -157.097557496516401   dEtot: -2.575e-03   |Residual|: 1.594e-02   |deigs|: 6.370e-03  t[s]:      7.15
SCF: Cycle:  5   Etot: -157.098213094877195   dEtot: -6.556e-04   |Residual|: 1.293e-02   |deigs|: 1.699e-03  t[s]:      7.60
SCF: Cycle:  6   Etot: -157.098311706931241   dEtot: -9.861e-05   |Residual|: 8.497e-03   |deigs|: 4.015e-03  t[s]:      8.05
SCF: Cycle:  7   Etot: -157.098285396127750   dEtot: +2.631e-05   |Residual|: 9.046e-03   |deigs|: 7.061e-04  t[s]:      8.48
SCF: Cycle:  8   Etot: -157.098559179430481   dEtot: -2.738e-04   |Residual|: 3.802e-03   |deigs|: 3.308e-03  t[s]:      8.92
SCF: Cycle:  9   Etot: -157.098551513856819   dEtot: +7.666e-06   |Residual|: 4.200e-03   |deigs|: 1.408e-03  t[s]:      9.35
SCF: Cycle: 10   Etot: -157.098581778556053   dEtot: -3.026e-05   |Residual|: 3.099e-03   |deigs|: 1.398e-03  t[s]:      9.77
SCF: Cycle: 11   Etot: -157.098580509175520   dEtot: +1.269e-06   |Residual|: 3.018e-03   |deigs|: 4.720e-04  t[s]:     10.21
SCF: Cycle: 12   Etot: -157.098603603141555   dEtot: -2.309e-05   |Residual|: 3.110e-03   |deigs|: 2.504e-04  t[s]:     10.67
SCF: Cycle: 13   Etot: -157.098616233293626   dEtot: -1.263e-05   |Residual|: 2.003e-03   |deigs|: 5.327e-04  t[s]:     11.12
SCF: Cycle: 14   Etot: -157.098624466938929   dEtot: -8.234e-06   |Residual|: 1.389e-03   |deigs|: 1.691e-04  t[s]:     11.51
SCF: Cycle: 15   Etot: -157.098633476047553   dEtot: -9.009e-06   |Residual|: 8.456e-04   |deigs|: 2.577e-04  t[s]:     11.90
SCF: Cycle: 16   Etot: -157.098637546739496   dEtot: -4.071e-06   |Residual|: 6.896e-04   |deigs|: 1.511e-04  t[s]:     12.28
SCF: Cycle: 17   Etot: -157.098638874168245   dEtot: -1.327e-06   |Residual|: 6.443e-04   |deigs|: 1.372e-04  t[s]:     12.67
SCF: Cycle: 18   Etot: -157.098639731831014   dEtot: -8.577e-07   |Residual|: 5.044e-04   |deigs|: 1.792e-04  t[s]:     13.07
SCF: Cycle: 19   Etot: -157.098638833662960   dEtot: +8.982e-07   |Residual|: 6.595e-04   |deigs|: 1.259e-04  t[s]:     13.47
SCF: Cycle: 20   Etot: -157.098639757975945   dEtot: -9.243e-07   |Residual|: 3.958e-04   |deigs|: 2.246e-04  t[s]:     13.85
SCF: Cycle: 21   Etot: -157.098640094233645   dEtot: -3.363e-07   |Residual|: 3.104e-04   |deigs|: 2.571e-05  t[s]:     14.23
SCF: Cycle: 22   Etot: -157.098640151239096   dEtot: -5.701e-08   |Residual|: 2.732e-04   |deigs|: 9.858e-05  t[s]:     14.62
SCF: Cycle: 23   Etot: -157.098640366515383   dEtot: -2.153e-07   |Residual|: 1.448e-04   |deigs|: 6.712e-05  t[s]:     15.08
SCF: Cycle: 24   Etot: -157.098640661262749   dEtot: -2.947e-07   |Residual|: 1.152e-04   |deigs|: 2.915e-05  t[s]:     15.47
SCF: Cycle: 25   Etot: -157.098640831907232   dEtot: -1.706e-07   |Residual|: 1.040e-04   |deigs|: 2.619e-05  t[s]:     15.86
SCF: Cycle: 26   Etot: -157.098640933710669   dEtot: -1.018e-07   |Residual|: 9.928e-05   |deigs|: 6.774e-05  t[s]:     16.24
SCF: Cycle: 27   Etot: -157.098640991719833   dEtot: -5.801e-08   |Residual|: 7.264e-05   |deigs|: 1.921e-05  t[s]:     16.63
SCF: Cycle: 28   Etot: -157.098641017753295   dEtot: -2.603e-08   |Residual|: 7.979e-05   |deigs|: 1.081e-05  t[s]:     17.01
SCF: Cycle: 29   Etot: -157.098641062298498   dEtot: -4.455e-08   |Residual|: 3.078e-05   |deigs|: 8.528e-06  t[s]:     17.46
SCF: Cycle: 30   Etot: -157.098641074349047   dEtot: -1.205e-08   |Residual|: 2.947e-05   |deigs|: 4.195e-06  t[s]:     17.85
SCF: Cycle: 31   Etot: -157.098641086796022   dEtot: -1.245e-08   |Residual|: 1.909e-05   |deigs|: 4.022e-06  t[s]:     18.30
SCF: Cycle: 32   Etot: -157.098641090333359   dEtot: -3.537e-09   |Residual|: 1.664e-05   |deigs|: 1.138e-05  t[s]:     18.70
SCF: Cycle: 33   Etot: -157.098641097871905   dEtot: -7.539e-09   |Residual|: 8.023e-06   |deigs|: 3.228e-06  t[s]:     19.14
SCF: Converged (|Delta E|<1.000000e-08 for 2 iters).

Setting wave functions to eigenvectors of Hamiltonian
Vacuum energy after initial minimize, Etot = -157.098641097871905


-------- Electronic minimization -----------
Will mix electronic density at each iteration.
	Linear fluid (dielectric constant: 7.2) occupying 0.986719 of unit cell:	Completed after 9 iterations at t[s]:     19.94
	Linear fluid (dielectric constant: 7.2) occupying 0.986934 of unit cell:	Completed after 7 iterations at t[s]:     21.17
SCF: Cycle:  0   Etot: -157.132652463636589   dEtot: -6.965e-03   |Residual|: 1.597e-02   |deigs|: 2.442e-04  t[s]:     21.37
	Linear fluid (dielectric constant: 7.2) occupying 0.986721 of unit cell:	Completed after 7 iterations at t[s]:     22.09
	Linear fluid (dielectric constant: 7.2) occupying 0.987018 of unit cell:	Completed after 7 iterations at t[s]:     23.27
SCF: Cycle:  1   Etot: -157.133856516936618   dEtot: -1.204e-03   |Residual|: 1.170e-02   |deigs|: 1.098e-03  t[s]:     23.51
	Linear fluid (dielectric constant: 7.2) occupying 0.986628 of unit cell:	Completed after 7 iterations at t[s]:     24.27
	Linear fluid (dielectric constant: 7.2) occupying 0.987069 of unit cell:	Completed after 7 iterations at t[s]:     25.55
SCF: Cycle:  2   Etot: -157.134896976037965   dEtot: -1.040e-03   |Residual|: 7.657e-03   |deigs|: 2.436e-03  t[s]:     25.82
	Linear fluid (dielectric constant: 7.2) occupying 0.986704 of unit cell:	Completed after 7 iterations at t[s]:     26.60
	Linear fluid (dielectric constant: 7.2) occupying 0.987078 of unit cell:	Completed after 7 iterations at t[s]:     27.83
SCF: Cycle:  3   Etot: -157.134974461489435   dEtot: -7.749e-05   |Residual|: 6.964e-03   |deigs|: 1.425e-03  t[s]:     28.10
	Linear fluid (dielectric constant: 7.2) occupying 0.986643 of unit cell:	Completed after 6 iterations at t[s]:     28.79
	Linear fluid (dielectric constant: 7.2) occupying 0.987134 of unit cell:	Completed after 7 iterations at t[s]:     30.07
SCF: Cycle:  4   Etot: -157.135801372374175   dEtot: -8.269e-04   |Residual|: 6.791e-03   |deigs|: 1.840e-03  t[s]:     30.33
	Linear fluid (dielectric constant: 7.2) occupying 0.986643 of unit cell:	Completed after 6 iterations at t[s]:     31.03
	Linear fluid (dielectric constant: 7.2) occupying 0.987138 of unit cell:	Completed after 7 iterations at t[s]:     32.24
SCF: Cycle:  5   Etot: -157.135864682486044   dEtot: -6.331e-05   |Residual|: 6.413e-03   |deigs|: 9.275e-05  t[s]:     32.49
	Linear fluid (dielectric constant: 7.2) occupying 0.986633 of unit cell:	Completed after 7 iterations at t[s]:     33.26
	Linear fluid (dielectric constant: 7.2) occupying 0.987134 of unit cell:	Completed after 7 iterations at t[s]:     34.45
SCF: Cycle:  6   Etot: -157.135783185647796   dEtot: +8.150e-05   |Residual|: 7.140e-03   |deigs|: 3.250e-04  t[s]:     34.71
	Linear fluid (dielectric constant: 7.2) occupying 0.986911 of unit cell:	Completed after 6 iterations at t[s]:     35.43
	Linear fluid (dielectric constant: 7.2) occupying 0.987153 of unit cell:	Completed after 6 iterations at t[s]:     36.67
SCF: Cycle:  7   Etot: -157.136913545393838   dEtot: -1.130e-03   |Residual|: 4.528e-03   |deigs|: 6.611e-03  t[s]:     36.88
	Linear fluid (dielectric constant: 7.2) occupying 0.986969 of unit cell:	Completed after 5 iterations at t[s]:     37.53
	Linear fluid (dielectric constant: 7.2) occupying 0.987151 of unit cell:	Completed after 6 iterations at t[s]:     38.74
SCF: Cycle:  8   Etot: -157.136993895268859   dEtot: -8.035e-05   |Residual|: 4.190e-03   |deigs|: 5.992e-04  t[s]:     38.97
	Linear fluid (dielectric constant: 7.2) occupying 0.987008 of unit cell:	Completed after 5 iterations at t[s]:     39.61
	Linear fluid (dielectric constant: 7.2) occupying 0.987150 of unit cell:	Completed after 6 iterations at t[s]:     40.76
SCF: Cycle:  9   Etot: -157.137042530167122   dEtot: -4.863e-05   |Residual|: 1.776e-03   |deigs|: 4.212e-04  t[s]:     40.99
	Linear fluid (dielectric constant: 7.2) occupying 0.987130 of unit cell:	Completed after 5 iterations at t[s]:     41.64
	Linear fluid (dielectric constant: 7.2) occupying 0.987127 of unit cell:	Completed after 6 iterations at t[s]:     42.84
SCF: Cycle: 10   Etot: -157.136989093279908   dEtot: +5.344e-05   |Residual|: 6.616e-03   |deigs|: 1.425e-03  t[s]:     43.08
	Linear fluid (dielectric constant: 7.2) occupying 0.987153 of unit cell:	Completed after 4 iterations at t[s]:     43.70
	Linear fluid (dielectric constant: 7.2) occupying 0.987124 of unit cell:	Completed after 5 iterations at t[s]:     44.80
SCF: Cycle: 11   Etot: -157.137028195466343   dEtot: -3.910e-05   |Residual|: 6.146e-03   |deigs|: 7.011e-04  t[s]:     45.02
	Linear fluid (dielectric constant: 7.2) occupying 0.987159 of unit cell:	Completed after 5 iterations at t[s]:     45.67
	Linear fluid (dielectric constant: 7.2) occupying 0.987115 of unit cell:	Completed after 5 iterations at t[s]:     46.84
SCF: Cycle: 12   Etot: -157.137136630374613   dEtot: -1.084e-04   |Residual|: 3.081e-03   |deigs|: 1.019e-03  t[s]:     47.03
	Linear fluid (dielectric constant: 7.2) occupying 0.987062 of unit cell:	Completed after 5 iterations at t[s]:     47.69
	Linear fluid (dielectric constant: 7.2) occupying 0.987113 of unit cell:	Completed after 5 iterations at t[s]:     48.83
SCF: Cycle: 13   Etot: -157.137166681292967   dEtot: -3.005e-05   |Residual|: 1.536e-03   |deigs|: 2.579e-04  t[s]:     49.04
	Linear fluid (dielectric constant: 7.2) occupying 0.987047 of unit cell:	Completed after 5 iterations at t[s]:     49.70
	Linear fluid (dielectric constant: 7.2) occupying 0.987105 of unit cell:	Completed after 5 iterations at t[s]:     50.79
SCF: Cycle: 14   Etot: -157.137171997686323   dEtot: -5.316e-06   |Residual|: 1.848e-03   |deigs|: 1.084e-04  t[s]:     50.99
	Linear fluid (dielectric constant: 7.2) occupying 0.987032 of unit cell:	Completed after 4 iterations at t[s]:     51.60
	Linear fluid (dielectric constant: 7.2) occupying 0.987094 of unit cell:	Completed after 5 iterations at t[s]:     52.72
SCF: Cycle: 15   Etot: -157.137197059629415   dEtot: -2.506e-05   |Residual|: 8.260e-04   |deigs|: 7.489e-04  t[s]:     52.93
	Linear fluid (dielectric constant: 7.2) occupying 0.987015 of unit cell:	Completed after 3 iterations at t[s]:     53.51
	Linear fluid (dielectric constant: 7.2) occupying 0.987094 of unit cell:	Completed after 3 iterations at t[s]:     54.49
SCF: Cycle: 16   Etot: -157.137199228504073   dEtot: -2.169e-06   |Residual|: 1.092e-03   |deigs|: 4.627e-04  t[s]:     54.68
	Linear fluid (dielectric constant: 7.2) occupying 0.987015 of unit cell:	Completed after 5 iterations at t[s]:     55.34
	Linear fluid (dielectric constant: 7.2) occupying 0.987096 of unit cell:	Completed after 5 iterations at t[s]:     56.45
SCF: Cycle: 17   Etot: -157.137195439287723   dEtot: +3.789e-06   |Residual|: 1.277e-03   |deigs|: 5.955e-04  t[s]:     56.64
	Linear fluid (dielectric constant: 7.2) occupying 0.987028 of unit cell:	Completed after 4 iterations at t[s]:     57.25
	Linear fluid (dielectric constant: 7.2) occupying 0.987095 of unit cell:	Completed after 4 iterations at t[s]:     58.26
SCF: Cycle: 18   Etot: -157.137199754086822   dEtot: -4.315e-06   |Residual|: 5.389e-04   |deigs|: 8.816e-05  t[s]:     58.45
	Linear fluid (dielectric constant: 7.2) occupying 0.987041 of unit cell:	Completed after 3 iterations at t[s]:     59.02
	Linear fluid (dielectric constant: 7.2) occupying 0.987094 of unit cell:	Completed after 3 iterations at t[s]:     59.99
SCF: Cycle: 19   Etot: -157.137201868509464   dEtot: -2.114e-06   |Residual|: 2.838e-04   |deigs|: 8.710e-05  t[s]:     60.19
	Linear fluid (dielectric constant: 7.2) occupying 0.987065 of unit cell:	Completed after 4 iterations at t[s]:     60.80
	Linear fluid (dielectric constant: 7.2) occupying 0.987095 of unit cell:	Completed after 4 iterations at t[s]:     61.79
SCF: Cycle: 20   Etot: -157.137201127265314   dEtot: +7.412e-07   |Residual|: 2.314e-04   |deigs|: 1.008e-04  t[s]:     61.99
	Linear fluid (dielectric constant: 7.2) occupying 0.987074 of unit cell:	Completed after 4 iterations at t[s]:     62.60
	Linear fluid (dielectric constant: 7.2) occupying 0.987096 of unit cell:	Completed after 4 iterations at t[s]:     63.60
SCF: Cycle: 21   Etot: -157.137201808246175   dEtot: -6.810e-07   |Residual|: 2.210e-04   |deigs|: 5.231e-05  t[s]:     63.79
	Linear fluid (dielectric constant: 7.2) occupying 0.987089 of unit cell:	Completed after 2 iterations at t[s]:     64.33
	Linear fluid (dielectric constant: 7.2) occupying 0.987098 of unit cell:	Completed after 3 iterations at t[s]:     65.37
SCF: Cycle: 22   Etot: -157.137203508130028   dEtot: -1.700e-06   |Residual|: 1.839e-04   |deigs|: 2.513e-04  t[s]:     65.56
	Linear fluid (dielectric constant: 7.2) occupying 0.987092 of unit cell:	Completed after 2 iterations at t[s]:     66.10
	Linear fluid (dielectric constant: 7.2) occupying 0.987098 of unit cell:	Completed after 2 iterations at t[s]:     67.03
SCF: Cycle: 23   Etot: -157.137203777775483   dEtot: -2.696e-07   |Residual|: 1.559e-04   |deigs|: 1.926e-05  t[s]:     67.22
	Linear fluid (dielectric constant: 7.2) occupying 0.987092 of unit cell:	Completed after 2 iterations at t[s]:     67.76
	Linear fluid (dielectric constant: 7.2) occupying 0.987099 of unit cell:	Completed after 2 iterations at t[s]:     68.66
SCF: Cycle: 24   Etot: -157.137204065934156   dEtot: -2.882e-07   |Residual|: 1.561e-04   |deigs|: 2.100e-05  t[s]:     68.85
	Linear fluid (dielectric constant: 7.2) occupying 0.987092 of unit cell:	Completed after 2 iterations at t[s]:     69.38
	Linear fluid (dielectric constant: 7.2) occupying 0.987099 of unit cell:	Completed after 1 iterations at t[s]:     70.21
SCF: Cycle: 25   Etot: -157.137204305292641   dEtot: -2.394e-07   |Residual|: 1.051e-04   |deigs|: 7.784e-05  t[s]:     70.40
	Linear fluid (dielectric constant: 7.2) occupying 0.987092 of unit cell:	Completed after 2 iterations at t[s]:     70.90
	Linear fluid (dielectric constant: 7.2) occupying 0.987100 of unit cell:	Completed after 1 iterations at t[s]:     71.72
SCF: Cycle: 26   Etot: -157.137204314971427   dEtot: -9.679e-09   |Residual|: 1.377e-04   |deigs|: 6.378e-05  t[s]:     71.92
	Linear fluid (dielectric constant: 7.2) occupying 0.987092 of unit cell:	Completed after 1 iterations at t[s]:     72.38
	Linear fluid (dielectric constant: 7.2) occupying 0.987100 of unit cell:	Completed after 1 iterations at t[s]:     73.25
SCF: Cycle: 27   Etot: -157.137204456837821   dEtot: -1.419e-07   |Residual|: 6.888e-05   |deigs|: 2.788e-05  t[s]:     73.44
	Linear fluid (dielectric constant: 7.2) occupying 0.987094 of unit cell:	Completed after 1 iterations at t[s]:     73.90
	Linear fluid (dielectric constant: 7.2) occupying 0.987099 of unit cell:	Completed after 1 iterations at t[s]:     74.76
SCF: Cycle: 28   Etot: -157.137204516583552   dEtot: -5.975e-08   |Residual|: 9.857e-05   |deigs|: 3.782e-05  t[s]:     74.96
	Linear fluid (dielectric constant: 7.2) occupying 0.987096 of unit cell:	Completed after 1 iterations at t[s]:     75.43
	Linear fluid (dielectric constant: 7.2) occupying 0.987099 of unit cell:	Completed after 1 iterations at t[s]:     76.22
SCF: Cycle: 29   Etot: -157.137204550114177   dEtot: -3.353e-08   |Residual|: 4.514e-05   |deigs|: 1.138e-05  t[s]:     76.41
	Linear fluid (dielectric constant: 7.2) occupying 0.987098 of unit cell:	Completed after 0 iterations at t[s]:     76.84
	Linear fluid (dielectric constant: 7.2) occupying 0.987099 of unit cell:	Completed after 0 iterations at t[s]:     77.60
SCF: Cycle: 30   Etot: -157.137204581129026   dEtot: -3.101e-08   |Residual|: 3.551e-05   |deigs|: 1.509e-05  t[s]:     77.79
	Linear fluid (dielectric constant: 7.2) occupying 0.987099 of unit cell:	Completed after 1 iterations at t[s]:     78.22
	Linear fluid (dielectric constant: 7.2) occupying 0.987099 of unit cell:	Completed after 0 iterations at t[s]:     78.99
SCF: Cycle: 31   Etot: -157.137204604247700   dEtot: -2.312e-08   |Residual|: 4.388e-05   |deigs|: 3.551e-05  t[s]:     79.18
	Linear fluid (dielectric constant: 7.2) occupying 0.987098 of unit cell:	Completed after 0 iterations at t[s]:     79.58
	Linear fluid (dielectric constant: 7.2) occupying 0.987099 of unit cell:	Completed after 0 iterations at t[s]:     80.35
SCF: Cycle: 32   Etot: -157.137204610277138   dEtot: -6.029e-09   |Residual|: 2.202e-05   |deigs|: 6.235e-06  t[s]:     80.54
	Linear fluid (dielectric constant: 7.2) occupying 0.987098 of unit cell:	Completed after 0 iterations at t[s]:     80.94
	Linear fluid (dielectric constant: 7.2) occupying 0.987100 of unit cell:	Completed after 0 iterations at t[s]:     81.76
SCF: Cycle: 33   Etot: -157.137204622881171   dEtot: -1.260e-08   |Residual|: 1.490e-05   |deigs|: 5.658e-06  t[s]:     81.95
	Linear fluid (dielectric constant: 7.2) occupying 0.987099 of unit cell:	Completed after 0 iterations at t[s]:     82.31
	Linear fluid (dielectric constant: 7.2) occupying 0.987100 of unit cell:	Completed after 0 iterations at t[s]:     83.04
SCF: Cycle: 34   Etot: -157.137204629181497   dEtot: -6.300e-09   |Residual|: 1.101e-05   |deigs|: 1.677e-05  t[s]:     83.24
	Linear fluid (dielectric constant: 7.2) occupying 0.987099 of unit cell:	Completed after 0 iterations at t[s]:     83.57
	Linear fluid (dielectric constant: 7.2) occupying 0.987100 of unit cell:	Completed after 0 iterations at t[s]:     84.28
SCF: Cycle: 35   Etot: -157.137204633808437   dEtot: -4.627e-09   |Residual|: 9.091e-06   |deigs|: 5.971e-08  t[s]:     84.47
SCF: Converged (|Delta E|<1.000000e-08 for 2 iters).

Setting wave functions to eigenvectors of Hamiltonian
Single-point solvation energy estimate, DeltaEtot = -0.038563535936532

# Ionic positions in cartesian coordinates:
ion S   3.921331479750000  11.849557634189999  23.127532414739999 1
ion S   7.567480476899996  11.351192369400000  23.945456691719997 1
ion S   8.668781105760003   7.743174344189998  23.234262475409999 1
ion S   6.502139520210000   7.687128731849999  29.705151530609999 1
ion S   7.556913106740001  11.318358310649998  29.045040495659997 1
ion S  11.194673592419999  11.852526400019999  29.882693553839999 1
ion Na   3.832890226020000   7.182347833710000  25.239470096249999 1
ion Na  11.349661688099999   7.228066071600000  27.689512600169998 1

# Forces in Cartesian coordinates:
force S  -0.001005858309434   0.004051661179363  -0.001193799346675 1
force S   0.002939835200040  -0.002069054346122  -0.001196269392056 1
force S  -0.000594993274081   0.004471774243282  -0.000413643554708 1
force S   0.000610356804925   0.004507358216706   0.000599861915011 1
force S  -0.002807202169678  -0.002126048590255   0.001357695508626 1
force S   0.000714963075892   0.004028581733619   0.001488607788648 1
force Na  -0.006255232100610  -0.006405170953990  -0.000296150002156 1
force Na   0.006346603176014  -0.006596740436297  -0.000083506587578 1

# Energy components:
   A_diel =       -0.0518236676033099
   Eewald =      146.4436344602262920
       EH =      275.8292142504264461
     Eloc =     -457.1998942976549074
      Enl =     -133.1813058707510891
      Exc =      -39.6131138956727966
 Exc_core =       10.6063786150841732
       KE =       40.0297057721367793
-------------------------------------
     Etot =     -157.1372046338084374

IonicMinimize: Iter:   0  Etot: -157.137204633808437  |grad|_K:  3.367e-03  alpha:  1.000e+00

#--- Lowdin population analysis ---
# oxidation-state S -0.439 +0.374 -0.464 -0.464 +0.373 -0.439
# oxidation-state Na +0.792 +0.792


-------- Electronic minimization -----------
Will mix electronic density at each iteration.
	Linear fluid (dielectric constant: 7.2) occupying 0.987096 of unit cell:	Completed after 4 iterations at t[s]:     85.47
	Linear fluid (dielectric constant: 7.2) occupying 0.987091 of unit cell:	Completed after 2 iterations at t[s]:     93.38
SCF: Cycle:  0   Etot: -157.137456061003576   dEtot: -1.778e-05   |Residual|: 1.723e-03   |deigs|: 6.382e-07  t[s]:     93.57
	Linear fluid (dielectric constant: 7.2) occupying 0.987101 of unit cell:	Completed after 2 iterations at t[s]:     94.10
	Linear fluid (dielectric constant: 7.2) occupying 0.987092 of unit cell:	Completed after 2 iterations at t[s]:     94.97
SCF: Cycle:  1   Etot: -157.137459397373135   dEtot: -3.336e-06   |Residual|: 9.510e-04   |deigs|: 4.741e-05  t[s]:     95.16
	Linear fluid (dielectric constant: 7.2) occupying 0.987106 of unit cell:	Completed after 1 iterations at t[s]:     95.65
	Linear fluid (dielectric constant: 7.2) occupying 0.987092 of unit cell:	Completed after 1 iterations at t[s]:     97.47
SCF: Cycle:  2   Etot: -157.137461161892190   dEtot: -1.765e-06   |Residual|: 2.934e-04   |deigs|: 5.250e-05  t[s]:     97.66
	Linear fluid (dielectric constant: 7.2) occupying 0.987102 of unit cell:	Completed after 1 iterations at t[s]:     98.11
	Linear fluid (dielectric constant: 7.2) occupying 0.987094 of unit cell:	Completed after 1 iterations at t[s]:     98.91
SCF: Cycle:  3   Etot: -157.137461524178832   dEtot: -3.623e-07   |Residual|: 1.719e-04   |deigs|: 1.465e-05  t[s]:     99.09
	Linear fluid (dielectric constant: 7.2) occupying 0.987098 of unit cell:	Completed after 0 iterations at t[s]:     99.52
	Linear fluid (dielectric constant: 7.2) occupying 0.987094 of unit cell:	Completed after 1 iterations at t[s]:    100.31
SCF: Cycle:  4   Etot: -157.137461624644345   dEtot: -1.005e-07   |Residual|: 1.067e-04   |deigs|: 2.307e-05  t[s]:    100.50
	Linear fluid (dielectric constant: 7.2) occupying 0.987097 of unit cell:	Completed after 0 iterations at t[s]:    101.63
	Linear fluid (dielectric constant: 7.2) occupying 0.987094 of unit cell:	Completed after 0 iterations at t[s]:    102.37
SCF: Cycle:  5   Etot: -157.137461665308592   dEtot: -4.066e-08   |Residual|: 4.754e-05   |deigs|: 6.720e-06  t[s]:    102.56
	Linear fluid (dielectric constant: 7.2) occupying 0.987095 of unit cell:	Completed after 0 iterations at t[s]:    102.95
	Linear fluid (dielectric constant: 7.2) occupying 0.987094 of unit cell:	Completed after 0 iterations at t[s]:    103.71
SCF: Cycle:  6   Etot: -157.137461685505968   dEtot: -2.020e-08   |Residual|: 4.597e-05   |deigs|: 5.995e-06  t[s]:    103.90
	Linear fluid (dielectric constant: 7.2) occupying 0.987092 of unit cell:	Completed after 0 iterations at t[s]:    104.29
	Linear fluid (dielectric constant: 7.2) occupying 0.987094 of unit cell:	Completed after 0 iterations at t[s]:    105.07
SCF: Cycle:  7   Etot: -157.137461695454164   dEtot: -9.948e-09   |Residual|: 1.928e-05   |deigs|: 9.002e-06  t[s]:    105.26
	Linear fluid (dielectric constant: 7.2) occupying 0.987092 of unit cell:	Completed after 0 iterations at t[s]:    105.66
	Linear fluid (dielectric constant: 7.2) occupying 0.987094 of unit cell:	Completed after 0 iterations at t[s]:    106.43
SCF: Cycle:  8   Etot: -157.137461703339596   dEtot: -7.885e-09   |Residual|: 1.992e-05   |deigs|: 4.371e-06  t[s]:    106.63
SCF: Converged (|Delta E|<1.000000e-08 for 2 iters).

Setting wave functions to eigenvectors of Hamiltonian
IonicMinimize: 	Predicted alpha/alphaT>3.000000, increasing alphaT to 3.000000e+00.

-------- Electronic minimization -----------
Will mix electronic density at each iteration.
	Linear fluid (dielectric constant: 7.2) occupying 0.987087 of unit cell:	Completed after 5 iterations at t[s]:    107.35
	Linear fluid (dielectric constant: 7.2) occupying 0.987076 of unit cell:	Completed after 3 iterations at t[s]:    108.43
SCF: Cycle:  0   Etot: -157.137866900279903   dEtot: -7.517e-05   |Residual|: 3.515e-03   |deigs|: 2.623e-06  t[s]:    108.62
	Linear fluid (dielectric constant: 7.2) occupying 0.987096 of unit cell:	Completed after 2 iterations at t[s]:    109.17
	Linear fluid (dielectric constant: 7.2) occupying 0.987079 of unit cell:	Completed after 2 iterations at t[s]:    110.03
SCF: Cycle:  1   Etot: -157.137877472482387   dEtot: -1.057e-05   |Residual|: 1.963e-03   |deigs|: 9.339e-05  t[s]:    110.23
	Linear fluid (dielectric constant: 7.2) occupying 0.987106 of unit cell:	Completed after 2 iterations at t[s]:    110.74
	Linear fluid (dielectric constant: 7.2) occupying 0.987080 of unit cell:	Completed after 2 iterations at t[s]:    113.38
SCF: Cycle:  2   Etot: -157.137884360826547   dEtot: -6.888e-06   |Residual|: 6.098e-04   |deigs|: 7.925e-05  t[s]:    113.58
	Linear fluid (dielectric constant: 7.2) occupying 0.987098 of unit cell:	Completed after 2 iterations at t[s]:    114.10
	Linear fluid (dielectric constant: 7.2) occupying 0.987082 of unit cell:	Completed after 2 iterations at t[s]:    114.96
SCF: Cycle:  3   Etot: -157.137885716656911   dEtot: -1.356e-06   |Residual|: 3.242e-04   |deigs|: 3.451e-05  t[s]:    115.15
	Linear fluid (dielectric constant: 7.2) occupying 0.987090 of unit cell:	Completed after 1 iterations at t[s]:    115.64
	Linear fluid (dielectric constant: 7.2) occupying 0.987082 of unit cell:	Completed after 1 iterations at t[s]:    116.43
SCF: Cycle:  4   Etot: -157.137886072059956   dEtot: -3.554e-07   |Residual|: 2.468e-04   |deigs|: 5.436e-05  t[s]:    116.63
	Linear fluid (dielectric constant: 7.2) occupying 0.987090 of unit cell:	Completed after 1 iterations at t[s]:    117.09
	Linear fluid (dielectric constant: 7.2) occupying 0.987083 of unit cell:	Completed after 1 iterations at t[s]:    117.89
SCF: Cycle:  5   Etot: -157.137886265876432   dEtot: -1.938e-07   |Residual|: 1.041e-04   |deigs|: 1.565e-05  t[s]:    118.08
	Linear fluid (dielectric constant: 7.2) occupying 0.987084 of unit cell:	Completed after 0 iterations at t[s]:    118.50
	Linear fluid (dielectric constant: 7.2) occupying 0.987083 of unit cell:	Completed after 0 iterations at t[s]:    119.26
SCF: Cycle:  6   Etot: -157.137886370226340   dEtot: -1.043e-07   |Residual|: 7.741e-05   |deigs|: 2.251e-05  t[s]:    119.46
	Linear fluid (dielectric constant: 7.2) occupying 0.987079 of unit cell:	Completed after 0 iterations at t[s]:    119.85
	Linear fluid (dielectric constant: 7.2) occupying 0.987083 of unit cell:	Completed after 0 iterations at t[s]:    120.60
SCF: Cycle:  7   Etot: -157.137886416778940   dEtot: -4.655e-08   |Residual|: 5.051e-05   |deigs|: 7.131e-06  t[s]:    120.79
	Linear fluid (dielectric constant: 7.2) occupying 0.987079 of unit cell:	Completed after 0 iterations at t[s]:    121.19
	Linear fluid (dielectric constant: 7.2) occupying 0.987083 of unit cell:	Completed after 0 iterations at t[s]:    121.94
SCF: Cycle:  8   Etot: -157.137886443367165   dEtot: -2.659e-08   |Residual|: 3.189e-05   |deigs|: 3.716e-06  t[s]:    122.13
	Linear fluid (dielectric constant: 7.2) occupying 0.987077 of unit cell:	Completed after 0 iterations at t[s]:    122.53
	Linear fluid (dielectric constant: 7.2) occupying 0.987083 of unit cell:	Completed after 0 iterations at t[s]:    123.28
SCF: Cycle:  9   Etot: -157.137886469758826   dEtot: -2.639e-08   |Residual|: 2.466e-05   |deigs|: 9.384e-06  t[s]:    123.47
	Linear fluid (dielectric constant: 7.2) occupying 0.987077 of unit cell:	Completed after 0 iterations at t[s]:    123.88
	Linear fluid (dielectric constant: 7.2) occupying 0.987083 of unit cell:	Completed after 0 iterations at t[s]:    124.65
SCF: Cycle: 10   Etot: -157.137886491470880   dEtot: -2.171e-08   |Residual|: 2.810e-05   |deigs|: 6.657e-06  t[s]:    124.85
	Linear fluid (dielectric constant: 7.2) occupying 0.987078 of unit cell:	Completed after 0 iterations at t[s]:    125.24
	Linear fluid (dielectric constant: 7.2) occupying 0.987083 of unit cell:	Completed after 0 iterations at t[s]:    126.01
SCF: Cycle: 11   Etot: -157.137886507037194   dEtot: -1.557e-08   |Residual|: 1.882e-05   |deigs|: 3.910e-06  t[s]:    126.22
	Linear fluid (dielectric constant: 7.2) occupying 0.987080 of unit cell:	Completed after 0 iterations at t[s]:    126.61
	Linear fluid (dielectric constant: 7.2) occupying 0.987083 of unit cell:	Completed after 0 iterations at t[s]:    127.38
SCF: Cycle: 12   Etot: -157.137886519923967   dEtot: -1.289e-08   |Residual|: 1.582e-05   |deigs|: 3.765e-06  t[s]:    127.58
	Linear fluid (dielectric constant: 7.2) occupying 0.987081 of unit cell:	Completed after 0 iterations at t[s]:    127.97
	Linear fluid (dielectric constant: 7.2) occupying 0.987083 of unit cell:	Completed after 0 iterations at t[s]:    128.74
SCF: Cycle: 13   Etot: -157.137886526881402   dEtot: -6.957e-09   |Residual|: 1.223e-05   |deigs|: 3.538e-06  t[s]:    128.93
	Linear fluid (dielectric constant: 7.2) occupying 0.987081 of unit cell:	Completed after 0 iterations at t[s]:    129.29
	Linear fluid (dielectric constant: 7.2) occupying 0.987083 of unit cell:	Completed after 0 iterations at t[s]:    130.01
SCF: Cycle: 14   Etot: -157.137886529067885   dEtot: -2.186e-09   |Residual|: 9.438e-06   |deigs|: 9.383e-06  t[s]:    130.21
SCF: Converged (|Delta E|<1.000000e-08 for 2 iters).

Setting wave functions to eigenvectors of Hamiltonian
IonicMinimize: 	Predicted alpha/alphaT>3.000000, increasing alphaT to 9.000000e+00.

-------- Electronic minimization -----------
Will mix electronic density at each iteration.
	Linear fluid (dielectric constant: 7.2) occupying 0.987082 of unit cell:	Completed after 7 iterations at t[s]:    130.99
	Linear fluid (dielectric constant: 7.2) occupying 0.986823 of unit cell:	Completed after 8 iterations at t[s]:    132.27
SCF: Cycle:  0   Etot: -157.124342205898074   dEtot: -1.089e-01   |Residual|: 1.593e-01   |deigs|: 5.286e-03  t[s]:    132.47
	Linear fluid (dielectric constant: 7.2) occupying 0.987285 of unit cell:	Completed after 13 iterations at t[s]:    133.46
	Linear fluid (dielectric constant: 7.2) occupying 0.986912 of unit cell:	Completed after 10 iterations at t[s]:    134.96
SCF: Cycle:  1   Etot: -157.131036421890258   dEtot: -6.694e-03   |Residual|: 7.943e-02   |deigs|: 5.596e-03  t[s]:    135.24
	Linear fluid (dielectric constant: 7.2) occupying 0.987294 of unit cell:	Completed after 14 iterations at t[s]:    136.51
	Linear fluid (dielectric constant: 7.2) occupying 0.987092 of unit cell:	Completed after 10 iterations at t[s]:    137.95
SCF: Cycle:  2   Etot: -157.135417016226029   dEtot: -4.381e-03   |Residual|: 1.405e-02   |deigs|: 3.370e-03  t[s]:    138.23
	Linear fluid (dielectric constant: 7.2) occupying 0.987262 of unit cell:	Completed after 13 iterations at t[s]:    139.42
	Linear fluid (dielectric constant: 7.2) occupying 0.987100 of unit cell:	Completed after 10 iterations at t[s]:    140.88
SCF: Cycle:  3   Etot: -157.136365673018815   dEtot: -9.487e-04   |Residual|: 1.066e-02   |deigs|: 1.028e-03  t[s]:    141.17
	Linear fluid (dielectric constant: 7.2) occupying 0.987209 of unit cell:	Completed after 9 iterations at t[s]:    142.08
	Linear fluid (dielectric constant: 7.2) occupying 0.987046 of unit cell:	Completed after 8 iterations at t[s]:    143.42
SCF: Cycle:  4   Etot: -157.137668890032785   dEtot: -1.303e-03   |Residual|: 5.433e-03   |deigs|: 1.858e-03  t[s]:    143.69
	Linear fluid (dielectric constant: 7.2) occupying 0.987153 of unit cell:	Completed after 9 iterations at t[s]:    144.58
	Linear fluid (dielectric constant: 7.2) occupying 0.987052 of unit cell:	Completed after 8 iterations at t[s]:    145.93
SCF: Cycle:  5   Etot: -157.137976755513023   dEtot: -3.079e-04   |Residual|: 3.416e-03   |deigs|: 2.075e-03  t[s]:    146.20
	Linear fluid (dielectric constant: 7.2) occupying 0.987040 of unit cell:	Completed after 7 iterations at t[s]:    146.97
	Linear fluid (dielectric constant: 7.2) occupying 0.987050 of unit cell:	Completed after 7 iterations at t[s]:    148.21
SCF: Cycle:  6   Etot: -157.138243947391260   dEtot: -2.672e-04   |Residual|: 2.190e-03   |deigs|: 2.344e-03  t[s]:    148.48
	Linear fluid (dielectric constant: 7.2) occupying 0.986874 of unit cell:	Completed after 5 iterations at t[s]:    149.15
	Linear fluid (dielectric constant: 7.2) occupying 0.987054 of unit cell:	Completed after 5 iterations at t[s]:    150.34
SCF: Cycle:  7   Etot: -157.138387495739920   dEtot: -1.435e-04   |Residual|: 1.795e-03   |deigs|: 2.636e-03  t[s]:    150.54
	Linear fluid (dielectric constant: 7.2) occupying 0.986835 of unit cell:	Completed after 4 iterations at t[s]:    151.15
	Linear fluid (dielectric constant: 7.2) occupying 0.987043 of unit cell:	Completed after 5 iterations at t[s]:    152.26
SCF: Cycle:  8   Etot: -157.138420473480664   dEtot: -3.298e-05   |Residual|: 1.317e-03   |deigs|: 3.402e-04  t[s]:    152.46
	Linear fluid (dielectric constant: 7.2) occupying 0.986781 of unit cell:	Completed after 5 iterations at t[s]:    153.12
	Linear fluid (dielectric constant: 7.2) occupying 0.987036 of unit cell:	Completed after 4 iterations at t[s]:    154.25
SCF: Cycle:  9   Etot: -157.138430917850087   dEtot: -1.044e-05   |Residual|: 1.280e-03   |deigs|: 5.283e-04  t[s]:    154.45
	Linear fluid (dielectric constant: 7.2) occupying 0.986822 of unit cell:	Completed after 4 iterations at t[s]:    155.06
	Linear fluid (dielectric constant: 7.2) occupying 0.987038 of unit cell:	Completed after 4 iterations at t[s]:    156.06
SCF: Cycle: 10   Etot: -157.138434545020999   dEtot: -3.627e-06   |Residual|: 5.286e-04   |deigs|: 3.011e-04  t[s]:    156.26
	Linear fluid (dielectric constant: 7.2) occupying 0.986868 of unit cell:	Completed after 5 iterations at t[s]:    156.92
	Linear fluid (dielectric constant: 7.2) occupying 0.987040 of unit cell:	Completed after 5 iterations at t[s]:    158.02
SCF: Cycle: 11   Etot: -157.138432199478387   dEtot: +2.346e-06   |Residual|: 7.630e-04   |deigs|: 5.147e-04  t[s]:    158.22
	Linear fluid (dielectric constant: 7.2) occupying 0.986926 of unit cell:	Completed after 4 iterations at t[s]:    158.83
	Linear fluid (dielectric constant: 7.2) occupying 0.987039 of unit cell:	Completed after 4 iterations at t[s]:    159.87
SCF: Cycle: 12   Etot: -157.138434907497071   dEtot: -2.708e-06   |Residual|: 5.681e-04   |deigs|: 1.328e-04  t[s]:    160.06
	Linear fluid (dielectric constant: 7.2) occupying 0.987002 of unit cell:	Completed after 4 iterations at t[s]:    160.67
	Linear fluid (dielectric constant: 7.2) occupying 0.987041 of unit cell:	Completed after 4 iterations at t[s]:    161.69
SCF: Cycle: 13   Etot: -157.138435705471323   dEtot: -7.980e-07   |Residual|: 3.411e-04   |deigs|: 1.081e-04  t[s]:    161.89
	Linear fluid (dielectric constant: 7.2) occupying 0.987032 of unit cell:	Completed after 3 iterations at t[s]:    162.46
	Linear fluid (dielectric constant: 7.2) occupying 0.987043 of unit cell:	Completed after 4 iterations at t[s]:    163.46
SCF: Cycle: 14   Etot: -157.138437366268988   dEtot: -1.661e-06   |Residual|: 1.827e-04   |deigs|: 9.570e-05  t[s]:    163.66
	Linear fluid (dielectric constant: 7.2) occupying 0.987043 of unit cell:	Completed after 2 iterations at t[s]:    164.19
	Linear fluid (dielectric constant: 7.2) occupying 0.987045 of unit cell:	Completed after 3 iterations at t[s]:    165.18
SCF: Cycle: 15   Etot: -157.138438758223202   dEtot: -1.392e-06   |Residual|: 1.780e-04   |deigs|: 1.111e-04  t[s]:    165.38
	Linear fluid (dielectric constant: 7.2) occupying 0.987048 of unit cell:	Completed after 2 iterations at t[s]:    165.92
	Linear fluid (dielectric constant: 7.2) occupying 0.987047 of unit cell:	Completed after 2 iterations at t[s]:    166.86
SCF: Cycle: 16   Etot: -157.138439394160685   dEtot: -6.359e-07   |Residual|: 1.106e-04   |deigs|: 6.036e-05  t[s]:    167.06
	Linear fluid (dielectric constant: 7.2) occupying 0.987041 of unit cell:	Completed after 1 iterations at t[s]:    167.56
	Linear fluid (dielectric constant: 7.2) occupying 0.987048 of unit cell:	Completed after 1 iterations at t[s]:    168.43
SCF: Cycle: 17   Etot: -157.138440090834649   dEtot: -6.967e-07   |Residual|: 8.165e-05   |deigs|: 6.282e-05  t[s]:    168.62
	Linear fluid (dielectric constant: 7.2) occupying 0.987038 of unit cell:	Completed after 1 iterations at t[s]:    169.08
	Linear fluid (dielectric constant: 7.2) occupying 0.987048 of unit cell:	Completed after 1 iterations at t[s]:    169.88
SCF: Cycle: 18   Etot: -157.138440327973228   dEtot: -2.371e-07   |Residual|: 6.926e-05   |deigs|: 3.470e-05  t[s]:    170.08
	Linear fluid (dielectric constant: 7.2) occupying 0.987037 of unit cell:	Completed after 1 iterations at t[s]:    170.54
	Linear fluid (dielectric constant: 7.2) occupying 0.987048 of unit cell:	Completed after 1 iterations at t[s]:    171.40
SCF: Cycle: 19   Etot: -157.138440609399339   dEtot: -2.814e-07   |Residual|: 6.207e-05   |deigs|: 2.453e-05  t[s]:    171.59
	Linear fluid (dielectric constant: 7.2) occupying 0.987041 of unit cell:	Completed after 1 iterations at t[s]:    172.06
	Linear fluid (dielectric constant: 7.2) occupying 0.987048 of unit cell:	Completed after 0 iterations at t[s]:    172.88
SCF: Cycle: 20   Etot: -157.138440750958722   dEtot: -1.416e-07   |Residual|: 5.001e-05   |deigs|: 1.094e-05  t[s]:    173.07
	Linear fluid (dielectric constant: 7.2) occupying 0.987046 of unit cell:	Completed after 1 iterations at t[s]:    173.51
	Linear fluid (dielectric constant: 7.2) occupying 0.987047 of unit cell:	Completed after 0 iterations at t[s]:    174.33
SCF: Cycle: 21   Etot: -157.138440887365107   dEtot: -1.364e-07   |Residual|: 4.307e-05   |deigs|: 1.480e-05  t[s]:    174.53
	Linear fluid (dielectric constant: 7.2) occupying 0.987048 of unit cell:	Completed after 1 iterations at t[s]:    174.97
	Linear fluid (dielectric constant: 7.2) occupying 0.987048 of unit cell:	Completed after 0 iterations at t[s]:    175.80
SCF: Cycle: 22   Etot: -157.138440923079600   dEtot: -3.571e-08   |Residual|: 4.118e-05   |deigs|: 1.070e-05  t[s]:    175.99
	Linear fluid (dielectric constant: 7.2) occupying 0.987046 of unit cell:	Completed after 0 iterations at t[s]:    176.39
	Linear fluid (dielectric constant: 7.2) occupying 0.987048 of unit cell:	Completed after 0 iterations at t[s]:    177.15
SCF: Cycle: 23   Etot: -157.138440935597714   dEtot: -1.252e-08   |Residual|: 2.719e-05   |deigs|: 3.748e-06  t[s]:    177.35
	Linear fluid (dielectric constant: 7.2) occupying 0.987046 of unit cell:	Completed after 0 iterations at t[s]:    177.75
	Linear fluid (dielectric constant: 7.2) occupying 0.987048 of unit cell:	Completed after 0 iterations at t[s]:    178.58
SCF: Cycle: 24   Etot: -157.138440942272865   dEtot: -6.675e-09   |Residual|: 2.771e-05   |deigs|: 1.861e-06  t[s]:    178.78
	Linear fluid (dielectric constant: 7.2) occupying 0.987047 of unit cell:	Completed after 0 iterations at t[s]:    179.18
	Linear fluid (dielectric constant: 7.2) occupying 0.987048 of unit cell:	Completed after 0 iterations at t[s]:    180.01
SCF: Cycle: 25   Etot: -157.138440944183742   dEtot: -1.911e-09   |Residual|: 2.011e-05   |deigs|: 7.076e-06  t[s]:    180.20
SCF: Converged (|Delta E|<1.000000e-08 for 2 iters).

Setting wave functions to eigenvectors of Hamiltonian

-------- Electronic minimization -----------
Will mix electronic density at each iteration.
	Linear fluid (dielectric constant: 7.2) occupying 0.987048 of unit cell:	Completed after 1 iterations at t[s]:    180.77
	Linear fluid (dielectric constant: 7.2) occupying 0.987048 of unit cell:	Completed after 0 iterations at t[s]:    181.57
SCF: Cycle:  0   Etot: -157.138440800495914   dEtot: -1.600e-07   |Residual|: 1.507e-04   |deigs|: 5.172e-09  t[s]:    181.76
	Linear fluid (dielectric constant: 7.2) occupying 0.987048 of unit cell:	Completed after 1 iterations at t[s]:    182.19
	Linear fluid (dielectric constant: 7.2) occupying 0.987047 of unit cell:	Completed after 0 iterations at t[s]:    182.96
SCF: Cycle:  1   Etot: -157.138440848310722   dEtot: -4.781e-08   |Residual|: 7.667e-05   |deigs|: 1.005e-05  t[s]:    183.15
	Linear fluid (dielectric constant: 7.2) occupying 0.987048 of unit cell:	Completed after 0 iterations at t[s]:    183.51
	Linear fluid (dielectric constant: 7.2) occupying 0.987048 of unit cell:	Completed after 0 iterations at t[s]:    184.23
SCF: Cycle:  2   Etot: -157.138440863151828   dEtot: -1.484e-08   |Residual|: 2.472e-05   |deigs|: 3.468e-06  t[s]:    184.42
	Linear fluid (dielectric constant: 7.2) occupying 0.987048 of unit cell:	Completed after 0 iterations at t[s]:    184.74
	Linear fluid (dielectric constant: 7.2) occupying 0.987048 of unit cell:	Completed after 0 iterations at t[s]:    185.45
SCF: Cycle:  3   Etot: -157.138440868303462   dEtot: -5.152e-09   |Residual|: 2.291e-05   |deigs|: 9.889e-08  t[s]:    185.64
	Linear fluid (dielectric constant: 7.2) occupying 0.987048 of unit cell:	Completed after 0 iterations at t[s]:    185.97
	Linear fluid (dielectric constant: 7.2) occupying 0.987048 of unit cell:	Completed after 0 iterations at t[s]:    186.72
SCF: Cycle:  4   Etot: -157.138440858818456   dEtot: +9.485e-09   |Residual|: 1.419e-05   |deigs|: 1.962e-07  t[s]:    186.93
	Linear fluid (dielectric constant: 7.2) occupying 0.987047 of unit cell:	Completed after 0 iterations at t[s]:    187.27
	Linear fluid (dielectric constant: 7.2) occupying 0.987048 of unit cell:	Completed after 0 iterations at t[s]:    187.99
SCF: Cycle:  5   Etot: -157.138440864876941   dEtot: -6.058e-09   |Residual|: 1.852e-05   |deigs|: 1.026e-05  t[s]:    188.19
	Linear fluid (dielectric constant: 7.2) occupying 0.987048 of unit cell:	Completed after 0 iterations at t[s]:    188.51
	Linear fluid (dielectric constant: 7.2) occupying 0.987048 of unit cell:	Completed after 0 iterations at t[s]:    189.24
SCF: Cycle:  6   Etot: -157.138440867686683   dEtot: -2.810e-09   |Residual|: 1.273e-05   |deigs|: 1.313e-07  t[s]:    189.43
SCF: Converged (|Delta E|<1.000000e-08 for 2 iters).

Setting wave functions to eigenvectors of Hamiltonian

# Ionic positions in cartesian coordinates:
ion S   3.912245759544330  11.886547764598019  23.116380928850958 1
ion S   7.594265123455766  11.332538970929159  23.934282750606407 1
ion S   8.663430566574389   7.783983729602972  23.230203399086403 1
ion S   6.507746839080536   7.728261611770208  29.710306249738650 1
ion S   7.531451338882563  11.299186776536985  29.057084692869456 1
ion S  11.201231888677945  11.889306714794472  29.895927876812312 1
ion Na   3.776082359452675   7.124274725454017  25.236479155809739 1
ion Na  11.407417320231790   7.168251401924160  27.688454804626073 1

# Forces in Cartesian coordinates:
force S   0.004614792298860   0.000821818477131   0.000331889287497 1
force S  -0.005614711772884   0.008729470762477   0.000537443484878 1
force S   0.001281426880775  -0.005255338190357  -0.001262627767412 1
force S  -0.001234730298198  -0.005578129400289   0.001292838889739 1
force S   0.005125416811607   0.008762981931964  -0.000356714632467 1
force S  -0.004400310312983   0.000828821483437  -0.000234807967944 1
force Na  -0.005150292509348  -0.004179077955051  -0.000889959543076 1
force Na   0.004895706087017  -0.004058608717955   0.000517330987116 1

# Energy components:
   A_diel =       -0.0555753194689716
   Eewald =      145.0812547036180149
       EH =      274.4541830710023760
     Eloc =     -454.4668429632779976
      Enl =     -133.1757280260434584
      Exc =      -39.6125226492902627
 Exc_core =       10.6063790219564247
       KE =       40.0304112938171954
-------------------------------------
     Etot =     -157.1384408676866826

IonicMinimize: Iter:   1  Etot: -157.138440867686683  |grad|_K:  4.103e-03  alpha:  9.091e+00  linmin:  7.213e-03  t[s]:    189.79

#--- Lowdin population analysis ---
# oxidation-state S -0.461 +0.374 -0.445 -0.445 +0.375 -0.460
# oxidation-state Na +0.797 +0.797


-------- Electronic minimization -----------
Will mix electronic density at each iteration.
	Linear fluid (dielectric constant: 7.2) occupying 0.987045 of unit cell:	Completed after 8 iterations at t[s]:    190.58
	Linear fluid (dielectric constant: 7.2) occupying 0.986511 of unit cell:	Completed after 9 iterations at t[s]:    191.90
SCF: Cycle:  0   Etot: -157.085457583376268   dEtot: -3.490e-01   |Residual|: 2.967e-01   |deigs|: 1.810e-02  t[s]:    192.10
	Linear fluid (dielectric constant: 7.2) occupying 0.987326 of unit cell:	Completed after 15 iterations at t[s]:    193.32
	Linear fluid (dielectric constant: 7.2) occupying 0.986768 of unit cell:	Completed after 11 iterations at t[s]:    194.83
SCF: Cycle:  1   Etot: -157.110678664079188   dEtot: -2.522e-02   |Residual|: 1.467e-01   |deigs|: 1.034e-02  t[s]:    195.11
	Linear fluid (dielectric constant: 7.2) occupying 0.987151 of unit cell:	Completed after 16 iterations at t[s]:    196.52
	Linear fluid (dielectric constant: 7.2) occupying 0.987024 of unit cell:	Completed after 11 iterations at t[s]:    198.08
SCF: Cycle:  2   Etot: -157.128746788927856   dEtot: -1.807e-02   |Residual|: 2.883e-02   |deigs|: 7.021e-03  t[s]:    198.36
	Linear fluid (dielectric constant: 7.2) occupying 0.986975 of unit cell:	Completed after 15 iterations at t[s]:    199.69
	Linear fluid (dielectric constant: 7.2) occupying 0.987103 of unit cell:	Completed after 11 iterations at t[s]:    201.23
SCF: Cycle:  3   Etot: -157.130926546399422   dEtot: -2.180e-03   |Residual|: 1.632e-02   |deigs|: 9.598e-04  t[s]:    201.50
	Linear fluid (dielectric constant: 7.2) occupying 0.986856 of unit cell:	Completed after 11 iterations at t[s]:    202.56
	Linear fluid (dielectric constant: 7.2) occupying 0.987017 of unit cell:	Completed after 9 iterations at t[s]:    203.95
SCF: Cycle:  4   Etot: -157.136743535249309   dEtot: -5.817e-03   |Residual|: 1.055e-02   |deigs|: 1.511e-03  t[s]:    204.23
	Linear fluid (dielectric constant: 7.2) occupying 0.986847 of unit cell:	Completed after 10 iterations at t[s]:    205.21
	Linear fluid (dielectric constant: 7.2) occupying 0.986999 of unit cell:	Completed after 8 iterations at t[s]:    206.52
SCF: Cycle:  5   Etot: -157.137836159903230   dEtot: -1.093e-03   |Residual|: 8.416e-03   |deigs|: 2.715e-03  t[s]:    206.80
	Linear fluid (dielectric constant: 7.2) occupying 0.986848 of unit cell:	Completed after 9 iterations at t[s]:    207.71
	Linear fluid (dielectric constant: 7.2) occupying 0.986977 of unit cell:	Completed after 8 iterations at t[s]:    209.05
SCF: Cycle:  6   Etot: -157.138995625839755   dEtot: -1.159e-03   |Residual|: 5.162e-03   |deigs|: 4.297e-03  t[s]:    209.32
	Linear fluid (dielectric constant: 7.2) occupying 0.986657 of unit cell:	Completed after 6 iterations at t[s]:    210.02
	Linear fluid (dielectric constant: 7.2) occupying 0.986975 of unit cell:	Completed after 6 iterations at t[s]:    211.27
SCF: Cycle:  7   Etot: -157.139718235656289   dEtot: -7.226e-04   |Residual|: 4.598e-03   |deigs|: 6.623e-03  t[s]:    211.47
	Linear fluid (dielectric constant: 7.2) occupying 0.986699 of unit cell:	Completed after 7 iterations at t[s]:    212.24
	Linear fluid (dielectric constant: 7.2) occupying 0.986958 of unit cell:	Completed after 6 iterations at t[s]:    213.47
SCF: Cycle:  8   Etot: -157.139783290388294   dEtot: -6.505e-05   |Residual|: 3.470e-03   |deigs|: 1.636e-03  t[s]:    213.71
	Linear fluid (dielectric constant: 7.2) occupying 0.986561 of unit cell:	Completed after 5 iterations at t[s]:    214.37
	Linear fluid (dielectric constant: 7.2) occupying 0.986953 of unit cell:	Completed after 6 iterations at t[s]:    215.58
SCF: Cycle:  9   Etot: -157.139897537874219   dEtot: -1.142e-04   |Residual|: 3.106e-03   |deigs|: 1.780e-03  t[s]:    215.82
	Linear fluid (dielectric constant: 7.2) occupying 0.986462 of unit cell:	Completed after 5 iterations at t[s]:    216.47
	Linear fluid (dielectric constant: 7.2) occupying 0.986956 of unit cell:	Completed after 5 iterations at t[s]:    217.63
SCF: Cycle: 10   Etot: -157.139951686643997   dEtot: -5.415e-05   |Residual|: 1.352e-03   |deigs|: 2.111e-03  t[s]:    217.83
	Linear fluid (dielectric constant: 7.2) occupying 0.986472 of unit cell:	Completed after 5 iterations at t[s]:    218.47
	Linear fluid (dielectric constant: 7.2) occupying 0.986956 of unit cell:	Completed after 5 iterations at t[s]:    219.64
SCF: Cycle: 11   Etot: -157.139955306356626   dEtot: -3.620e-06   |Residual|: 9.949e-04   |deigs|: 9.381e-04  t[s]:    219.84
	Linear fluid (dielectric constant: 7.2) occupying 0.986709 of unit cell:	Completed after 4 iterations at t[s]:    220.45
	Linear fluid (dielectric constant: 7.2) occupying 0.986952 of unit cell:	Completed after 4 iterations at t[s]:    221.53
SCF: Cycle: 12   Etot: -157.139954172920511   dEtot: +1.133e-06   |Residual|: 1.730e-03   |deigs|: 4.482e-04  t[s]:    221.72
	Linear fluid (dielectric constant: 7.2) occupying 0.986807 of unit cell:	Completed after 5 iterations at t[s]:    222.36
	Linear fluid (dielectric constant: 7.2) occupying 0.986959 of unit cell:	Completed after 5 iterations at t[s]:    223.53
SCF: Cycle: 13   Etot: -157.139957340838919   dEtot: -3.168e-06   |Residual|: 6.042e-04   |deigs|: 8.422e-04  t[s]:    223.72
	Linear fluid (dielectric constant: 7.2) occupying 0.986936 of unit cell:	Completed after 4 iterations at t[s]:    224.34
	Linear fluid (dielectric constant: 7.2) occupying 0.986962 of unit cell:	Completed after 4 iterations at t[s]:    225.35
SCF: Cycle: 14   Etot: -157.139962892362803   dEtot: -5.552e-06   |Residual|: 4.134e-04   |deigs|: 3.506e-04  t[s]:    225.54
	Linear fluid (dielectric constant: 7.2) occupying 0.986963 of unit cell:	Completed after 4 iterations at t[s]:    226.15
	Linear fluid (dielectric constant: 7.2) occupying 0.986969 of unit cell:	Completed after 4 iterations at t[s]:    227.18
SCF: Cycle: 15   Etot: -157.139964994396621   dEtot: -2.102e-06   |Residual|: 2.902e-04   |deigs|: 1.326e-04  t[s]:    227.37
	Linear fluid (dielectric constant: 7.2) occupying 0.986975 of unit cell:	Completed after 2 iterations at t[s]:    227.92
	Linear fluid (dielectric constant: 7.2) occupying 0.986972 of unit cell:	Completed after 3 iterations at t[s]:    228.88
SCF: Cycle: 16   Etot: -157.139967452510945   dEtot: -2.458e-06   |Residual|: 2.157e-04   |deigs|: 2.057e-04  t[s]:    229.08
	Linear fluid (dielectric constant: 7.2) occupying 0.986967 of unit cell:	Completed after 2 iterations at t[s]:    229.62
	Linear fluid (dielectric constant: 7.2) occupying 0.986973 of unit cell:	Completed after 2 iterations at t[s]:    230.55
SCF: Cycle: 17   Etot: -157.139968618533658   dEtot: -1.166e-06   |Residual|: 1.754e-04   |deigs|: 1.300e-04  t[s]:    230.74
	Linear fluid (dielectric constant: 7.2) occupying 0.986965 of unit cell:	Completed after 1 iterations at t[s]:    231.25
	Linear fluid (dielectric constant: 7.2) occupying 0.986974 of unit cell:	Completed after 2 iterations at t[s]:    232.15
SCF: Cycle: 18   Etot: -157.139968892843399   dEtot: -2.743e-07   |Residual|: 1.541e-04   |deigs|: 2.768e-05  t[s]:    232.35
	Linear fluid (dielectric constant: 7.2) occupying 0.986960 of unit cell:	Completed after 2 iterations at t[s]:    232.87
	Linear fluid (dielectric constant: 7.2) occupying 0.986974 of unit cell:	Completed after 1 iterations at t[s]:    233.75
SCF: Cycle: 19   Etot: -157.139969129296759   dEtot: -2.365e-07   |Residual|: 9.718e-05   |deigs|: 1.150e-04  t[s]:    233.95
	Linear fluid (dielectric constant: 7.2) occupying 0.986958 of unit cell:	Completed after 1 iterations at t[s]:    234.41
	Linear fluid (dielectric constant: 7.2) occupying 0.986974 of unit cell:	Completed after 1 iterations at t[s]:    235.21
SCF: Cycle: 20   Etot: -157.139969176162367   dEtot: -4.687e-08   |Residual|: 7.789e-05   |deigs|: 2.456e-05  t[s]:    235.40
	Linear fluid (dielectric constant: 7.2) occupying 0.986962 of unit cell:	Completed after 1 iterations at t[s]:    235.87
	Linear fluid (dielectric constant: 7.2) occupying 0.986973 of unit cell:	Completed after 1 iterations at t[s]:    236.71
SCF: Cycle: 21   Etot: -157.139969226041217   dEtot: -4.988e-08   |Residual|: 6.911e-05   |deigs|: 1.674e-05  t[s]:    236.90
	Linear fluid (dielectric constant: 7.2) occupying 0.986970 of unit cell:	Completed after 1 iterations at t[s]:    237.36
	Linear fluid (dielectric constant: 7.2) occupying 0.986973 of unit cell:	Completed after 0 iterations at t[s]:    238.13
SCF: Cycle: 22   Etot: -157.139969261930389   dEtot: -3.589e-08   |Residual|: 5.983e-05   |deigs|: 1.802e-05  t[s]:    238.32
	Linear fluid (dielectric constant: 7.2) occupying 0.986972 of unit cell:	Completed after 1 iterations at t[s]:    238.75
	Linear fluid (dielectric constant: 7.2) occupying 0.986973 of unit cell:	Completed after 0 iterations at t[s]:    239.52
SCF: Cycle: 23   Etot: -157.139969280850693   dEtot: -1.892e-08   |Residual|: 4.786e-05   |deigs|: 1.634e-05  t[s]:    239.72
	Linear fluid (dielectric constant: 7.2) occupying 0.986968 of unit cell:	Completed after 0 iterations at t[s]:    240.11
	Linear fluid (dielectric constant: 7.2) occupying 0.986973 of unit cell:	Completed after 0 iterations at t[s]:    240.88
SCF: Cycle: 24   Etot: -157.139969296127362   dEtot: -1.528e-08   |Residual|: 4.183e-05   |deigs|: 2.232e-06  t[s]:    241.07
	Linear fluid (dielectric constant: 7.2) occupying 0.986968 of unit cell:	Completed after 0 iterations at t[s]:    241.47
	Linear fluid (dielectric constant: 7.2) occupying 0.986974 of unit cell:	Completed after 0 iterations at t[s]:    242.30
SCF: Cycle: 25   Etot: -157.139969314509187   dEtot: -1.838e-08   |Residual|: 3.716e-05   |deigs|: 1.865e-05  t[s]:    242.49
	Linear fluid (dielectric constant: 7.2) occupying 0.986973 of unit cell:	Completed after 1 iterations at t[s]:    242.93
	Linear fluid (dielectric constant: 7.2) occupying 0.986974 of unit cell:	Completed after 0 iterations at t[s]:    243.69
SCF: Cycle: 26   Etot: -157.139969310168652   dEtot: +4.341e-09   |Residual|: 3.989e-05   |deigs|: 1.540e-05  t[s]:    243.88
	Linear fluid (dielectric constant: 7.2) occupying 0.986973 of unit cell:	Completed after 0 iterations at t[s]:    244.28
	Linear fluid (dielectric constant: 7.2) occupying 0.986974 of unit cell:	Completed after 0 iterations at t[s]:    245.07
SCF: Cycle: 27   Etot: -157.139969312652028   dEtot: -2.483e-09   |Residual|: 2.541e-05   |deigs|: 8.076e-06  t[s]:    245.27
	Linear fluid (dielectric constant: 7.2) occupying 0.986975 of unit cell:	Completed after 0 iterations at t[s]:    245.63
	Linear fluid (dielectric constant: 7.2) occupying 0.986974 of unit cell:	Completed after 0 iterations at t[s]:    246.42
SCF: Cycle: 28   Etot: -157.139969325991785   dEtot: -1.334e-08   |Residual|: 2.183e-05   |deigs|: 1.552e-05  t[s]:    246.61
	Linear fluid (dielectric constant: 7.2) occupying 0.986975 of unit cell:	Completed after 0 iterations at t[s]:    246.98
	Linear fluid (dielectric constant: 7.2) occupying 0.986974 of unit cell:	Completed after 0 iterations at t[s]:    247.74
SCF: Cycle: 29   Etot: -157.139969325736217   dEtot: +2.556e-10   |Residual|: 2.051e-05   |deigs|: 1.131e-05  t[s]:    247.94
	Linear fluid (dielectric constant: 7.2) occupying 0.986974 of unit cell:	Completed after 0 iterations at t[s]:    248.30
	Linear fluid (dielectric constant: 7.2) occupying 0.986974 of unit cell:	Completed after 0 iterations at t[s]:    249.09
SCF: Cycle: 30   Etot: -157.139969331435566   dEtot: -5.699e-09   |Residual|: 1.424e-05   |deigs|: 7.229e-06  t[s]:    249.28
	Linear fluid (dielectric constant: 7.2) occupying 0.986973 of unit cell:	Completed after 0 iterations at t[s]:    249.65
	Linear fluid (dielectric constant: 7.2) occupying 0.986974 of unit cell:	Completed after 0 iterations at t[s]:    250.38
SCF: Cycle: 31   Etot: -157.139969334777845   dEtot: -3.342e-09   |Residual|: 1.237e-05   |deigs|: 1.230e-05  t[s]:    250.57
SCF: Converged (|Delta E|<1.000000e-08 for 2 iters).

Setting wave functions to eigenvectors of Hamiltonian

-------- Electronic minimization -----------
Will mix electronic density at each iteration.
	Linear fluid (dielectric constant: 7.2) occupying 0.986971 of unit cell:	Completed after 8 iterations at t[s]:    251.40
	Linear fluid (dielectric constant: 7.2) occupying 0.986399 of unit cell:	Completed after 10 iterations at t[s]:    252.73
SCF: Cycle:  0   Etot: -157.075047970019909   dEtot: -4.265e-01   |Residual|: 3.308e-01   |deigs|: 2.206e-02  t[s]:    252.93
	Linear fluid (dielectric constant: 7.2) occupying 0.987224 of unit cell:	Completed after 16 iterations at t[s]:    254.27
	Linear fluid (dielectric constant: 7.2) occupying 0.986681 of unit cell:	Completed after 11 iterations at t[s]:    255.81
SCF: Cycle:  1   Etot: -157.104931533705496   dEtot: -2.988e-02   |Residual|: 1.633e-01   |deigs|: 1.202e-02  t[s]:    256.09
	Linear fluid (dielectric constant: 7.2) occupying 0.986928 of unit cell:	Completed after 17 iterations at t[s]:    257.57
	Linear fluid (dielectric constant: 7.2) occupying 0.986939 of unit cell:	Completed after 11 iterations at t[s]:    259.10
SCF: Cycle:  2   Etot: -157.126957678455597   dEtot: -2.203e-02   |Residual|: 3.321e-02   |deigs|: 7.681e-03  t[s]:    259.37
	Linear fluid (dielectric constant: 7.2) occupying 0.986727 of unit cell:	Completed after 16 iterations at t[s]:    260.78
	Linear fluid (dielectric constant: 7.2) occupying 0.987027 of unit cell:	Completed after 11 iterations at t[s]:    262.33
SCF: Cycle:  3   Etot: -157.129710420211723   dEtot: -2.753e-03   |Residual|: 1.737e-02   |deigs|: 4.683e-04  t[s]:    262.60
	Linear fluid (dielectric constant: 7.2) occupying 0.986594 of unit cell:	Completed after 11 iterations at t[s]:    263.66
	Linear fluid (dielectric constant: 7.2) occupying 0.986954 of unit cell:	Completed after 9 iterations at t[s]:    265.03
SCF: Cycle:  4   Etot: -157.136764521428631   dEtot: -7.054e-03   |Residual|: 1.198e-02   |deigs|: 2.010e-03  t[s]:    265.31
	Linear fluid (dielectric constant: 7.2) occupying 0.986599 of unit cell:	Completed after 11 iterations at t[s]:    266.39
	Linear fluid (dielectric constant: 7.2) occupying 0.986930 of unit cell:	Completed after 9 iterations at t[s]:    267.77
SCF: Cycle:  5   Etot: -157.138073751093430   dEtot: -1.309e-03   |Residual|: 9.432e-03   |deigs|: 2.648e-03  t[s]:    268.05
	Linear fluid (dielectric constant: 7.2) occupying 0.986646 of unit cell:	Completed after 10 iterations at t[s]:    269.01
	Linear fluid (dielectric constant: 7.2) occupying 0.986898 of unit cell:	Completed after 8 iterations at t[s]:    270.37
SCF: Cycle:  6   Etot: -157.139474990647415   dEtot: -1.401e-03   |Residual|: 6.465e-03   |deigs|: 4.672e-03  t[s]:    270.65
	Linear fluid (dielectric constant: 7.2) occupying 0.986482 of unit cell:	Completed after 6 iterations at t[s]:    271.35
	Linear fluid (dielectric constant: 7.2) occupying 0.986890 of unit cell:	Completed after 6 iterations at t[s]:    272.58
SCF: Cycle:  7   Etot: -157.140318556963308   dEtot: -8.436e-04   |Residual|: 6.182e-03   |deigs|: 8.024e-03  t[s]:    272.80
	Linear fluid (dielectric constant: 7.2) occupying 0.986553 of unit cell:	Completed after 7 iterations at t[s]:    273.57
	Linear fluid (dielectric constant: 7.2) occupying 0.986877 of unit cell:	Completed after 6 iterations at t[s]:    274.78
SCF: Cycle:  8   Etot: -157.140396041914073   dEtot: -7.748e-05   |Residual|: 3.171e-03   |deigs|: 1.884e-03  t[s]:    275.01
	Linear fluid (dielectric constant: 7.2) occupying 0.986468 of unit cell:	Completed after 6 iterations at t[s]:    275.72
	Linear fluid (dielectric constant: 7.2) occupying 0.986865 of unit cell:	Completed after 6 iterations at t[s]:    276.96
SCF: Cycle:  9   Etot: -157.140477891721105   dEtot: -8.185e-05   |Residual|: 4.883e-03   |deigs|: 9.665e-04  t[s]:    277.17
	Linear fluid (dielectric constant: 7.2) occupying 0.986333 of unit cell:	Completed after 5 iterations at t[s]:    277.83
	Linear fluid (dielectric constant: 7.2) occupying 0.986873 of unit cell:	Completed after 5 iterations at t[s]:    279.01
SCF: Cycle: 10   Etot: -157.140546438728421   dEtot: -6.855e-05   |Residual|: 1.606e-03   |deigs|: 2.726e-03  t[s]:    279.21
	Linear fluid (dielectric constant: 7.2) occupying 0.986329 of unit cell:	Completed after 5 iterations at t[s]:    279.87
	Linear fluid (dielectric constant: 7.2) occupying 0.986872 of unit cell:	Completed after 5 iterations at t[s]:    281.06
SCF: Cycle: 11   Etot: -157.140553979426983   dEtot: -7.541e-06   |Residual|: 1.194e-03   |deigs|: 1.042e-03  t[s]:    281.26
	Linear fluid (dielectric constant: 7.2) occupying 0.986463 of unit cell:	Completed after 5 iterations at t[s]:    281.91
	Linear fluid (dielectric constant: 7.2) occupying 0.986872 of unit cell:	Completed after 5 iterations at t[s]:    282.97
SCF: Cycle: 12   Etot: -157.140552399409273   dEtot: +1.580e-06   |Residual|: 1.234e-03   |deigs|: 2.547e-04  t[s]:    283.17
	Linear fluid (dielectric constant: 7.2) occupying 0.986695 of unit cell:	Completed after 4 iterations at t[s]:    283.77
	Linear fluid (dielectric constant: 7.2) occupying 0.986873 of unit cell:	Completed after 5 iterations at t[s]:    284.89
SCF: Cycle: 13   Etot: -157.140558089576700   dEtot: -5.690e-06   |Residual|: 7.108e-04   |deigs|: 3.231e-04  t[s]:    285.09
	Linear fluid (dielectric constant: 7.2) occupying 0.986815 of unit cell:	Completed after 4 iterations at t[s]:    285.70
	Linear fluid (dielectric constant: 7.2) occupying 0.986879 of unit cell:	Completed after 5 iterations at t[s]:    286.76
SCF: Cycle: 14   Etot: -157.140561240196035   dEtot: -3.151e-06   |Residual|: 5.227e-04   |deigs|: 1.366e-04  t[s]:    286.99
	Linear fluid (dielectric constant: 7.2) occupying 0.986879 of unit cell:	Completed after 4 iterations at t[s]:    287.60
	Linear fluid (dielectric constant: 7.2) occupying 0.986886 of unit cell:	Completed after 4 iterations at t[s]:    288.63
SCF: Cycle: 15   Etot: -157.140564614312723   dEtot: -3.374e-06   |Residual|: 3.521e-04   |deigs|: 9.289e-05  t[s]:    288.82
	Linear fluid (dielectric constant: 7.2) occupying 0.986890 of unit cell:	Completed after 3 iterations at t[s]:    289.40
	Linear fluid (dielectric constant: 7.2) occupying 0.986890 of unit cell:	Completed after 3 iterations at t[s]:    290.37
SCF: Cycle: 16   Etot: -157.140568700533294   dEtot: -4.086e-06   |Residual|: 2.111e-04   |deigs|: 3.060e-04  t[s]:    290.56
	Linear fluid (dielectric constant: 7.2) occupying 0.986889 of unit cell:	Completed after 2 iterations at t[s]:    291.09
	Linear fluid (dielectric constant: 7.2) occupying 0.986891 of unit cell:	Completed after 2 iterations at t[s]:    292.04
SCF: Cycle: 17   Etot: -157.140570279156321   dEtot: -1.579e-06   |Residual|: 2.038e-04   |deigs|: 1.568e-04  t[s]:    292.24
	Linear fluid (dielectric constant: 7.2) occupying 0.986889 of unit cell:	Completed after 3 iterations at t[s]:    292.81
	Linear fluid (dielectric constant: 7.2) occupying 0.986892 of unit cell:	Completed after 2 iterations at t[s]:    293.73
SCF: Cycle: 18   Etot: -157.140570719856214   dEtot: -4.407e-07   |Residual|: 1.455e-04   |deigs|: 1.547e-04  t[s]:    293.92
	Linear fluid (dielectric constant: 7.2) occupying 0.986885 of unit cell:	Completed after 2 iterations at t[s]:    294.46
	Linear fluid (dielectric constant: 7.2) occupying 0.986892 of unit cell:	Completed after 2 iterations at t[s]:    295.35
SCF: Cycle: 19   Etot: -157.140570942789253   dEtot: -2.229e-07   |Residual|: 1.143e-04   |deigs|: 3.475e-05  t[s]:    295.54
	Linear fluid (dielectric constant: 7.2) occupying 0.986884 of unit cell:	Completed after 1 iterations at t[s]:    296.03
	Linear fluid (dielectric constant: 7.2) occupying 0.986892 of unit cell:	Completed after 1 iterations at t[s]:    296.90
SCF: Cycle: 20   Etot: -157.140571092213946   dEtot: -1.494e-07   |Residual|: 1.149e-04   |deigs|: 3.800e-05  t[s]:    297.10
	Linear fluid (dielectric constant: 7.2) occupying 0.986882 of unit cell:	Completed after 1 iterations at t[s]:    297.56
	Linear fluid (dielectric constant: 7.2) occupying 0.986892 of unit cell:	Completed after 1 iterations at t[s]:    298.44
SCF: Cycle: 21   Etot: -157.140571165035567   dEtot: -7.282e-08   |Residual|: 7.828e-05   |deigs|: 3.554e-05  t[s]:    298.64
	Linear fluid (dielectric constant: 7.2) occupying 0.986881 of unit cell:	Completed after 1 iterations at t[s]:    299.10
	Linear fluid (dielectric constant: 7.2) occupying 0.986892 of unit cell:	Completed after 1 iterations at t[s]:    299.96
SCF: Cycle: 22   Etot: -157.140571199723013   dEtot: -3.469e-08   |Residual|: 5.967e-05   |deigs|: 1.716e-05  t[s]:    300.16
	Linear fluid (dielectric constant: 7.2) occupying 0.986886 of unit cell:	Completed after 1 iterations at t[s]:    300.61
	Linear fluid (dielectric constant: 7.2) occupying 0.986892 of unit cell:	Completed after 1 iterations at t[s]:    301.50
SCF: Cycle: 23   Etot: -157.140571221118307   dEtot: -2.140e-08   |Residual|: 6.134e-05   |deigs|: 1.303e-05  t[s]:    301.69
	Linear fluid (dielectric constant: 7.2) occupying 0.986892 of unit cell:	Completed after 0 iterations at t[s]:    302.12
	Linear fluid (dielectric constant: 7.2) occupying 0.986893 of unit cell:	Completed after 0 iterations at t[s]:    302.94
SCF: Cycle: 24   Etot: -157.140571256857129   dEtot: -3.574e-08   |Residual|: 4.638e-05   |deigs|: 8.156e-06  t[s]:    303.13
	Linear fluid (dielectric constant: 7.2) occupying 0.986894 of unit cell:	Completed after 0 iterations at t[s]:    303.53
	Linear fluid (dielectric constant: 7.2) occupying 0.986893 of unit cell:	Completed after 0 iterations at t[s]:    304.29
SCF: Cycle: 25   Etot: -157.140571264822768   dEtot: -7.966e-09   |Residual|: 3.647e-05   |deigs|: 3.249e-05  t[s]:    304.47
	Linear fluid (dielectric constant: 7.2) occupying 0.986893 of unit cell:	Completed after 1 iterations at t[s]:    304.92
	Linear fluid (dielectric constant: 7.2) occupying 0.986893 of unit cell:	Completed after 0 iterations at t[s]:    305.74
SCF: Cycle: 26   Etot: -157.140571282931120   dEtot: -1.811e-08   |Residual|: 3.878e-05   |deigs|: 9.903e-06  t[s]:    305.93
	Linear fluid (dielectric constant: 7.2) occupying 0.986891 of unit cell:	Completed after 0 iterations at t[s]:    306.33
	Linear fluid (dielectric constant: 7.2) occupying 0.986893 of unit cell:	Completed after 0 iterations at t[s]:    307.09
SCF: Cycle: 27   Etot: -157.140571293211821   dEtot: -1.028e-08   |Residual|: 2.669e-05   |deigs|: 1.128e-05  t[s]:    307.29
	Linear fluid (dielectric constant: 7.2) occupying 0.986889 of unit cell:	Completed after 0 iterations at t[s]:    307.69
	Linear fluid (dielectric constant: 7.2) occupying 0.986893 of unit cell:	Completed after 0 iterations at t[s]:    308.52
SCF: Cycle: 28   Etot: -157.140571295963383   dEtot: -2.752e-09   |Residual|: 2.544e-05   |deigs|: 1.476e-05  t[s]:    308.72
	Linear fluid (dielectric constant: 7.2) occupying 0.986890 of unit cell:	Completed after 0 iterations at t[s]:    309.11
	Linear fluid (dielectric constant: 7.2) occupying 0.986893 of unit cell:	Completed after 0 iterations at t[s]:    309.89
SCF: Cycle: 29   Etot: -157.140571305505802   dEtot: -9.542e-09   |Residual|: 1.654e-05   |deigs|: 4.652e-06  t[s]:    310.08
SCF: Converged (|Delta E|<1.000000e-08 for 2 iters).

Setting wave functions to eigenvectors of Hamiltonian

# Ionic positions in cartesian coordinates:
ion S   3.945840715406290  11.958737530809387  23.100777309938504 1
ion S   7.581858818628469  11.392268826577656  23.920804785210944 1
ion S   8.668353861988535   7.798757063662526  23.210011670505438 1
ion S   6.505027527689049   7.740192759598661  29.732870891102923 1
ion S   7.542252103792531  11.358378159320816  29.074132656470507 1
ion S  11.166818061371863  11.961209284669138  29.916306686022654 1
ion Na   3.624767621722479   6.980279429171008  25.222048692557351 1
ion Na  11.558952485300777   7.022528641800802  27.692167166591670 1

# Forces in Cartesian coordinates:
force S  -0.001268772247436  -0.000735665982280  -0.000206880246688 1
[...]
	Linear fluid (dielectric constant: 7.2) occupying 0.986957 of unit cell:	Completed after 0 iterations at t[s]:   1728.59
	Linear fluid (dielectric constant: 7.2) occupying 0.986957 of unit cell:	Completed after 0 iterations at t[s]:   1729.30
SCF: Cycle: 13   Etot: -157.141775123843445   dEtot: -3.177e-09   |Residual|: 6.902e-06   |deigs|: 1.266e-05  t[s]:   1729.49
	Linear fluid (dielectric constant: 7.2) occupying 0.986957 of unit cell:	Completed after 0 iterations at t[s]:   1729.83
	Linear fluid (dielectric constant: 7.2) occupying 0.986957 of unit cell:	Completed after 0 iterations at t[s]:   1730.55
SCF: Cycle: 14   Etot: -157.141775125769215   dEtot: -1.926e-09   |Residual|: 7.639e-06   |deigs|: 1.606e-08  t[s]:   1730.75
SCF: Converged (|Delta E|<1.000000e-08 for 2 iters).

Setting wave functions to eigenvectors of Hamiltonian

-------- Electronic minimization -----------
Will mix electronic density at each iteration.
	Linear fluid (dielectric constant: 7.2) occupying 0.986957 of unit cell:	Completed after 3 iterations at t[s]:   1731.38
	Linear fluid (dielectric constant: 7.2) occupying 0.986957 of unit cell:	Completed after 1 iterations at t[s]:   1732.27
SCF: Cycle:  0   Etot: -157.141774856143115   dEtot: -2.295e-06   |Residual|: 5.688e-04   |deigs|: 8.180e-08  t[s]:   1732.47
	Linear fluid (dielectric constant: 7.2) occupying 0.986956 of unit cell:	Completed after 1 iterations at t[s]:   1732.93
	Linear fluid (dielectric constant: 7.2) occupying 0.986957 of unit cell:	Completed after 1 iterations at t[s]:   1733.74
SCF: Cycle:  1   Etot: -157.141775559732707   dEtot: -7.036e-07   |Residual|: 2.969e-04   |deigs|: 4.405e-06  t[s]:   1733.93
	Linear fluid (dielectric constant: 7.2) occupying 0.986956 of unit cell:	Completed after 1 iterations at t[s]:   1734.39
	Linear fluid (dielectric constant: 7.2) occupying 0.986957 of unit cell:	Completed after 0 iterations at t[s]:   1735.16
SCF: Cycle:  2   Etot: -157.141775805727150   dEtot: -2.460e-07   |Residual|: 8.533e-05   |deigs|: 5.868e-06  t[s]:   1735.36
	Linear fluid (dielectric constant: 7.2) occupying 0.986956 of unit cell:	Completed after 0 iterations at t[s]:   1735.75
	Linear fluid (dielectric constant: 7.2) occupying 0.986957 of unit cell:	Completed after 0 iterations at t[s]:   1736.50
SCF: Cycle:  3   Etot: -157.141775840543488   dEtot: -3.482e-08   |Residual|: 6.013e-05   |deigs|: 5.118e-06  t[s]:   1736.69
	Linear fluid (dielectric constant: 7.2) occupying 0.986957 of unit cell:	Completed after 0 iterations at t[s]:   1737.09
	Linear fluid (dielectric constant: 7.2) occupying 0.986957 of unit cell:	Completed after 0 iterations at t[s]:   1737.84
SCF: Cycle:  4   Etot: -157.141775855334288   dEtot: -1.479e-08   |Residual|: 2.159e-05   |deigs|: 5.212e-06  t[s]:   1738.03
	Linear fluid (dielectric constant: 7.2) occupying 0.986957 of unit cell:	Completed after 0 iterations at t[s]:   1738.42
	Linear fluid (dielectric constant: 7.2) occupying 0.986957 of unit cell:	Completed after 0 iterations at t[s]:   1739.18
SCF: Cycle:  5   Etot: -157.141775862018250   dEtot: -6.684e-09   |Residual|: 1.546e-05   |deigs|: 3.357e-06  t[s]:   1739.37
	Linear fluid (dielectric constant: 7.2) occupying 0.986957 of unit cell:	Completed after 0 iterations at t[s]:   1739.73
	Linear fluid (dielectric constant: 7.2) occupying 0.986957 of unit cell:	Completed after 0 iterations at t[s]:   1740.46
SCF: Cycle:  6   Etot: -157.141775867046533   dEtot: -5.028e-09   |Residual|: 1.240e-05   |deigs|: 4.891e-06  t[s]:   1740.65
SCF: Converged (|Delta E|<1.000000e-08 for 2 iters).

Setting wave functions to eigenvectors of Hamiltonian

# Ionic positions in cartesian coordinates:
ion S   3.904584007110374  12.019868284470610  23.198234596752833 1
ion S   7.565910054200424  11.448372459195349  23.994994683672246 1
ion S   8.575434020621270   7.838147931256120  23.394799947257724 1
ion S   6.623866836343963   7.642835834417325  29.465225260726893 1
ion S   7.532790287850187  11.307811126751572  29.060755096517109 1
ion S  11.177707479887804  11.927024322904066  29.892968442576500 1
ion Na   3.372584765465635   7.001578905254992  25.042089780848141 1
ion Na  11.840993744420354   7.026712831359963  27.820052050048535 1

# Forces in Cartesian coordinates:
force S   0.000064573198763   0.000019609430263   0.000298487097658 1
force S  -0.000001975458130  -0.000090153909279   0.000202105909979 1
force S   0.000029453094930  -0.000036009091499   0.000340324391356 1
force S  -0.000192266677153   0.000050070089472   0.000131712670464 1
force S   0.000120562895538  -0.000096146009512   0.000404053167015 1
force S  -0.000010503376011   0.000271125060963   0.000287810050611 1
force Na  -0.000021610571125   0.000157763631348   0.000267750365630 1
force Na  -0.000077859236755  -0.000146264622781   0.000109735815719 1

# Energy components:
   A_diel =       -0.0658917421044258
   Eewald =      140.2302824285790166
       EH =      269.8489362735015789
     Eloc =     -444.9792507955222618
      Enl =     -133.1721927628832702
      Exc =      -39.5960521145102646
 Exc_core =       10.6063795790016577
       KE =       39.9860132668913622
-------------------------------------
     Etot =     -157.1417758670465332

IonicMinimize: Iter:  24  Etot: -157.141775867046533  |grad|_K:  1.067e-04  alpha:  2.917e+00  linmin: -2.694e-02  t[s]:   1741.03

#--- Lowdin population analysis ---
# oxidation-state S -0.476 +0.373 -0.446 -0.447 +0.373 -0.476
# oxidation-state Na +0.814 +0.815


-------- Electronic minimization -----------
Will mix electronic density at each iteration.
	Linear fluid (dielectric constant: 7.2) occupying 0.986957 of unit cell:	Completed after 2 iterations at t[s]:   1741.58
	Linear fluid (dielectric constant: 7.2) occupying 0.986957 of unit cell:	Completed after 1 iterations at t[s]:   1742.44
SCF: Cycle:  0   Etot: -157.141776217002928   dEtot: -5.145e-07   |Residual|: 2.582e-04   |deigs|: 1.751e-08  t[s]:   1742.64
	Linear fluid (dielectric constant: 7.2) occupying 0.986957 of unit cell:	Completed after 1 iterations at t[s]:   1743.09
	Linear fluid (dielectric constant: 7.2) occupying 0.986957 of unit cell:	Completed after 1 iterations at t[s]:   1743.89
SCF: Cycle:  1   Etot: -157.141776363638371   dEtot: -1.466e-07   |Residual|: 1.369e-04   |deigs|: 6.437e-06  t[s]:   1744.09
	Linear fluid (dielectric constant: 7.2) occupying 0.986957 of unit cell:	Completed after 0 iterations at t[s]:   1744.50
	Linear fluid (dielectric constant: 7.2) occupying 0.986957 of unit cell:	Completed after 0 iterations at t[s]:   1745.26
SCF: Cycle:  2   Etot: -157.141776410222434   dEtot: -4.658e-08   |Residual|: 4.595e-05   |deigs|: 7.068e-06  t[s]:   1745.45
	Linear fluid (dielectric constant: 7.2) occupying 0.986957 of unit cell:	Completed after 0 iterations at t[s]:   1745.80
	Linear fluid (dielectric constant: 7.2) occupying 0.986957 of unit cell:	Completed after 0 iterations at t[s]:   1746.53
SCF: Cycle:  3   Etot: -157.141776422370327   dEtot: -1.215e-08   |Residual|: 2.863e-05   |deigs|: 9.261e-06  t[s]:   1746.72
	Linear fluid (dielectric constant: 7.2) occupying 0.986957 of unit cell:	Completed after 0 iterations at t[s]:   1747.05
	Linear fluid (dielectric constant: 7.2) occupying 0.986957 of unit cell:	Completed after 0 iterations at t[s]:   1747.82
SCF: Cycle:  4   Etot: -157.141776419647869   dEtot: +2.722e-09   |Residual|: 1.796e-05   |deigs|: 1.173e-07  t[s]:   1748.02
	Linear fluid (dielectric constant: 7.2) occupying 0.986957 of unit cell:	Completed after 0 iterations at t[s]:   1753.72
	Linear fluid (dielectric constant: 7.2) occupying 0.986957 of unit cell:	Completed after 0 iterations at t[s]:   1754.46
SCF: Cycle:  5   Etot: -157.141776423954127   dEtot: -4.306e-09   |Residual|: 9.956e-06   |deigs|: 8.674e-06  t[s]:   1754.66
	Linear fluid (dielectric constant: 7.2) occupying 0.986957 of unit cell:	Completed after 0 iterations at t[s]:   1755.00
	Linear fluid (dielectric constant: 7.2) occupying 0.986957 of unit cell:	Completed after 0 iterations at t[s]:   1755.71
SCF: Cycle:  6   Etot: -157.141776425935802   dEtot: -1.982e-09   |Residual|: 1.060e-05   |deigs|: 4.199e-08  t[s]:   1755.91
SCF: Converged (|Delta E|<1.000000e-08 for 2 iters).

Setting wave functions to eigenvectors of Hamiltonian

-------- Electronic minimization -----------
Will mix electronic density at each iteration.
	Linear fluid (dielectric constant: 7.2) occupying 0.986957 of unit cell:	Completed after 1 iterations at t[s]:   1756.47
	Linear fluid (dielectric constant: 7.2) occupying 0.986957 of unit cell:	Completed after 0 iterations at t[s]:   1757.28
SCF: Cycle:  0   Etot: -157.141776479028465   dEtot: -8.370e-08   |Residual|: 1.082e-04   |deigs|: 2.895e-09  t[s]:   1757.48
	Linear fluid (dielectric constant: 7.2) occupying 0.986957 of unit cell:	Completed after 0 iterations at t[s]:   1757.86
	Linear fluid (dielectric constant: 7.2) occupying 0.986957 of unit cell:	Completed after 0 iterations at t[s]:   1762.24
SCF: Cycle:  1   Etot: -157.141776508779969   dEtot: -2.975e-08   |Residual|: 4.132e-05   |deigs|: 4.627e-06  t[s]:   1762.43
	Linear fluid (dielectric constant: 7.2) occupying 0.986957 of unit cell:	Completed after 0 iterations at t[s]:   1762.76
	Linear fluid (dielectric constant: 7.2) occupying 0.986957 of unit cell:	Completed after 0 iterations at t[s]:   1763.47
SCF: Cycle:  2   Etot: -157.141776514473690   dEtot: -5.694e-09   |Residual|: 2.526e-05   |deigs|: 1.218e-07  t[s]:   1763.66
	Linear fluid (dielectric constant: 7.2) occupying 0.986957 of unit cell:	Completed after 0 iterations at t[s]:   1765.85
	Linear fluid (dielectric constant: 7.2) occupying 0.986957 of unit cell:	Completed after 0 iterations at t[s]:   1766.57
SCF: Cycle:  3   Etot: -157.141776518100357   dEtot: -3.627e-09   |Residual|: 1.162e-05   |deigs|: 1.460e-07  t[s]:   1766.76
SCF: Converged (|Delta E|<1.000000e-08 for 2 iters).

Setting wave functions to eigenvectors of Hamiltonian

# Ionic positions in cartesian coordinates:
ion S   3.904772822254087  12.019588568279657  23.198104658225194 1
ion S   7.565945497795568  11.448736439935942  23.995160746081268 1
ion S   8.576625451083093   7.838410594406300  23.395020614708400 1
ion S   6.623945209448292   7.642474880116552  29.463632469383757 1
ion S   7.532871087477692  11.305909989092525  29.061423969059398 1
ion S  11.177107338517281  11.927050915708755  29.894220510307267 1
ion Na   3.370696049011333   7.004490209248980  25.042309421656427 1
ion Na  11.841907740312664   7.025690098821286  27.819247468978269 1

# Forces in Cartesian coordinates:
force S   0.000021474253503   0.000087987016565   0.000294553879216 1
force S   0.000083867432358  -0.000148001103225   0.000198654760859 1
force S  -0.000067714510081   0.000020875378390   0.000350793884652 1
force S  -0.000198739187414  -0.000253993333220   0.000244017486304 1
force S   0.000015483505580   0.000184331666949   0.000310399020608 1
force S   0.000046423320253   0.000167341872263   0.000274619377822 1
force Na  -0.000019035614489   0.000114798984448   0.000257927108718 1
force Na  -0.000078102938551  -0.000129642282032   0.000127142399049 1

# Energy components:
   A_diel =       -0.0659006150054422
   Eewald =      140.2320332228761401
       EH =      269.8504072396821130
     Eloc =     -444.9830312427183117
      Enl =     -133.1720698584892091
      Exc =      -39.5963259101528138
 Exc_core =       10.6063795879203155
       KE =       39.9867310577868196
-------------------------------------
     Etot =     -157.1417765181003574

IonicMinimize: Iter:  25  Etot: -157.141776518100357  |grad|_K:  1.072e-04  alpha:  4.046e+00  linmin: -3.934e-02  t[s]:   1767.13

#--- Lowdin population analysis ---
# oxidation-state S -0.476 +0.373 -0.446 -0.447 +0.373 -0.476
# oxidation-state Na +0.814 +0.815


-------- Electronic minimization -----------
Will mix electronic density at each iteration.
	Linear fluid (dielectric constant: 7.2) occupying 0.986957 of unit cell:	Completed after 3 iterations at t[s]:   1767.73
	Linear fluid (dielectric constant: 7.2) occupying 0.986957 of unit cell:	Completed after 1 iterations at t[s]:   1768.61
SCF: Cycle:  0   Etot: -157.141777238426698   dEtot: -9.465e-07   |Residual|: 2.685e-04   |deigs|: 2.693e-08  t[s]:   1768.80
	Linear fluid (dielectric constant: 7.2) occupying 0.986957 of unit cell:	Completed after 1 iterations at t[s]:   1778.82
	Linear fluid (dielectric constant: 7.2) occupying 0.986957 of unit cell:	Completed after 1 iterations at t[s]:   1779.62
SCF: Cycle:  1   Etot: -157.141777441112197   dEtot: -2.027e-07   |Residual|: 1.531e-04   |deigs|: 7.379e-06  t[s]:   1779.81
	Linear fluid (dielectric constant: 7.2) occupying 0.986957 of unit cell:	Completed after 0 iterations at t[s]:   1780.23
	Linear fluid (dielectric constant: 7.2) occupying 0.986957 of unit cell:	Completed after 0 iterations at t[s]:   1781.00
SCF: Cycle:  2   Etot: -157.141777505465768   dEtot: -6.435e-08   |Residual|: 5.082e-05   |deigs|: 8.974e-06  t[s]:   1781.20
	Linear fluid (dielectric constant: 7.2) occupying 0.986957 of unit cell:	Completed after 0 iterations at t[s]:   1781.58
	Linear fluid (dielectric constant: 7.2) occupying 0.986957 of unit cell:	Completed after 0 iterations at t[s]:   1782.32
SCF: Cycle:  3   Etot: -157.141777527204482   dEtot: -2.174e-08   |Residual|: 3.321e-05   |deigs|: 4.084e-06  t[s]:   1782.51
	Linear fluid (dielectric constant: 7.2) occupying 0.986957 of unit cell:	Completed after 0 iterations at t[s]:   1782.84
	Linear fluid (dielectric constant: 7.2) occupying 0.986957 of unit cell:	Completed after 0 iterations at t[s]:   1783.56
SCF: Cycle:  4   Etot: -157.141777537753001   dEtot: -1.055e-08   |Residual|: 1.729e-05   |deigs|: 2.549e-07  t[s]:   1783.75
	Linear fluid (dielectric constant: 7.2) occupying 0.986957 of unit cell:	Completed after 0 iterations at t[s]:   1784.08
	Linear fluid (dielectric constant: 7.2) occupying 0.986957 of unit cell:	Completed after 0 iterations at t[s]:   1784.83
SCF: Cycle:  5   Etot: -157.141777536089648   dEtot: +1.663e-09   |Residual|: 9.572e-06   |deigs|: 2.188e-07  t[s]:   1785.02
	Linear fluid (dielectric constant: 7.2) occupying 0.986957 of unit cell:	Completed after 0 iterations at t[s]:   1785.38
	Linear fluid (dielectric constant: 7.2) occupying 0.986957 of unit cell:	Completed after 0 iterations at t[s]:   1786.13
SCF: Cycle:  6   Etot: -157.141777542544105   dEtot: -6.454e-09   |Residual|: 1.274e-05   |deigs|: 9.501e-06  t[s]:   1786.32
	Linear fluid (dielectric constant: 7.2) occupying 0.986957 of unit cell:	Completed after 0 iterations at t[s]:   1786.65
	Linear fluid (dielectric constant: 7.2) occupying 0.986957 of unit cell:	Completed after 0 iterations at t[s]:   1787.37
SCF: Cycle:  7   Etot: -157.141777544114632   dEtot: -1.571e-09   |Residual|: 1.236e-05   |deigs|: 3.162e-08  t[s]:   1787.57
SCF: Converged (|Delta E|<1.000000e-08 for 2 iters).

Setting wave functions to eigenvectors of Hamiltonian

-------- Electronic minimization -----------
Will mix electronic density at each iteration.
	Linear fluid (dielectric constant: 7.2) occupying 0.986957 of unit cell:	Completed after 3 iterations at t[s]:   1788.20
	Linear fluid (dielectric constant: 7.2) occupying 0.986957 of unit cell:	Completed after 1 iterations at t[s]:   1789.09
SCF: Cycle:  0   Etot: -157.141777334634213   dEtot: -1.877e-06   |Residual|: 3.721e-04   |deigs|: 5.248e-08  t[s]:   1789.30
	Linear fluid (dielectric constant: 7.2) occupying 0.986957 of unit cell:	Completed after 1 iterations at t[s]:   1789.74
	Linear fluid (dielectric constant: 7.2) occupying 0.986957 of unit cell:	Completed after 1 iterations at t[s]:   1790.55
SCF: Cycle:  1   Etot: -157.141777711798056   dEtot: -3.772e-07   |Residual|: 2.132e-04   |deigs|: 8.943e-06  t[s]:   1790.74
	Linear fluid (dielectric constant: 7.2) occupying 0.986957 of unit cell:	Completed after 0 iterations at t[s]:   1791.15
	Linear fluid (dielectric constant: 7.2) occupying 0.986957 of unit cell:	Completed after 0 iterations at t[s]:   1791.92
SCF: Cycle:  2   Etot: -157.141777831991391   dEtot: -1.202e-07   |Residual|: 6.798e-05   |deigs|: 1.527e-05  t[s]:   1792.11
	Linear fluid (dielectric constant: 7.2) occupying 0.986957 of unit cell:	Completed after 0 iterations at t[s]:   1792.50
	Linear fluid (dielectric constant: 7.2) occupying 0.986957 of unit cell:	Completed after 0 iterations at t[s]:   1793.26
SCF: Cycle:  3   Etot: -157.141777864128358   dEtot: -3.214e-08   |Residual|: 4.565e-05   |deigs|: 5.612e-06  t[s]:   1793.45
	Linear fluid (dielectric constant: 7.2) occupying 0.986957 of unit cell:	Completed after 0 iterations at t[s]:   1793.81
	Linear fluid (dielectric constant: 7.2) occupying 0.986957 of unit cell:	Completed after 0 iterations at t[s]:   1794.52
SCF: Cycle:  4   Etot: -157.141777880748805   dEtot: -1.662e-08   |Residual|: 2.211e-05   |deigs|: 8.864e-06  t[s]:   1794.71
	Linear fluid (dielectric constant: 7.2) occupying 0.986957 of unit cell:	Completed after 0 iterations at t[s]:   1795.08
	Linear fluid (dielectric constant: 7.2) occupying 0.986957 of unit cell:	Completed after 0 iterations at t[s]:   1795.85
SCF: Cycle:  5   Etot: -157.141777889145914   dEtot: -8.397e-09   |Residual|: 1.378e-05   |deigs|: 7.849e-06  t[s]:   1796.04
	Linear fluid (dielectric constant: 7.2) occupying 0.986957 of unit cell:	Completed after 0 iterations at t[s]:   1796.40
	Linear fluid (dielectric constant: 7.2) occupying 0.986957 of unit cell:	Completed after 0 iterations at t[s]:   1797.11
SCF: Cycle:  6   Etot: -157.141777892380674   dEtot: -3.235e-09   |Residual|: 1.124e-05   |deigs|: 7.904e-06  t[s]:   1797.31
SCF: Converged (|Delta E|<1.000000e-08 for 2 iters).

Setting wave functions to eigenvectors of Hamiltonian

# Ionic positions in cartesian coordinates:
ion S   3.905680299025599  12.019712622396133  23.198152099254258 1
ion S   7.567088049250599  11.448126019411625  23.994993403785248 1
ion S   8.579101553657422   7.839199407432454  23.396468514680702 1
ion S   6.622438353226211   7.639069081183390  29.459630775294432 1
ion S   7.533457566258488  11.303030616055180  29.063567992449720 1
ion S  11.176339700897971  11.928692964040865  29.897433836113603 1
ion Na   3.366157596518627   7.012633989743597  25.042849910241110 1
ion Na  11.843608077065095   7.021886995346754  27.816023326580904 1

# Forces in Cartesian coordinates:
force S   0.000012725427186   0.000074046198040   0.000248935206545 1
force S   0.000113921017482   0.000083832923391   0.000303831477100 1
force S  -0.000113925801816  -0.000163842721613   0.000250968070267 1
force S  -0.000024435084521  -0.000168832993305   0.000287426132894 1
force S  -0.000120828994373   0.000313866736900   0.000241768443434 1
force S   0.000075728172863  -0.000044737213464   0.000255521099498 1
force Na  -0.000025558595164   0.000003692711360   0.000252394784089 1
force Na  -0.000092777610187  -0.000047122746171   0.000231464786753 1

# Energy components:
   A_diel =       -0.0659271897453619
   Eewald =      140.2204447872320827
       EH =      269.8390412512909506
     Eloc =     -444.9603438213026720
      Enl =     -133.1719677340687440
      Exc =      -39.5963938323188742
 Exc_core =       10.6063795933982004
       KE =       39.9869890531337830
-------------------------------------
     Etot =     -157.1417778923806736

IonicMinimize: Iter:  26  Etot: -157.141777892380674  |grad|_K:  9.722e-05  alpha:  9.744e+00  linmin:  6.197e-02  t[s]:   1797.66
IonicMinimize: Converged (|grad|_K<1.000000e-04).

#--- Lowdin population analysis ---
# oxidation-state S -0.476 +0.372 -0.445 -0.447 +0.372 -0.476
# oxidation-state Na +0.814 +0.815


Dumping 'Na2S6-glyme.wfns' ... done
Dumping 'Na2S6-glyme.fluidState' ... done
Dumping 'Na2S6-glyme.ionpos' ... done
End date and time: Sat Dec 28 18:24:46 2024  (Duration: 0-0:29:58.46)
Done!
