
*************** JDFTx 1.7.0  ***************

Start date and time: Thu Aug 22 01:13:30 2024
Executable jdftx with command-line: -i Na2S2-PC-vdw.in -o Na2S2-PC-vdw.out
Running on hosts (process indices):  DESKTOP-H9SOOLG (0)
Divided in process groups (process indices):  0 (0)
Resource initialization completed at t[s]:      0.00
Run totals: 1 processes, 4 threads, 0 GPUs


Input parsed successfully to the following command list (including defaults):

basis kpoint-dependent
coords-type Cartesian
core-overlap-check vector
coulomb-interaction Isolated
coulomb-truncation-embed 9.40288 12.4301 27.2635
davidson-band-ratio 1.1
dump End State
dump-name Na2S2-PC-vdw.$VAR
elec-cutoff 20 100
elec-eigen-algo Davidson
elec-ex-corr gga-PBE
electronic-minimize  \
	dirUpdateScheme      FletcherReeves \
	linminMethod         DirUpdateRecommended \
	nIterations          100 \
	history              15 \
	knormThreshold       0 \
	energyDiffThreshold  1e-08 \
	nEnergyDiff          2 \
	alphaTstart          1 \
	alphaTmin            1e-10 \
	updateTestStepSize   yes \
	alphaTreduceFactor   0.1 \
	alphaTincreaseFactor 3 \
	nAlphaAdjustMax      3 \
	wolfeEnergy          0.0001 \
	wolfeGradient        0.9 \
	fdTest               no
electronic-scf  \
	nIterations	50 \
	energyDiffThreshold	1e-08 \
	residualThreshold	1e-07 \
	mixFraction	0.5 \
	qMetric	0.8 \
	history	10 \
	nEigSteps	2 \
	eigDiffThreshold	1e-08 \
	mixedVariable	Density \
	qKerker	0.8 \
	qKappa	-1 \
	verbose	no \
	mixFractionMag	1.5
exchange-regularization None
fluid LinearPCM 298.000000 1.013250
fluid-ex-corr lda-TF lda-PZ
fluid-gummel-loop 10 1.000000e-05
fluid-minimize  \
	dirUpdateScheme      PolakRibiere \
	linminMethod         DirUpdateRecommended \
	nIterations          400 \
	history              15 \
	knormThreshold       1e-11 \
	energyDiffThreshold  0 \
	nEnergyDiff          2 \
	alphaTstart          1 \
	alphaTmin            1e-10 \
	updateTestStepSize   yes \
	alphaTreduceFactor   0.1 \
	alphaTincreaseFactor 3 \
	nAlphaAdjustMax      6 \
	wolfeEnergy          0.0001 \
	wolfeGradient        0.9 \
	fdTest               no
fluid-solvent PC 11.6429 ScalarEOS \
	epsBulk 64 \
	pMol 2.95 \
	epsInf 2.02 \
	Pvap 1.53277e-13 \
	sigmaBulk 2.88e-05 \
	Rvdw 0 \
	Res 0 \
	tauNuc 343133
forces-output-coords Positions
ion S   9.402875070209999  12.430078910730000  27.263527773840000 1
ion S   5.921463285810000  10.087698104369998  27.341467797959996 1
ion Na   9.852901041599997   7.943043527369999  25.470895880699999 1
ion Na   5.365079530559999  14.615699054669998  25.686786194819998 1
ion-species GBRV/$ID_pbe.uspp
ion-width Ecut
ionic-minimize  \
	dirUpdateScheme      FletcherReeves \
	linminMethod         DirUpdateRecommended \
	nIterations          200 \
	history              15 \
	knormThreshold       0.0001 \
	energyDiffThreshold  1e-06 \
	nEnergyDiff          2 \
	alphaTstart          1 \
	alphaTmin            1e-10 \
	updateTestStepSize   yes \
	alphaTreduceFactor   0.1 \
	alphaTincreaseFactor 3 \
	nAlphaAdjustMax      3 \
	wolfeEnergy          0.0001 \
	wolfeGradient        0.9 \
	fdTest               no
kpoint   0.000000000000   0.000000000000   0.000000000000  1.00000000000000
kpoint-folding 1 1 1 
latt-move-scale 1 1 1
latt-scale 1 1 1 
lattice Triclinic 28.0058 28.0058 37.7946 90 90 120
lattice-minimize  \
	dirUpdateScheme      L-BFGS \
	linminMethod         DirUpdateRecommended \
	nIterations          0 \
	history              15 \
	knormThreshold       0 \
	energyDiffThreshold  1e-06 \
	nEnergyDiff          2 \
	alphaTstart          1 \
	alphaTmin            1e-10 \
	updateTestStepSize   yes \
	alphaTreduceFactor   0.1 \
	alphaTincreaseFactor 3 \
	nAlphaAdjustMax      3 \
	wolfeEnergy          0.0001 \
	wolfeGradient        0.9 \
	fdTest               no
lcao-params -1 1e-06 0.001
pcm-variant GLSSA13
spintype no-spin
subspace-rotation-factor 1 yes
symmetries automatic
symmetry-threshold 0.0001
van-der-waals D3



---------- Setting up symmetries ----------

Found 24 point-group symmetries of the bravais lattice
Found 1 space-group symmetries with basis
Applied RMS atom displacement 0 bohrs to make symmetries exact.

---------- Initializing the Grid ----------
R = 
[      28.0058     -14.0029            0  ]
[            0      24.2537            0  ]
[            0            0      37.7946  ]
unit cell volume = 25671.8
G =
[   0.224353    0.12953         -0  ]
[          0   0.259061          0  ]
[          0         -0   0.166246  ]
Minimum fftbox size, Smin = [  128  128  172  ]
Chosen fftbox size, S = [  128  128  180  ]

---------- Initializing tighter grid for wavefunction operations ----------
R = 
[      28.0058     -14.0029            0  ]
[            0      24.2537            0  ]
[            0            0      37.7946  ]
unit cell volume = 25671.8
G =
[   0.224353    0.12953         -0  ]
[          0   0.259061          0  ]
[          0         -0   0.166246  ]
Minimum fftbox size, Smin = [  116  116  156  ]
Chosen fftbox size, S = [  120  120  160  ]

---------- Exchange Correlation functional ----------
Initalized PBE GGA exchange.
Initalized PBE GGA correlation.

---------- Setting up pseudopotentials ----------
Width of ionic core gaussian charges (only for fluid interactions / plotting) set to 0.397384

Reading pseudopotential file '/home/danielkim/jdftx_install/build/pseudopotentials/GBRV/s_pbe.uspp':
  Title: S.  Created by USPP 7.3.6 on 1-4-15
  Reference state energy: -11.898476.  6 valence electrons in orbitals:
    |300>  occupation: 2  eigenvalue: -0.634167
    |310>  occupation: 4  eigenvalue: -0.257568
  lMax: 2  lLocal: 3  QijEcut: 6
  6 projectors sampled on a log grid with 635 points:
    l: 0  eig: -0.634161  rCut: 1.5
    l: 0  eig: 1.500000  rCut: 1.5
    l: 1  eig: -0.257567  rCut: 1.5
    l: 1  eig: 1.500000  rCut: 1.5
    l: 2  eig: -1.000000  rCut: 1.5
    l: 2  eig: 1.500000  rCut: 1.5
  Partial core density with radius 1.15
  Transforming core density to a uniform radial grid of dG=0.02 with 1625 points.
  Transforming local potential to a uniform radial grid of dG=0.02 with 1625 points.
  Transforming nonlocal projectors to a uniform radial grid of dG=0.02 with 432 points.
  Transforming density augmentations to a uniform radial grid of dG=0.02 with 1625 points.
  Transforming atomic orbitals to a uniform radial grid of dG=0.02 with 432 points.
  Core radius for overlap checks: 1.50 bohrs.

Reading pseudopotential file '/home/danielkim/jdftx_install/build/pseudopotentials/GBRV/na_pbe.uspp':
  Title: Na.  Created by USPP 7.3.6 on 23-9-15
  Reference state energy: -47.625620.  9 valence electrons in orbitals:
    |200>  occupation: 2  eigenvalue: -2.085638
    |210>  occupation: 6  eigenvalue: -1.053708
    |300>  occupation: 1  eigenvalue: -0.100838
  lMax: 2  lLocal: 0  QijEcut: 6
  5 projectors sampled on a log grid with 657 points:
    l: 0  eig: -2.085640  rCut: 1.37
    l: 0  eig: -0.100839  rCut: 1.37
    l: 1  eig: -1.053708  rCut: 1.47
    l: 1  eig: 0.500000  rCut: 1.47
    l: 2  eig: 0.750000  rCut: 2
  Transforming local potential to a uniform radial grid of dG=0.02 with 1625 points.
  Transforming nonlocal projectors to a uniform radial grid of dG=0.02 with 432 points.
  Transforming density augmentations to a uniform radial grid of dG=0.02 with 1625 points.
  Transforming atomic orbitals to a uniform radial grid of dG=0.02 with 432 points.
  Core radius for overlap checks: 2.00 bohrs.

Initialized 2 species with 4 total atoms.

Folded 1 k-points by 1x1x1 to 1 k-points.

---------- Setting up k-points, bands, fillings ----------
No reducable k-points. 
Computing the number of bands and number of electrons
Calculating initial fillings.
nElectrons:  30.000000   nBands: 15   nStates: 1

----- Setting up reduced wavefunction bases (one per k-point) -----
average nbasis = 109673.000 , ideal nbasis = 109671.883

---------- Setting up coulomb interaction ----------
Fluid mode embedding: using embedded box, but periodic Coulomb kernel.
(Fluid response is responsible for (approximate) separation between periodic images.)
Setting up double-sized grid for truncated Coulomb potentials:
R = 
[      56.0116     -28.0058            0  ]
[            0      48.5075            0  ]
[            0            0      75.5892  ]
unit cell volume = 205374
G =
[   0.112177  0.0647651         -0  ]
[          0    0.12953          0  ]
[          0         -0  0.0831228  ]
Chosen fftbox size, S = [  256  256  360  ]
Integer grid location selected as the embedding center:
   Grid: [  76  66  130  ]
   Lattice: [  0.591998  0.512502  0.72136  ]
   Cartesian: [  9.40288  12.4301  27.2635  ]
Constructing Wigner-Seitz cell: 8 faces (6 quadrilaterals, 2 hexagons)
Range-separation parameter for embedded mesh potentials due to point charges: 0.590105 bohrs.

Initializing DFT-D3 calculator:
	Parameters set for gga-PBE functional
	s6:  1.000  s_r6:  1.217
	s8:  0.722  s_r8:  1.000
	Per-atom parameters loaded for:
	 S:  sqrtQ[a0]:  4.041  Rcov[a0]:  1.928  CN: [ 0.00 0.99 1.99 ]
	Na:  sqrtQ[a0]:  6.586  Rcov[a0]:  2.646  CN: [ 0.00 0.97 ]

---------- Setting up ewald sum ----------
Optimum gaussian width for ewald sums = 18.681662 bohr.
Real space sum over 1089 unit cells with max indices [  5  5  4  ]
Reciprocal space sum over 2873 terms with max indices [  6  6  8  ]

Computing DFT-D3 correction:
# coordination-number S 2.941 2.941
# coordination-number Na 2.090 2.090
# diagonal-C6 S 125.81 125.81
# diagonal-C6 Na 186.11 186.11
EvdW_6 =   -0.000068
EvdW_8 =   -0.001099

---------- Allocating electronic variables ----------
Initializing wave functions:  linear combination of atomic orbitals
S pseudo-atom occupations:   s ( 2 )  p ( 4 )
Na pseudo-atom occupations:   s ( 2 1 )  p ( 6 )
	FillingsUpdate:  mu: -0.000443411  nElectrons: 30.000000
LCAOMinimize: Iter:   0  Etot: -115.7673199047678452  |grad|_K:  1.230e-02  alpha:  1.000e+00
	FillingsUpdate:  mu: -0.002888541  nElectrons: 30.000000
LCAOMinimize: Iter:   1  Etot: -115.7714529670468977  |grad|_K:  1.213e-02  alpha:  7.333e-02  linmin: -1.090e-01  cgtest:  9.274e-01  t[s]:     30.15
LCAOMinimize: 	Wrong curvature in test step, increasing alphaT to 2.199864e-01.
	FillingsUpdate:  mu: -0.005609494  nElectrons: 30.000000
LCAOMinimize: Iter:   2  Etot: -115.7757190024604768  |grad|_K:  1.189e-02  alpha: -1.248e+00  linmin: -1.144e-01  cgtest:  9.257e-01  t[s]:     37.51
	FillingsUpdate:  mu: -0.008105406  nElectrons: 30.000000
LCAOMinimize: Iter:   3  Etot: -115.7793553379371048  |grad|_K:  1.163e-02  alpha:  6.556e-02  linmin: -1.193e-01  cgtest:  9.365e-01  t[s]:     44.90
LCAOMinimize: None of the convergence criteria satisfied after 3 iterations.
----- createFluidSolver() ----- (Fluid-side solver setup)
   Initializing fluid molecule 'PC'
     Net charge: 0   dipole magnitude: 0
     Initializing spherical shell mfKernel with radius 0 Bohr
     deltaS corrections:

Correction to mu due to finite nuclear width = -0.000144935
   Cavity determined by nc: 0.00098 and sigma: 0.6
   Effective cavity tension: 9.53e-06 Eh/bohr^2 to account for cavitation and dispersion.


---- Citations for features of the code used in this run ----

   Software package:
      R. Sundararaman, K. Letchworth-Weaver, K.A. Schwarz, D. Gunceler, Y. Ozhabes and T.A. Arias, 'JDFTx: software for joint density-functional theory', SoftwareX 6, 278 (2017)

   gga-PBE exchange-correlation functional:
      J.P. Perdew, K. Burke and M. Ernzerhof, Phys. Rev. Lett. 77, 3865 (1996)

   Pseudopotentials:
      KF Garrity, JW Bennett, KM Rabe and D Vanderbilt, Comput. Mater. Sci. 81, 446 (2014)

   Truncated Coulomb potentials:
      R. Sundararaman and T.A. Arias, Phys. Rev. B 87, 165122 (2013)

   DFT-D3 dispersion correction:
      S. Grimme, J. Antony, S. Ehrlich and H. Krieg, J. Chem. Phys. 132, 154104 (2010)

   Linear/nonlinear dielectric/ionic fluid model with effective cavity tension:
      D. Gunceler, K. Letchworth-Weaver, R. Sundararaman, K.A. Schwarz and T.A. Arias, Modelling Simul. Mater. Sci. Eng. 21, 074005 (2013)

This list may not be complete. Please suggest additional citations or
report any other bugs at https://github.com/shankar1729/jdftx/issues

Initialization completed successfully at t[s]:     45.37


Computing DFT-D3 correction:
# coordination-number S 2.941 2.941
# coordination-number Na 2.090 2.090
# diagonal-C6 S 125.81 125.81
# diagonal-C6 Na 186.11 186.11
EvdW_6 =   -0.000068
EvdW_8 =   -0.001099
Fluid solver invoked on fresh (random / LCAO) wavefunctions
Running a vacuum solve first:

-------- Initial electronic minimization -----------
Will mix electronic density at each iteration.
SCF: Cycle:  0   Etot: -115.780681294978123   dEtot: -1.326e-03   |Residual|: 2.532e-01   |deigs|: 1.379e-02  t[s]:     56.37
SCF: Cycle:  1   Etot: -115.880793334108731   dEtot: -1.001e-01   |Residual|: 1.089e-01   |deigs|: 3.336e-02  t[s]:     64.37
SCF: Cycle:  2   Etot: -115.921549871588837   dEtot: -4.076e-02   |Residual|: 3.882e-02   |deigs|: 2.741e-02  t[s]:     72.30
SCF: Cycle:  3   Etot: -115.920501792767084   dEtot: +1.048e-03   |Residual|: 2.218e-02   |deigs|: 8.416e-03  t[s]:     79.98
SCF: Cycle:  4   Etot: -115.921831345241827   dEtot: -1.330e-03   |Residual|: 1.140e-02   |deigs|: 4.869e-03  t[s]:     87.86
SCF: Cycle:  5   Etot: -115.922489153618301   dEtot: -6.578e-04   |Residual|: 5.370e-03   |deigs|: 3.156e-03  t[s]:     95.73
SCF: Cycle:  6   Etot: -115.922662227145736   dEtot: -1.731e-04   |Residual|: 4.019e-03   |deigs|: 2.274e-03  t[s]:    103.38
SCF: Cycle:  7   Etot: -115.922708740048435   dEtot: -4.651e-05   |Residual|: 3.930e-03   |deigs|: 1.844e-03  t[s]:    111.11
SCF: Cycle:  8   Etot: -115.922741783068602   dEtot: -3.304e-05   |Residual|: 2.330e-03   |deigs|: 1.016e-03  t[s]:    117.90
SCF: Cycle:  9   Etot: -115.922755822979440   dEtot: -1.404e-05   |Residual|: 2.560e-03   |deigs|: 1.651e-03  t[s]:    125.69
SCF: Cycle: 10   Etot: -115.922762831544844   dEtot: -7.009e-06   |Residual|: 1.499e-03   |deigs|: 1.689e-04  t[s]:    132.62
SCF: Cycle: 11   Etot: -115.922740289931198   dEtot: +2.254e-05   |Residual|: 3.714e-03   |deigs|: 6.052e-04  t[s]:    140.47
SCF: Cycle: 12   Etot: -115.922762665141974   dEtot: -2.238e-05   |Residual|: 1.403e-03   |deigs|: 7.245e-04  t[s]:    148.55
SCF: Cycle: 13   Etot: -115.922766772690466   dEtot: -4.108e-06   |Residual|: 1.282e-03   |deigs|: 4.884e-04  t[s]:    155.43
SCF: Cycle: 14   Etot: -115.922758295197497   dEtot: +8.477e-06   |Residual|: 2.065e-03   |deigs|: 2.718e-04  t[s]:    163.21
SCF: Cycle: 15   Etot: -115.922766875489245   dEtot: -8.580e-06   |Residual|: 7.204e-04   |deigs|: 8.603e-04  t[s]:    169.98
SCF: Cycle: 16   Etot: -115.922769407003628   dEtot: -2.532e-06   |Residual|: 5.782e-04   |deigs|: 2.890e-04  t[s]:    176.91
SCF: Cycle: 17   Etot: -115.922771362310968   dEtot: -1.955e-06   |Residual|: 4.562e-04   |deigs|: 1.272e-04  t[s]:    183.75
SCF: Cycle: 18   Etot: -115.922772055398738   dEtot: -6.931e-07   |Residual|: 4.817e-04   |deigs|: 2.720e-04  t[s]:    190.69
SCF: Cycle: 19   Etot: -115.922772929110607   dEtot: -8.737e-07   |Residual|: 2.017e-04   |deigs|: 2.021e-04  t[s]:    198.23
SCF: Cycle: 20   Etot: -115.922773138888630   dEtot: -2.098e-07   |Residual|: 1.531e-04   |deigs|: 7.729e-05  t[s]:    205.21
SCF: Cycle: 21   Etot: -115.922773346915733   dEtot: -2.080e-07   |Residual|: 1.171e-04   |deigs|: 8.614e-05  t[s]:    212.71
SCF: Cycle: 22   Etot: -115.922773435659579   dEtot: -8.874e-08   |Residual|: 6.726e-05   |deigs|: 1.834e-05  t[s]:    219.64
SCF: Cycle: 23   Etot: -115.922773508437913   dEtot: -7.278e-08   |Residual|: 5.951e-05   |deigs|: 1.049e-05  t[s]:    226.56
SCF: Cycle: 24   Etot: -115.922773578255288   dEtot: -6.982e-08   |Residual|: 5.240e-05   |deigs|: 3.260e-05  t[s]:    234.20
SCF: Cycle: 25   Etot: -115.922773608901068   dEtot: -3.065e-08   |Residual|: 3.143e-05   |deigs|: 1.274e-05  t[s]:    240.88
SCF: Cycle: 26   Etot: -115.922773632553927   dEtot: -2.365e-08   |Residual|: 2.310e-05   |deigs|: 7.599e-06  t[s]:    248.52
SCF: Cycle: 27   Etot: -115.922773639482941   dEtot: -6.929e-09   |Residual|: 1.246e-05   |deigs|: 1.737e-06  t[s]:    255.34
SCF: Cycle: 28   Etot: -115.922773642120490   dEtot: -2.638e-09   |Residual|: 9.665e-06   |deigs|: 1.130e-06  t[s]:    262.19
SCF: Converged (|Delta E|<1.000000e-08 for 2 iters).

Setting wave functions to eigenvectors of Hamiltonian
Vacuum energy after initial minimize, Etot = -115.922773642120490


-------- Electronic minimization -----------
Will mix electronic density at each iteration.
	Linear fluid (dielectric constant: 64) occupying 0.996331 of unit cell:	Completed after 27 iterations at t[s]:    318.38
	Linear fluid (dielectric constant: 64) occupying 0.996457 of unit cell:	Completed after 23 iterations at t[s]:    366.38
SCF: Cycle:  0   Etot: -116.087554548350042   dEtot: -3.260e-02   |Residual|: 4.169e-02   |deigs|: 1.697e-03  t[s]:    368.90
	Linear fluid (dielectric constant: 64) occupying 0.996360 of unit cell:	Completed after 19 iterations at t[s]:    401.05
	Linear fluid (dielectric constant: 64) occupying 0.996458 of unit cell:	Completed after 22 iterations at t[s]:    447.13
SCF: Cycle:  1   Etot: -116.088826852440420   dEtot: -1.272e-03   |Residual|: 2.884e-02   |deigs|: 6.215e-03  t[s]:    449.66
	Linear fluid (dielectric constant: 64) occupying 0.996424 of unit cell:	Completed after 18 iterations at t[s]:    480.25
	Linear fluid (dielectric constant: 64) occupying 0.996436 of unit cell:	Completed after 19 iterations at t[s]:    521.85
SCF: Cycle:  2   Etot: -116.089832277039051   dEtot: -1.005e-03   |Residual|: 1.233e-02   |deigs|: 9.392e-03  t[s]:    524.37
	Linear fluid (dielectric constant: 64) occupying 0.996438 of unit cell:	Completed after 16 iterations at t[s]:    551.86
	Linear fluid (dielectric constant: 64) occupying 0.996434 of unit cell:	Completed after 17 iterations at t[s]:    590.40
SCF: Cycle:  3   Etot: -116.089940970053391   dEtot: -1.087e-04   |Residual|: 9.116e-03   |deigs|: 7.533e-04  t[s]:    592.88
	Linear fluid (dielectric constant: 64) occupying 0.996478 of unit cell:	Completed after 13 iterations at t[s]:    616.28
	Linear fluid (dielectric constant: 64) occupying 0.996421 of unit cell:	Completed after 10 iterations at t[s]:    645.61
SCF: Cycle:  4   Etot: -116.090110515952503   dEtot: -1.695e-04   |Residual|: 5.374e-03   |deigs|: 5.895e-03  t[s]:    648.19
	Linear fluid (dielectric constant: 64) occupying 0.996433 of unit cell:	Completed after 13 iterations at t[s]:    671.73
	Linear fluid (dielectric constant: 64) occupying 0.996421 of unit cell:	Completed after 13 iterations at t[s]:    704.43
SCF: Cycle:  5   Etot: -116.090164362323762   dEtot: -5.385e-05   |Residual|: 5.496e-03   |deigs|: 3.136e-03  t[s]:    706.93
	Linear fluid (dielectric constant: 64) occupying 0.996409 of unit cell:	Completed after 6 iterations at t[s]:    720.50
	Linear fluid (dielectric constant: 64) occupying 0.996414 of unit cell:	Completed after 6 iterations at t[s]:    743.17
SCF: Cycle:  6   Etot: -116.090241827417316   dEtot: -7.747e-05   |Residual|: 3.539e-03   |deigs|: 1.447e-03  t[s]:    745.66
	Linear fluid (dielectric constant: 64) occupying 0.996394 of unit cell:	Completed after 11 iterations at t[s]:    766.21
	Linear fluid (dielectric constant: 64) occupying 0.996412 of unit cell:	Completed after 10 iterations at t[s]:    794.64
SCF: Cycle:  7   Etot: -116.090279035756396   dEtot: -3.721e-05   |Residual|: 2.689e-03   |deigs|: 2.581e-04  t[s]:    797.17
	Linear fluid (dielectric constant: 64) occupying 0.996387 of unit cell:	Completed after 5 iterations at t[s]:    809.37
	Linear fluid (dielectric constant: 64) occupying 0.996408 of unit cell:	Completed after 5 iterations at t[s]:    830.45
SCF: Cycle:  8   Etot: -116.090304713975826   dEtot: -2.568e-05   |Residual|: 2.474e-03   |deigs|: 5.682e-04  t[s]:    832.95
	Linear fluid (dielectric constant: 64) occupying 0.996390 of unit cell:	Completed after 7 iterations at t[s]:    848.30
	Linear fluid (dielectric constant: 64) occupying 0.996408 of unit cell:	Completed after 6 iterations at t[s]:    871.57
SCF: Cycle:  9   Etot: -116.090313338550729   dEtot: -8.625e-06   |Residual|: 2.675e-03   |deigs|: 4.493e-04  t[s]:    874.15
	Linear fluid (dielectric constant: 64) occupying 0.996411 of unit cell:	Completed after 5 iterations at t[s]:    886.52
	Linear fluid (dielectric constant: 64) occupying 0.996410 of unit cell:	Completed after 5 iterations at t[s]:    907.94
SCF: Cycle: 10   Etot: -116.090320511699048   dEtot: -7.173e-06   |Residual|: 2.572e-03   |deigs|: 1.528e-04  t[s]:    910.41
	Linear fluid (dielectric constant: 64) occupying 0.996412 of unit cell:	Completed after 4 iterations at t[s]:    921.20
	Linear fluid (dielectric constant: 64) occupying 0.996408 of unit cell:	Completed after 3 iterations at t[s]:    938.97
SCF: Cycle: 11   Etot: -116.090322844045460   dEtot: -2.332e-06   |Residual|: 1.776e-03   |deigs|: 6.031e-04  t[s]:    941.50
	Linear fluid (dielectric constant: 64) occupying 0.996417 of unit cell:	Completed after 4 iterations at t[s]:    952.46
	Linear fluid (dielectric constant: 64) occupying 0.996407 of unit cell:	Completed after 4 iterations at t[s]:    972.63
SCF: Cycle: 12   Etot: -116.090322529702973   dEtot: +3.143e-07   |Residual|: 2.210e-03   |deigs|: 3.946e-04  t[s]:    975.14
	Linear fluid (dielectric constant: 64) occupying 0.996414 of unit cell:	Completed after 4 iterations at t[s]:    986.04
	Linear fluid (dielectric constant: 64) occupying 0.996409 of unit cell:	Completed after 4 iterations at t[s]:   1006.98
SCF: Cycle: 13   Etot: -116.090324437403694   dEtot: -1.908e-06   |Residual|: 1.423e-03   |deigs|: 6.093e-04  t[s]:   1009.40
	Linear fluid (dielectric constant: 64) occupying 0.996403 of unit cell:	Completed after 3 iterations at t[s]:   1018.78
	Linear fluid (dielectric constant: 64) occupying 0.996410 of unit cell:	Completed after 3 iterations at t[s]:   1037.16
SCF: Cycle: 14   Etot: -116.090323587673865   dEtot: +8.497e-07   |Residual|: 1.451e-03   |deigs|: 1.091e-04  t[s]:   1039.66
	Linear fluid (dielectric constant: 64) occupying 0.996406 of unit cell:	Completed after 2 iterations at t[s]:   1047.69
	Linear fluid (dielectric constant: 64) occupying 0.996408 of unit cell:	Completed after 1 iterations at t[s]:   1063.52
SCF: Cycle: 15   Etot: -116.090325418171162   dEtot: -1.830e-06   |Residual|: 8.683e-04   |deigs|: 4.266e-04  t[s]:   1066.05
	Linear fluid (dielectric constant: 64) occupying 0.996406 of unit cell:	Completed after 0 iterations at t[s]:   1071.40
	Linear fluid (dielectric constant: 64) occupying 0.996408 of unit cell:	Completed after 0 iterations at t[s]:   1085.56
SCF: Cycle: 16   Etot: -116.090324816229113   dEtot: +6.019e-07   |Residual|: 6.441e-04   |deigs|: 3.047e-05  t[s]:   1088.05
	Linear fluid (dielectric constant: 64) occupying 0.996408 of unit cell:	Completed after 0 iterations at t[s]:   1091.90
	Linear fluid (dielectric constant: 64) occupying 0.996408 of unit cell:	Completed after 0 iterations at t[s]:   1104.67
SCF: Cycle: 17   Etot: -116.090325357295583   dEtot: -5.411e-07   |Residual|: 3.946e-04   |deigs|: 3.383e-05  t[s]:   1107.18
	Linear fluid (dielectric constant: 64) occupying 0.996410 of unit cell:	Completed after 2 iterations at t[s]:   1115.55
	Linear fluid (dielectric constant: 64) occupying 0.996409 of unit cell:	Completed after 1 iterations at t[s]:   1131.08
SCF: Cycle: 18   Etot: -116.090326130600658   dEtot: -7.733e-07   |Residual|: 9.196e-04   |deigs|: 1.857e-04  t[s]:   1133.57
	Linear fluid (dielectric constant: 64) occupying 0.996410 of unit cell:	Completed after 0 iterations at t[s]:   1138.82
	Linear fluid (dielectric constant: 64) occupying 0.996408 of unit cell:	Completed after 0 iterations at t[s]:   1150.88
SCF: Cycle: 19   Etot: -116.090326049003110   dEtot: +8.160e-08   |Residual|: 4.017e-04   |deigs|: 9.957e-05  t[s]:   1153.36
	Linear fluid (dielectric constant: 64) occupying 0.996409 of unit cell:	Completed after 0 iterations at t[s]:   1157.13
	Linear fluid (dielectric constant: 64) occupying 0.996408 of unit cell:	Completed after 0 iterations at t[s]:   1169.90
SCF: Cycle: 20   Etot: -116.090326117110152   dEtot: -6.811e-08   |Residual|: 2.460e-04   |deigs|: 4.436e-06  t[s]:   1172.45
	Linear fluid (dielectric constant: 64) occupying 0.996407 of unit cell:	Completed after 0 iterations at t[s]:   1177.84
	Linear fluid (dielectric constant: 64) occupying 0.996408 of unit cell:	Completed after 0 iterations at t[s]:   1190.20
SCF: Cycle: 21   Etot: -116.090326101463319   dEtot: +1.565e-08   |Residual|: 1.536e-04   |deigs|: 2.201e-05  t[s]:   1192.70
	Linear fluid (dielectric constant: 64) occupying 0.996407 of unit cell:	Completed after 1 iterations at t[s]:   1199.59
	Linear fluid (dielectric constant: 64) occupying 0.996408 of unit cell:	Completed after 0 iterations at t[s]:   1214.50
SCF: Cycle: 22   Etot: -116.090326460486779   dEtot: -3.590e-07   |Residual|: 7.437e-04   |deigs|: 2.219e-04  t[s]:   1216.95
	Linear fluid (dielectric constant: 64) occupying 0.996408 of unit cell:	Completed after 0 iterations at t[s]:   1222.10
	Linear fluid (dielectric constant: 64) occupying 0.996408 of unit cell:	Completed after 0 iterations at t[s]:   1234.19
SCF: Cycle: 23   Etot: -116.090326536284778   dEtot: -7.580e-08   |Residual|: 5.444e-04   |deigs|: 4.294e-05  t[s]:   1236.74
	Linear fluid (dielectric constant: 64) occupying 0.996408 of unit cell:	Completed after 0 iterations at t[s]:   1240.70
	Linear fluid (dielectric constant: 64) occupying 0.996408 of unit cell:	Completed after 0 iterations at t[s]:   1255.01
SCF: Cycle: 24   Etot: -116.090326645793823   dEtot: -1.095e-07   |Residual|: 3.764e-04   |deigs|: 4.814e-06  t[s]:   1257.47
	Linear fluid (dielectric constant: 64) occupying 0.996408 of unit cell:	Completed after 0 iterations at t[s]:   1261.45
	Linear fluid (dielectric constant: 64) occupying 0.996408 of unit cell:	Completed after 0 iterations at t[s]:   1273.41
SCF: Cycle: 25   Etot: -116.090326690319714   dEtot: -4.453e-08   |Residual|: 1.501e-04   |deigs|: 7.022e-05  t[s]:   1275.84
	Linear fluid (dielectric constant: 64) occupying 0.996408 of unit cell:	Completed after 0 iterations at t[s]:   1279.69
	Linear fluid (dielectric constant: 64) occupying 0.996408 of unit cell:	Completed after 0 iterations at t[s]:   1291.53
SCF: Cycle: 26   Etot: -116.090326755819930   dEtot: -6.550e-08   |Residual|: 1.080e-04   |deigs|: 2.945e-06  t[s]:   1294.07
	Linear fluid (dielectric constant: 64) occupying 0.996408 of unit cell:	Completed after 0 iterations at t[s]:   1298.02
	Linear fluid (dielectric constant: 64) occupying 0.996408 of unit cell:	Completed after 2 iterations at t[s]:   1315.38
SCF: Cycle: 27   Etot: -116.090325791622661   dEtot: +9.642e-07   |Residual|: 6.625e-05   |deigs|: 4.112e-06  t[s]:   1317.85
	Linear fluid (dielectric constant: 64) occupying 0.996408 of unit cell:	Completed after 0 iterations at t[s]:   1321.86
	Linear fluid (dielectric constant: 64) occupying 0.996408 of unit cell:	Completed after 0 iterations at t[s]:   1335.35
SCF: Cycle: 28   Etot: -116.090326691338703   dEtot: -8.997e-07   |Residual|: 7.840e-04   |deigs|: 3.229e-04  t[s]:   1337.84
	Linear fluid (dielectric constant: 64) occupying 0.996408 of unit cell:	Completed after 0 iterations at t[s]:   1343.07
	Linear fluid (dielectric constant: 64) occupying 0.996408 of unit cell:	Completed after 0 iterations at t[s]:   1354.82
SCF: Cycle: 29   Etot: -116.090326677989040   dEtot: +1.335e-08   |Residual|: 6.978e-04   |deigs|: 3.244e-05  t[s]:   1357.29
	Linear fluid (dielectric constant: 64) occupying 0.996408 of unit cell:	Completed after 0 iterations at t[s]:   1361.09
	Linear fluid (dielectric constant: 64) occupying 0.996408 of unit cell:	Completed after 0 iterations at t[s]:   1372.70
SCF: Cycle: 30   Etot: -116.090326742657012   dEtot: -6.467e-08   |Residual|: 6.927e-04   |deigs|: 4.878e-07  t[s]:   1375.24
	Linear fluid (dielectric constant: 64) occupying 0.996408 of unit cell:	Completed after 0 iterations at t[s]:   1379.26
	Linear fluid (dielectric constant: 64) occupying 0.996408 of unit cell:	Completed after 0 iterations at t[s]:   1392.48
SCF: Cycle: 31   Etot: -116.090326702722280   dEtot: +3.993e-08   |Residual|: 6.331e-04   |deigs|: 2.026e-06  t[s]:   1395.00
	Linear fluid (dielectric constant: 64) occupying 0.996408 of unit cell:	Completed after 0 iterations at t[s]:   1398.79
	Linear fluid (dielectric constant: 64) occupying 0.996408 of unit cell:	Completed after 0 iterations at t[s]:   1410.98
SCF: Cycle: 32   Etot: -116.090326784992328   dEtot: -8.227e-08   |Residual|: 3.769e-04   |deigs|: 7.107e-05  t[s]:   1413.58
	Linear fluid (dielectric constant: 64) occupying 0.996408 of unit cell:	Completed after 0 iterations at t[s]:   1417.58
	Linear fluid (dielectric constant: 64) occupying 0.996408 of unit cell:	Completed after 0 iterations at t[s]:   1429.30
SCF: Cycle: 33   Etot: -116.090326815466852   dEtot: -3.047e-08   |Residual|: 3.287e-04   |deigs|: 7.311e-07  t[s]:   1431.73
	Linear fluid (dielectric constant: 64) occupying 0.996408 of unit cell:	Completed after 0 iterations at t[s]:   1435.53
	Linear fluid (dielectric constant: 64) occupying 0.996408 of unit cell:	Completed after 0 iterations at t[s]:   1447.48
SCF: Cycle: 34   Etot: -116.090326812453355   dEtot: +3.013e-09   |Residual|: 3.202e-04   |deigs|: 4.698e-07  t[s]:   1449.99
	Linear fluid (dielectric constant: 64) occupying 0.996408 of unit cell:	Completed after 0 iterations at t[s]:   1454.04
	Linear fluid (dielectric constant: 64) occupying 0.996408 of unit cell:	Completed after 0 iterations at t[s]:   1465.91
SCF: Cycle: 35   Etot: -116.090326810235808   dEtot: +2.218e-09   |Residual|: 3.231e-04   |deigs|: 4.681e-07  t[s]:   1468.34
	Linear fluid (dielectric constant: 64) occupying 0.996408 of unit cell:	Completed after 0 iterations at t[s]:   1472.17
	Linear fluid (dielectric constant: 64) occupying 0.996408 of unit cell:	Completed after 0 iterations at t[s]:   1484.99
SCF: Cycle: 36   Etot: -116.090326821892091   dEtot: -1.166e-08   |Residual|: 3.210e-04   |deigs|: 6.738e-07  t[s]:   1487.48
	Linear fluid (dielectric constant: 64) occupying 0.996408 of unit cell:	Completed after 0 iterations at t[s]:   1491.23
	Linear fluid (dielectric constant: 64) occupying 0.996408 of unit cell:	Completed after 0 iterations at t[s]:   1503.26
SCF: Cycle: 37   Etot: -116.090326868745393   dEtot: -4.685e-08   |Residual|: 3.021e-04   |deigs|: 1.595e-06  t[s]:   1505.76
	Linear fluid (dielectric constant: 64) occupying 0.996408 of unit cell:	Completed after 2 iterations at t[s]:   1513.99
	Linear fluid (dielectric constant: 64) occupying 0.996408 of unit cell:	Completed after 0 iterations at t[s]:   1528.92
SCF: Cycle: 38   Etot: -116.090326679079652   dEtot: +1.897e-07   |Residual|: 6.975e-04   |deigs|: 3.032e-04  t[s]:   1531.43
	Linear fluid (dielectric constant: 64) occupying 0.996408 of unit cell:	Completed after 0 iterations at t[s]:   1535.29
	Linear fluid (dielectric constant: 64) occupying 0.996408 of unit cell:	Completed after 0 iterations at t[s]:   1547.22
SCF: Cycle: 39   Etot: -116.090326714453397   dEtot: -3.537e-08   |Residual|: 5.245e-04   |deigs|: 5.650e-05  t[s]:   1549.64
	Linear fluid (dielectric constant: 64) occupying 0.996408 of unit cell:	Completed after 0 iterations at t[s]:   1553.44
	Linear fluid (dielectric constant: 64) occupying 0.996408 of unit cell:	Completed after 1 iterations at t[s]:   1569.30
SCF: Cycle: 40   Etot: -116.090326420227967   dEtot: +2.942e-07   |Residual|: 3.319e-04   |deigs|: 4.827e-06  t[s]:   1571.81
	Linear fluid (dielectric constant: 64) occupying 0.996408 of unit cell:	Completed after 0 iterations at t[s]:   1575.88
	Linear fluid (dielectric constant: 64) occupying 0.996408 of unit cell:	Completed after 0 iterations at t[s]:   1587.80
SCF: Cycle: 41   Etot: -116.090326533659265   dEtot: -1.134e-07   |Residual|: 4.987e-05   |deigs|: 1.182e-04  t[s]:   1590.23
	Linear fluid (dielectric constant: 64) occupying 0.996408 of unit cell:	Completed after 0 iterations at t[s]:   1594.37
	Linear fluid (dielectric constant: 64) occupying 0.996408 of unit cell:	Completed after 0 iterations at t[s]:   1606.52
SCF: Cycle: 42   Etot: -116.090326541994443   dEtot: -8.335e-09   |Residual|: 5.752e-05   |deigs|: 7.011e-07  t[s]:   1609.00
	Linear fluid (dielectric constant: 64) occupying 0.996408 of unit cell:	Completed after 0 iterations at t[s]:   1612.85
	Linear fluid (dielectric constant: 64) occupying 0.996408 of unit cell:	Completed after 0 iterations at t[s]:   1624.86
SCF: Cycle: 43   Etot: -116.090326551926921   dEtot: -9.932e-09   |Residual|: 5.885e-05   |deigs|: 5.303e-07  t[s]:   1627.31
SCF: Converged (|Delta E|<1.000000e-08 for 2 iters).

Setting wave functions to eigenvectors of Hamiltonian
Single-point solvation energy estimate, DeltaEtot = -0.167552909806432

Computing DFT-D3 correction:
# coordination-number S 2.941 2.941
# coordination-number Na 2.090 2.090
# diagonal-C6 S 125.81 125.81
# diagonal-C6 Na 186.11 186.11
EvdW_6 =   -0.000068
EvdW_8 =   -0.001099

# Ionic positions in cartesian coordinates:
ion S   9.402875070209999  12.430078910730000  27.263527773840000 1
ion S   5.921463285810000  10.087698104369998  27.341467797959996 1
ion Na   9.852901041599997   7.943043527369999  25.470895880699999 1
ion Na   5.365079530559999  14.615699054669998  25.686786194819998 1

# Forces in Cartesian coordinates:
force S  -0.001301752086323  -0.001190614604041   0.011560477284213 1
force S   0.001946782546929   0.000905577458302   0.011514207062807 1
force Na   0.014855340030515  -0.022539133002465  -0.012363826434992 1
force Na  -0.015531119724027   0.022806929397344  -0.010868187826035 1

# Energy components:
   A_diel =       -0.2066458020428755
   Eewald =       42.5786531081733202
       EH =      139.3397861720449669
     Eloc =     -162.8650680884003918
      Enl =     -140.4063079392100519
     EvdW =       -0.0011664941892986
      Exc =      -22.8418274007279436
 Exc_core =        3.5354580038101910
       KE =       24.7767918886151577
-------------------------------------
     Etot =     -116.0903265519269212

IonicMinimize: Iter:   0  Etot: -116.090326551926921  |grad|_K:  1.302e-02  alpha:  1.000e+00

#--- Lowdin population analysis ---
# oxidation-state S -0.793 -0.793
# oxidation-state Na +0.878 +0.878


Computing DFT-D3 correction:
# coordination-number S 2.937 2.937
# coordination-number Na 2.076 2.076
# diagonal-C6 S 125.81 125.81
# diagonal-C6 Na 186.11 186.11
EvdW_6 =   -0.000071
EvdW_8 =   -0.001115

-------- Electronic minimization -----------
Will mix electronic density at each iteration.
	Linear fluid (dielectric constant: 64) occupying 0.996408 of unit cell:	Completed after 16 iterations at t[s]:   1667.41
	Linear fluid (dielectric constant: 64) occupying 0.996372 of unit cell:	Completed after 18 iterations at t[s]:   1708.36
SCF: Cycle:  0   Etot: -116.090715492489778   dEtot: -3.158e-02   |Residual|: 7.949e-02   |deigs|: 1.946e-03  t[s]:   1710.85
	Linear fluid (dielectric constant: 64) occupying 0.996411 of unit cell:	Completed after 19 iterations at t[s]:   1743.36
	Linear fluid (dielectric constant: 64) occupying 0.996378 of unit cell:	Completed after 18 iterations at t[s]:   1783.82
SCF: Cycle:  1   Etot: -116.091667762625718   dEtot: -9.523e-04   |Residual|: 3.927e-02   |deigs|: 1.776e-03  t[s]:   1786.28
	Linear fluid (dielectric constant: 64) occupying 0.996400 of unit cell:	Completed after 17 iterations at t[s]:   1815.51
	Linear fluid (dielectric constant: 64) occupying 0.996393 of unit cell:	Completed after 17 iterations at t[s]:   1854.68
SCF: Cycle:  2   Etot: -116.092188934218001   dEtot: -5.212e-04   |Residual|: 6.999e-03   |deigs|: 2.157e-03  t[s]:   1857.21
	Linear fluid (dielectric constant: 64) occupying 0.996388 of unit cell:	Completed after 14 iterations at t[s]:   1882.11
	Linear fluid (dielectric constant: 64) occupying 0.996395 of unit cell:	Completed after 14 iterations at t[s]:   1917.14
SCF: Cycle:  3   Etot: -116.092242099971855   dEtot: -5.317e-05   |Residual|: 3.700e-03   |deigs|: 1.849e-03  t[s]:   1919.67
	Linear fluid (dielectric constant: 64) occupying 0.996378 of unit cell:	Completed after 7 iterations at t[s]:   1934.68
	Linear fluid (dielectric constant: 64) occupying 0.996396 of unit cell:	Completed after 8 iterations at t[s]:   1960.67
SCF: Cycle:  4   Etot: -116.092277454388977   dEtot: -3.535e-05   |Residual|: 1.648e-03   |deigs|: 1.457e-03  t[s]:   1963.24
	Linear fluid (dielectric constant: 64) occupying 0.996380 of unit cell:	Completed after 5 iterations at t[s]:   1975.92
	Linear fluid (dielectric constant: 64) occupying 0.996397 of unit cell:	Completed after 5 iterations at t[s]:   1996.06
SCF: Cycle:  5   Etot: -116.092288363603473   dEtot: -1.091e-05   |Residual|: 1.181e-03   |deigs|: 2.910e-04  t[s]:   1998.53
	Linear fluid (dielectric constant: 64) occupying 0.996380 of unit cell:	Completed after 5 iterations at t[s]:   2010.79
	Linear fluid (dielectric constant: 64) occupying 0.996397 of unit cell:	Completed after 4 iterations at t[s]:   2029.95
SCF: Cycle:  6   Etot: -116.092292029730245   dEtot: -3.666e-06   |Residual|: 7.770e-04   |deigs|: 2.969e-04  t[s]:   2032.45
	Linear fluid (dielectric constant: 64) occupying 0.996386 of unit cell:	Completed after 4 iterations at t[s]:   2043.21
	Linear fluid (dielectric constant: 64) occupying 0.996398 of unit cell:	Completed after 3 iterations at t[s]:   2061.01
SCF: Cycle:  7   Etot: -116.092294515189508   dEtot: -2.485e-06   |Residual|: 6.947e-04   |deigs|: 1.107e-04  t[s]:   2063.46
	Linear fluid (dielectric constant: 64) occupying 0.996392 of unit cell:	Completed after 0 iterations at t[s]:   2068.79
	Linear fluid (dielectric constant: 64) occupying 0.996399 of unit cell:	Completed after 1 iterations at t[s]:   2083.39
SCF: Cycle:  8   Etot: -116.092296580900864   dEtot: -2.066e-06   |Residual|: 4.240e-04   |deigs|: 4.974e-05  t[s]:   2085.88
	Linear fluid (dielectric constant: 64) occupying 0.996397 of unit cell:	Completed after 2 iterations at t[s]:   2093.94
	Linear fluid (dielectric constant: 64) occupying 0.996399 of unit cell:	Completed after 1 iterations at t[s]:   2108.59
SCF: Cycle:  9   Etot: -116.092296711824389   dEtot: -1.309e-07   |Residual|: 8.858e-04   |deigs|: 3.308e-04  t[s]:   2111.08
	Linear fluid (dielectric constant: 64) occupying 0.996399 of unit cell:	Completed after 0 iterations at t[s]:   2114.97
	Linear fluid (dielectric constant: 64) occupying 0.996399 of unit cell:	Completed after 0 iterations at t[s]:   2128.01
SCF: Cycle: 10   Etot: -116.092296965512986   dEtot: -2.537e-07   |Residual|: 2.931e-04   |deigs|: 4.439e-05  t[s]:   2130.44
	Linear fluid (dielectric constant: 64) occupying 0.996400 of unit cell:	Completed after 1 iterations at t[s]:   2137.09
	Linear fluid (dielectric constant: 64) occupying 0.996399 of unit cell:	Completed after 0 iterations at t[s]:   2149.18
SCF: Cycle: 11   Etot: -116.092297092657986   dEtot: -1.271e-07   |Residual|: 5.785e-04   |deigs|: 1.273e-04  t[s]:   2152.02
	Linear fluid (dielectric constant: 64) occupying 0.996399 of unit cell:	Completed after 0 iterations at t[s]:   2156.06
	Linear fluid (dielectric constant: 64) occupying 0.996399 of unit cell:	Completed after 0 iterations at t[s]:   2168.81
SCF: Cycle: 12   Etot: -116.092297325477119   dEtot: -2.328e-07   |Residual|: 4.154e-04   |deigs|: 6.394e-06  t[s]:   2171.27
	Linear fluid (dielectric constant: 64) occupying 0.996400 of unit cell:	Completed after 0 iterations at t[s]:   2175.26
	Linear fluid (dielectric constant: 64) occupying 0.996399 of unit cell:	Completed after 0 iterations at t[s]:   2187.19
SCF: Cycle: 13   Etot: -116.092297467053498   dEtot: -1.416e-07   |Residual|: 1.089e-04   |deigs|: 9.795e-06  t[s]:   2189.76
	Linear fluid (dielectric constant: 64) occupying 0.996399 of unit cell:	Completed after 0 iterations at t[s]:   2195.05
	Linear fluid (dielectric constant: 64) occupying 0.996399 of unit cell:	Completed after 0 iterations at t[s]:   2207.20
SCF: Cycle: 14   Etot: -116.092297408108891   dEtot: +5.894e-08   |Residual|: 2.200e-04   |deigs|: 1.300e-05  t[s]:   2209.72
	Linear fluid (dielectric constant: 64) occupying 0.996399 of unit cell:	Completed after 0 iterations at t[s]:   2213.62
	Linear fluid (dielectric constant: 64) occupying 0.996399 of unit cell:	Completed after 0 iterations at t[s]:   2226.24
SCF: Cycle: 15   Etot: -116.092297440334335   dEtot: -3.223e-08   |Residual|: 7.237e-05   |deigs|: 4.157e-06  t[s]:   2228.82
	Linear fluid (dielectric constant: 64) occupying 0.996399 of unit cell:	Completed after 0 iterations at t[s]:   2232.89
	Linear fluid (dielectric constant: 64) occupying 0.996400 of unit cell:	Completed after 0 iterations at t[s]:   2244.71
SCF: Cycle: 16   Etot: -116.092297478141148   dEtot: -3.781e-08   |Residual|: 5.678e-05   |deigs|: 2.130e-06  t[s]:   2247.19
	Linear fluid (dielectric constant: 64) occupying 0.996400 of unit cell:	Completed after 0 iterations at t[s]:   2251.18
	Linear fluid (dielectric constant: 64) occupying 0.996400 of unit cell:	Completed after 0 iterations at t[s]:   2264.61
SCF: Cycle: 17   Etot: -116.092297517745564   dEtot: -3.960e-08   |Residual|: 1.232e-04   |deigs|: 7.270e-06  t[s]:   2267.13
	Linear fluid (dielectric constant: 64) occupying 0.996400 of unit cell:	Completed after 0 iterations at t[s]:   2272.46
	Linear fluid (dielectric constant: 64) occupying 0.996400 of unit cell:	Completed after 0 iterations at t[s]:   2284.07
SCF: Cycle: 18   Etot: -116.092297423677280   dEtot: +9.407e-08   |Residual|: 6.671e-05   |deigs|: 3.026e-05  t[s]:   2286.51
	Linear fluid (dielectric constant: 64) occupying 0.996400 of unit cell:	Completed after 0 iterations at t[s]:   2290.24
	Linear fluid (dielectric constant: 64) occupying 0.996400 of unit cell:	Completed after 0 iterations at t[s]:   2302.34
SCF: Cycle: 19   Etot: -116.092297425834914   dEtot: -2.158e-09   |Residual|: 5.374e-05   |deigs|: 2.248e-06  t[s]:   2304.90
	Linear fluid (dielectric constant: 64) occupying 0.996400 of unit cell:	Completed after 0 iterations at t[s]:   2308.90
	Linear fluid (dielectric constant: 64) occupying 0.996400 of unit cell:	Completed after 0 iterations at t[s]:   2322.09
SCF: Cycle: 20   Etot: -116.092297444328040   dEtot: -1.849e-08   |Residual|: 3.688e-05   |deigs|: 1.780e-06  t[s]:   2324.52
	Linear fluid (dielectric constant: 64) occupying 0.996400 of unit cell:	Completed after 0 iterations at t[s]:   2328.35
	Linear fluid (dielectric constant: 64) occupying 0.996400 of unit cell:	Completed after 0 iterations at t[s]:   2340.35
SCF: Cycle: 21   Etot: -116.092297459452610   dEtot: -1.512e-08   |Residual|: 3.655e-05   |deigs|: 2.291e-06  t[s]:   2342.82
	Linear fluid (dielectric constant: 64) occupying 0.996400 of unit cell:	Completed after 0 iterations at t[s]:   2346.68
	Linear fluid (dielectric constant: 64) occupying 0.996400 of unit cell:	Completed after 0 iterations at t[s]:   2358.87
SCF: Cycle: 22   Etot: -116.092297474768372   dEtot: -1.532e-08   |Residual|: 2.222e-05   |deigs|: 1.778e-06  t[s]:   2361.34
	Linear fluid (dielectric constant: 64) occupying 0.996400 of unit cell:	Completed after 0 iterations at t[s]:   2365.39
	Linear fluid (dielectric constant: 64) occupying 0.996400 of unit cell:	Completed after 0 iterations at t[s]:   2376.97
SCF: Cycle: 23   Etot: -116.092297481205549   dEtot: -6.437e-09   |Residual|: 2.234e-05   |deigs|: 1.402e-06  t[s]:   2379.47
	Linear fluid (dielectric constant: 64) occupying 0.996399 of unit cell:	Completed after 0 iterations at t[s]:   2383.28
	Linear fluid (dielectric constant: 64) occupying 0.996400 of unit cell:	Completed after 0 iterations at t[s]:   2396.81
SCF: Cycle: 24   Etot: -116.092297483819564   dEtot: -2.614e-09   |Residual|: 3.084e-05   |deigs|: 1.264e-06  t[s]:   2399.42
SCF: Converged (|Delta E|<1.000000e-08 for 2 iters).

Setting wave functions to eigenvectors of Hamiltonian
IonicMinimize: 	Predicted alpha/alphaT>3.000000, increasing alphaT to 3.000000e+00.

Computing DFT-D3 correction:
# coordination-number S 2.928 2.928
# coordination-number Na 2.049 2.049
# diagonal-C6 S 125.81 125.81
# diagonal-C6 Na 186.11 186.11
EvdW_6 =   -0.000078
EvdW_8 =   -0.001148

-------- Electronic minimization -----------
Will mix electronic density at each iteration.
	Linear fluid (dielectric constant: 64) occupying 0.996398 of unit cell:	Completed after 20 iterations at t[s]:   2437.25
	Linear fluid (dielectric constant: 64) occupying 0.996331 of unit cell:	Completed after 22 iterations at t[s]:   2483.62
SCF: Cycle:  0   Etot: -116.089294060982795   dEtot: -1.265e-01   |Residual|: 1.625e-01   |deigs|: 7.885e-03  t[s]:   2486.13
	Linear fluid (dielectric constant: 64) occupying 0.996403 of unit cell:	Completed after 23 iterations at t[s]:   2523.76
	Linear fluid (dielectric constant: 64) occupying 0.996340 of unit cell:	Completed after 21 iterations at t[s]:   2568.28
SCF: Cycle:  1   Etot: -116.093360647208897   dEtot: -4.067e-03   |Residual|: 7.890e-02   |deigs|: 6.745e-03  t[s]:   2570.79
	Linear fluid (dielectric constant: 64) occupying 0.996380 of unit cell:	Completed after 22 iterations at t[s]:   2607.07
	Linear fluid (dielectric constant: 64) occupying 0.996367 of unit cell:	Completed after 20 iterations at t[s]:   2650.00
SCF: Cycle:  2   Etot: -116.095451288404703   dEtot: -2.091e-03   |Residual|: 1.512e-02   |deigs|: 3.425e-03  t[s]:   2652.51
	Linear fluid (dielectric constant: 64) occupying 0.996358 of unit cell:	Completed after 19 iterations at t[s]:   2684.56
	Linear fluid (dielectric constant: 64) occupying 0.996371 of unit cell:	Completed after 18 iterations at t[s]:   2725.26
SCF: Cycle:  3   Etot: -116.095681106606676   dEtot: -2.298e-04   |Residual|: 7.624e-03   |deigs|: 4.588e-03  t[s]:   2727.79
	Linear fluid (dielectric constant: 64) occupying 0.996337 of unit cell:	Completed after 12 iterations at t[s]:   2749.81
	Linear fluid (dielectric constant: 64) occupying 0.996375 of unit cell:	Completed after 13 iterations at t[s]:   2783.04
SCF: Cycle:  4   Etot: -116.095834282218235   dEtot: -1.532e-04   |Residual|: 3.333e-03   |deigs|: 2.812e-03  t[s]:   2785.55
	Linear fluid (dielectric constant: 64) occupying 0.996338 of unit cell:	Completed after 8 iterations at t[s]:   2802.07
	Linear fluid (dielectric constant: 64) occupying 0.996377 of unit cell:	Completed after 8 iterations at t[s]:   2828.79
SCF: Cycle:  5   Etot: -116.095875481496151   dEtot: -4.120e-05   |Residual|: 2.029e-03   |deigs|: 3.161e-04  t[s]:   2831.21
	Linear fluid (dielectric constant: 64) occupying 0.996346 of unit cell:	Completed after 9 iterations at t[s]:   2849.17
	Linear fluid (dielectric constant: 64) occupying 0.996378 of unit cell:	Completed after 8 iterations at t[s]:   2875.02
SCF: Cycle:  6   Etot: -116.095892060223463   dEtot: -1.658e-05   |Residual|: 1.327e-03   |deigs|: 5.260e-04  t[s]:   2877.51
	Linear fluid (dielectric constant: 64) occupying 0.996359 of unit cell:	Completed after 5 iterations at t[s]:   2890.23
	Linear fluid (dielectric constant: 64) occupying 0.996381 of unit cell:	Completed after 4 iterations at t[s]:   2909.14
SCF: Cycle:  7   Etot: -116.095896035133109   dEtot: -3.975e-06   |Residual|: 1.005e-03   |deigs|: 3.996e-04  t[s]:   2911.69
	Linear fluid (dielectric constant: 64) occupying 0.996376 of unit cell:	Completed after 3 iterations at t[s]:   2921.44
	Linear fluid (dielectric constant: 64) occupying 0.996381 of unit cell:	Completed after 3 iterations at t[s]:   2939.28
SCF: Cycle:  8   Etot: -116.095899706840783   dEtot: -3.672e-06   |Residual|: 7.272e-04   |deigs|: 3.898e-05  t[s]:   2941.78
	Linear fluid (dielectric constant: 64) occupying 0.996381 of unit cell:	Completed after 3 iterations at t[s]:   2951.11
	Linear fluid (dielectric constant: 64) occupying 0.996382 of unit cell:	Completed after 2 iterations at t[s]:   2967.37
SCF: Cycle:  9   Etot: -116.095900794586228   dEtot: -1.088e-06   |Residual|: 9.385e-04   |deigs|: 2.666e-04  t[s]:   2969.94
	Linear fluid (dielectric constant: 64) occupying 0.996383 of unit cell:	Completed after 1 iterations at t[s]:   2976.67
	Linear fluid (dielectric constant: 64) occupying 0.996382 of unit cell:	Completed after 0 iterations at t[s]:   2990.65
SCF: Cycle: 10   Etot: -116.095901389895744   dEtot: -5.953e-07   |Residual|: 3.720e-04   |deigs|: 8.403e-05  t[s]:   2993.05
	Linear fluid (dielectric constant: 64) occupying 0.996382 of unit cell:	Completed after 0 iterations at t[s]:   2997.09
	Linear fluid (dielectric constant: 64) occupying 0.996382 of unit cell:	Completed after 0 iterations at t[s]:   3009.10
SCF: Cycle: 11   Etot: -116.095902244132731   dEtot: -8.542e-07   |Residual|: 2.772e-04   |deigs|: 5.614e-05  t[s]:   3011.53
	Linear fluid (dielectric constant: 64) occupying 0.996381 of unit cell:	Completed after 2 iterations at t[s]:   3019.30
	Linear fluid (dielectric constant: 64) occupying 0.996382 of unit cell:	Completed after 0 iterations at t[s]:   3031.36
SCF: Cycle: 12   Etot: -116.095902267147920   dEtot: -2.302e-08   |Residual|: 3.386e-04   |deigs|: 6.252e-05  t[s]:   3033.85
	Linear fluid (dielectric constant: 64) occupying 0.996382 of unit cell:	Completed after 0 iterations at t[s]:   3037.90
	Linear fluid (dielectric constant: 64) occupying 0.996382 of unit cell:	Completed after 0 iterations at t[s]:   3052.96
SCF: Cycle: 13   Etot: -116.095902467327008   dEtot: -2.002e-07   |Residual|: 1.355e-04   |deigs|: 9.870e-06  t[s]:   3055.48
	Linear fluid (dielectric constant: 64) occupying 0.996382 of unit cell:	Completed after 0 iterations at t[s]:   3059.83
	Linear fluid (dielectric constant: 64) occupying 0.996382 of unit cell:	Completed after 0 iterations at t[s]:   3071.80
SCF: Cycle: 14   Etot: -116.095902567312535   dEtot: -9.999e-08   |Residual|: 2.154e-04   |deigs|: 5.405e-05  t[s]:   3074.33
	Linear fluid (dielectric constant: 64) occupying 0.996382 of unit cell:	Completed after 0 iterations at t[s]:   3078.27
	Linear fluid (dielectric constant: 64) occupying 0.996382 of unit cell:	Completed after 0 iterations at t[s]:   3091.01
SCF: Cycle: 15   Etot: -116.095902636321981   dEtot: -6.901e-08   |Residual|: 1.811e-04   |deigs|: 2.119e-06  t[s]:   3093.55
	Linear fluid (dielectric constant: 64) occupying 0.996382 of unit cell:	Completed after 0 iterations at t[s]:   3097.46
	Linear fluid (dielectric constant: 64) occupying 0.996383 of unit cell:	Completed after 0 iterations at t[s]:   3111.94
SCF: Cycle: 16   Etot: -116.095902590955362   dEtot: +4.537e-08   |Residual|: 9.248e-05   |deigs|: 5.211e-06  t[s]:   3114.51
	Linear fluid (dielectric constant: 64) occupying 0.996383 of unit cell:	Completed after 0 iterations at t[s]:   3118.50
	Linear fluid (dielectric constant: 64) occupying 0.996383 of unit cell:	Completed after 0 iterations at t[s]:   3132.14
SCF: Cycle: 17   Etot: -116.095902607786513   dEtot: -1.683e-08   |Residual|: 1.533e-04   |deigs|: 3.323e-05  t[s]:   3134.63
	Linear fluid (dielectric constant: 64) occupying 0.996383 of unit cell:	Completed after 0 iterations at t[s]:   3138.42
	Linear fluid (dielectric constant: 64) occupying 0.996383 of unit cell:	Completed after 0 iterations at t[s]:   3151.90
SCF: Cycle: 18   Etot: -116.095902617115229   dEtot: -9.329e-09   |Residual|: 6.241e-05   |deigs|: 4.137e-06  t[s]:   3154.35
	Linear fluid (dielectric constant: 64) occupying 0.996383 of unit cell:	Completed after 0 iterations at t[s]:   3158.16
	Linear fluid (dielectric constant: 64) occupying 0.996383 of unit cell:	Completed after 0 iterations at t[s]:   3170.80
SCF: Cycle: 19   Etot: -116.095902638219769   dEtot: -2.110e-08   |Residual|: 5.311e-05   |deigs|: 1.318e-06  t[s]:   3173.24
	Linear fluid (dielectric constant: 64) occupying 0.996383 of unit cell:	Completed after 0 iterations at t[s]:   3177.24
	Linear fluid (dielectric constant: 64) occupying 0.996383 of unit cell:	Completed after 0 iterations at t[s]:   3190.30
SCF: Cycle: 20   Etot: -116.095902690360361   dEtot: -5.214e-08   |Residual|: 3.864e-05   |deigs|: 3.222e-06  t[s]:   3192.82
	Linear fluid (dielectric constant: 64) occupying 0.996383 of unit cell:	Completed after 0 iterations at t[s]:   3196.58
	Linear fluid (dielectric constant: 64) occupying 0.996383 of unit cell:	Completed after 0 iterations at t[s]:   3208.47
SCF: Cycle: 21   Etot: -116.095902708976809   dEtot: -1.862e-08   |Residual|: 3.081e-05   |deigs|: 1.106e-06  t[s]:   3210.93
	Linear fluid (dielectric constant: 64) occupying 0.996383 of unit cell:	Completed after 0 iterations at t[s]:   3215.06
	Linear fluid (dielectric constant: 64) occupying 0.996383 of unit cell:	Completed after 0 iterations at t[s]:   3226.77
SCF: Cycle: 22   Etot: -116.095902720917465   dEtot: -1.194e-08   |Residual|: 2.637e-05   |deigs|: 1.125e-06  t[s]:   3229.21
	Linear fluid (dielectric constant: 64) occupying 0.996383 of unit cell:	Completed after 0 iterations at t[s]:   3233.09
	Linear fluid (dielectric constant: 64) occupying 0.996383 of unit cell:	Completed after 0 iterations at t[s]:   3246.02
SCF: Cycle: 23   Etot: -116.095902731397075   dEtot: -1.048e-08   |Residual|: 2.225e-05   |deigs|: 1.015e-06  t[s]:   3248.61
	Linear fluid (dielectric constant: 64) occupying 0.996383 of unit cell:	Completed after 0 iterations at t[s]:   3252.64
	Linear fluid (dielectric constant: 64) occupying 0.996383 of unit cell:	Completed after 0 iterations at t[s]:   3265.15
SCF: Cycle: 24   Etot: -116.095902741422023   dEtot: -1.002e-08   |Residual|: 1.555e-05   |deigs|: 1.653e-06  t[s]:   3267.67
	Linear fluid (dielectric constant: 64) occupying 0.996383 of unit cell:	Completed after 0 iterations at t[s]:   3271.74
	Linear fluid (dielectric constant: 64) occupying 0.996383 of unit cell:	Completed after 0 iterations at t[s]:   3283.70
SCF: Cycle: 25   Etot: -116.095902744335703   dEtot: -2.914e-09   |Residual|: 9.125e-06   |deigs|: 3.277e-07  t[s]:   3286.21
	Linear fluid (dielectric constant: 64) occupying 0.996383 of unit cell:	Completed after 0 iterations at t[s]:   3290.07
	Linear fluid (dielectric constant: 64) occupying 0.996383 of unit cell:	Completed after 0 iterations at t[s]:   3301.98
SCF: Cycle: 26   Etot: -116.095902746100677   dEtot: -1.765e-09   |Residual|: 8.731e-06   |deigs|: 2.474e-07  t[s]:   3304.43
SCF: Converged (|Delta E|<1.000000e-08 for 2 iters).

Setting wave functions to eigenvectors of Hamiltonian
IonicMinimize: 	Predicted alpha/alphaT>3.000000, increasing alphaT to 9.000000e+00.

Computing DFT-D3 correction:
# coordination-number S 2.885 2.885
# coordination-number Na 1.967 1.966
# diagonal-C6 S 125.81 125.81
# diagonal-C6 Na 186.11 186.11
EvdW_6 =   -0.000101
EvdW_8 =   -0.001253

-------- Electronic minimization -----------
Will mix electronic density at each iteration.
	Linear fluid (dielectric constant: 64) occupying 0.996373 of unit cell:	Completed after 25 iterations at t[s]:   3349.37
	Linear fluid (dielectric constant: 64) occupying 0.996218 of unit cell:	Completed after 31 iterations at t[s]:   3408.97
SCF: Cycle:  0   Etot: -116.016236410059790   dEtot: -1.163e+00   |Residual|: 5.827e-01   |deigs|: 7.424e-02  t[s]:   3411.46
	Linear fluid (dielectric constant: 64) occupying 0.996351 of unit cell:	Completed after 36 iterations at t[s]:   3467.58
	Linear fluid (dielectric constant: 64) occupying 0.996213 of unit cell:	Completed after 31 iterations at t[s]:   3526.48
SCF: Cycle:  1   Etot: -116.076748330232604   dEtot: -6.051e-02   |Residual|: 2.508e-01   |deigs|: 6.243e-02  t[s]:   3529.01
	Linear fluid (dielectric constant: 64) occupying 0.996210 of unit cell:	Completed after 37 iterations at t[s]:   3586.24
	Linear fluid (dielectric constant: 64) occupying 0.996269 of unit cell:	Completed after 28 iterations at t[s]:   3641.19
SCF: Cycle:  2   Etot: -116.098006876132303   dEtot: -2.126e-02   |Residual|: 6.848e-02   |deigs|: 8.342e-03  t[s]:   3643.68
	Linear fluid (dielectric constant: 64) occupying 0.996181 of unit cell:	Completed after 32 iterations at t[s]:   3693.90
	Linear fluid (dielectric constant: 64) occupying 0.996288 of unit cell:	Completed after 23 iterations at t[s]:   3741.67
SCF: Cycle:  3   Etot: -116.102094933277755   dEtot: -4.088e-03   |Residual|: 2.603e-02   |deigs|: 2.252e-02  t[s]:   3744.33
	Linear fluid (dielectric constant: 64) occupying 0.996166 of unit cell:	Completed after 19 iterations at t[s]:   3776.16
	Linear fluid (dielectric constant: 64) occupying 0.996304 of unit cell:	Completed after 19 iterations at t[s]:   3817.85
SCF: Cycle:  4   Etot: -116.103846926159321   dEtot: -1.752e-03   |Residual|: 1.194e-02   |deigs|: 1.103e-02  t[s]:   3820.41
	Linear fluid (dielectric constant: 64) occupying 0.996172 of unit cell:	Completed after 14 iterations at t[s]:   3845.50
	Linear fluid (dielectric constant: 64) occupying 0.996313 of unit cell:	Completed after 14 iterations at t[s]:   3880.35
SCF: Cycle:  5   Etot: -116.104297378949127   dEtot: -4.505e-04   |Residual|: 6.610e-03   |deigs|: 2.902e-03  t[s]:   3882.88
	Linear fluid (dielectric constant: 64) occupying 0.996213 of unit cell:	Completed after 13 iterations at t[s]:   3906.41
	Linear fluid (dielectric constant: 64) occupying 0.996318 of unit cell:	Completed after 12 iterations at t[s]:   3938.49
SCF: Cycle:  6   Etot: -116.104421310295308   dEtot: -1.239e-04   |Residual|: 4.453e-03   |deigs|: 1.262e-03  t[s]:   3941.04
	Linear fluid (dielectric constant: 64) occupying 0.996253 of unit cell:	Completed after 10 iterations at t[s]:   3960.45
	Linear fluid (dielectric constant: 64) occupying 0.996324 of unit cell:	Completed after 10 iterations at t[s]:   3989.19
SCF: Cycle:  7   Etot: -116.104454592835637   dEtot: -3.328e-05   |Residual|: 3.222e-03   |deigs|: 1.538e-03  t[s]:   3991.77
	Linear fluid (dielectric constant: 64) occupying 0.996309 of unit cell:	Completed after 4 iterations at t[s]:   4002.67
	Linear fluid (dielectric constant: 64) occupying 0.996329 of unit cell:	Completed after 5 iterations at t[s]:   4023.55
SCF: Cycle:  8   Etot: -116.104471698086869   dEtot: -1.711e-05   |Residual|: 2.104e-03   |deigs|: 2.548e-04  t[s]:   4026.05
	Linear fluid (dielectric constant: 64) occupying 0.996329 of unit cell:	Completed after 9 iterations at t[s]:   4043.81
	Linear fluid (dielectric constant: 64) occupying 0.996330 of unit cell:	Completed after 5 iterations at t[s]:   4064.00
SCF: Cycle:  9   Etot: -116.104473580029037   dEtot: -1.882e-06   |Residual|: 1.690e-03   |deigs|: 4.037e-04  t[s]:   4066.44
	Linear fluid (dielectric constant: 64) occupying 0.996330 of unit cell:	Completed after 4 iterations at t[s]:   4077.50
	Linear fluid (dielectric constant: 64) occupying 0.996331 of unit cell:	Completed after 4 iterations at t[s]:   4098.11
SCF: Cycle: 10   Etot: -116.104478300467591   dEtot: -4.720e-06   |Residual|: 1.173e-03   |deigs|: 2.811e-04  t[s]:   4100.64
	Linear fluid (dielectric constant: 64) occupying 0.996331 of unit cell:	Completed after 2 iterations at t[s]:   4108.68
	Linear fluid (dielectric constant: 64) occupying 0.996331 of unit cell:	Completed after 1 iterations at t[s]:   4123.33
SCF: Cycle: 11   Etot: -116.104480741205762   dEtot: -2.441e-06   |Residual|: 8.287e-04   |deigs|: 9.092e-05  t[s]:   4125.88
	Linear fluid (dielectric constant: 64) occupying 0.996330 of unit cell:	Completed after 3 iterations at t[s]:   4135.40
	Linear fluid (dielectric constant: 64) occupying 0.996331 of unit cell:	Completed after 2 iterations at t[s]:   4151.53
SCF: Cycle: 12   Etot: -116.104481142306867   dEtot: -4.011e-07   |Residual|: 8.371e-04   |deigs|: 1.306e-04  t[s]:   4154.04
	Linear fluid (dielectric constant: 64) occupying 0.996330 of unit cell:	Completed after 0 iterations at t[s]:   4159.25
	Linear fluid (dielectric constant: 64) occupying 0.996332 of unit cell:	Completed after 0 iterations at t[s]:   4173.28
SCF: Cycle: 13   Etot: -116.104482451297116   dEtot: -1.309e-06   |Residual|: 4.215e-04   |deigs|: 8.272e-05  t[s]:   4175.76
	Linear fluid (dielectric constant: 64) occupying 0.996332 of unit cell:	Completed after 3 iterations at t[s]:   4185.18
	Linear fluid (dielectric constant: 64) occupying 0.996332 of unit cell:	Completed after 3 iterations at t[s]:   4203.20
SCF: Cycle: 14   Etot: -116.104482317836755   dEtot: +1.335e-07   |Residual|: 1.165e-03   |deigs|: 3.212e-04  t[s]:   4205.63
	Linear fluid (dielectric constant: 64) occupying 0.996332 of unit cell:	Completed after 0 iterations at t[s]:   4209.51
	Linear fluid (dielectric constant: 64) occupying 0.996332 of unit cell:	Completed after 0 iterations at t[s]:   4223.11
SCF: Cycle: 15   Etot: -116.104482804459607   dEtot: -4.866e-07   |Residual|: 3.907e-04   |deigs|: 2.832e-04  t[s]:   4225.70
	Linear fluid (dielectric constant: 64) occupying 0.996332 of unit cell:	Completed after 0 iterations at t[s]:   4229.51
	Linear fluid (dielectric constant: 64) occupying 0.996332 of unit cell:	Completed after 0 iterations at t[s]:   4241.61
SCF: Cycle: 16   Etot: -116.104482751814956   dEtot: +5.264e-08   |Residual|: 3.880e-04   |deigs|: 2.965e-06  t[s]:   4244.03
	Linear fluid (dielectric constant: 64) occupying 0.996332 of unit cell:	Completed after 0 iterations at t[s]:   4249.22
	Linear fluid (dielectric constant: 64) occupying 0.996332 of unit cell:	Completed after 0 iterations at t[s]:   4261.91
SCF: Cycle: 17   Etot: -116.104482766016218   dEtot: -1.420e-08   |Residual|: 2.158e-04   |deigs|: 2.628e-05  t[s]:   4264.49
	Linear fluid (dielectric constant: 64) occupying 0.996332 of unit cell:	Completed after 0 iterations at t[s]:   4268.47
	Linear fluid (dielectric constant: 64) occupying 0.996332 of unit cell:	Completed after 0 iterations at t[s]:   4282.04
SCF: Cycle: 18   Etot: -116.104482829491616   dEtot: -6.348e-08   |Residual|: 2.421e-04   |deigs|: 8.735e-06  t[s]:   4284.64
	Linear fluid (dielectric constant: 64) occupying 0.996331 of unit cell:	Completed after 0 iterations at t[s]:   4288.61
	Linear fluid (dielectric constant: 64) occupying 0.996331 of unit cell:	Completed after 0 iterations at t[s]:   4301.45
SCF: Cycle: 19   Etot: -116.104482923109117   dEtot: -9.362e-08   |Residual|: 2.422e-04   |deigs|: 4.942e-06  t[s]:   4303.96
	Linear fluid (dielectric constant: 64) occupying 0.996331 of unit cell:	Completed after 1 iterations at t[s]:   4310.59
	Linear fluid (dielectric constant: 64) occupying 0.996332 of unit cell:	Completed after 0 iterations at t[s]:   4323.78
SCF: Cycle: 20   Etot: -116.104483029879503   dEtot: -1.068e-07   |Residual|: 2.219e-04   |deigs|: 3.563e-05  t[s]:   4326.38
	Linear fluid (dielectric constant: 64) occupying 0.996331 of unit cell:	Completed after 0 iterations at t[s]:   4330.45
	Linear fluid (dielectric constant: 64) occupying 0.996332 of unit cell:	Completed after 0 iterations at t[s]:   4342.36
SCF: Cycle: 21   Etot: -116.104483057403144   dEtot: -2.752e-08   |Residual|: 1.788e-04   |deigs|: 2.192e-06  t[s]:   4344.82
	Linear fluid (dielectric constant: 64) occupying 0.996330 of unit cell:	Completed after 0 iterations at t[s]:   4348.68
	Linear fluid (dielectric constant: 64) occupying 0.996332 of unit cell:	Completed after 0 iterations at t[s]:   4361.33
SCF: Cycle: 22   Etot: -116.104483137026477   dEtot: -7.962e-08   |Residual|: 1.415e-04   |deigs|: 2.332e-06  t[s]:   4363.83
	Linear fluid (dielectric constant: 64) occupying 0.996330 of unit cell:	Completed after 0 iterations at t[s]:   4367.78
	Linear fluid (dielectric constant: 64) occupying 0.996332 of unit cell:	Completed after 0 iterations at t[s]:   4380.47
SCF: Cycle: 23   Etot: -116.104483188627853   dEtot: -5.160e-08   |Residual|: 1.316e-04   |deigs|: 3.712e-06  t[s]:   4382.99
	Linear fluid (dielectric constant: 64) occupying 0.996332 of unit cell:	Completed after 0 iterations at t[s]:   4388.49
	Linear fluid (dielectric constant: 64) occupying 0.996332 of unit cell:	Completed after 0 iterations at t[s]:   4402.75
SCF: Cycle: 24   Etot: -116.104482947564151   dEtot: +2.411e-07   |Residual|: 1.121e-04   |deigs|: 1.538e-05  t[s]:   4405.33
	Linear fluid (dielectric constant: 64) occupying 0.996332 of unit cell:	Completed after 0 iterations at t[s]:   4409.21
	Linear fluid (dielectric constant: 64) occupying 0.996332 of unit cell:	Completed after 0 iterations at t[s]:   4421.17
SCF: Cycle: 25   Etot: -116.104483031219701   dEtot: -8.366e-08   |Residual|: 8.261e-05   |deigs|: 3.157e-05  t[s]:   4423.64
	Linear fluid (dielectric constant: 64) occupying 0.996333 of unit cell:	Completed after 0 iterations at t[s]:   4427.65
	Linear fluid (dielectric constant: 64) occupying 0.996333 of unit cell:	Completed after 0 iterations at t[s]:   4441.00
SCF: Cycle: 26   Etot: -116.104483191842945   dEtot: -1.606e-07   |Residual|: 1.114e-04   |deigs|: 7.410e-06  t[s]:   4443.46
	Linear fluid (dielectric constant: 64) occupying 0.996333 of unit cell:	Completed after 0 iterations at t[s]:   4447.28
	Linear fluid (dielectric constant: 64) occupying 0.996333 of unit cell:	Completed after 0 iterations at t[s]:   4459.38
SCF: Cycle: 27   Etot: -116.104483214213076   dEtot: -2.237e-08   |Residual|: 5.185e-05   |deigs|: 2.409e-06  t[s]:   4461.79
	Linear fluid (dielectric constant: 64) occupying 0.996333 of unit cell:	Completed after 0 iterations at t[s]:   4465.79
	Linear fluid (dielectric constant: 64) occupying 0.996333 of unit cell:	Completed after 0 iterations at t[s]:   4477.72
SCF: Cycle: 28   Etot: -116.104483228456957   dEtot: -1.424e-08   |Residual|: 4.423e-05   |deigs|: 1.956e-06  t[s]:   4480.17
	Linear fluid (dielectric constant: 64) occupying 0.996333 of unit cell:	Completed after 0 iterations at t[s]:   4483.94
	Linear fluid (dielectric constant: 64) occupying 0.996333 of unit cell:	Completed after 0 iterations at t[s]:   4495.91
SCF: Cycle: 29   Etot: -116.104483239496304   dEtot: -1.104e-08   |Residual|: 3.632e-05   |deigs|: 1.649e-06  t[s]:   4498.49
	Linear fluid (dielectric constant: 64) occupying 0.996333 of unit cell:	Completed after 0 iterations at t[s]:   4502.29
	Linear fluid (dielectric constant: 64) occupying 0.996333 of unit cell:	Completed after 0 iterations at t[s]:   4514.25
SCF: Cycle: 30   Etot: -116.104483244071503   dEtot: -4.575e-09   |Residual|: 1.956e-05   |deigs|: 1.474e-06  t[s]:   4516.68
	Linear fluid (dielectric constant: 64) occupying 0.996333 of unit cell:	Completed after 0 iterations at t[s]:   4520.54
	Linear fluid (dielectric constant: 64) occupying 0.996333 of unit cell:	Completed after 0 iterations at t[s]:   4533.12
SCF: Cycle: 31   Etot: -116.104483252497957   dEtot: -8.426e-09   |Residual|: 1.858e-05   |deigs|: 1.156e-06  t[s]:   4535.73
SCF: Converged (|Delta E|<1.000000e-08 for 2 iters).

Setting wave functions to eigenvectors of Hamiltonian

Computing DFT-D3 correction:
# coordination-number S 2.712 2.712
# coordination-number Na 1.756 1.757
# diagonal-C6 S 125.81 125.81
# diagonal-C6 Na 186.14 186.14
EvdW_6 =   -0.000149
EvdW_8 =   -0.001561

-------- Electronic minimization -----------
Will mix electronic density at each iteration.
	Linear fluid (dielectric constant: 64) occupying 0.996306 of unit cell:	Completed after 31 iterations at t[s]:   4589.46
	Linear fluid (dielectric constant: 64) occupying 0.996164 of unit cell:	Completed after 45 iterations at t[s]:   4669.24
SCF: Cycle:  0   Etot: -115.631239261169014   dEtot: -4.010e+00   |Residual|: 1.382e+00   |deigs|: 2.591e-01  t[s]:   4671.85
	Linear fluid (dielectric constant: 64) occupying 0.996081 of unit cell:	Completed after 53 iterations at t[s]:   4752.10
	Linear fluid (dielectric constant: 64) occupying 0.996081 of unit cell:	Completed after 38 iterations at t[s]:   4820.87
SCF: Cycle:  1   Etot: -115.972144530886865   dEtot: -3.409e-01   |Residual|: 5.318e-01   |deigs|: 2.114e-01  t[s]:   4823.48
	Linear fluid (dielectric constant: 64) occupying 0.995752 of unit cell:	Completed after 54 iterations at t[s]:   4905.38
	Linear fluid (dielectric constant: 64) occupying 0.996127 of unit cell:	Completed after 33 iterations at t[s]:   4967.18
SCF: Cycle:  2   Etot: -116.070414284811449   dEtot: -9.827e-02   |Residual|: 1.643e-01   |deigs|: 4.072e-02  t[s]:   4969.79
	Linear fluid (dielectric constant: 64) occupying 0.995687 of unit cell:	Completed after 42 iterations at t[s]:   5034.55
	Linear fluid (dielectric constant: 64) occupying 0.996159 of unit cell:	Completed after 30 iterations at t[s]:   5091.36
SCF: Cycle:  3   Etot: -116.102397647773756   dEtot: -3.198e-02   |Residual|: 5.739e-02   |deigs|: 5.714e-02  t[s]:   5093.89
	Linear fluid (dielectric constant: 64) occupying 0.995757 of unit cell:	Completed after 27 iterations at t[s]:   5137.01
	Linear fluid (dielectric constant: 64) occupying 0.996180 of unit cell:	Completed after 22 iterations at t[s]:   5183.01
SCF: Cycle:  4   Etot: -116.111126105777345   dEtot: -8.728e-03   |Residual|: 2.843e-02   |deigs|: 2.518e-02  t[s]:   5185.53
	Linear fluid (dielectric constant: 64) occupying 0.995856 of unit cell:	Completed after 19 iterations at t[s]:   5217.31
	Linear fluid (dielectric constant: 64) occupying 0.996201 of unit cell:	Completed after 20 iterations at t[s]:   5260.01
SCF: Cycle:  5   Etot: -116.113486084260700   dEtot: -2.360e-03   |Residual|: 1.432e-02   |deigs|: 1.327e-02  t[s]:   5262.56
	Linear fluid (dielectric constant: 64) occupying 0.995976 of unit cell:	Completed after 13 iterations at t[s]:   5286.32
	Linear fluid (dielectric constant: 64) occupying 0.996219 of unit cell:	Completed after 13 iterations at t[s]:   5319.63
SCF: Cycle:  6   Etot: -116.114084297330038   dEtot: -5.982e-04   |Residual|: 7.493e-03   |deigs|: 1.341e-03  t[s]:   5322.14
	Linear fluid (dielectric constant: 64) occupying 0.996047 of unit cell:	Completed after 14 iterations at t[s]:   5346.94
	Linear fluid (dielectric constant: 64) occupying 0.996227 of unit cell:	Completed after 14 iterations at t[s]:   5381.24
SCF: Cycle:  7   Etot: -116.114131998228629   dEtot: -4.770e-05   |Residual|: 6.350e-03   |deigs|: 6.050e-04  t[s]:   5383.82
	Linear fluid (dielectric constant: 64) occupying 0.996209 of unit cell:	Completed after 11 iterations at t[s]:   5404.62
	Linear fluid (dielectric constant: 64) occupying 0.996241 of unit cell:	Completed after 6 iterations at t[s]:   5427.74
SCF: Cycle:  8   Etot: -116.114229377907435   dEtot: -9.738e-05   |Residual|: 4.270e-03   |deigs|: 2.525e-03  t[s]:   5430.17
	Linear fluid (dielectric constant: 64) occupying 0.996236 of unit cell:	Completed after 7 iterations at t[s]:   5445.27
	Linear fluid (dielectric constant: 64) occupying 0.996242 of unit cell:	Completed after 5 iterations at t[s]:   5465.88
SCF: Cycle:  9   Etot: -116.114233858462200   dEtot: -4.481e-06   |Residual|: 3.013e-03   |deigs|: 2.350e-04  t[s]:   5468.50
	Linear fluid (dielectric constant: 64) occupying 0.996253 of unit cell:	Completed after 9 iterations at t[s]:   5486.33
	Linear fluid (dielectric constant: 64) occupying 0.996246 of unit cell:	Completed after 7 iterations at t[s]:   5511.20
SCF: Cycle: 10   Etot: -116.114238957255765   dEtot: -5.099e-06   |Residual|: 2.431e-03   |deigs|: 8.781e-04  t[s]:   5513.71
	Linear fluid (dielectric constant: 64) occupying 0.996241 of unit cell:	Completed after 9 iterations at t[s]:   5532.14
	Linear fluid (dielectric constant: 64) occupying 0.996248 of unit cell:	Completed after 5 iterations at t[s]:   5553.97
SCF: Cycle: 11   Etot: -116.114249610881757   dEtot: -1.065e-05   |Residual|: 1.394e-03   |deigs|: 2.373e-04  t[s]:   5556.53
	Linear fluid (dielectric constant: 64) occupying 0.996245 of unit cell:	Completed after 2 iterations at t[s]:   5564.62
	Linear fluid (dielectric constant: 64) occupying 0.996247 of unit cell:	Completed after 2 iterations at t[s]:   5580.70
SCF: Cycle: 12   Etot: -116.114251257815937   dEtot: -1.647e-06   |Residual|: 9.986e-04   |deigs|: 1.383e-04  t[s]:   5583.25
	Linear fluid (dielectric constant: 64) occupying 0.996245 of unit cell:	Completed after 2 iterations at t[s]:   5591.64
	Linear fluid (dielectric constant: 64) occupying 0.996247 of unit cell:	Completed after 1 iterations at t[s]:   5605.97
SCF: Cycle: 13   Etot: -116.114252387673787   dEtot: -1.130e-06   |Residual|: 6.977e-04   |deigs|: 2.374e-04  t[s]:   5608.50
	Linear fluid (dielectric constant: 64) occupying 0.996246 of unit cell:	Completed after 2 iterations at t[s]:   5616.74
	Linear fluid (dielectric constant: 64) occupying 0.996247 of unit cell:	Completed after 1 iterations at t[s]:   5632.16
SCF: Cycle: 14   Etot: -116.114253539291909   dEtot: -1.152e-06   |Residual|: 5.849e-04   |deigs|: 9.639e-05  t[s]:   5634.68
	Linear fluid (dielectric constant: 64) occupying 0.996249 of unit cell:	Completed after 4 iterations at t[s]:   5645.56
	Linear fluid (dielectric constant: 64) occupying 0.996247 of unit cell:	Completed after 3 iterations at t[s]:   5663.63
SCF: Cycle: 15   Etot: -116.114253408879904   dEtot: +1.304e-07   |Residual|: 5.657e-04   |deigs|: 1.740e-04  t[s]:   5666.06
	Linear fluid (dielectric constant: 64) occupying 0.996247 of unit cell:	Completed after 0 iterations at t[s]:   5671.41
	Linear fluid (dielectric constant: 64) occupying 0.996247 of unit cell:	Completed after 0 iterations at t[s]:   5686.38
SCF: Cycle: 16   Etot: -116.114254244718836   dEtot: -8.358e-07   |Residual|: 4.342e-04   |deigs|: 1.445e-04  t[s]:   5688.86
	Linear fluid (dielectric constant: 64) occupying 0.996245 of unit cell:	Completed after 1 iterations at t[s]:   5695.36
	Linear fluid (dielectric constant: 64) occupying 0.996247 of unit cell:	Completed after 1 iterations at t[s]:   5710.27
SCF: Cycle: 17   Etot: -116.114253927145327   dEtot: +3.176e-07   |Residual|: 3.298e-04   |deigs|: 1.301e-04  t[s]:   5712.78
	Linear fluid (dielectric constant: 64) occupying 0.996242 of unit cell:	Completed after 3 iterations at t[s]:   5722.30
	Linear fluid (dielectric constant: 64) occupying 0.996246 of unit cell:	Completed after 3 iterations at t[s]:   5741.44
SCF: Cycle: 18   Etot: -116.114253633327976   dEtot: +2.938e-07   |Residual|: 1.153e-03   |deigs|: 3.597e-04  t[s]:   5743.88
	Linear fluid (dielectric constant: 64) occupying 0.996244 of unit cell:	Completed after 1 iterations at t[s]:   5750.58
	Linear fluid (dielectric constant: 64) occupying 0.996247 of unit cell:	Completed after 0 iterations at t[s]:   5765.82
SCF: Cycle: 19   Etot: -116.114253719385701   dEtot: -8.606e-08   |Residual|: 2.896e-04   |deigs|: 3.266e-04  t[s]:   5768.37
	Linear fluid (dielectric constant: 64) occupying 0.996247 of unit cell:	Completed after 0 iterations at t[s]:   5772.78
	Linear fluid (dielectric constant: 64) occupying 0.996248 of unit cell:	Completed after 0 iterations at t[s]:   5787.57
SCF: Cycle: 20   Etot: -116.114254298569861   dEtot: -5.792e-07   |Residual|: 2.294e-04   |deigs|: 4.812e-05  t[s]:   5790.09
	Linear fluid (dielectric constant: 64) occupying 0.996249 of unit cell:	Completed after 2 iterations at t[s]:   5798.07
	Linear fluid (dielectric constant: 64) occupying 0.996248 of unit cell:	Completed after 0 iterations at t[s]:   5811.34
SCF: Cycle: 21   Etot: -116.114254045994102   dEtot: +2.526e-07   |Residual|: 3.763e-04   |deigs|: 9.821e-05  t[s]:   5813.81
	Linear fluid (dielectric constant: 64) occupying 0.996249 of unit cell:	Completed after 0 iterations at t[s]:   5817.75
	Linear fluid (dielectric constant: 64) occupying 0.996247 of unit cell:	Completed after 0 iterations at t[s]:   5831.22
SCF: Cycle: 22   Etot: -116.114254133671380   dEtot: -8.768e-08   |Residual|: 3.424e-04   |deigs|: 2.227e-05  t[s]:   5833.79
	Linear fluid (dielectric constant: 64) occupying 0.996248 of unit cell:	Completed after 0 iterations at t[s]:   5837.96
	Linear fluid (dielectric constant: 64) occupying 0.996247 of unit cell:	Completed after 0 iterations at t[s]:   5851.66
SCF: Cycle: 23   Etot: -116.114254535362505   dEtot: -4.017e-07   |Residual|: 2.625e-04   |deigs|: 2.282e-05  t[s]:   5854.12
	Linear fluid (dielectric constant: 64) occupying 0.996246 of unit cell:	Completed after 3 iterations at t[s]:   5863.63
	Linear fluid (dielectric constant: 64) occupying 0.996247 of unit cell:	Completed after 1 iterations at t[s]:   5878.34
SCF: Cycle: 24   Etot: -116.114254401810271   dEtot: +1.336e-07   |Residual|: 7.804e-04   |deigs|: 2.550e-04  t[s]:   5880.82
	Linear fluid (dielectric constant: 64) occupying 0.996246 of unit cell:	Completed after 0 iterations at t[s]:   5886.19
	Linear fluid (dielectric constant: 64) occupying 0.996247 of unit cell:	Completed after 0 iterations at t[s]:   5897.98
SCF: Cycle: 25   Etot: -116.114254399054445   dEtot: +2.756e-09   |Residual|: 5.244e-04   |deigs|: 5.896e-05  t[s]:   5900.39
	Linear fluid (dielectric constant: 64) occupying 0.996247 of unit cell:	Completed after 0 iterations at t[s]:   5904.15
	Linear fluid (dielectric constant: 64) occupying 0.996248 of unit cell:	Completed after 0 iterations at t[s]:   5918.88
SCF: Cycle: 26   Etot: -116.114254397769940   dEtot: +1.285e-09   |Residual|: 4.571e-04   |deigs|: 4.689e-06  t[s]:   5921.36
	Linear fluid (dielectric constant: 64) occupying 0.996247 of unit cell:	Completed after 0 iterations at t[s]:   5925.32
	Linear fluid (dielectric constant: 64) occupying 0.996248 of unit cell:	Completed after 0 iterations at t[s]:   5938.75
SCF: Cycle: 27   Etot: -116.114254347051286   dEtot: +5.072e-08   |Residual|: 3.524e-04   |deigs|: 4.226e-05  t[s]:   5941.20
	Linear fluid (dielectric constant: 64) occupying 0.996247 of unit cell:	Completed after 0 iterations at t[s]:   5946.48
	Linear fluid (dielectric constant: 64) occupying 0.996248 of unit cell:	Completed after 0 iterations at t[s]:   5959.70
SCF: Cycle: 28   Etot: -116.114254267104002   dEtot: +7.995e-08   |Residual|: 2.419e-04   |deigs|: 1.334e-05  t[s]:   5962.13
	Linear fluid (dielectric constant: 64) occupying 0.996247 of unit cell:	Completed after 0 iterations at t[s]:   5965.99
	Linear fluid (dielectric constant: 64) occupying 0.996248 of unit cell:	Completed after 0 iterations at t[s]:   5978.01
SCF: Cycle: 29   Etot: -116.114254208119021   dEtot: +5.898e-08   |Residual|: 1.510e-04   |deigs|: 3.831e-05  t[s]:   5980.50
	Linear fluid (dielectric constant: 64) occupying 0.996248 of unit cell:	Completed after 0 iterations at t[s]:   5984.37
	Linear fluid (dielectric constant: 64) occupying 0.996248 of unit cell:	Completed after 0 iterations at t[s]:   5997.53
SCF: Cycle: 30   Etot: -116.114254558635110   dEtot: -3.505e-07   |Residual|: 1.782e-04   |deigs|: 5.791e-06  t[s]:   5999.97
	Linear fluid (dielectric constant: 64) occupying 0.996249 of unit cell:	Completed after 0 iterations at t[s]:   6003.96
	Linear fluid (dielectric constant: 64) occupying 0.996248 of unit cell:	Completed after 0 iterations at t[s]:   6016.00
SCF: Cycle: 31   Etot: -116.114254851721057   dEtot: -2.931e-07   |Residual|: 2.204e-04   |deigs|: 7.457e-06  t[s]:   6018.49
	Linear fluid (dielectric constant: 64) occupying 0.996248 of unit cell:	Completed after 0 iterations at t[s]:   6022.25
	Linear fluid (dielectric constant: 64) occupying 0.996248 of unit cell:	Completed after 2 iterations at t[s]:   6038.13
SCF: Cycle: 32   Etot: -116.114254213057635   dEtot: +6.387e-07   |Residual|: 1.884e-04   |deigs|: 1.620e-06  t[s]:   6040.69
	Linear fluid (dielectric constant: 64) occupying 0.996248 of unit cell:	Completed after 0 iterations at t[s]:   6044.69
	Linear fluid (dielectric constant: 64) occupying 0.996247 of unit cell:	Completed after 0 iterations at t[s]:   6056.31
SCF: Cycle: 33   Etot: -116.114254683029458   dEtot: -4.700e-07   |Residual|: 4.720e-04   |deigs|: 1.842e-04  t[s]:   6058.84
	Linear fluid (dielectric constant: 64) occupying 0.996248 of unit cell:	Completed after 0 iterations at t[s]:   6062.96
	Linear fluid (dielectric constant: 64) occupying 0.996247 of unit cell:	Completed after 0 iterations at t[s]:   6075.01
SCF: Cycle: 34   Etot: -116.114254714317852   dEtot: -3.129e-08   |Residual|: 4.673e-04   |deigs|: 7.811e-07  t[s]:   6077.46
[...]
	Linear fluid (dielectric constant: 64) occupying 0.996021 of unit cell:	Completed after 0 iterations at t[s]:   1902.10
ElecMinimize: Iter:  30  Etot: -116.135698095927893  |grad|_K:  6.367e-08  alpha:  7.396e-01  linmin:  6.071e-04  t[s]:   1907.84
	Linear fluid (dielectric constant: 64) occupying 0.996021 of unit cell:	Completed after 0 iterations at t[s]:   1914.36
	Linear fluid (dielectric constant: 64) occupying 0.996021 of unit cell:	Completed after 0 iterations at t[s]:   1923.87
ElecMinimize: Iter:  31  Etot: -116.135698100934349  |grad|_K:  4.841e-08  alpha:  7.521e-01  linmin: -4.308e-04  t[s]:   1929.63
ElecMinimize: Converged (|Delta Etot|<1.000000e-08 for 2 iters).
Setting wave functions to eigenvectors of Hamiltonian
Single-point solvation energy estimate, DeltaEtot = -0.315041269770006

Computing DFT-D3 correction:
# coordination-number S 1.164 1.163
# coordination-number Na 0.181 0.181
# diagonal-C6 S 130.66 130.66
# diagonal-C6 Na 1422.01 1421.98
EvdW_6 =   -0.001160
EvdW_8 =   -0.005863

# Ionic positions in cartesian coordinates:
ion S   9.381329082704829  12.387408643348081  28.142583922241116 1
ion S   5.993981237320735  10.106632912482755  28.222497901535913 1
ion Na  10.859653795490630   6.415671827301096  24.538885497833427 1
ion Na   4.307354812663798  16.166806214008062  24.858710325709549 1

# Forces in Cartesian coordinates:
force S   0.000025734379017   0.000059869205180   0.001998016975004 1
force S   0.000067857068301  -0.000365280847990   0.000199611733710 1
force Na  -0.000103531530501  -0.000000904636477  -0.000171061990056 1
force Na   0.000051630079781  -0.000070514332858  -0.000110317536896 1

# Energy components:
   A_diel =       -0.3764075436938674
   Eewald =       25.5774092109822604
       EH =      122.4556274205408357
     Eloc =     -128.7801528060185490
      Enl =     -140.4060978895778362
     EvdW =       -0.0070232815671322
      Exc =      -22.7882855619153446
 Exc_core =        3.5354582592919512
       KE =       24.6537740910233367
-------------------------------------
     Etot =     -116.1356981009343485

IonicMinimize: Iter:   0  Etot: -116.135698100934349  |grad|_K:  5.228e-04  alpha:  1.000e+00

#--- Lowdin population analysis ---
# oxidation-state S -0.849 -0.850
# oxidation-state Na +0.961 +0.961


Computing DFT-D3 correction:
# coordination-number S 1.164 1.163
# coordination-number Na 0.181 0.181
# diagonal-C6 S 130.66 130.66
# diagonal-C6 Na 1422.21 1422.23
EvdW_6 =   -0.001161
EvdW_8 =   -0.005862

-------- Electronic minimization -----------
	Linear fluid (dielectric constant: 64) occupying 0.996021 of unit cell:	Completed after 3 iterations at t[s]:   1950.56
ElecMinimize: Iter:   0  Etot: -116.135697781262905  |grad|_K:  5.356e-07  alpha:  1.000e+00
	Linear fluid (dielectric constant: 64) occupying 0.996021 of unit cell:	Completed after 0 iterations at t[s]:   1963.17
	Linear fluid (dielectric constant: 64) occupying 0.996021 of unit cell:	Completed after 1 iterations at t[s]:   1975.76
ElecMinimize: Iter:   1  Etot: -116.135698046594513  |grad|_K:  4.827e-07  alpha:  1.540e+00  linmin:  3.242e-01  t[s]:   1981.51
	Linear fluid (dielectric constant: 64) occupying 0.996021 of unit cell:	Completed after 3 iterations at t[s]:   1994.13
	Linear fluid (dielectric constant: 64) occupying 0.996021 of unit cell:	Completed after 0 iterations at t[s]:   2003.65
ElecMinimize: 	Step increased Etot by 1.401313e-07, reducing alpha to 2.823413e-02.
	Linear fluid (dielectric constant: 64) occupying 0.996021 of unit cell:	Completed after 0 iterations at t[s]:   2015.55
ElecMinimize: 	Step increased Etot by 6.012151e-08, reducing alpha to 2.823413e-03.
	Linear fluid (dielectric constant: 64) occupying 0.996021 of unit cell:	Completed after 0 iterations at t[s]:   2027.42
ElecMinimize: 	Step increased Etot by 5.444087e-08, reducing alpha to 2.823413e-04.
ElecMinimize: 	Step failed to reduce Etot after 3 attempts. Quitting step.
ElecMinimize: 	Undoing step.
	Linear fluid (dielectric constant: 64) occupying 0.996021 of unit cell:	Completed after 0 iterations at t[s]:   2039.32
ElecMinimize: 	Step failed: resetting search direction.
ElecMinimize: Iter:   2  Etot: -116.135697992220898  |grad|_K:  8.297e-07  alpha:  2.823e-04
	Linear fluid (dielectric constant: 64) occupying 0.996021 of unit cell:	Completed after 2 iterations at t[s]:   2056.17
	Linear fluid (dielectric constant: 64) occupying 0.996021 of unit cell:	Completed after 2 iterations at t[s]:   2070.27
ElecMinimize: Iter:   3  Etot: -116.135698073060865  |grad|_K:  9.026e-07  alpha:  4.366e-01  linmin:  2.350e-01  t[s]:   2076.03
	Linear fluid (dielectric constant: 64) occupying 0.996021 of unit cell:	Completed after 0 iterations at t[s]:   2084.11
	Linear fluid (dielectric constant: 64) occupying 0.996021 of unit cell:	Completed after 0 iterations at t[s]:   2093.61
ElecMinimize: Iter:   4  Etot: -116.135698142215915  |grad|_K:  6.063e-07  alpha:  2.164e-01  linmin: -6.018e-02  t[s]:   2099.34
	Linear fluid (dielectric constant: 64) occupying 0.996021 of unit cell:	Completed after 0 iterations at t[s]:   2105.78
	Linear fluid (dielectric constant: 64) occupying 0.996021 of unit cell:	Completed after 0 iterations at t[s]:   2115.27
ElecMinimize: Iter:   5  Etot: -116.135698393798663  |grad|_K:  4.751e-07  alpha:  3.912e-01  linmin:  1.535e-04  t[s]:   2120.99
	Linear fluid (dielectric constant: 64) occupying 0.996021 of unit cell:	Completed after 2 iterations at t[s]:   2132.17
	Linear fluid (dielectric constant: 64) occupying 0.996021 of unit cell:	Completed after 0 iterations at t[s]:   2141.69
ElecMinimize: 	Step increased Etot by 7.314667e-07, reducing alpha to 3.399193e-03.
	Linear fluid (dielectric constant: 64) occupying 0.996021 of unit cell:	Completed after 0 iterations at t[s]:   2153.62
ElecMinimize: 	Step increased Etot by 6.821787e-07, reducing alpha to 3.399193e-04.
	Linear fluid (dielectric constant: 64) occupying 0.996021 of unit cell:	Completed after 0 iterations at t[s]:   2165.47
ElecMinimize: 	Step increased Etot by 6.772984e-07, reducing alpha to 3.399193e-05.
ElecMinimize: 	Step failed to reduce Etot after 3 attempts. Quitting step.
ElecMinimize: 	Undoing step.
	Linear fluid (dielectric constant: 64) occupying 0.996021 of unit cell:	Completed after 0 iterations at t[s]:   2177.37
ElecMinimize: 	Step failed: resetting search direction.
ElecMinimize: Iter:   6  Etot: -116.135697716555924  |grad|_K:  1.424e-06  alpha:  3.399e-05
	Linear fluid (dielectric constant: 64) occupying 0.996021 of unit cell:	Completed after 3 iterations at t[s]:   2195.80
	Linear fluid (dielectric constant: 64) occupying 0.996021 of unit cell:	Completed after 0 iterations at t[s]:   2205.36
ElecMinimize: Iter:   7  Etot: -116.135698307410721  |grad|_K:  5.793e-07  alpha:  1.816e-01  linmin:  5.632e-01  t[s]:   2211.11
	Linear fluid (dielectric constant: 64) occupying 0.996021 of unit cell:	Completed after 0 iterations at t[s]:   2217.61
ElecMinimize: 	Predicted alpha/alphaT>3.000000, increasing alphaT to 5.448426e-01.
	Linear fluid (dielectric constant: 64) occupying 0.996021 of unit cell:	Completed after 0 iterations at t[s]:   2228.71
	Linear fluid (dielectric constant: 64) occupying 0.996021 of unit cell:	Completed after 0 iterations at t[s]:   2238.21
ElecMinimize: Iter:   8  Etot: -116.135698417091504  |grad|_K:  2.618e-07  alpha:  4.275e-01  linmin: -6.625e-01  t[s]:   2243.89
	Linear fluid (dielectric constant: 64) occupying 0.996021 of unit cell:	Completed after 0 iterations at t[s]:   2251.91
	Linear fluid (dielectric constant: 64) occupying 0.996021 of unit cell:	Completed after 0 iterations at t[s]:   2261.39
ElecMinimize: 	Step increased Etot by 7.407877e-08, reducing alpha to 1.529176e-02.
	Linear fluid (dielectric constant: 64) occupying 0.996021 of unit cell:	Completed after 0 iterations at t[s]:   2273.30
ElecMinimize: 	Step increased Etot by 9.773997e-08, reducing alpha to 1.529176e-03.
	Linear fluid (dielectric constant: 64) occupying 0.996021 of unit cell:	Completed after 0 iterations at t[s]:   2285.15
ElecMinimize: 	Step increased Etot by 1.005033e-07, reducing alpha to 1.529176e-04.
ElecMinimize: 	Step failed to reduce Etot after 3 attempts. Quitting step.
ElecMinimize: 	Undoing step.
	Linear fluid (dielectric constant: 64) occupying 0.996021 of unit cell:	Completed after 0 iterations at t[s]:   2297.02
ElecMinimize: 	Step failed: resetting search direction.
ElecMinimize: Iter:   9  Etot: -116.135698316557395  |grad|_K:  1.929e-07  alpha:  1.529e-04
	Linear fluid (dielectric constant: 64) occupying 0.996021 of unit cell:	Completed after 0 iterations at t[s]:   2309.17
ElecMinimize: 	Predicted alpha/alphaT>3.000000, increasing alphaT to 1.282357e+00.
	Linear fluid (dielectric constant: 64) occupying 0.996021 of unit cell:	Completed after 2 iterations at t[s]:   2323.28
	Linear fluid (dielectric constant: 64) occupying 0.996021 of unit cell:	Completed after 0 iterations at t[s]:   2332.81
ElecMinimize: 	Step increased Etot by 2.672814e-07, reducing alpha to 1.022037e-02.
	Linear fluid (dielectric constant: 64) occupying 0.996021 of unit cell:	Completed after 0 iterations at t[s]:   2344.79
ElecMinimize: 	Step increased Etot by 2.289300e-07, reducing alpha to 1.022037e-03.
	Linear fluid (dielectric constant: 64) occupying 0.996021 of unit cell:	Completed after 0 iterations at t[s]:   2356.69
ElecMinimize: 	Step increased Etot by 2.251300e-07, reducing alpha to 1.022037e-04.
ElecMinimize: 	Step failed to reduce Etot after 3 attempts. Quitting step.
ElecMinimize: 	Undoing step.
	Linear fluid (dielectric constant: 64) occupying 0.996021 of unit cell:	Completed after 0 iterations at t[s]:   2368.61
ElecMinimize: 	Step failed along negative gradient direction.
ElecMinimize: Probably at roundoff error limit. (Stopping)
Setting wave functions to eigenvectors of Hamiltonian

Computing DFT-D3 correction:
# coordination-number S 1.164 1.163
# coordination-number Na 0.181 0.181
# diagonal-C6 S 130.66 130.66
# diagonal-C6 Na 1422.11 1422.10
EvdW_6 =   -0.001161
EvdW_8 =   -0.005862

-------- Electronic minimization -----------
	Linear fluid (dielectric constant: 64) occupying 0.996021 of unit cell:	Completed after 2 iterations at t[s]:   2386.09
ElecMinimize: Iter:   0  Etot: -116.135697921179442  |grad|_K:  6.116e-07  alpha:  1.000e+00
	Linear fluid (dielectric constant: 64) occupying 0.996021 of unit cell:	Completed after 2 iterations at t[s]:   2403.13
	Linear fluid (dielectric constant: 64) occupying 0.996021 of unit cell:	Completed after 0 iterations at t[s]:   2412.72
ElecMinimize: Iter:   1  Etot: -116.135698280405734  |grad|_K:  6.697e-07  alpha:  2.660e-01  linmin:  5.178e-01  t[s]:   2418.40
	Linear fluid (dielectric constant: 64) occupying 0.996021 of unit cell:	Completed after 0 iterations at t[s]:   2426.48
	Linear fluid (dielectric constant: 64) occupying 0.996021 of unit cell:	Completed after 0 iterations at t[s]:   2435.99
ElecMinimize: 	Step increased Etot by 1.770485e-07, reducing alpha to 1.135386e-03.
	Linear fluid (dielectric constant: 64) occupying 0.996021 of unit cell:	Completed after 0 iterations at t[s]:   2447.91
ElecMinimize: 	Step increased Etot by 1.770937e-07, reducing alpha to 1.135386e-04.
	Linear fluid (dielectric constant: 64) occupying 0.996021 of unit cell:	Completed after 0 iterations at t[s]:   2459.82
ElecMinimize: 	Step increased Etot by 1.770985e-07, reducing alpha to 1.135386e-05.
ElecMinimize: 	Step failed to reduce Etot after 3 attempts. Quitting step.
ElecMinimize: 	Undoing step.
	Linear fluid (dielectric constant: 64) occupying 0.996021 of unit cell:	Completed after 0 iterations at t[s]:   2471.77
ElecMinimize: 	Step failed: resetting search direction.
ElecMinimize: Iter:   2  Etot: -116.135698103307845  |grad|_K:  5.845e-07  alpha:  1.135e-05
	Linear fluid (dielectric constant: 64) occupying 0.996021 of unit cell:	Completed after 0 iterations at t[s]:   2484.03
	Linear fluid (dielectric constant: 64) occupying 0.996021 of unit cell:	Completed after 2 iterations at t[s]:   2498.22
ElecMinimize: 	Step increased Etot by 5.991147e-07, reducing alpha to 5.286245e-02.
	Linear fluid (dielectric constant: 64) occupying 0.996021 of unit cell:	Completed after 0 iterations at t[s]:   2510.17
ElecMinimize: Iter:   3  Etot: -116.135698108651425  |grad|_K:  4.448e-07  alpha:  5.286e-02  linmin:  5.993e-01  t[s]:   2515.93
	Linear fluid (dielectric constant: 64) occupying 0.996021 of unit cell:	Completed after 0 iterations at t[s]:   2522.42
ElecMinimize: 	Predicted alpha/alphaT>3.000000, increasing alphaT to 1.585874e-01.
	Linear fluid (dielectric constant: 64) occupying 0.996021 of unit cell:	Completed after 0 iterations at t[s]:   2532.02
ElecMinimize: 	Predicted alpha/alphaT>3.000000, increasing alphaT to 4.757621e-01.
	Linear fluid (dielectric constant: 64) occupying 0.996021 of unit cell:	Completed after 0 iterations at t[s]:   2541.57
ElecMinimize: 	Predicted alpha/alphaT>3.000000, increasing alphaT to 1.427286e+00.
	Linear fluid (dielectric constant: 64) occupying 0.996021 of unit cell:	Completed after 0 iterations at t[s]:   2551.08
ElecMinimize: Iter:   4  Etot: -116.135698298688311  |grad|_K:  3.458e-07  alpha:  1.825e+00  linmin: -3.900e-04  t[s]:   2556.81
	Linear fluid (dielectric constant: 64) occupying 0.996021 of unit cell:	Completed after 4 iterations at t[s]:   2570.95
	Linear fluid (dielectric constant: 64) occupying 0.996021 of unit cell:	Completed after 2 iterations at t[s]:   2585.07
ElecMinimize: 	Step increased Etot by 6.737515e-07, reducing alpha to 1.409103e-02.
	Linear fluid (dielectric constant: 64) occupying 0.996021 of unit cell:	Completed after 0 iterations at t[s]:   2597.04
ElecMinimize: 	Step increased Etot by 5.573306e-07, reducing alpha to 1.409103e-03.
	Linear fluid (dielectric constant: 64) occupying 0.996021 of unit cell:	Completed after 0 iterations at t[s]:   2608.95
ElecMinimize: 	Step increased Etot by 5.462663e-07, reducing alpha to 1.409103e-04.
ElecMinimize: 	Step failed to reduce Etot after 3 attempts. Quitting step.
ElecMinimize: 	Undoing step.
	Linear fluid (dielectric constant: 64) occupying 0.996021 of unit cell:	Completed after 0 iterations at t[s]:   2620.93
ElecMinimize: 	Step failed: resetting search direction.
ElecMinimize: Iter:   5  Etot: -116.135697752543166  |grad|_K:  1.069e-06  alpha:  1.409e-04
	Linear fluid (dielectric constant: 64) occupying 0.996020 of unit cell:	Completed after 4 iterations at t[s]:   2640.73
	Linear fluid (dielectric constant: 64) occupying 0.996021 of unit cell:	Completed after 3 iterations at t[s]:   2656.36
ElecMinimize: Iter:   6  Etot: -116.135698088452898  |grad|_K:  6.363e-07  alpha:  2.484e-01  linmin:  4.189e-01  t[s]:   2662.11
	Linear fluid (dielectric constant: 64) occupying 0.996021 of unit cell:	Completed after 0 iterations at t[s]:   2668.59
	Linear fluid (dielectric constant: 64) occupying 0.996021 of unit cell:	Completed after 0 iterations at t[s]:   2679.69
ElecMinimize: Iter:   7  Etot: -116.135698182614590  |grad|_K:  3.480e-07  alpha:  6.709e-01  linmin:  1.290e-01  t[s]:   2685.45
	Linear fluid (dielectric constant: 64) occupying 0.996021 of unit cell:	Completed after 0 iterations at t[s]:   2693.46
	Linear fluid (dielectric constant: 64) occupying 0.996021 of unit cell:	Completed after 0 iterations at t[s]:   2703.05
ElecMinimize: Iter:   8  Etot: -116.135698189015230  |grad|_K:  2.118e-07  alpha:  3.752e-01  linmin: -3.149e-01  t[s]:   2708.79
	Linear fluid (dielectric constant: 64) occupying 0.996021 of unit cell:	Completed after 0 iterations at t[s]:   2715.26
	Linear fluid (dielectric constant: 64) occupying 0.996021 of unit cell:	Completed after 0 iterations at t[s]:   2724.81
ElecMinimize: Iter:   9  Etot: -116.135698246011060  |grad|_K:  1.391e-07  alpha:  5.808e-01  linmin: -3.923e-04  t[s]:   2730.56
	Linear fluid (dielectric constant: 64) occupying 0.996021 of unit cell:	Completed after 0 iterations at t[s]:   2738.62
	Linear fluid (dielectric constant: 64) occupying 0.996021 of unit cell:	Completed after 0 iterations at t[s]:   2748.13
ElecMinimize: 	Step increased Etot by 8.721250e-08, reducing alpha to 9.025661e-03.
	Linear fluid (dielectric constant: 64) occupying 0.996021 of unit cell:	Completed after 0 iterations at t[s]:   2759.97
ElecMinimize: 	Step increased Etot by 8.983930e-08, reducing alpha to 9.025661e-04.
	Linear fluid (dielectric constant: 64) occupying 0.996021 of unit cell:	Completed after 0 iterations at t[s]:   2771.98
ElecMinimize: 	Step increased Etot by 9.012778e-08, reducing alpha to 9.025661e-05.
ElecMinimize: 	Step failed to reduce Etot after 3 attempts. Quitting step.
ElecMinimize: 	Undoing step.
	Linear fluid (dielectric constant: 64) occupying 0.996021 of unit cell:	Completed after 0 iterations at t[s]:   2783.89
ElecMinimize: 	Step failed: resetting search direction.
ElecMinimize: Iter:  10  Etot: -116.135698155874238  |grad|_K:  1.306e-07  alpha:  9.026e-05
	Linear fluid (dielectric constant: 64) occupying 0.996021 of unit cell:	Completed after 0 iterations at t[s]:   2796.18
	Linear fluid (dielectric constant: 64) occupying 0.996021 of unit cell:	Completed after 0 iterations at t[s]:   2805.71
ElecMinimize: Iter:  11  Etot: -116.135698170715401  |grad|_K:  5.443e-08  alpha:  5.286e-01  linmin:  7.199e-05  t[s]:   2811.39
	Linear fluid (dielectric constant: 64) occupying 0.996021 of unit cell:	Completed after 0 iterations at t[s]:   2817.82
	Linear fluid (dielectric constant: 64) occupying 0.996021 of unit cell:	Completed after 0 iterations at t[s]:   2827.27
ElecMinimize: Iter:  12  Etot: -116.135698174055193  |grad|_K:  4.400e-08  alpha:  6.843e-01  linmin: -2.768e-03  t[s]:   2832.97
	Linear fluid (dielectric constant: 64) occupying 0.996021 of unit cell:	Completed after 0 iterations at t[s]:   2839.47
	Linear fluid (dielectric constant: 64) occupying 0.996021 of unit cell:	Completed after 0 iterations at t[s]:   2848.96
ElecMinimize: Iter:  13  Etot: -116.135698177272232  |grad|_K:  4.011e-08  alpha:  1.009e+00  linmin:  1.131e-03  t[s]:   2854.68
ElecMinimize: Converged (|Delta Etot|<1.000000e-08 for 2 iters).
Setting wave functions to eigenvectors of Hamiltonian

Computing DFT-D3 correction:
# coordination-number S 1.164 1.163
# coordination-number Na 0.181 0.181
# diagonal-C6 S 130.66 130.66
# diagonal-C6 Na 1422.11 1422.10
EvdW_6 =   -0.001161
EvdW_8 =   -0.005862

# Ionic positions in cartesian coordinates:
ion S   9.381336716607825  12.387485460028941  28.143341213493098 1
ion S   5.994009871945168  10.106497766015289  28.222358578441810 1
ion Na  10.859596982479063   6.415718344527169  24.538561371353069 1
ion Na   4.307375357147940  16.166818026568595  24.858416484032031 1

# Forces in Cartesian coordinates:
force S   0.000104348852154   0.000041705039281   0.000181320218991 1
force S  -0.000054597054840  -0.000088322805770   0.000071036803026 1
force Na  -0.000065936813472   0.000086000578160  -0.000110120097030 1
force Na   0.000021406153610  -0.000039892645534  -0.000153150724045 1

# Energy components:
   A_diel =       -0.3764429914505336
   Eewald =       25.5760540588832441
       EH =      122.4580979782338801
     Eloc =     -128.7760171813842760
      Enl =     -140.4110885448016006
     EvdW =       -0.0070229232369052
      Exc =      -22.7889722405043500
 Exc_core =        3.5354582621839450
       KE =       24.6542354048043713
-------------------------------------
     Etot =     -116.1356981772722321

IonicMinimize: Iter:   1  Etot: -116.135698177272232  |grad|_K:  9.603e-05  alpha:  4.986e-01  linmin: -7.662e-01  t[s]:   2862.23
IonicMinimize: Converged (|grad|_K<1.000000e-04).

#--- Lowdin population analysis ---
# oxidation-state S -0.849 -0.849
# oxidation-state Na +0.961 +0.961


Dumping 'Na2S2-PC-vdw.wfns' ... done
Dumping 'Na2S2-PC-vdw.fluidState' ... done
Dumping 'Na2S2-PC-vdw.ionpos' ... done
End date and time: Sat Oct  5 23:10:03 2024  (Duration: 0-0:47:43.16)
Done!
