
*************** JDFTx 1.7.0  ***************

Start date and time: Sat Dec 28 15:41:33 2024
Executable jdftx_gpu with command-line: -i /home/akim2/JDFTx/Na2S4-glyme/Na2S4-glyme.in -o /home/akim2/JDFTx/Na2S4-glyme/Na2S4-glyme.out
Running on hosts (process indices):  exp-7-57 (0)
Divided in process groups (process indices):  0 (0)
gpuInit: Found compatible cuda device 0 'Tesla V100-SXM2-32GB'
gpuInit: Selected device 0
Resource initialization completed at t[s]:      0.38
Run totals: 1 processes, 1 threads, 1 GPUs


Input parsed successfully to the following command list (including defaults):

basis kpoint-dependent
coords-type Cartesian
core-overlap-check vector
coulomb-interaction Isolated
coulomb-truncation-embed 4.96043 13.9816 25.2655
davidson-band-ratio 1.1
dump End State
dump-name Na2S4-glyme.$VAR
elec-cutoff 20 100
elec-eigen-algo Davidson
elec-ex-corr gga-PBE
electronic-minimize  \
	dirUpdateScheme      FletcherReeves \
	linminMethod         DirUpdateRecommended \
	nIterations          100 \
	history              15 \
	knormThreshold       0 \
	energyDiffThreshold  1e-08 \
	nEnergyDiff          2 \
	alphaTstart          1 \
	alphaTmin            1e-10 \
	updateTestStepSize   yes \
	alphaTreduceFactor   0.1 \
	alphaTincreaseFactor 3 \
	nAlphaAdjustMax      3 \
	wolfeEnergy          0.0001 \
	wolfeGradient        0.9 \
	fdTest               no
electronic-scf  \
	nIterations	50 \
	energyDiffThreshold	1e-08 \
	residualThreshold	1e-07 \
	mixFraction	0.5 \
	qMetric	0.8 \
	history	10 \
	nEigSteps	2 \
	eigDiffThreshold	1e-08 \
	mixedVariable	Density \
	qKerker	0.8 \
	qKappa	-1 \
	verbose	no \
	mixFractionMag	1.5
exchange-regularization None
fluid LinearPCM 298.000000 1.013250
fluid-ex-corr lda-TF lda-PZ
fluid-gummel-loop 10 1.000000e-05
fluid-minimize  \
	dirUpdateScheme      PolakRibiere \
	linminMethod         DirUpdateRecommended \
	nIterations          400 \
	history              15 \
	knormThreshold       1e-11 \
	energyDiffThreshold  0 \
	nEnergyDiff          2 \
	alphaTstart          1 \
	alphaTmin            1e-10 \
	updateTestStepSize   yes \
	alphaTreduceFactor   0.1 \
	alphaTincreaseFactor 3 \
	nAlphaAdjustMax      6 \
	wolfeEnergy          0.0001 \
	wolfeGradient        0.9 \
	fdTest               no
fluid-solvent Glyme 9.62137 ScalarEOS \
	epsBulk 7.2 \
	pMol 0 \
	epsInf 1.9 \
	Pvap 0 \
	sigmaBulk 0 \
	Rvdw 0 \
	Res 0 \
	tauNuc 343133
forces-output-coords Positions
ion S   4.960431645660000  13.981560468840000  25.265472781050001 1
ion S   7.075808635770003  13.274826015330000  28.544133544019999 1
ion S   8.239466575169999   9.479152131930000  28.544855420880001 1
ion S  10.355264975069996   8.766735260310000  25.266360954149999 1
ion Na   5.293454984100000   8.983135801530000  24.325194155759998 1
ion Na  10.011364350749997  13.762072108800000  24.311516290019998 1
ion-species GBRV/$ID_pbe.uspp
ion-width Ecut
ionic-minimize  \
	dirUpdateScheme      FletcherReeves \
	linminMethod         DirUpdateRecommended \
	nIterations          200 \
	history              15 \
	knormThreshold       0.0001 \
	energyDiffThreshold  1e-06 \
	nEnergyDiff          2 \
	alphaTstart          1 \
	alphaTmin            1e-10 \
	updateTestStepSize   yes \
	alphaTreduceFactor   0.1 \
	alphaTincreaseFactor 3 \
	nAlphaAdjustMax      3 \
	wolfeEnergy          0.0001 \
	wolfeGradient        0.9 \
	fdTest               no
kpoint   0.000000000000   0.000000000000   0.000000000000  1.00000000000000
kpoint-folding 1 1 1 
latt-move-scale 1 1 1
latt-scale 1 1 1 
lattice Triclinic 28.0058 28.0058 37.7946 90 90 120
lattice-minimize  \
	dirUpdateScheme      L-BFGS \
	linminMethod         DirUpdateRecommended \
	nIterations          0 \
	history              15 \
	knormThreshold       0 \
	energyDiffThreshold  1e-06 \
	nEnergyDiff          2 \
	alphaTstart          1 \
	alphaTmin            1e-10 \
	updateTestStepSize   yes \
	alphaTreduceFactor   0.1 \
	alphaTincreaseFactor 3 \
	nAlphaAdjustMax      3 \
	wolfeEnergy          0.0001 \
	wolfeGradient        0.9 \
	fdTest               no
lcao-params -1 1e-06 0.001
pcm-variant GLSSA13
spintype no-spin
subspace-rotation-factor 1 yes
symmetries automatic
symmetry-threshold 0.0001



---------- Setting up symmetries ----------

Found 24 point-group symmetries of the bravais lattice
Found 1 space-group symmetries with basis
Applied RMS atom displacement 0 bohrs to make symmetries exact.

---------- Initializing the Grid ----------
R = 
[      28.0058     -14.0029            0  ]
[            0      24.2537            0  ]
[            0            0      37.7946  ]
unit cell volume = 25671.8
G =
[   0.224353    0.12953         -0  ]
[          0   0.259061          0  ]
[          0         -0   0.166246  ]
Minimum fftbox size, Smin = [  128  128  172  ]
Chosen fftbox size, S = [  128  128  180  ]

---------- Initializing tighter grid for wavefunction operations ----------
R = 
[      28.0058     -14.0029            0  ]
[            0      24.2537            0  ]
[            0            0      37.7946  ]
unit cell volume = 25671.8
G =
[   0.224353    0.12953         -0  ]
[          0   0.259061          0  ]
[          0         -0   0.166246  ]
Minimum fftbox size, Smin = [  116  116  156  ]
Chosen fftbox size, S = [  120  120  160  ]

---------- Exchange Correlation functional ----------
Initalized PBE GGA exchange.
Initalized PBE GGA correlation.

---------- Setting up pseudopotentials ----------
Width of ionic core gaussian charges (only for fluid interactions / plotting) set to 0.397384

Reading pseudopotential file '/home/akim2/jdftx_install/build/pseudopotentials/GBRV/s_pbe.uspp':
  Title: S.  Created by USPP 7.3.6 on 1-4-15
  Reference state energy: -11.898476.  6 valence electrons in orbitals:
    |300>  occupation: 2  eigenvalue: -0.634167
    |310>  occupation: 4  eigenvalue: -0.257568
  lMax: 2  lLocal: 3  QijEcut: 6
  6 projectors sampled on a log grid with 635 points:
    l: 0  eig: -0.634161  rCut: 1.5
    l: 0  eig: 1.500000  rCut: 1.5
    l: 1  eig: -0.257567  rCut: 1.5
    l: 1  eig: 1.500000  rCut: 1.5
    l: 2  eig: -1.000000  rCut: 1.5
    l: 2  eig: 1.500000  rCut: 1.5
  Partial core density with radius 1.15
  Transforming core density to a uniform radial grid of dG=0.02 with 1625 points.
  Transforming local potential to a uniform radial grid of dG=0.02 with 1625 points.
  Transforming nonlocal projectors to a uniform radial grid of dG=0.02 with 432 points.
  Transforming density augmentations to a uniform radial grid of dG=0.02 with 1625 points.
  Transforming atomic orbitals to a uniform radial grid of dG=0.02 with 432 points.
  Core radius for overlap checks: 1.50 bohrs.

Reading pseudopotential file '/home/akim2/jdftx_install/build/pseudopotentials/GBRV/na_pbe.uspp':
  Title: Na.  Created by USPP 7.3.6 on 23-9-15
  Reference state energy: -47.625620.  9 valence electrons in orbitals:
    |200>  occupation: 2  eigenvalue: -2.085638
    |210>  occupation: 6  eigenvalue: -1.053708
    |300>  occupation: 1  eigenvalue: -0.100838
  lMax: 2  lLocal: 0  QijEcut: 6
  5 projectors sampled on a log grid with 657 points:
    l: 0  eig: -2.085640  rCut: 1.37
    l: 0  eig: -0.100839  rCut: 1.37
    l: 1  eig: -1.053708  rCut: 1.47
    l: 1  eig: 0.500000  rCut: 1.47
    l: 2  eig: 0.750000  rCut: 2
  Transforming local potential to a uniform radial grid of dG=0.02 with 1625 points.
  Transforming nonlocal projectors to a uniform radial grid of dG=0.02 with 432 points.
  Transforming density augmentations to a uniform radial grid of dG=0.02 with 1625 points.
  Transforming atomic orbitals to a uniform radial grid of dG=0.02 with 432 points.
  Core radius for overlap checks: 2.00 bohrs.

Initialized 2 species with 6 total atoms.

Folded 1 k-points by 1x1x1 to 1 k-points.

---------- Setting up k-points, bands, fillings ----------
No reducable k-points. 
Computing the number of bands and number of electrons
Calculating initial fillings.
nElectrons:  42.000000   nBands: 21   nStates: 1

----- Setting up reduced wavefunction bases (one per k-point) -----
average nbasis = 109673.000 , ideal nbasis = 109671.883

---------- Setting up coulomb interaction ----------
Fluid mode embedding: using embedded box, but periodic Coulomb kernel.
(Fluid response is responsible for (approximate) separation between periodic images.)
Setting up double-sized grid for truncated Coulomb potentials:
R = 
[      56.0116     -28.0058            0  ]
[            0      48.5075            0  ]
[            0            0      75.5892  ]
unit cell volume = 205374
G =
[   0.112177  0.0647651         -0  ]
[          0    0.12953          0  ]
[          0         -0  0.0831228  ]
Chosen fftbox size, S = [  256  256  360  ]
Integer grid location selected as the embedding center:
   Grid: [  60  74  120  ]
   Lattice: [  0.465357  0.57647  0.668494  ]
   Cartesian: [  4.96043  13.9816  25.2655  ]
Constructing Wigner-Seitz cell: 8 faces (6 quadrilaterals, 2 hexagons)
Range-separation parameter for embedded mesh potentials due to point charges: 0.590105 bohrs.

---------- Setting up ewald sum ----------
Optimum gaussian width for ewald sums = 17.460913 bohr.
Real space sum over 1089 unit cells with max indices [  5  5  4  ]
Reciprocal space sum over 2873 terms with max indices [  6  6  8  ]

---------- Allocating electronic variables ----------
Initializing wave functions:  linear combination of atomic orbitals
S pseudo-atom occupations:   s ( 2 )  p ( 4 )
Na pseudo-atom occupations:   s ( 2 1 )  p ( 6 )
	FillingsUpdate:  mu: -0.088614534  nElectrons: 42.000000
LCAOMinimize: Iter:   0  Etot: -136.2253494586741738  |grad|_K:  1.848e-02  alpha:  1.000e+00
	FillingsUpdate:  mu: -0.093245074  nElectrons: 42.000000
LCAOMinimize: Iter:   1  Etot: -136.2630642840068163  |grad|_K:  1.041e-02  alpha:  1.874e-01  linmin: -3.574e-01  cgtest:  8.732e-01  t[s]:      3.83
LCAOMinimize: Encountered beta<0, resetting CG.
	FillingsUpdate:  mu: -0.095759784  nElectrons: 42.000000
LCAOMinimize: Iter:   2  Etot: -136.2787173242142558  |grad|_K:  8.187e-03  alpha:  5.527e-01  linmin:  1.878e-01  cgtest: -5.672e-01  t[s]:      4.17
	FillingsUpdate:  mu: -0.095843439  nElectrons: 42.000000
LCAOMinimize: Iter:   3  Etot: -136.2787239709460891  |grad|_K:  8.228e-03  alpha:  5.181e-03  linmin: -2.682e-03  cgtest:  9.991e-01  t[s]:      4.49
LCAOMinimize: None of the convergence criteria satisfied after 3 iterations.
----- createFluidSolver() ----- (Fluid-side solver setup)
   Initializing fluid molecule 'Glyme'
     Net charge: 0   dipole magnitude: 0
     Initializing spherical shell mfKernel with radius 0 Bohr
     deltaS corrections:

Correction to mu due to finite nuclear width = -0.00020291
   Cavity determined by nc: 8.36e-05 and sigma: 0.6
   Effective cavity tension: -8.03e-06 Eh/bohr^2 to account for cavitation and dispersion.


---- Citations for features of the code used in this run ----

   Software package:
      R. Sundararaman, K. Letchworth-Weaver, K.A. Schwarz, D. Gunceler, Y. Ozhabes and T.A. Arias, 'JDFTx: software for joint density-functional theory', SoftwareX 6, 278 (2017)

   gga-PBE exchange-correlation functional:
      J.P. Perdew, K. Burke and M. Ernzerhof, Phys. Rev. Lett. 77, 3865 (1996)

   Pseudopotentials:
      KF Garrity, JW Bennett, KM Rabe and D Vanderbilt, Comput. Mater. Sci. 81, 446 (2014)

   Truncated Coulomb potentials:
      R. Sundararaman and T.A. Arias, Phys. Rev. B 87, 165122 (2013)

   Linear/nonlinear dielectric/ionic fluid model with effective cavity tension:
      D. Gunceler, K. Letchworth-Weaver, R. Sundararaman, K.A. Schwarz and T.A. Arias, Modelling Simul. Mater. Sci. Eng. 21, 074005 (2013)

This list may not be complete. Please suggest additional citations or
report any other bugs at https://github.com/shankar1729/jdftx/issues

Initialization completed successfully at t[s]:      4.50

Fluid solver invoked on fresh (random / LCAO) wavefunctions
Running a vacuum solve first:

-------- Initial electronic minimization -----------
Will mix electronic density at each iteration.
SCF: Cycle:  0   Etot: -136.425219965696130   dEtot: -1.465e-01   |Residual|: 2.157e-01   |deigs|: 1.094e-02  t[s]:      5.03
SCF: Cycle:  1   Etot: -136.487570240566470   dEtot: -6.235e-02   |Residual|: 1.162e-01   |deigs|: 1.128e-02  t[s]:      5.42
SCF: Cycle:  2   Etot: -136.527218010098579   dEtot: -3.965e-02   |Residual|: 3.798e-02   |deigs|: 1.318e-02  t[s]:      5.82
SCF: Cycle:  3   Etot: -136.528218612603837   dEtot: -1.001e-03   |Residual|: 2.092e-02   |deigs|: 1.748e-03  t[s]:      6.21
SCF: Cycle:  4   Etot: -136.529074928741920   dEtot: -8.563e-04   |Residual|: 1.727e-02   |deigs|: 6.259e-03  t[s]:      6.60
SCF: Cycle:  5   Etot: -136.529617781672982   dEtot: -5.429e-04   |Residual|: 1.214e-02   |deigs|: 7.555e-04  t[s]:      6.99
SCF: Cycle:  6   Etot: -136.529990966496143   dEtot: -3.732e-04   |Residual|: 1.042e-02   |deigs|: 3.935e-03  t[s]:      7.39
SCF: Cycle:  7   Etot: -136.530117246715719   dEtot: -1.263e-04   |Residual|: 8.701e-03   |deigs|: 1.720e-03  t[s]:      7.76
SCF: Cycle:  8   Etot: -136.530390431788504   dEtot: -2.732e-04   |Residual|: 3.868e-03   |deigs|: 1.414e-03  t[s]:      8.14
SCF: Cycle:  9   Etot: -136.530423620439308   dEtot: -3.319e-05   |Residual|: 2.697e-03   |deigs|: 9.184e-04  t[s]:      8.52
SCF: Cycle: 10   Etot: -136.530378889955358   dEtot: +4.473e-05   |Residual|: 3.784e-03   |deigs|: 6.476e-04  t[s]:      8.93
SCF: Cycle: 11   Etot: -136.530432047145439   dEtot: -5.316e-05   |Residual|: 2.191e-03   |deigs|: 6.538e-04  t[s]:      9.30
SCF: Cycle: 12   Etot: -136.530446327805350   dEtot: -1.428e-05   |Residual|: 1.928e-03   |deigs|: 3.366e-04  t[s]:      9.64
SCF: Cycle: 13   Etot: -136.530449107671927   dEtot: -2.780e-06   |Residual|: 2.349e-03   |deigs|: 4.555e-04  t[s]:      9.99
SCF: Cycle: 14   Etot: -136.530462889101045   dEtot: -1.378e-05   |Residual|: 1.363e-03   |deigs|: 2.399e-04  t[s]:     10.38
SCF: Cycle: 15   Etot: -136.530455173482920   dEtot: +7.716e-06   |Residual|: 2.300e-03   |deigs|: 2.368e-04  t[s]:     10.73
SCF: Cycle: 16   Etot: -136.530464305447055   dEtot: -9.132e-06   |Residual|: 9.126e-04   |deigs|: 1.624e-04  t[s]:     11.07
SCF: Cycle: 17   Etot: -136.530465377635579   dEtot: -1.072e-06   |Residual|: 7.653e-04   |deigs|: 1.795e-04  t[s]:     11.40
SCF: Cycle: 18   Etot: -136.530466814510987   dEtot: -1.437e-06   |Residual|: 4.316e-04   |deigs|: 6.390e-05  t[s]:     11.75
SCF: Cycle: 19   Etot: -136.530466692150583   dEtot: +1.224e-07   |Residual|: 6.242e-04   |deigs|: 7.297e-05  t[s]:     12.09
SCF: Cycle: 20   Etot: -136.530467517824064   dEtot: -8.257e-07   |Residual|: 2.081e-04   |deigs|: 7.223e-05  t[s]:     12.49
SCF: Cycle: 21   Etot: -136.530467739530764   dEtot: -2.217e-07   |Residual|: 1.131e-04   |deigs|: 3.884e-05  t[s]:     12.85
SCF: Cycle: 22   Etot: -136.530467892830416   dEtot: -1.533e-07   |Residual|: 1.015e-04   |deigs|: 1.474e-05  t[s]:     13.20
SCF: Cycle: 23   Etot: -136.530467984590587   dEtot: -9.176e-08   |Residual|: 7.850e-05   |deigs|: 2.368e-05  t[s]:     13.53
SCF: Cycle: 24   Etot: -136.530468038361619   dEtot: -5.377e-08   |Residual|: 4.644e-05   |deigs|: 3.550e-05  t[s]:     13.88
SCF: Cycle: 25   Etot: -136.530468092678575   dEtot: -5.432e-08   |Residual|: 3.704e-05   |deigs|: 1.885e-05  t[s]:     14.29
SCF: Cycle: 26   Etot: -136.530468116856412   dEtot: -2.418e-08   |Residual|: 3.107e-05   |deigs|: 2.607e-05  t[s]:     14.63
SCF: Cycle: 27   Etot: -136.530468137912806   dEtot: -2.106e-08   |Residual|: 1.863e-05   |deigs|: 8.501e-06  t[s]:     15.03
SCF: Cycle: 28   Etot: -136.530468146570115   dEtot: -8.657e-09   |Residual|: 1.483e-05   |deigs|: 5.103e-06  t[s]:     15.37
SCF: Cycle: 29   Etot: -136.530468156127938   dEtot: -9.558e-09   |Residual|: 9.855e-06   |deigs|: 1.431e-06  t[s]:     15.76
SCF: Converged (|Delta E|<1.000000e-08 for 2 iters).

Setting wave functions to eigenvectors of Hamiltonian
Vacuum energy after initial minimize, Etot = -136.530468156127938


-------- Electronic minimization -----------
Will mix electronic density at each iteration.
	Linear fluid (dielectric constant: 7.2) occupying 0.989653 of unit cell:	Completed after 9 iterations at t[s]:     16.53
	Linear fluid (dielectric constant: 7.2) occupying 0.989913 of unit cell:	Completed after 7 iterations at t[s]:     17.70
SCF: Cycle:  0   Etot: -136.566925934411103   dEtot: -7.876e-03   |Residual|: 1.391e-02   |deigs|: 2.741e-04  t[s]:     17.89
	Linear fluid (dielectric constant: 7.2) occupying 0.989668 of unit cell:	Completed after 7 iterations at t[s]:     18.61
	Linear fluid (dielectric constant: 7.2) occupying 0.989997 of unit cell:	Completed after 7 iterations at t[s]:     19.75
SCF: Cycle:  1   Etot: -136.567830954426171   dEtot: -9.050e-04   |Residual|: 1.060e-02   |deigs|: 1.100e-03  t[s]:     20.04
	Linear fluid (dielectric constant: 7.2) occupying 0.989603 of unit cell:	Completed after 7 iterations at t[s]:     20.77
	Linear fluid (dielectric constant: 7.2) occupying 0.990061 of unit cell:	Completed after 7 iterations at t[s]:     21.99
SCF: Cycle:  2   Etot: -136.568599920587275   dEtot: -7.690e-04   |Residual|: 6.106e-03   |deigs|: 2.822e-03  t[s]:     22.27
	Linear fluid (dielectric constant: 7.2) occupying 0.989664 of unit cell:	Completed after 6 iterations at t[s]:     22.97
	Linear fluid (dielectric constant: 7.2) occupying 0.990077 of unit cell:	Completed after 7 iterations at t[s]:     24.16
SCF: Cycle:  3   Etot: -136.568814124067501   dEtot: -2.142e-04   |Residual|: 4.302e-03   |deigs|: 1.391e-03  t[s]:     24.45
	Linear fluid (dielectric constant: 7.2) occupying 0.989767 of unit cell:	Completed after 6 iterations at t[s]:     25.13
	Linear fluid (dielectric constant: 7.2) occupying 0.990130 of unit cell:	Completed after 7 iterations at t[s]:     26.36
SCF: Cycle:  4   Etot: -136.569695759706633   dEtot: -8.816e-04   |Residual|: 5.121e-03   |deigs|: 4.212e-03  t[s]:     26.63
	Linear fluid (dielectric constant: 7.2) occupying 0.989784 of unit cell:	Completed after 6 iterations at t[s]:     27.31
	Linear fluid (dielectric constant: 7.2) occupying 0.990140 of unit cell:	Completed after 7 iterations at t[s]:     28.53
SCF: Cycle:  5   Etot: -136.569861656567127   dEtot: -1.659e-04   |Residual|: 4.276e-03   |deigs|: 7.165e-04  t[s]:     28.80
	Linear fluid (dielectric constant: 7.2) occupying 0.989848 of unit cell:	Completed after 6 iterations at t[s]:     29.51
	Linear fluid (dielectric constant: 7.2) occupying 0.990146 of unit cell:	Completed after 7 iterations at t[s]:     30.73
SCF: Cycle:  6   Etot: -136.570033255324802   dEtot: -1.716e-04   |Residual|: 3.033e-03   |deigs|: 1.295e-03  t[s]:     31.01
	Linear fluid (dielectric constant: 7.2) occupying 0.990103 of unit cell:	Completed after 6 iterations at t[s]:     31.70
	Linear fluid (dielectric constant: 7.2) occupying 0.990130 of unit cell:	Completed after 5 iterations at t[s]:     32.83
SCF: Cycle:  7   Etot: -136.570376663925373   dEtot: -3.434e-04   |Residual|: 1.650e-03   |deigs|: 4.741e-03  t[s]:     33.04
	Linear fluid (dielectric constant: 7.2) occupying 0.990114 of unit cell:	Completed after 5 iterations at t[s]:     33.69
	Linear fluid (dielectric constant: 7.2) occupying 0.990119 of unit cell:	Completed after 6 iterations at t[s]:     34.81
SCF: Cycle:  8   Etot: -136.570400075459503   dEtot: -2.341e-05   |Residual|: 3.049e-03   |deigs|: 3.841e-04  t[s]:     35.07
	Linear fluid (dielectric constant: 7.2) occupying 0.990041 of unit cell:	Completed after 5 iterations at t[s]:     35.72
	Linear fluid (dielectric constant: 7.2) occupying 0.990111 of unit cell:	Completed after 6 iterations at t[s]:     36.82
SCF: Cycle:  9   Etot: -136.570422044672853   dEtot: -2.197e-05   |Residual|: 3.157e-03   |deigs|: 7.128e-04  t[s]:     37.09
	Linear fluid (dielectric constant: 7.2) occupying 0.989985 of unit cell:	Completed after 5 iterations at t[s]:     37.74
	Linear fluid (dielectric constant: 7.2) occupying 0.990082 of unit cell:	Completed after 4 iterations at t[s]:     38.83
SCF: Cycle: 10   Etot: -136.570453712944555   dEtot: -3.167e-05   |Residual|: 1.657e-03   |deigs|: 1.085e-03  t[s]:     39.02
	Linear fluid (dielectric constant: 7.2) occupying 0.989936 of unit cell:	Completed after 4 iterations at t[s]:     39.62
	Linear fluid (dielectric constant: 7.2) occupying 0.990079 of unit cell:	Completed after 3 iterations at t[s]:     40.55
SCF: Cycle: 11   Etot: -136.570455318046754   dEtot: -1.605e-06   |Residual|: 1.990e-03   |deigs|: 8.182e-04  t[s]:     40.75
	Linear fluid (dielectric constant: 7.2) occupying 0.989950 of unit cell:	Completed after 4 iterations at t[s]:     41.36
	Linear fluid (dielectric constant: 7.2) occupying 0.990068 of unit cell:	Completed after 5 iterations at t[s]:     42.41
SCF: Cycle: 12   Etot: -136.570482802820209   dEtot: -2.748e-05   |Residual|: 1.323e-03   |deigs|: 4.894e-04  t[s]:     42.61
	Linear fluid (dielectric constant: 7.2) occupying 0.989975 of unit cell:	Completed after 5 iterations at t[s]:     43.26
	Linear fluid (dielectric constant: 7.2) occupying 0.990035 of unit cell:	Completed after 5 iterations at t[s]:     44.32
SCF: Cycle: 13   Etot: -136.570522899108596   dEtot: -4.010e-05   |Residual|: 7.055e-04   |deigs|: 1.286e-04  t[s]:     44.55
	Linear fluid (dielectric constant: 7.2) occupying 0.989987 of unit cell:	Completed after 5 iterations at t[s]:     45.19
	Linear fluid (dielectric constant: 7.2) occupying 0.990037 of unit cell:	Completed after 5 iterations at t[s]:     46.31
SCF: Cycle: 14   Etot: -136.570574947741449   dEtot: -5.205e-05   |Residual|: 7.281e-04   |deigs|: 2.091e-04  t[s]:     46.52
	Linear fluid (dielectric constant: 7.2) occupying 0.990037 of unit cell:	Completed after 4 iterations at t[s]:     47.13
	Linear fluid (dielectric constant: 7.2) occupying 0.990052 of unit cell:	Completed after 5 iterations at t[s]:     48.17
SCF: Cycle: 15   Etot: -136.570532667489516   dEtot: +4.228e-05   |Residual|: 6.894e-04   |deigs|: 2.509e-04  t[s]:     48.40
	Linear fluid (dielectric constant: 7.2) occupying 0.990052 of unit cell:	Completed after 4 iterations at t[s]:     49.01
	Linear fluid (dielectric constant: 7.2) occupying 0.990026 of unit cell:	Completed after 4 iterations at t[s]:     50.03
SCF: Cycle: 16   Etot: -136.570624844670590   dEtot: -9.218e-05   |Residual|: 5.014e-04   |deigs|: 1.978e-04  t[s]:     50.22
	Linear fluid (dielectric constant: 7.2) occupying 0.990053 of unit cell:	Completed after 4 iterations at t[s]:     50.84
	Linear fluid (dielectric constant: 7.2) occupying 0.989965 of unit cell:	Completed after 4 iterations at t[s]:     51.84
SCF: Cycle: 17   Etot: -136.570543043153606   dEtot: +8.180e-05   |Residual|: 7.470e-04   |deigs|: 7.078e-04  t[s]:     52.04
	Linear fluid (dielectric constant: 7.2) occupying 0.990035 of unit cell:	Completed after 3 iterations at t[s]:     52.61
	Linear fluid (dielectric constant: 7.2) occupying 0.990038 of unit cell:	Completed after 3 iterations at t[s]:     53.56
SCF: Cycle: 18   Etot: -136.570583569698670   dEtot: -4.053e-05   |Residual|: 4.946e-04   |deigs|: 9.045e-05  t[s]:     53.76
	Linear fluid (dielectric constant: 7.2) occupying 0.990027 of unit cell:	Completed after 4 iterations at t[s]:     54.38
	Linear fluid (dielectric constant: 7.2) occupying 0.990034 of unit cell:	Completed after 3 iterations at t[s]:     55.33
SCF: Cycle: 19   Etot: -136.570601761938093   dEtot: -1.819e-05   |Residual|: 5.054e-04   |deigs|: 7.143e-05  t[s]:     55.52
	Linear fluid (dielectric constant: 7.2) occupying 0.990011 of unit cell:	Completed after 4 iterations at t[s]:     56.13
	Linear fluid (dielectric constant: 7.2) occupying 0.990032 of unit cell:	Completed after 4 iterations at t[s]:     57.10
SCF: Cycle: 20   Etot: -136.570600102334737   dEtot: +1.660e-06   |Residual|: 5.003e-04   |deigs|: 2.881e-05  t[s]:     57.30
	Linear fluid (dielectric constant: 7.2) occupying 0.989990 of unit cell:	Completed after 2 iterations at t[s]:     57.83
	Linear fluid (dielectric constant: 7.2) occupying 0.989955 of unit cell:	Completed after 3 iterations at t[s]:     58.79
SCF: Cycle: 21   Etot: -136.570713355639896   dEtot: -1.133e-04   |Residual|: 3.172e-04   |deigs|: 2.448e-04  t[s]:     59.00
	Linear fluid (dielectric constant: 7.2) occupying 0.989987 of unit cell:	Completed after 3 iterations at t[s]:     59.58
	Linear fluid (dielectric constant: 7.2) occupying 0.989948 of unit cell:	Completed after 3 iterations at t[s]:     60.55
SCF: Cycle: 22   Etot: -136.570723086904735   dEtot: -9.731e-06   |Residual|: 4.036e-04   |deigs|: 7.998e-05  t[s]:     60.74
	Linear fluid (dielectric constant: 7.2) occupying 0.989983 of unit cell:	Completed after 3 iterations at t[s]:     61.32
	Linear fluid (dielectric constant: 7.2) occupying 0.989950 of unit cell:	Completed after 3 iterations at t[s]:     62.26
SCF: Cycle: 23   Etot: -136.570746071286521   dEtot: -2.298e-05   |Residual|: 2.589e-04   |deigs|: 3.144e-05  t[s]:     62.45
	Linear fluid (dielectric constant: 7.2) occupying 0.989970 of unit cell:	Completed after 3 iterations at t[s]:     63.02
	Linear fluid (dielectric constant: 7.2) occupying 0.989955 of unit cell:	Completed after 3 iterations at t[s]:     64.00
SCF: Cycle: 24   Etot: -136.570768201566921   dEtot: -2.213e-05   |Residual|: 2.178e-04   |deigs|: 6.000e-05  t[s]:     64.20
	Linear fluid (dielectric constant: 7.2) occupying 0.989962 of unit cell:	Completed after 2 iterations at t[s]:     64.75
	Linear fluid (dielectric constant: 7.2) occupying 0.989945 of unit cell:	Completed after 3 iterations at t[s]:     65.61
SCF: Cycle: 25   Etot: -136.570771082975483   dEtot: -2.881e-06   |Residual|: 1.459e-04   |deigs|: 1.068e-04  t[s]:     65.80
	Linear fluid (dielectric constant: 7.2) occupying 0.989952 of unit cell:	Completed after 2 iterations at t[s]:     66.33
	Linear fluid (dielectric constant: 7.2) occupying 0.989936 of unit cell:	Completed after 2 iterations at t[s]:     67.20
SCF: Cycle: 26   Etot: -136.570779152074380   dEtot: -8.069e-06   |Residual|: 1.783e-04   |deigs|: 4.431e-05  t[s]:     67.40
	Linear fluid (dielectric constant: 7.2) occupying 0.989942 of unit cell:	Completed after 2 iterations at t[s]:     67.93
	Linear fluid (dielectric constant: 7.2) occupying 0.989923 of unit cell:	Completed after 2 iterations at t[s]:     68.79
SCF: Cycle: 27   Etot: -136.570779178357526   dEtot: -2.628e-08   |Residual|: 2.064e-04   |deigs|: 5.907e-05  t[s]:     68.98
	Linear fluid (dielectric constant: 7.2) occupying 0.989935 of unit cell:	Completed after 2 iterations at t[s]:     69.51
	Linear fluid (dielectric constant: 7.2) occupying 0.989929 of unit cell:	Completed after 2 iterations at t[s]:     70.38
SCF: Cycle: 28   Etot: -136.570792418201734   dEtot: -1.324e-05   |Residual|: 1.262e-04   |deigs|: 1.371e-05  t[s]:     70.57
	Linear fluid (dielectric constant: 7.2) occupying 0.989931 of unit cell:	Completed after 2 iterations at t[s]:     71.10
	Linear fluid (dielectric constant: 7.2) occupying 0.989923 of unit cell:	Completed after 2 iterations at t[s]:     71.94
SCF: Cycle: 29   Etot: -136.570795510550596   dEtot: -3.092e-06   |Residual|: 1.057e-04   |deigs|: 2.734e-05  t[s]:     72.13
	Linear fluid (dielectric constant: 7.2) occupying 0.989926 of unit cell:	Completed after 2 iterations at t[s]:     72.66
	Linear fluid (dielectric constant: 7.2) occupying 0.989895 of unit cell:	Completed after 2 iterations at t[s]:     73.52
SCF: Cycle: 30   Etot: -136.570778506481673   dEtot: +1.700e-05   |Residual|: 2.569e-04   |deigs|: 3.228e-05  t[s]:     73.71
	Linear fluid (dielectric constant: 7.2) occupying 0.989927 of unit cell:	Completed after 2 iterations at t[s]:     74.24
	Linear fluid (dielectric constant: 7.2) occupying 0.989894 of unit cell:	Completed after 2 iterations at t[s]:     75.07
SCF: Cycle: 31   Etot: -136.570774835725757   dEtot: +3.671e-06   |Residual|: 2.578e-04   |deigs|: 6.446e-06  t[s]:     75.26
	Linear fluid (dielectric constant: 7.2) occupying 0.989927 of unit cell:	Completed after 2 iterations at t[s]:     75.80
	Linear fluid (dielectric constant: 7.2) occupying 0.989891 of unit cell:	Completed after 2 iterations at t[s]:     76.63
SCF: Cycle: 32   Etot: -136.570769948050156   dEtot: +4.888e-06   |Residual|: 2.543e-04   |deigs|: 3.262e-06  t[s]:     76.83
	Linear fluid (dielectric constant: 7.2) occupying 0.989931 of unit cell:	Completed after 2 iterations at t[s]:     77.35
	Linear fluid (dielectric constant: 7.2) occupying 0.989886 of unit cell:	Completed after 3 iterations at t[s]:     78.24
SCF: Cycle: 33   Etot: -136.570749211265678   dEtot: +2.074e-05   |Residual|: 3.147e-04   |deigs|: 1.226e-05  t[s]:     78.43
	Linear fluid (dielectric constant: 7.2) occupying 0.989923 of unit cell:	Completed after 3 iterations at t[s]:     79.01
	Linear fluid (dielectric constant: 7.2) occupying 0.989892 of unit cell:	Completed after 2 iterations at t[s]:     79.87
SCF: Cycle: 34   Etot: -136.570773057747431   dEtot: -2.385e-05   |Residual|: 2.665e-04   |deigs|: 3.621e-05  t[s]:     80.06
	Linear fluid (dielectric constant: 7.2) occupying 0.989921 of unit cell:	Completed after 2 iterations at t[s]:     80.59
	Linear fluid (dielectric constant: 7.2) occupying 0.989891 of unit cell:	Completed after 2 iterations at t[s]:     81.42
SCF: Cycle: 35   Etot: -136.570774672044678   dEtot: -1.614e-06   |Residual|: 2.407e-04   |deigs|: 2.387e-05  t[s]:     81.62
	Linear fluid (dielectric constant: 7.2) occupying 0.989919 of unit cell:	Completed after 2 iterations at t[s]:     82.14
	Linear fluid (dielectric constant: 7.2) occupying 0.989892 of unit cell:	Completed after 2 iterations at t[s]:     82.97
SCF: Cycle: 36   Etot: -136.570778546317314   dEtot: -3.874e-06   |Residual|: 2.219e-04   |deigs|: 1.640e-05  t[s]:     83.16
	Linear fluid (dielectric constant: 7.2) occupying 0.989915 of unit cell:	Completed after 2 iterations at t[s]:     83.69
	Linear fluid (dielectric constant: 7.2) occupying 0.989892 of unit cell:	Completed after 2 iterations at t[s]:     84.53
SCF: Cycle: 37   Etot: -136.570786060070191   dEtot: -7.514e-06   |Residual|: 1.916e-04   |deigs|: 2.580e-05  t[s]:     84.73
	Linear fluid (dielectric constant: 7.2) occupying 0.989910 of unit cell:	Completed after 2 iterations at t[s]:     85.25
	Linear fluid (dielectric constant: 7.2) occupying 0.989892 of unit cell:	Completed after 2 iterations at t[s]:     86.08
SCF: Cycle: 38   Etot: -136.570793190840902   dEtot: -7.131e-06   |Residual|: 1.539e-04   |deigs|: 2.947e-05  t[s]:     86.27
	Linear fluid (dielectric constant: 7.2) occupying 0.989909 of unit cell:	Completed after 2 iterations at t[s]:     86.80
	Linear fluid (dielectric constant: 7.2) occupying 0.989892 of unit cell:	Completed after 2 iterations at t[s]:     87.63
SCF: Cycle: 39   Etot: -136.570793720861275   dEtot: -5.300e-07   |Residual|: 1.539e-04   |deigs|: 3.032e-06  t[s]:     87.82
	Linear fluid (dielectric constant: 7.2) occupying 0.989894 of unit cell:	Completed after 1 iterations at t[s]:     88.32
	Linear fluid (dielectric constant: 7.2) occupying 0.989906 of unit cell:	Completed after 1 iterations at t[s]:     89.12
SCF: Cycle: 40   Etot: -136.570811263324060   dEtot: -1.754e-05   |Residual|: 1.059e-04   |deigs|: 8.394e-05  t[s]:     89.31
	Linear fluid (dielectric constant: 7.2) occupying 0.989898 of unit cell:	Completed after 0 iterations at t[s]:     89.74
	Linear fluid (dielectric constant: 7.2) occupying 0.989904 of unit cell:	Completed after 0 iterations at t[s]:     90.46
SCF: Cycle: 41   Etot: -136.570812188850766   dEtot: -9.255e-07   |Residual|: 5.212e-05   |deigs|: 2.082e-05  t[s]:     90.65
	Linear fluid (dielectric constant: 7.2) occupying 0.989898 of unit cell:	Completed after 0 iterations at t[s]:     91.05
	Linear fluid (dielectric constant: 7.2) occupying 0.989895 of unit cell:	Completed after 1 iterations at t[s]:     91.83
SCF: Cycle: 42   Etot: -136.570811789395634   dEtot: +3.995e-07   |Residual|: 9.016e-05   |deigs|: 1.028e-05  t[s]:     92.02
	Linear fluid (dielectric constant: 7.2) occupying 0.989894 of unit cell:	Completed after 1 iterations at t[s]:     92.48
	Linear fluid (dielectric constant: 7.2) occupying 0.989894 of unit cell:	Completed after 1 iterations at t[s]:     93.28
SCF: Cycle: 43   Etot: -136.570813472351745   dEtot: -1.683e-06   |Residual|: 8.852e-05   |deigs|: 1.666e-05  t[s]:     93.47
	Linear fluid (dielectric constant: 7.2) occupying 0.989893 of unit cell:	Completed after 1 iterations at t[s]:     93.94
	Linear fluid (dielectric constant: 7.2) occupying 0.989894 of unit cell:	Completed after 1 iterations at t[s]:     94.70
SCF: Cycle: 44   Etot: -136.570814114497978   dEtot: -6.421e-07   |Residual|: 6.530e-05   |deigs|: 1.419e-05  t[s]:     94.91
	Linear fluid (dielectric constant: 7.2) occupying 0.989892 of unit cell:	Completed after 1 iterations at t[s]:     95.36
	Linear fluid (dielectric constant: 7.2) occupying 0.989892 of unit cell:	Completed after 1 iterations at t[s]:     96.17
SCF: Cycle: 45   Etot: -136.570814560423486   dEtot: -4.459e-07   |Residual|: 5.424e-05   |deigs|: 1.582e-05  t[s]:     96.36
	Linear fluid (dielectric constant: 7.2) occupying 0.989892 of unit cell:	Completed after 1 iterations at t[s]:     96.81
	Linear fluid (dielectric constant: 7.2) occupying 0.989886 of unit cell:	Completed after 1 iterations at t[s]:     97.62
SCF: Cycle: 46   Etot: -136.570814105606814   dEtot: +4.548e-07   |Residual|: 5.808e-05   |deigs|: 1.286e-05  t[s]:     97.82
	Linear fluid (dielectric constant: 7.2) occupying 0.989891 of unit cell:	Completed after 1 iterations at t[s]:     98.28
	Linear fluid (dielectric constant: 7.2) occupying 0.989883 of unit cell:	Completed after 1 iterations at t[s]:     99.08
SCF: Cycle: 47   Etot: -136.570814147641045   dEtot: -4.203e-08   |Residual|: 7.343e-05   |deigs|: 9.727e-06  t[s]:     99.27
	Linear fluid (dielectric constant: 7.2) occupying 0.989889 of unit cell:	Completed after 1 iterations at t[s]:     99.73
	Linear fluid (dielectric constant: 7.2) occupying 0.989887 of unit cell:	Completed after 1 iterations at t[s]:    100.53
SCF: Cycle: 48   Etot: -136.570815838433930   dEtot: -1.691e-06   |Residual|: 4.876e-05   |deigs|: 4.923e-06  t[s]:    100.73
	Linear fluid (dielectric constant: 7.2) occupying 0.989888 of unit cell:	Completed after 1 iterations at t[s]:    101.18
	Linear fluid (dielectric constant: 7.2) occupying 0.989887 of unit cell:	Completed after 1 iterations at t[s]:    101.96
SCF: Cycle: 49   Etot: -136.570816186924105   dEtot: -3.485e-07   |Residual|: 4.061e-05   |deigs|: 7.997e-06  t[s]:    102.15
	Linear fluid (dielectric constant: 7.2) occupying 0.989888 of unit cell:	Completed after 0 iterations at t[s]:    102.58
Setting wave functions to eigenvectors of Hamiltonian
Single-point solvation energy estimate, DeltaEtot = -0.040385557117787

# Ionic positions in cartesian coordinates:
ion S   4.960431645660000  13.981560468840000  25.265472781050001 1
ion S   7.075808635770003  13.274826015330000  28.544133544019999 1
ion S   8.239466575169999   9.479152131930000  28.544855420880001 1
ion S  10.355264975069996   8.766735260310000  25.266360954149999 1
ion Na   5.293454984100000   8.983135801530000  24.325194155759998 1
ion Na  10.011364350749997  13.762072108800000  24.311516290019998 1

# Forces in Cartesian coordinates:
force S  -0.001696992888583   0.002213384765870   0.004388671192389 1
force S  -0.001505573927496   0.000980919197177  -0.000010416585747 1
force S   0.001546577443472  -0.001201081663899   0.000627972925529 1
force S   0.002140927619525  -0.002722892492955   0.004239276831285 1
force Na  -0.005501428528758  -0.005391551056238  -0.004719480536334 1
force Na   0.005674139114976   0.005340536052011  -0.004648294874934 1

# Energy components:
   A_diel =       -0.0544905513188844
   Eewald =       95.1000625064078804
       EH =      208.1219274975534006
     Eloc =     -311.2853195631328731
      Enl =     -136.7006350507536183
      Exc =      -31.2329649641140001
 Exc_core =        7.0709167916623104
       KE =       32.4096496204500468
-------------------------------------
     Etot =     -136.5708537132457252

IonicMinimize: Iter:   0  Etot: -136.570853713245725  |grad|_K:  3.561e-03  alpha:  1.000e+00

#--- Lowdin population analysis ---
# oxidation-state S -0.625 -0.022 -0.023 -0.626
# oxidation-state Na +0.828 +0.828


-------- Electronic minimization -----------
Will mix electronic density at each iteration.
	Linear fluid (dielectric constant: 7.2) occupying 0.989882 of unit cell:	Completed after 4 iterations at t[s]:    103.78
	Linear fluid (dielectric constant: 7.2) occupying 0.989889 of unit cell:	Completed after 2 iterations at t[s]:    104.69
SCF: Cycle:  0   Etot: -136.571031749681708   dEtot: -2.292e-06   |Residual|: 8.305e-04   |deigs|: 3.194e-07  t[s]:    104.89
	Linear fluid (dielectric constant: 7.2) occupying 0.989889 of unit cell:	Completed after 2 iterations at t[s]:    105.42
	Linear fluid (dielectric constant: 7.2) occupying 0.989872 of unit cell:	Completed after 1 iterations at t[s]:    106.24
SCF: Cycle:  1   Etot: -136.571035650113288   dEtot: -3.900e-06   |Residual|: 5.112e-04   |deigs|: 5.568e-05  t[s]:    106.43
	Linear fluid (dielectric constant: 7.2) occupying 0.989890 of unit cell:	Completed after 2 iterations at t[s]:    106.93
	Linear fluid (dielectric constant: 7.2) occupying 0.989895 of unit cell:	Completed after 1 iterations at t[s]:    107.75
SCF: Cycle:  2   Etot: -136.571028571904208   dEtot: +7.078e-06   |Residual|: 1.659e-04   |deigs|: 5.708e-05  t[s]:    107.96
	Linear fluid (dielectric constant: 7.2) occupying 0.989891 of unit cell:	Completed after 1 iterations at t[s]:    108.41
	Linear fluid (dielectric constant: 7.2) occupying 0.989879 of unit cell:	Completed after 1 iterations at t[s]:    109.17
SCF: Cycle:  3   Etot: -136.571036458351898   dEtot: -7.886e-06   |Residual|: 1.084e-04   |deigs|: 1.384e-05  t[s]:    109.36
	Linear fluid (dielectric constant: 7.2) occupying 0.989887 of unit cell:	Completed after 0 iterations at t[s]:    109.78
	Linear fluid (dielectric constant: 7.2) occupying 0.989884 of unit cell:	Completed after 0 iterations at t[s]:    110.51
SCF: Cycle:  4   Etot: -136.571037499480639   dEtot: -1.041e-06   |Residual|: 5.925e-05   |deigs|: 2.807e-05  t[s]:    110.71
	Linear fluid (dielectric constant: 7.2) occupying 0.989885 of unit cell:	Completed after 0 iterations at t[s]:    121.72
	Linear fluid (dielectric constant: 7.2) occupying 0.989883 of unit cell:	Completed after 0 iterations at t[s]:    122.42
SCF: Cycle:  5   Etot: -136.571038056282475   dEtot: -5.568e-07   |Residual|: 3.630e-05   |deigs|: 7.714e-06  t[s]:    122.62
	Linear fluid (dielectric constant: 7.2) occupying 0.989883 of unit cell:	Completed after 0 iterations at t[s]:    123.01
	Linear fluid (dielectric constant: 7.2) occupying 0.989871 of unit cell:	Completed after 1 iterations at t[s]:    123.81
SCF: Cycle:  6   Etot: -136.571035274191161   dEtot: +2.782e-06   |Residual|: 6.864e-05   |deigs|: 9.501e-06  t[s]:    123.99
	Linear fluid (dielectric constant: 7.2) occupying 0.989883 of unit cell:	Completed after 0 iterations at t[s]:    124.42
	Linear fluid (dielectric constant: 7.2) occupying 0.989871 of unit cell:	Completed after 0 iterations at t[s]:    125.15
SCF: Cycle:  7   Etot: -136.571035605943763   dEtot: -3.318e-07   |Residual|: 5.916e-05   |deigs|: 2.247e-05  t[s]:    125.36
	Linear fluid (dielectric constant: 7.2) occupying 0.989883 of unit cell:	Completed after 0 iterations at t[s]:    125.75
	Linear fluid (dielectric constant: 7.2) occupying 0.989872 of unit cell:	Completed after 0 iterations at t[s]:    129.78
SCF: Cycle:  8   Etot: -136.571035810764130   dEtot: -2.048e-07   |Residual|: 5.869e-05   |deigs|: 2.244e-06  t[s]:    129.97
	Linear fluid (dielectric constant: 7.2) occupying 0.989883 of unit cell:	Completed after 0 iterations at t[s]:    130.37
	Linear fluid (dielectric constant: 7.2) occupying 0.989872 of unit cell:	Completed after 0 iterations at t[s]:    131.09
SCF: Cycle:  9   Etot: -136.571035850551766   dEtot: -3.979e-08   |Residual|: 6.026e-05   |deigs|: 2.642e-06  t[s]:    131.29
	Linear fluid (dielectric constant: 7.2) occupying 0.989882 of unit cell:	Completed after 0 iterations at t[s]:    131.68
	Linear fluid (dielectric constant: 7.2) occupying 0.989872 of unit cell:	Completed after 0 iterations at t[s]:    132.40
SCF: Cycle: 10   Etot: -136.571036252288422   dEtot: -4.017e-07   |Residual|: 5.261e-05   |deigs|: 2.255e-06  t[s]:    132.59
	Linear fluid (dielectric constant: 7.2) occupying 0.989880 of unit cell:	Completed after 0 iterations at t[s]:    132.99
	Linear fluid (dielectric constant: 7.2) occupying 0.989873 of unit cell:	Completed after 0 iterations at t[s]:    133.71
SCF: Cycle: 11   Etot: -136.571037021907671   dEtot: -7.696e-07   |Residual|: 4.216e-05   |deigs|: 5.698e-06  t[s]:    133.91
	Linear fluid (dielectric constant: 7.2) occupying 0.989879 of unit cell:	Completed after 0 iterations at t[s]:    134.31
	Linear fluid (dielectric constant: 7.2) occupying 0.989873 of unit cell:	Completed after 0 iterations at t[s]:    135.02
SCF: Cycle: 12   Etot: -136.571037283728970   dEtot: -2.618e-07   |Residual|: 3.807e-05   |deigs|: 2.437e-06  t[s]:    135.22
	Linear fluid (dielectric constant: 7.2) occupying 0.989877 of unit cell:	Completed after 0 iterations at t[s]:    135.62
	Linear fluid (dielectric constant: 7.2) occupying 0.989874 of unit cell:	Completed after 0 iterations at t[s]:    136.34
SCF: Cycle: 13   Etot: -136.571037909683582   dEtot: -6.260e-07   |Residual|: 3.266e-05   |deigs|: 2.425e-06  t[s]:    136.53
	Linear fluid (dielectric constant: 7.2) occupying 0.989875 of unit cell:	Completed after 0 iterations at t[s]:    136.93
	Linear fluid (dielectric constant: 7.2) occupying 0.989875 of unit cell:	Completed after 0 iterations at t[s]:    137.64
SCF: Cycle: 14   Etot: -136.571038224539734   dEtot: -3.149e-07   |Residual|: 2.839e-05   |deigs|: 2.984e-06  t[s]:    137.84
	Linear fluid (dielectric constant: 7.2) occupying 0.989874 of unit cell:	Completed after 0 iterations at t[s]:    138.20
	Linear fluid (dielectric constant: 7.2) occupying 0.989875 of unit cell:	Completed after 0 iterations at t[s]:    138.88
SCF: Cycle: 15   Etot: -136.571038448844206   dEtot: -2.243e-07   |Residual|: 2.161e-05   |deigs|: 8.937e-06  t[s]:    139.07
	Linear fluid (dielectric constant: 7.2) occupying 0.989874 of unit cell:	Completed after 0 iterations at t[s]:    139.44
	Linear fluid (dielectric constant: 7.2) occupying 0.989876 of unit cell:	Completed after 0 iterations at t[s]:    140.16
SCF: Cycle: 16   Etot: -136.571038460775071   dEtot: -1.193e-08   |Residual|: 2.361e-05   |deigs|: 7.058e-06  t[s]:    140.35
	Linear fluid (dielectric constant: 7.2) occupying 0.989874 of unit cell:	Completed after 0 iterations at t[s]:    140.75
	Linear fluid (dielectric constant: 7.2) occupying 0.989875 of unit cell:	Completed after 0 iterations at t[s]:    141.51
SCF: Cycle: 17   Etot: -136.571038471555994   dEtot: -1.078e-08   |Residual|: 2.091e-05   |deigs|: 2.592e-06  t[s]:    141.71
	Linear fluid (dielectric constant: 7.2) occupying 0.989874 of unit cell:	Completed after 0 iterations at t[s]:    142.10
	Linear fluid (dielectric constant: 7.2) occupying 0.989874 of unit cell:	Completed after 0 iterations at t[s]:    142.81
SCF: Cycle: 18   Etot: -136.571038448169162   dEtot: +2.339e-08   |Residual|: 1.804e-05   |deigs|: 3.055e-06  t[s]:    143.00
	Linear fluid (dielectric constant: 7.2) occupying 0.989874 of unit cell:	Completed after 0 iterations at t[s]:    143.33
	Linear fluid (dielectric constant: 7.2) occupying 0.989875 of unit cell:	Completed after 0 iterations at t[s]:    144.01
SCF: Cycle: 19   Etot: -136.571038480068694   dEtot: -3.190e-08   |Residual|: 1.198e-05   |deigs|: 2.715e-07  t[s]:    144.20
	Linear fluid (dielectric constant: 7.2) occupying 0.989874 of unit cell:	Completed after 0 iterations at t[s]:    144.53
	Linear fluid (dielectric constant: 7.2) occupying 0.989875 of unit cell:	Completed after 0 iterations at t[s]:    145.23
SCF: Cycle: 20   Etot: -136.571038487229856   dEtot: -7.161e-09   |Residual|: 8.585e-06   |deigs|: 1.859e-07  t[s]:    145.42
	Linear fluid (dielectric constant: 7.2) occupying 0.989874 of unit cell:	Completed after 0 iterations at t[s]:    145.75
	Linear fluid (dielectric constant: 7.2) occupying 0.989874 of unit cell:	Completed after 0 iterations at t[s]:    146.48
SCF: Cycle: 21   Etot: -136.571038495940854   dEtot: -8.711e-09   |Residual|: 7.281e-06   |deigs|: 1.616e-07  t[s]:    146.67
SCF: Converged (|Delta E|<1.000000e-08 for 2 iters).

Setting wave functions to eigenvectors of Hamiltonian

-------- Electronic minimization -----------
Will mix electronic density at each iteration.
	Linear fluid (dielectric constant: 7.2) occupying 0.989867 of unit cell:	Completed after 4 iterations at t[s]:    147.34
	Linear fluid (dielectric constant: 7.2) occupying 0.989860 of unit cell:	Completed after 2 iterations at t[s]:    148.29
SCF: Cycle:  0   Etot: -136.571365581591067   dEtot: -1.648e-05   |Residual|: 1.524e-03   |deigs|: 7.689e-07  t[s]:    148.48
	Linear fluid (dielectric constant: 7.2) occupying 0.989875 of unit cell:	Completed after 2 iterations at t[s]:    149.00
	Linear fluid (dielectric constant: 7.2) occupying 0.989859 of unit cell:	Completed after 2 iterations at t[s]:    149.83
SCF: Cycle:  1   Etot: -136.571368758601977   dEtot: -3.177e-06   |Residual|: 8.464e-04   |deigs|: 9.606e-05  t[s]:    150.03
	Linear fluid (dielectric constant: 7.2) occupying 0.989881 of unit cell:	Completed after 2 iterations at t[s]:    150.54
	Linear fluid (dielectric constant: 7.2) occupying 0.989861 of unit cell:	Completed after 2 iterations at t[s]:    151.37
SCF: Cycle:  2   Etot: -136.571370656020235   dEtot: -1.897e-06   |Residual|: 2.354e-04   |deigs|: 9.566e-05  t[s]:    151.57
	Linear fluid (dielectric constant: 7.2) occupying 0.989875 of unit cell:	Completed after 1 iterations at t[s]:    152.05
	Linear fluid (dielectric constant: 7.2) occupying 0.989862 of unit cell:	Completed after 1 iterations at t[s]:    152.82
SCF: Cycle:  3   Etot: -136.571370924145754   dEtot: -2.681e-07   |Residual|: 1.449e-04   |deigs|: 5.966e-05  t[s]:    153.02
	Linear fluid (dielectric constant: 7.2) occupying 0.989869 of unit cell:	Completed after 0 iterations at t[s]:    153.44
	Linear fluid (dielectric constant: 7.2) occupying 0.989863 of unit cell:	Completed after 0 iterations at t[s]:    154.16
SCF: Cycle:  4   Etot: -136.571371060891181   dEtot: -1.367e-07   |Residual|: 5.466e-05   |deigs|: 4.175e-05  t[s]:    154.35
	Linear fluid (dielectric constant: 7.2) occupying 0.989866 of unit cell:	Completed after 0 iterations at t[s]:    154.75
	Linear fluid (dielectric constant: 7.2) occupying 0.989863 of unit cell:	Completed after 0 iterations at t[s]:    155.47
SCF: Cycle:  5   Etot: -136.571371099381992   dEtot: -3.849e-08   |Residual|: 4.000e-05   |deigs|: 6.391e-06  t[s]:    155.66
	Linear fluid (dielectric constant: 7.2) occupying 0.989861 of unit cell:	Completed after 0 iterations at t[s]:    156.05
	Linear fluid (dielectric constant: 7.2) occupying 0.989863 of unit cell:	Completed after 0 iterations at t[s]:    156.78
SCF: Cycle:  6   Etot: -136.571371112829041   dEtot: -1.345e-08   |Residual|: 2.250e-05   |deigs|: 1.092e-05  t[s]:    156.98
	Linear fluid (dielectric constant: 7.2) occupying 0.989860 of unit cell:	Completed after 0 iterations at t[s]:    157.36
	Linear fluid (dielectric constant: 7.2) occupying 0.989863 of unit cell:	Completed after 0 iterations at t[s]:    158.12
SCF: Cycle:  7   Etot: -136.571371128583934   dEtot: -1.575e-08   |Residual|: 2.037e-05   |deigs|: 6.370e-06  t[s]:    158.31
	Linear fluid (dielectric constant: 7.2) occupying 0.989859 of unit cell:	Completed after 0 iterations at t[s]:    158.70
	Linear fluid (dielectric constant: 7.2) occupying 0.989863 of unit cell:	Completed after 0 iterations at t[s]:    159.43
SCF: Cycle:  8   Etot: -136.571371140285066   dEtot: -1.170e-08   |Residual|: 1.355e-05   |deigs|: 5.851e-06  t[s]:    159.63
	Linear fluid (dielectric constant: 7.2) occupying 0.989859 of unit cell:	Completed after 0 iterations at t[s]:    160.02
	Linear fluid (dielectric constant: 7.2) occupying 0.989863 of unit cell:	Completed after 0 iterations at t[s]:    160.77
SCF: Cycle:  9   Etot: -136.571371155443387   dEtot: -1.516e-08   |Residual|: 1.613e-05   |deigs|: 6.280e-06  t[s]:    160.96
	Linear fluid (dielectric constant: 7.2) occupying 0.989859 of unit cell:	Completed after 0 iterations at t[s]:    161.36
	Linear fluid (dielectric constant: 7.2) occupying 0.989863 of unit cell:	Completed after 0 iterations at t[s]:    162.08
SCF: Cycle: 10   Etot: -136.571371161434740   dEtot: -5.991e-09   |Residual|: 1.120e-05   |deigs|: 2.983e-06  t[s]:    162.28
	Linear fluid (dielectric constant: 7.2) occupying 0.989860 of unit cell:	Completed after 0 iterations at t[s]:    162.64
	Linear fluid (dielectric constant: 7.2) occupying 0.989862 of unit cell:	Completed after 0 iterations at t[s]:    163.37
SCF: Cycle: 11   Etot: -136.571371172139948   dEtot: -1.071e-08   |Residual|: 8.841e-06   |deigs|: 8.596e-06  t[s]:    163.56
	Linear fluid (dielectric constant: 7.2) occupying 0.989860 of unit cell:	Completed after 0 iterations at t[s]:    163.89
	Linear fluid (dielectric constant: 7.2) occupying 0.989862 of unit cell:	Completed after 0 iterations at t[s]:    164.57
SCF: Cycle: 12   Etot: -136.571371177449123   dEtot: -5.309e-09   |Residual|: 7.598e-06   |deigs|: 1.019e-07  t[s]:    164.76
	Linear fluid (dielectric constant: 7.2) occupying 0.989861 of unit cell:	Completed after 0 iterations at t[s]:    165.10
	Linear fluid (dielectric constant: 7.2) occupying 0.989862 of unit cell:	Completed after 0 iterations at t[s]:    165.82
SCF: Cycle: 13   Etot: -136.571371185687525   dEtot: -8.238e-09   |Residual|: 6.227e-06   |deigs|: 2.569e-07  t[s]:    166.01
SCF: Converged (|Delta E|<1.000000e-08 for 2 iters).

Setting wave functions to eigenvectors of Hamiltonian

# Ionic positions in cartesian coordinates:
ion S   4.955685881683410  13.987716611120961  25.277054922829592 1
ion S   7.071565710658313  13.277744591258758  28.544159713014093 1
ion S   8.243241352809186   9.476338805282538  28.546558576602010 1
ion S  10.360601052416289   8.759924285647273  25.277550651573328 1
ion Na   5.278715340269378   8.969314522166293  24.312850074919886 1
ion Na  10.025981828683417  13.776442971264180  24.299359206941091 1

# Forces in Cartesian coordinates:
force S  -0.001697676103590   0.001750690386666   0.003387084437486 1
force S  -0.000545349532229   0.000364982206248   0.000528228872602 1
force S   0.000750346405239  -0.000616683468123   0.000872771941340 1
force S   0.001947671955828  -0.002207992123426   0.003431791173419 1
force Na  -0.004807585582283  -0.004757027445696  -0.004051607627870 1
force Na   0.004999714091035   0.004721965567286  -0.004044604609239 1

# Energy components:
   A_diel =       -0.0554789501622452
   Eewald =       94.6774083340592938
       EH =      207.6983039162508931
     Eloc =     -310.4386908145249322
      Enl =     -136.6983821628392093
      Exc =      -31.2310277640596432
 Exc_core =        7.0709169278462172
       KE =       32.4055793277420960
-------------------------------------
     Etot =     -136.5713711856875250

IonicMinimize: Iter:   1  Etot: -136.571371185687525  |grad|_K:  3.036e-03  alpha:  2.627e+00  linmin: -9.934e-01  t[s]:    166.36

#--- Lowdin population analysis ---
# oxidation-state S -0.623 -0.023 -0.025 -0.625
# oxidation-state Na +0.829 +0.830


-------- Electronic minimization -----------
Will mix electronic density at each iteration.
	Linear fluid (dielectric constant: 7.2) occupying 0.989861 of unit cell:	Completed after 6 iterations at t[s]:    167.05
	Linear fluid (dielectric constant: 7.2) occupying 0.989588 of unit cell:	Completed after 7 iterations at t[s]:    168.21
SCF: Cycle:  0   Etot: -136.563720780900240   dEtot: -5.053e-02   |Residual|: 1.090e-01   |deigs|: 2.985e-03  t[s]:    168.40
	Linear fluid (dielectric constant: 7.2) occupying 0.990089 of unit cell:	Completed after 10 iterations at t[s]:    169.23
	Linear fluid (dielectric constant: 7.2) occupying 0.989562 of unit cell:	Completed after 9 iterations at t[s]:    170.50
SCF: Cycle:  1   Etot: -136.567739638077455   dEtot: -4.019e-03   |Residual|: 5.400e-02   |deigs|: 4.420e-03  t[s]:    170.78
	Linear fluid (dielectric constant: 7.2) occupying 0.990078 of unit cell:	Completed after 11 iterations at t[s]:    171.81
	Linear fluid (dielectric constant: 7.2) occupying 0.989883 of unit cell:	Completed after 9 iterations at t[s]:    173.20
SCF: Cycle:  2   Etot: -136.571144184992050   dEtot: -3.405e-03   |Residual|: 9.896e-03   |deigs|: 3.923e-03  t[s]:    173.48
	Linear fluid (dielectric constant: 7.2) occupying 0.990066 of unit cell:	Completed after 10 iterations at t[s]:    174.44
	Linear fluid (dielectric constant: 7.2) occupying 0.989658 of unit cell:	Completed after 8 iterations at t[s]:    175.73
SCF: Cycle:  3   Etot: -136.570994368613469   dEtot: +1.498e-04   |Residual|: 7.403e-03   |deigs|: 6.155e-04  t[s]:    176.00
	Linear fluid (dielectric constant: 7.2) occupying 0.989951 of unit cell:	Completed after 9 iterations at t[s]:    176.90
	Linear fluid (dielectric constant: 7.2) occupying 0.989965 of unit cell:	Completed after 8 iterations at t[s]:    178.21
SCF: Cycle:  4   Etot: -136.571318298015797   dEtot: -3.239e-04   |Residual|: 3.486e-03   |deigs|: 2.429e-03  t[s]:    178.47
	Linear fluid (dielectric constant: 7.2) occupying 0.989883 of unit cell:	Completed after 7 iterations at t[s]:    179.24
	Linear fluid (dielectric constant: 7.2) occupying 0.989891 of unit cell:	Completed after 6 iterations at t[s]:    180.42
SCF: Cycle:  5   Etot: -136.571839909693438   dEtot: -5.216e-04   |Residual|: 2.217e-03   |deigs|: 2.286e-03  t[s]:    180.68
	Linear fluid (dielectric constant: 7.2) occupying 0.989865 of unit cell:	Completed after 6 iterations at t[s]:    181.36
	Linear fluid (dielectric constant: 7.2) occupying 0.989717 of unit cell:	Completed after 6 iterations at t[s]:    182.50
SCF: Cycle:  6   Etot: -136.571565486395428   dEtot: +2.744e-04   |Residual|: 2.211e-03   |deigs|: 4.556e-04  t[s]:    182.76
	Linear fluid (dielectric constant: 7.2) occupying 0.989765 of unit cell:	Completed after 6 iterations at t[s]:    183.46
	Linear fluid (dielectric constant: 7.2) occupying 0.989930 of unit cell:	Completed after 6 iterations at t[s]:    184.67
SCF: Cycle:  7   Etot: -136.571704995503239   dEtot: -1.395e-04   |Residual|: 1.389e-03   |deigs|: 9.883e-04  t[s]:    184.88
	Linear fluid (dielectric constant: 7.2) occupying 0.989680 of unit cell:	Completed after 4 iterations at t[s]:    185.49
	Linear fluid (dielectric constant: 7.2) occupying 0.989924 of unit cell:	Completed after 5 iterations at t[s]:    186.54
SCF: Cycle:  8   Etot: -136.571872270276288   dEtot: -1.673e-04   |Residual|: 1.658e-03   |deigs|: 1.202e-03  t[s]:    186.78
	Linear fluid (dielectric constant: 7.2) occupying 0.989661 of unit cell:	Completed after 4 iterations at t[s]:    187.38
	Linear fluid (dielectric constant: 7.2) occupying 0.989884 of unit cell:	Completed after 4 iterations at t[s]:    188.39
SCF: Cycle:  9   Etot: -136.572027811804730   dEtot: -1.555e-04   |Residual|: 1.276e-03   |deigs|: 4.053e-04  t[s]:    188.59
	Linear fluid (dielectric constant: 7.2) occupying 0.989654 of unit cell:	Completed after 4 iterations at t[s]:    189.22
	Linear fluid (dielectric constant: 7.2) occupying 0.989882 of unit cell:	Completed after 4 iterations at t[s]:    190.24
SCF: Cycle: 10   Etot: -136.572029288179777   dEtot: -1.476e-06   |Residual|: 6.487e-04   |deigs|: 4.724e-04  t[s]:    190.44
	Linear fluid (dielectric constant: 7.2) occupying 0.989684 of unit cell:	Completed after 4 iterations at t[s]:    191.05
	Linear fluid (dielectric constant: 7.2) occupying 0.989764 of unit cell:	Completed after 4 iterations at t[s]:    192.06
SCF: Cycle: 11   Etot: -136.571831203187116   dEtot: +1.981e-04   |Residual|: 1.116e-03   |deigs|: 4.826e-05  t[s]:    192.25
	Linear fluid (dielectric constant: 7.2) occupying 0.989686 of unit cell:	Completed after 4 iterations at t[s]:    192.86
	Linear fluid (dielectric constant: 7.2) occupying 0.989864 of unit cell:	Completed after 4 iterations at t[s]:    193.86
SCF: Cycle: 12   Etot: -136.572034809781428   dEtot: -2.036e-04   |Residual|: 4.340e-04   |deigs|: 1.729e-04  t[s]:    194.05
	Linear fluid (dielectric constant: 7.2) occupying 0.989721 of unit cell:	Completed after 4 iterations at t[s]:    194.66
	Linear fluid (dielectric constant: 7.2) occupying 0.989861 of unit cell:	Completed after 4 iterations at t[s]:    195.66
SCF: Cycle: 13   Etot: -136.572051895056575   dEtot: -1.709e-05   |Residual|: 4.684e-04   |deigs|: 1.261e-04  t[s]:    195.86
	Linear fluid (dielectric constant: 7.2) occupying 0.989761 of unit cell:	Completed after 4 iterations at t[s]:    196.47
	Linear fluid (dielectric constant: 7.2) occupying 0.989859 of unit cell:	Completed after 4 iterations at t[s]:    197.43
SCF: Cycle: 14   Etot: -136.572060477020841   dEtot: -8.582e-06   |Residual|: 4.629e-04   |deigs|: 7.197e-05  t[s]:    197.62
	Linear fluid (dielectric constant: 7.2) occupying 0.989816 of unit cell:	Completed after 3 iterations at t[s]:    198.19
	Linear fluid (dielectric constant: 7.2) occupying 0.989792 of unit cell:	Completed after 4 iterations at t[s]:    199.19
SCF: Cycle: 15   Etot: -136.571997634701006   dEtot: +6.284e-05   |Residual|: 4.761e-04   |deigs|: 9.674e-05  t[s]:    199.38
	Linear fluid (dielectric constant: 7.2) occupying 0.989837 of unit cell:	Completed after 3 iterations at t[s]:    199.96
	Linear fluid (dielectric constant: 7.2) occupying 0.989799 of unit cell:	Completed after 3 iterations at t[s]:    200.91
SCF: Cycle: 16   Etot: -136.572030384827599   dEtot: -3.275e-05   |Residual|: 4.094e-04   |deigs|: 5.235e-05  t[s]:    201.11
	Linear fluid (dielectric constant: 7.2) occupying 0.989844 of unit cell:	Completed after 3 iterations at t[s]:    201.68
	Linear fluid (dielectric constant: 7.2) occupying 0.989806 of unit cell:	Completed after 3 iterations at t[s]:    202.61
SCF: Cycle: 17   Etot: -136.572046364075590   dEtot: -1.598e-05   |Residual|: 2.591e-04   |deigs|: 4.228e-05  t[s]:    202.80
	Linear fluid (dielectric constant: 7.2) occupying 0.989841 of unit cell:	Completed after 3 iterations at t[s]:    203.38
	Linear fluid (dielectric constant: 7.2) occupying 0.989815 of unit cell:	Completed after 3 iterations at t[s]:    204.30
SCF: Cycle: 18   Etot: -136.572067177616958   dEtot: -2.081e-05   |Residual|: 1.528e-04   |deigs|: 3.168e-05  t[s]:    204.50
	Linear fluid (dielectric constant: 7.2) occupying 0.989838 of unit cell:	Completed after 2 iterations at t[s]:    205.04
	Linear fluid (dielectric constant: 7.2) occupying 0.989824 of unit cell:	Completed after 2 iterations at t[s]:    205.92
SCF: Cycle: 19   Etot: -136.572073346800664   dEtot: -6.169e-06   |Residual|: 1.104e-04   |deigs|: 5.514e-05  t[s]:    206.12
	Linear fluid (dielectric constant: 7.2) occupying 0.989835 of unit cell:	Completed after 2 iterations at t[s]:    206.65
	Linear fluid (dielectric constant: 7.2) occupying 0.989825 of unit cell:	Completed after 2 iterations at t[s]:    207.53
SCF: Cycle: 20   Etot: -136.572076027471326   dEtot: -2.681e-06   |Residual|: 8.435e-05   |deigs|: 4.014e-05  t[s]:    207.72
	Linear fluid (dielectric constant: 7.2) occupying 0.989827 of unit cell:	Completed after 1 iterations at t[s]:    208.21
	Linear fluid (dielectric constant: 7.2) occupying 0.989829 of unit cell:	Completed after 1 iterations at t[s]:    208.98
SCF: Cycle: 21   Etot: -136.572077460129321   dEtot: -1.433e-06   |Residual|: 8.405e-05   |deigs|: 4.944e-05  t[s]:    209.17
	Linear fluid (dielectric constant: 7.2) occupying 0.989824 of unit cell:	Completed after 1 iterations at t[s]:    209.63
	Linear fluid (dielectric constant: 7.2) occupying 0.989829 of unit cell:	Completed after 1 iterations at t[s]:    210.40
SCF: Cycle: 22   Etot: -136.572077955516050   dEtot: -4.954e-07   |Residual|: 5.828e-05   |deigs|: 1.727e-05  t[s]:    210.59
	Linear fluid (dielectric constant: 7.2) occupying 0.989823 of unit cell:	Completed after 1 iterations at t[s]:    211.06
	Linear fluid (dielectric constant: 7.2) occupying 0.989833 of unit cell:	Completed after 0 iterations at t[s]:    211.81
SCF: Cycle: 23   Etot: -136.572077734491245   dEtot: +2.210e-07   |Residual|: 5.560e-05   |deigs|: 1.939e-05  t[s]:    212.01
	Linear fluid (dielectric constant: 7.2) occupying 0.989825 of unit cell:	Completed after 0 iterations at t[s]:    212.41
	Linear fluid (dielectric constant: 7.2) occupying 0.989829 of unit cell:	Completed after 0 iterations at t[s]:    213.15
SCF: Cycle: 24   Etot: -136.572076982647644   dEtot: +7.518e-07   |Residual|: 4.738e-05   |deigs|: 2.897e-05  t[s]:    213.34
	Linear fluid (dielectric constant: 7.2) occupying 0.989825 of unit cell:	Completed after 1 iterations at t[s]:    213.77
	Linear fluid (dielectric constant: 7.2) occupying 0.989826 of unit cell:	Completed after 1 iterations at t[s]:    214.55
SCF: Cycle: 25   Etot: -136.572078156856605   dEtot: -1.174e-06   |Residual|: 5.777e-05   |deigs|: 7.876e-06  t[s]:    214.74
	Linear fluid (dielectric constant: 7.2) occupying 0.989826 of unit cell:	Completed after 1 iterations at t[s]:    215.20
	Linear fluid (dielectric constant: 7.2) occupying 0.989828 of unit cell:	Completed after 1 iterations at t[s]:    215.96
SCF: Cycle: 26   Etot: -136.572078258210922   dEtot: -1.014e-07   |Residual|: 3.983e-05   |deigs|: 8.941e-06  t[s]:    216.16
	Linear fluid (dielectric constant: 7.2) occupying 0.989829 of unit cell:	Completed after 0 iterations at t[s]:    216.58
	Linear fluid (dielectric constant: 7.2) occupying 0.989827 of unit cell:	Completed after 0 iterations at t[s]:    217.32
SCF: Cycle: 27   Etot: -136.572078322602266   dEtot: -6.439e-08   |Residual|: 3.401e-05   |deigs|: 4.610e-06  t[s]:    217.51
	Linear fluid (dielectric constant: 7.2) occupying 0.989830 of unit cell:	Completed after 0 iterations at t[s]:    217.91
	Linear fluid (dielectric constant: 7.2) occupying 0.989824 of unit cell:	Completed after 0 iterations at t[s]:    218.65
SCF: Cycle: 28   Etot: -136.572078300381918   dEtot: +2.222e-08   |Residual|: 3.186e-05   |deigs|: 1.151e-05  t[s]:    218.85
	Linear fluid (dielectric constant: 7.2) occupying 0.989829 of unit cell:	Completed after 0 iterations at t[s]:    219.25
	Linear fluid (dielectric constant: 7.2) occupying 0.989824 of unit cell:	Completed after 0 iterations at t[s]:    219.99
SCF: Cycle: 29   Etot: -136.572078442641669   dEtot: -1.423e-07   |Residual|: 2.772e-05   |deigs|: 1.702e-05  t[s]:    220.19
	Linear fluid (dielectric constant: 7.2) occupying 0.989827 of unit cell:	Completed after 0 iterations at t[s]:    220.58
	Linear fluid (dielectric constant: 7.2) occupying 0.989825 of unit cell:	Completed after 0 iterations at t[s]:    221.29
SCF: Cycle: 30   Etot: -136.572078517686123   dEtot: -7.504e-08   |Residual|: 2.281e-05   |deigs|: 1.573e-05  t[s]:    221.50
	Linear fluid (dielectric constant: 7.2) occupying 0.989825 of unit cell:	Completed after 0 iterations at t[s]:    221.85
	Linear fluid (dielectric constant: 7.2) occupying 0.989826 of unit cell:	Completed after 0 iterations at t[s]:    222.56
SCF: Cycle: 31   Etot: -136.572078398762358   dEtot: +1.189e-07   |Residual|: 2.042e-05   |deigs|: 1.302e-05  t[s]:    222.75
	Linear fluid (dielectric constant: 7.2) occupying 0.989825 of unit cell:	Completed after 0 iterations at t[s]:    223.08
	Linear fluid (dielectric constant: 7.2) occupying 0.989825 of unit cell:	Completed after 0 iterations at t[s]:    223.77
SCF: Cycle: 32   Etot: -136.572078509302685   dEtot: -1.105e-07   |Residual|: 1.664e-05   |deigs|: 5.256e-07  t[s]:    223.97
	Linear fluid (dielectric constant: 7.2) occupying 0.989824 of unit cell:	Completed after 0 iterations at t[s]:    224.33
	Linear fluid (dielectric constant: 7.2) occupying 0.989825 of unit cell:	Completed after 0 iterations at t[s]:    225.04
SCF: Cycle: 33   Etot: -136.572078508691362   dEtot: +6.113e-10   |Residual|: 1.551e-05   |deigs|: 9.638e-06  t[s]:    225.23
	Linear fluid (dielectric constant: 7.2) occupying 0.989825 of unit cell:	Completed after 0 iterations at t[s]:    225.63
	Linear fluid (dielectric constant: 7.2) occupying 0.989825 of unit cell:	Completed after 0 iterations at t[s]:    226.34
SCF: Cycle: 34   Etot: -136.572078538943373   dEtot: -3.025e-08   |Residual|: 1.570e-05   |deigs|: 1.815e-06  t[s]:    226.55
	Linear fluid (dielectric constant: 7.2) occupying 0.989826 of unit cell:	Completed after 0 iterations at t[s]:    226.88
	Linear fluid (dielectric constant: 7.2) occupying 0.989825 of unit cell:	Completed after 0 iterations at t[s]:    227.61
SCF: Cycle: 35   Etot: -136.572078547941771   dEtot: -8.998e-09   |Residual|: 1.387e-05   |deigs|: 1.632e-07  t[s]:    227.81
	Linear fluid (dielectric constant: 7.2) occupying 0.989826 of unit cell:	Completed after 0 iterations at t[s]:    228.17
	Linear fluid (dielectric constant: 7.2) occupying 0.989827 of unit cell:	Completed after 0 iterations at t[s]:    228.90
SCF: Cycle: 36   Etot: -136.572078388411512   dEtot: +1.595e-07   |Residual|: 1.628e-05   |deigs|: 1.515e-05  t[s]:    229.10
	Linear fluid (dielectric constant: 7.2) occupying 0.989827 of unit cell:	Completed after 0 iterations at t[s]:    229.44
	Linear fluid (dielectric constant: 7.2) occupying 0.989826 of unit cell:	Completed after 0 iterations at t[s]:    230.13
SCF: Cycle: 37   Etot: -136.572078541885503   dEtot: -1.535e-07   |Residual|: 1.437e-05   |deigs|: 3.114e-07  t[s]:    230.33
	Linear fluid (dielectric constant: 7.2) occupying 0.989827 of unit cell:	Completed after 0 iterations at t[s]:    230.66
	Linear fluid (dielectric constant: 7.2) occupying 0.989825 of unit cell:	Completed after 0 iterations at t[s]:    231.37
SCF: Cycle: 38   Etot: -136.572078558962403   dEtot: -1.708e-08   |Residual|: 1.069e-05   |deigs|: 2.229e-07  t[s]:    231.56
	Linear fluid (dielectric constant: 7.2) occupying 0.989826 of unit cell:	Completed after 0 iterations at t[s]:    231.92
	Linear fluid (dielectric constant: 7.2) occupying 0.989824 of unit cell:	Completed after 0 iterations at t[s]:    232.64
SCF: Cycle: 39   Etot: -136.572078540123215   dEtot: +1.884e-08   |Residual|: 1.430e-05   |deigs|: 4.786e-06  t[s]:    232.84
	Linear fluid (dielectric constant: 7.2) occupying 0.989826 of unit cell:	Completed after 0 iterations at t[s]:    233.17
	Linear fluid (dielectric constant: 7.2) occupying 0.989824 of unit cell:	Completed after 0 iterations at t[s]:    233.86
SCF: Cycle: 40   Etot: -136.572078546367493   dEtot: -6.244e-09   |Residual|: 1.187e-05   |deigs|: 1.370e-07  t[s]:    234.06
	Linear fluid (dielectric constant: 7.2) occupying 0.989825 of unit cell:	Completed after 0 iterations at t[s]:    234.39
	Linear fluid (dielectric constant: 7.2) occupying 0.989825 of unit cell:	Completed after 0 iterations at t[s]:    235.10
SCF: Cycle: 41   Etot: -136.572078574753959   dEtot: -2.839e-08   |Residual|: 6.856e-06   |deigs|: 3.856e-07  t[s]:    235.29
	Linear fluid (dielectric constant: 7.2) occupying 0.989825 of unit cell:	Completed after 0 iterations at t[s]:    235.62
	Linear fluid (dielectric constant: 7.2) occupying 0.989825 of unit cell:	Completed after 0 iterations at t[s]:    236.34
SCF: Cycle: 42   Etot: -136.572078570548285   dEtot: +4.206e-09   |Residual|: 6.987e-06   |deigs|: 1.989e-07  t[s]:    236.53
	Linear fluid (dielectric constant: 7.2) occupying 0.989825 of unit cell:	Completed after 0 iterations at t[s]:    236.89
	Linear fluid (dielectric constant: 7.2) occupying 0.989825 of unit cell:	Completed after 0 iterations at t[s]:    237.62
SCF: Cycle: 43   Etot: -136.572078567137993   dEtot: +3.410e-09   |Residual|: 4.900e-06   |deigs|: 1.226e-05  t[s]:    237.81
	Linear fluid (dielectric constant: 7.2) occupying 0.989825 of unit cell:	Completed after 0 iterations at t[s]:    238.14
	Linear fluid (dielectric constant: 7.2) occupying 0.989825 of unit cell:	Completed after 0 iterations at t[s]:    238.81
SCF: Cycle: 44   Etot: -136.572078571500811   dEtot: -4.363e-09   |Residual|: 4.514e-06   |deigs|: 6.932e-08  t[s]:    239.01
	Linear fluid (dielectric constant: 7.2) occupying 0.989825 of unit cell:	Completed after 0 iterations at t[s]:    239.34
	Linear fluid (dielectric constant: 7.2) occupying 0.989825 of unit cell:	Completed after 0 iterations at t[s]:    240.01
SCF: Cycle: 45   Etot: -136.572078575452366   dEtot: -3.952e-09   |Residual|: 3.703e-06   |deigs|: 5.670e-08  t[s]:    240.20
SCF: Converged (|Delta E|<1.000000e-08 for 2 iters).

Setting wave functions to eigenvectors of Hamiltonian
IonicMinimize: 	Predicted alpha/alphaT>3.000000, increasing alphaT to 7.880706e+00.

-------- Electronic minimization -----------
Will mix electronic density at each iteration.
	Linear fluid (dielectric constant: 7.2) occupying 0.989823 of unit cell:	Completed after 7 iterations at t[s]:    240.97
	Linear fluid (dielectric constant: 7.2) occupying 0.989292 of unit cell:	Completed after 8 iterations at t[s]:    242.17
SCF: Cycle:  0   Etot: -136.539906434666591   dEtot: -2.040e-01   |Residual|: 2.233e-01   |deigs|: 1.201e-02  t[s]:    242.37
	Linear fluid (dielectric constant: 7.2) occupying 0.990032 of unit cell:	Completed after 13 iterations at t[s]:    243.38
	Linear fluid (dielectric constant: 7.2) occupying 0.989341 of unit cell:	Completed after 11 iterations at t[s]:    244.90
SCF: Cycle:  1   Etot: -136.555010305250335   dEtot: -1.510e-02   |Residual|: 1.115e-01   |deigs|: 8.014e-03  t[s]:    245.18
	Linear fluid (dielectric constant: 7.2) occupying 0.989867 of unit cell:	Completed after 15 iterations at t[s]:    246.52
	Linear fluid (dielectric constant: 7.2) occupying 0.989934 of unit cell:	Completed after 11 iterations at t[s]:    248.00
SCF: Cycle:  2   Etot: -136.566437922162976   dEtot: -1.143e-02   |Residual|: 1.971e-02   |deigs|: 6.742e-03  t[s]:    248.29
	Linear fluid (dielectric constant: 7.2) occupying 0.989824 of unit cell:	Completed after 13 iterations at t[s]:    249.47
	Linear fluid (dielectric constant: 7.2) occupying 0.989658 of unit cell:	Completed after 10 iterations at t[s]:    250.90
SCF: Cycle:  3   Etot: -136.567292449260947   dEtot: -8.545e-04   |Residual|: 1.340e-02   |deigs|: 1.773e-03  t[s]:    251.18
	Linear fluid (dielectric constant: 7.2) occupying 0.989710 of unit cell:	Completed after 10 iterations at t[s]:    252.16
	Linear fluid (dielectric constant: 7.2) occupying 0.989938 of unit cell:	Completed after 9 iterations at t[s]:    253.51
SCF: Cycle:  4   Etot: -136.570777098700148   dEtot: -3.485e-03   |Residual|: 7.662e-03   |deigs|: 3.693e-04  t[s]:    253.79
	Linear fluid (dielectric constant: 7.2) occupying 0.989707 of unit cell:	Completed after 9 iterations at t[s]:    254.69
	Linear fluid (dielectric constant: 7.2) occupying 0.989864 of unit cell:	Completed after 8 iterations at t[s]:    255.97
SCF: Cycle:  5   Etot: -136.571799704743626   dEtot: -1.023e-03   |Residual|: 5.415e-03   |deigs|: 4.069e-03  t[s]:    256.26
	Linear fluid (dielectric constant: 7.2) occupying 0.989729 of unit cell:	Completed after 9 iterations at t[s]:    257.18
	Linear fluid (dielectric constant: 7.2) occupying 0.989450 of unit cell:	Completed after 9 iterations at t[s]:    258.52
SCF: Cycle:  6   Etot: -136.570505579838624   dEtot: +1.294e-03   |Residual|: 5.885e-03   |deigs|: 1.563e-03  t[s]:    258.79
	Linear fluid (dielectric constant: 7.2) occupying 0.989718 of unit cell:	Completed after 9 iterations at t[s]:    259.72
	Linear fluid (dielectric constant: 7.2) occupying 0.989557 of unit cell:	Completed after 8 iterations at t[s]:    261.00
SCF: Cycle:  7   Etot: -136.571445094283433   dEtot: -9.395e-04   |Residual|: 4.874e-03   |deigs|: 2.788e-04  t[s]:    261.27
	Linear fluid (dielectric constant: 7.2) occupying 0.989606 of unit cell:	Completed after 6 iterations at t[s]:    261.96
	Linear fluid (dielectric constant: 7.2) occupying 0.989755 of unit cell:	Completed after 6 iterations at t[s]:    263.14
SCF: Cycle:  8   Etot: -136.572662931976765   dEtot: -1.218e-03   |Residual|: 2.935e-03   |deigs|: 5.441e-03  t[s]:    263.39
	Linear fluid (dielectric constant: 7.2) occupying 0.989508 of unit cell:	Completed after 5 iterations at t[s]:    264.04
	Linear fluid (dielectric constant: 7.2) occupying 0.989766 of unit cell:	Completed after 5 iterations at t[s]:    265.17
SCF: Cycle:  9   Etot: -136.572689578869415   dEtot: -2.665e-05   |Residual|: 2.701e-03   |deigs|: 1.981e-03  t[s]:    265.37
	Linear fluid (dielectric constant: 7.2) occupying 0.989495 of unit cell:	Completed after 5 iterations at t[s]:    266.02
	Linear fluid (dielectric constant: 7.2) occupying 0.989677 of unit cell:	Completed after 5 iterations at t[s]:    267.09
SCF: Cycle: 10   Etot: -136.572546640678894   dEtot: +1.429e-04   |Residual|: 1.756e-03   |deigs|: 2.211e-04  t[s]:    267.32
	Linear fluid (dielectric constant: 7.2) occupying 0.989465 of unit cell:	Completed after 5 iterations at t[s]:    267.96
	Linear fluid (dielectric constant: 7.2) occupying 0.989701 of unit cell:	Completed after 5 iterations at t[s]:    269.07
SCF: Cycle: 11   Etot: -136.572618699485076   dEtot: -7.206e-05   |Residual|: 1.702e-03   |deigs|: 5.159e-04  t[s]:    269.31
	Linear fluid (dielectric constant: 7.2) occupying 0.989491 of unit cell:	Completed after 5 iterations at t[s]:    269.96
	Linear fluid (dielectric constant: 7.2) occupying 0.989586 of unit cell:	Completed after 5 iterations at t[s]:    271.08
SCF: Cycle: 12   Etot: -136.572161595975501   dEtot: +4.571e-04   |Residual|: 1.820e-03   |deigs|: 5.127e-04  t[s]:    271.27
	Linear fluid (dielectric constant: 7.2) occupying 0.989478 of unit cell:	Completed after 5 iterations at t[s]:    271.92
	Linear fluid (dielectric constant: 7.2) occupying 0.989768 of unit cell:	Completed after 5 iterations at t[s]:    273.00
SCF: Cycle: 13   Etot: -136.572601821938235   dEtot: -4.402e-04   |Residual|: 1.337e-03   |deigs|: 5.949e-04  t[s]:    273.20
	Linear fluid (dielectric constant: 7.2) occupying 0.989564 of unit cell:	Completed after 5 iterations at t[s]:    273.85
	Linear fluid (dielectric constant: 7.2) occupying 0.989861 of unit cell:	Completed after 5 iterations at t[s]:    274.97
SCF: Cycle: 14   Etot: -136.572557955277858   dEtot: +4.387e-05   |Residual|: 1.079e-03   |deigs|: 2.769e-04  t[s]:    275.16
	Linear fluid (dielectric constant: 7.2) occupying 0.989634 of unit cell:	Completed after 5 iterations at t[s]:    275.81
	Linear fluid (dielectric constant: 7.2) occupying 0.989799 of unit cell:	Completed after 5 iterations at t[s]:    276.91
SCF: Cycle: 15   Etot: -136.572654634169510   dEtot: -9.668e-05   |Residual|: 7.953e-04   |deigs|: 2.242e-04  t[s]:    277.12
	Linear fluid (dielectric constant: 7.2) occupying 0.989683 of unit cell:	Completed after 5 iterations at t[s]:    277.76
	Linear fluid (dielectric constant: 7.2) occupying 0.989694 of unit cell:	Completed after 5 iterations at t[s]:    278.86
SCF: Cycle: 16   Etot: -136.572691611456634   dEtot: -3.698e-05   |Residual|: 9.371e-04   |deigs|: 8.566e-05  t[s]:    279.08
	Linear fluid (dielectric constant: 7.2) occupying 0.989740 of unit cell:	Completed after 5 iterations at t[s]:    279.73
	Linear fluid (dielectric constant: 7.2) occupying 0.989357 of unit cell:	Completed after 8 iterations at t[s]:    280.98
SCF: Cycle: 17   Etot: -136.570157018078049   dEtot: +2.535e-03   |Residual|: 3.308e-03   |deigs|: 1.316e-04  t[s]:    281.26
	Linear fluid (dielectric constant: 7.2) occupying 0.989750 of unit cell:	Completed after 5 iterations at t[s]:    281.92
	Linear fluid (dielectric constant: 7.2) occupying 0.989246 of unit cell:	Completed after 9 iterations at t[s]:    283.23
SCF: Cycle: 18   Etot: -136.569027700837381   dEtot: +1.129e-03   |Residual|: 3.973e-03   |deigs|: 2.033e-04  t[s]:    283.51
	Linear fluid (dielectric constant: 7.2) occupying 0.989750 of unit cell:	Completed after 5 iterations at t[s]:    284.16
	Linear fluid (dielectric constant: 7.2) occupying 0.989138 of unit cell:	Completed after 9 iterations at t[s]:    285.45
SCF: Cycle: 19   Etot: -136.567569172145738   dEtot: +1.459e-03   |Residual|: 4.889e-03   |deigs|: 1.844e-05  t[s]:    285.73
	Linear fluid (dielectric constant: 7.2) occupying 0.989746 of unit cell:	Completed after 6 iterations at t[s]:    286.42
	Linear fluid (dielectric constant: 7.2) occupying 0.989103 of unit cell:	Completed after 9 iterations at t[s]:    287.77
SCF: Cycle: 20   Etot: -136.566831502769332   dEtot: +7.377e-04   |Residual|: 5.185e-03   |deigs|: 2.819e-05  t[s]:    288.05
	Linear fluid (dielectric constant: 7.2) occupying 0.989728 of unit cell:	Completed after 6 iterations at t[s]:    288.75
	Linear fluid (dielectric constant: 7.2) occupying 0.989081 of unit cell:	Completed after 9 iterations at t[s]:    290.09
SCF: Cycle: 21   Etot: -136.565996900085537   dEtot: +8.346e-04   |Residual|: 5.534e-03   |deigs|: 1.319e-04  t[s]:    290.37
	Linear fluid (dielectric constant: 7.2) occupying 0.989729 of unit cell:	Completed after 6 iterations at t[s]:    291.06
	Linear fluid (dielectric constant: 7.2) occupying 0.989122 of unit cell:	Completed after 9 iterations at t[s]:    292.40
SCF: Cycle: 22   Etot: -136.567199658486686   dEtot: -1.203e-03   |Residual|: 4.804e-03   |deigs|: 4.428e-05  t[s]:    292.68
	Linear fluid (dielectric constant: 7.2) occupying 0.989726 of unit cell:	Completed after 6 iterations at t[s]:    293.37
	Linear fluid (dielectric constant: 7.2) occupying 0.989305 of unit cell:	Completed after 7 iterations at t[s]:    294.59
SCF: Cycle: 23   Etot: -136.570868518910146   dEtot: -3.669e-03   |Residual|: 3.101e-03   |deigs|: 1.077e-04  t[s]:    294.84
	Linear fluid (dielectric constant: 7.2) occupying 0.989699 of unit cell:	Completed after 5 iterations at t[s]:    295.50
	Linear fluid (dielectric constant: 7.2) occupying 0.989351 of unit cell:	Completed after 6 iterations at t[s]:    296.64
SCF: Cycle: 24   Etot: -136.571169435620277   dEtot: -3.009e-04   |Residual|: 2.676e-03   |deigs|: 6.212e-05  t[s]:    296.86
	Linear fluid (dielectric constant: 7.2) occupying 0.989695 of unit cell:	Completed after 5 iterations at t[s]:    297.52
	Linear fluid (dielectric constant: 7.2) occupying 0.989395 of unit cell:	Completed after 6 iterations at t[s]:    298.64
SCF: Cycle: 25   Etot: -136.571429713664202   dEtot: -2.603e-04   |Residual|: 2.372e-03   |deigs|: 1.319e-05  t[s]:    298.90
	Linear fluid (dielectric constant: 7.2) occupying 0.989703 of unit cell:	Completed after 5 iterations at t[s]:    299.54
	Linear fluid (dielectric constant: 7.2) occupying 0.989371 of unit cell:	Completed after 6 iterations at t[s]:    300.66
SCF: Cycle: 26   Etot: -136.571095215741252   dEtot: +3.345e-04   |Residual|: 2.453e-03   |deigs|: 4.994e-05  t[s]:    300.92
	Linear fluid (dielectric constant: 7.2) occupying 0.989702 of unit cell:	Completed after 5 iterations at t[s]:    301.58
	Linear fluid (dielectric constant: 7.2) occupying 0.989476 of unit cell:	Completed after 6 iterations at t[s]:    302.72
SCF: Cycle: 27   Etot: -136.571926946825414   dEtot: -8.317e-04   |Residual|: 1.969e-03   |deigs|: 2.459e-05  t[s]:    302.95
	Linear fluid (dielectric constant: 7.2) occupying 0.989696 of unit cell:	Completed after 5 iterations at t[s]:    303.60
	Linear fluid (dielectric constant: 7.2) occupying 0.989598 of unit cell:	Completed after 5 iterations at t[s]:    304.69
SCF: Cycle: 28   Etot: -136.572474268350874   dEtot: -5.473e-04   |Residual|: 1.391e-03   |deigs|: 2.677e-05  t[s]:    304.91
	Linear fluid (dielectric constant: 7.2) occupying 0.989697 of unit cell:	Completed after 4 iterations at t[s]:    305.53
[...]
SCF: Cycle:  9   Etot: -136.573791120874290   dEtot: -5.268e-09   |Residual|: 1.533e-05   |deigs|: 6.932e-08  t[s]:   2016.60
	Linear fluid (dielectric constant: 7.2) occupying 0.989664 of unit cell:	Completed after 0 iterations at t[s]:   2016.97
	Linear fluid (dielectric constant: 7.2) occupying 0.989665 of unit cell:	Completed after 0 iterations at t[s]:   2017.71
SCF: Cycle: 10   Etot: -136.573791122229750   dEtot: -1.355e-09   |Residual|: 1.028e-05   |deigs|: 1.074e-05  t[s]:   2017.91
SCF: Converged (|Delta E|<1.000000e-08 for 2 iters).

Setting wave functions to eigenvectors of Hamiltonian

-------- Electronic minimization -----------
Will mix electronic density at each iteration.
	Linear fluid (dielectric constant: 7.2) occupying 0.989666 of unit cell:	Completed after 1 iterations at t[s]:   2018.46
	Linear fluid (dielectric constant: 7.2) occupying 0.989665 of unit cell:	Completed after 1 iterations at t[s]:   2019.26
SCF: Cycle:  0   Etot: -136.573791062785403   dEtot: -1.677e-07   |Residual|: 1.183e-04   |deigs|: 8.236e-09  t[s]:   2019.47
	Linear fluid (dielectric constant: 7.2) occupying 0.989665 of unit cell:	Completed after 0 iterations at t[s]:   2019.88
	Linear fluid (dielectric constant: 7.2) occupying 0.989666 of unit cell:	Completed after 0 iterations at t[s]:   2020.59
SCF: Cycle:  1   Etot: -136.573791132906791   dEtot: -7.012e-08   |Residual|: 5.625e-05   |deigs|: 2.861e-05  t[s]:   2020.79
	Linear fluid (dielectric constant: 7.2) occupying 0.989665 of unit cell:	Completed after 0 iterations at t[s]:   2021.14
	Linear fluid (dielectric constant: 7.2) occupying 0.989665 of unit cell:	Completed after 0 iterations at t[s]:   2021.82
SCF: Cycle:  2   Etot: -136.573791146962918   dEtot: -1.406e-08   |Residual|: 3.049e-05   |deigs|: 1.029e-05  t[s]:   2022.01
	Linear fluid (dielectric constant: 7.2) occupying 0.989665 of unit cell:	Completed after 0 iterations at t[s]:   2022.33
	Linear fluid (dielectric constant: 7.2) occupying 0.989666 of unit cell:	Completed after 0 iterations at t[s]:   2023.02
SCF: Cycle:  3   Etot: -136.573791154150939   dEtot: -7.188e-09   |Residual|: 1.481e-05   |deigs|: 2.627e-07  t[s]:   2023.21
	Linear fluid (dielectric constant: 7.2) occupying 0.989665 of unit cell:	Completed after 0 iterations at t[s]:   2023.54
	Linear fluid (dielectric constant: 7.2) occupying 0.989665 of unit cell:	Completed after 0 iterations at t[s]:   2024.21
SCF: Cycle:  4   Etot: -136.573791158960091   dEtot: -4.809e-09   |Residual|: 8.361e-06   |deigs|: 1.993e-07  t[s]:   2024.40
SCF: Converged (|Delta E|<1.000000e-08 for 2 iters).

Setting wave functions to eigenvectors of Hamiltonian

# Ionic positions in cartesian coordinates:
ion S   4.973816133785103  14.001257424657933  25.365757570084455 1
ion S   7.141671417469601  13.303361544695322  28.588253163412080 1
ion S   8.164547208199838   9.485757506879709  28.635052653419262 1
ion S  10.348136177499040   8.721904692437242  25.432169069212669 1
ion Na   5.155649258833419   8.835165538642871  24.121774680539264 1
ion Na  10.151970970732965  13.900035079426930  24.114526009212284 1

# Forces in Cartesian coordinates:
force S   0.000056327639293   0.000073171325693   0.000125625789525 1
force S   0.000053398304221  -0.000217192216245  -0.000138824953404 1
force S   0.000173769518196  -0.000162097562341  -0.000229056233608 1
force S   0.000019917880682  -0.000373372592508  -0.000057573679047 1
force Na   0.000293921472850  -0.000344615774987   0.000007245586956 1
force Na   0.000342170731727  -0.000117305450449  -0.000196436990980 1

# Energy components:
   A_diel =       -0.0639495713209239
   Eewald =       90.9816130956503173
       EH =      204.0491054243364886
     Eloc =     -303.0794377229773318
      Enl =     -136.6857363116808983
      Exc =      -31.2140701089370438
 Exc_core =        7.0709173357623722
       KE =       32.3677667002069285
-------------------------------------
     Etot =     -136.5737911589600913

IonicMinimize: Iter:  25  Etot: -136.573791158960091  |grad|_K:  1.325e-04  alpha:  6.556e+00  linmin: -6.769e-02  t[s]:   2024.76

#--- Lowdin population analysis ---
# oxidation-state S -0.633 -0.018 -0.019 -0.634
# oxidation-state Na +0.839 +0.839


-------- Electronic minimization -----------
Will mix electronic density at each iteration.
	Linear fluid (dielectric constant: 7.2) occupying 0.989664 of unit cell:	Completed after 3 iterations at t[s]:   2025.33
	Linear fluid (dielectric constant: 7.2) occupying 0.989664 of unit cell:	Completed after 1 iterations at t[s]:   2026.19
SCF: Cycle:  0   Etot: -136.573791192600709   dEtot: -2.726e-06   |Residual|: 4.230e-04   |deigs|: 1.067e-07  t[s]:   2026.38
	Linear fluid (dielectric constant: 7.2) occupying 0.989666 of unit cell:	Completed after 1 iterations at t[s]:   2026.84
	Linear fluid (dielectric constant: 7.2) occupying 0.989663 of unit cell:	Completed after 1 iterations at t[s]:   2027.61
SCF: Cycle:  1   Etot: -136.573791782317812   dEtot: -5.897e-07   |Residual|: 2.458e-04   |deigs|: 1.099e-05  t[s]:   2027.80
	Linear fluid (dielectric constant: 7.2) occupying 0.989666 of unit cell:	Completed after 1 iterations at t[s]:   2028.26
	Linear fluid (dielectric constant: 7.2) occupying 0.989664 of unit cell:	Completed after 0 iterations at t[s]:   2028.98
SCF: Cycle:  2   Etot: -136.573791961224401   dEtot: -1.789e-07   |Residual|: 7.133e-05   |deigs|: 1.594e-05  t[s]:   2029.18
	Linear fluid (dielectric constant: 7.2) occupying 0.989666 of unit cell:	Completed after 0 iterations at t[s]:   2029.56
	Linear fluid (dielectric constant: 7.2) occupying 0.989664 of unit cell:	Completed after 0 iterations at t[s]:   2030.28
SCF: Cycle:  3   Etot: -136.573792030047912   dEtot: -6.882e-08   |Residual|: 4.456e-05   |deigs|: 1.062e-05  t[s]:   2030.47
	Linear fluid (dielectric constant: 7.2) occupying 0.989665 of unit cell:	Completed after 0 iterations at t[s]:   2030.86
	Linear fluid (dielectric constant: 7.2) occupying 0.989664 of unit cell:	Completed after 0 iterations at t[s]:   2031.57
SCF: Cycle:  4   Etot: -136.573792061482294   dEtot: -3.143e-08   |Residual|: 2.332e-05   |deigs|: 6.630e-06  t[s]:   2031.76
	Linear fluid (dielectric constant: 7.2) occupying 0.989664 of unit cell:	Completed after 0 iterations at t[s]:   2032.12
	Linear fluid (dielectric constant: 7.2) occupying 0.989664 of unit cell:	Completed after 0 iterations at t[s]:   2032.79
SCF: Cycle:  5   Etot: -136.573792083960257   dEtot: -2.248e-08   |Residual|: 1.344e-05   |deigs|: 7.127e-06  t[s]:   2032.98
	Linear fluid (dielectric constant: 7.2) occupying 0.989664 of unit cell:	Completed after 0 iterations at t[s]:   2033.31
	Linear fluid (dielectric constant: 7.2) occupying 0.989664 of unit cell:	Completed after 0 iterations at t[s]:   2034.02
SCF: Cycle:  6   Etot: -136.573792086912761   dEtot: -2.953e-09   |Residual|: 1.555e-05   |deigs|: 8.141e-08  t[s]:   2034.21
	Linear fluid (dielectric constant: 7.2) occupying 0.989663 of unit cell:	Completed after 0 iterations at t[s]:   2034.58
	Linear fluid (dielectric constant: 7.2) occupying 0.989664 of unit cell:	Completed after 0 iterations at t[s]:   2035.31
SCF: Cycle:  7   Etot: -136.573792105183031   dEtot: -1.827e-08   |Residual|: 1.844e-05   |deigs|: 1.799e-05  t[s]:   2035.50
	Linear fluid (dielectric constant: 7.2) occupying 0.989663 of unit cell:	Completed after 0 iterations at t[s]:   2035.83
	Linear fluid (dielectric constant: 7.2) occupying 0.989664 of unit cell:	Completed after 0 iterations at t[s]:   2036.54
SCF: Cycle:  8   Etot: -136.573792102144068   dEtot: +3.039e-09   |Residual|: 1.629e-05   |deigs|: 8.736e-08  t[s]:   2036.73
	Linear fluid (dielectric constant: 7.2) occupying 0.989663 of unit cell:	Completed after 0 iterations at t[s]:   2037.10
	Linear fluid (dielectric constant: 7.2) occupying 0.989664 of unit cell:	Completed after 0 iterations at t[s]:   2037.80
SCF: Cycle:  9   Etot: -136.573792105072158   dEtot: -2.928e-09   |Residual|: 1.034e-05   |deigs|: 1.470e-05  t[s]:   2038.00
	Linear fluid (dielectric constant: 7.2) occupying 0.989663 of unit cell:	Completed after 0 iterations at t[s]:   2038.33
	Linear fluid (dielectric constant: 7.2) occupying 0.989664 of unit cell:	Completed after 0 iterations at t[s]:   2039.00
SCF: Cycle: 10   Etot: -136.573792106549035   dEtot: -1.477e-09   |Residual|: 8.566e-06   |deigs|: 6.684e-08  t[s]:   2039.19
SCF: Converged (|Delta E|<1.000000e-08 for 2 iters).

Setting wave functions to eigenvectors of Hamiltonian

-------- Electronic minimization -----------
Will mix electronic density at each iteration.
	Linear fluid (dielectric constant: 7.2) occupying 0.989664 of unit cell:	Completed after 1 iterations at t[s]:   2039.73
	Linear fluid (dielectric constant: 7.2) occupying 0.989664 of unit cell:	Completed after 0 iterations at t[s]:   2040.49
SCF: Cycle:  0   Etot: -136.573792062857592   dEtot: -1.050e-07   |Residual|: 8.547e-05   |deigs|: 4.143e-09  t[s]:   2040.69
	Linear fluid (dielectric constant: 7.2) occupying 0.989664 of unit cell:	Completed after 0 iterations at t[s]:   2041.08
	Linear fluid (dielectric constant: 7.2) occupying 0.989664 of unit cell:	Completed after 0 iterations at t[s]:   2041.75
SCF: Cycle:  1   Etot: -136.573792086282708   dEtot: -2.343e-08   |Residual|: 4.352e-05   |deigs|: 1.174e-05  t[s]:   2041.94
	Linear fluid (dielectric constant: 7.2) occupying 0.989664 of unit cell:	Completed after 0 iterations at t[s]:   2042.26
	Linear fluid (dielectric constant: 7.2) occupying 0.989664 of unit cell:	Completed after 0 iterations at t[s]:   2042.93
SCF: Cycle:  2   Etot: -136.573792097428282   dEtot: -1.115e-08   |Residual|: 2.790e-05   |deigs|: 3.615e-07  t[s]:   2043.12
	Linear fluid (dielectric constant: 7.2) occupying 0.989664 of unit cell:	Completed after 0 iterations at t[s]:   2043.45
	Linear fluid (dielectric constant: 7.2) occupying 0.989664 of unit cell:	Completed after 0 iterations at t[s]:   2044.17
SCF: Cycle:  3   Etot: -136.573792094572013   dEtot: +2.856e-09   |Residual|: 1.367e-05   |deigs|: 4.441e-07  t[s]:   2044.37
	Linear fluid (dielectric constant: 7.2) occupying 0.989664 of unit cell:	Completed after 0 iterations at t[s]:   2044.72
	Linear fluid (dielectric constant: 7.2) occupying 0.989664 of unit cell:	Completed after 0 iterations at t[s]:   2045.44
SCF: Cycle:  4   Etot: -136.573792100275000   dEtot: -5.703e-09   |Residual|: 1.209e-05   |deigs|: 1.861e-05  t[s]:   2045.64
	Linear fluid (dielectric constant: 7.2) occupying 0.989664 of unit cell:	Completed after 0 iterations at t[s]:   2045.96
	Linear fluid (dielectric constant: 7.2) occupying 0.989664 of unit cell:	Completed after 0 iterations at t[s]:   2046.65
SCF: Cycle:  5   Etot: -136.573792100848834   dEtot: -5.738e-10   |Residual|: 1.043e-05   |deigs|: 6.468e-08  t[s]:   2046.85
SCF: Converged (|Delta E|<1.000000e-08 for 2 iters).

Setting wave functions to eigenvectors of Hamiltonian

# Ionic positions in cartesian coordinates:
ion S   4.975383917729292  14.003414455828269  25.364408322829281 1
ion S   7.139380210963269  13.303858859790637  28.588797334660644 1
ion S   8.165714628387581   9.486598017217714  28.635570694772365 1
ion S  10.345981822601074   8.719468513044671  25.432476223373794 1
ion Na   5.154591528076062   8.832960455448266  24.122614327226064 1
ion Na  10.154739058762685  13.901181485410453  24.113666243017867 1

# Forces in Cartesian coordinates:
force S  -0.000011093761393   0.000021427719559   0.000100891239022 1
force S   0.000193423488029  -0.000149373844935  -0.000182347918094 1
force S  -0.000027949178026  -0.000212386317484  -0.000105554747162 1
force S   0.000123335770313  -0.000301400975611  -0.000136439353975 1
force Na   0.000297164035853  -0.000289833545741   0.000018598203515 1
force Na   0.000290454789257  -0.000175091398877  -0.000143945493319 1

# Energy components:
   A_diel =       -0.0640175394134674
   Eewald =       90.9447904577104822
       EH =      204.0129213556800210
     Eloc =     -303.0063723771355058
      Enl =     -136.6856874628413152
      Exc =      -31.2140017358414390
 Exc_core =        7.0709173587587832
       KE =       32.3676578422336263
-------------------------------------
     Etot =     -136.5737921008488343

IonicMinimize: Iter:  26  Etot: -136.573792100848834  |grad|_K:  1.134e-04  alpha:  5.315e+00  linmin: -9.850e-02  t[s]:   2047.20

#--- Lowdin population analysis ---
# oxidation-state S -0.633 -0.019 -0.020 -0.634
# oxidation-state Na +0.839 +0.840


-------- Electronic minimization -----------
Will mix electronic density at each iteration.
	Linear fluid (dielectric constant: 7.2) occupying 0.989663 of unit cell:	Completed after 3 iterations at t[s]:   2047.79
	Linear fluid (dielectric constant: 7.2) occupying 0.989663 of unit cell:	Completed after 1 iterations at t[s]:   2048.64
SCF: Cycle:  0   Etot: -136.573792666560848   dEtot: -1.110e-06   |Residual|: 2.717e-04   |deigs|: 4.171e-08  t[s]:   2048.83
	Linear fluid (dielectric constant: 7.2) occupying 0.989663 of unit cell:	Completed after 1 iterations at t[s]:   2049.29
	Linear fluid (dielectric constant: 7.2) occupying 0.989662 of unit cell:	Completed after 1 iterations at t[s]:   2050.05
SCF: Cycle:  1   Etot: -136.573792884852423   dEtot: -2.183e-07   |Residual|: 1.543e-04   |deigs|: 7.357e-06  t[s]:   2050.24
	Linear fluid (dielectric constant: 7.2) occupying 0.989663 of unit cell:	Completed after 0 iterations at t[s]:   2050.67
	Linear fluid (dielectric constant: 7.2) occupying 0.989663 of unit cell:	Completed after 0 iterations at t[s]:   2051.38
SCF: Cycle:  2   Etot: -136.573792946100752   dEtot: -6.125e-08   |Residual|: 4.541e-05   |deigs|: 9.379e-06  t[s]:   2051.58
	Linear fluid (dielectric constant: 7.2) occupying 0.989663 of unit cell:	Completed after 0 iterations at t[s]:   2051.93
	Linear fluid (dielectric constant: 7.2) occupying 0.989662 of unit cell:	Completed after 0 iterations at t[s]:   2052.62
SCF: Cycle:  3   Etot: -136.573792974138343   dEtot: -2.804e-08   |Residual|: 3.234e-05   |deigs|: 9.933e-06  t[s]:   2052.81
	Linear fluid (dielectric constant: 7.2) occupying 0.989663 of unit cell:	Completed after 0 iterations at t[s]:   2053.13
	Linear fluid (dielectric constant: 7.2) occupying 0.989662 of unit cell:	Completed after 0 iterations at t[s]:   2053.83
SCF: Cycle:  4   Etot: -136.573792988472150   dEtot: -1.433e-08   |Residual|: 2.408e-05   |deigs|: 2.900e-07  t[s]:   2054.02
	Linear fluid (dielectric constant: 7.2) occupying 0.989662 of unit cell:	Completed after 0 iterations at t[s]:   2054.38
	Linear fluid (dielectric constant: 7.2) occupying 0.989662 of unit cell:	Completed after 0 iterations at t[s]:   2055.07
SCF: Cycle:  5   Etot: -136.573792994651029   dEtot: -6.179e-09   |Residual|: 1.504e-05   |deigs|: 1.089e-05  t[s]:   2055.26
	Linear fluid (dielectric constant: 7.2) occupying 0.989662 of unit cell:	Completed after 0 iterations at t[s]:   2055.59
	Linear fluid (dielectric constant: 7.2) occupying 0.989662 of unit cell:	Completed after 0 iterations at t[s]:   2056.32
SCF: Cycle:  6   Etot: -136.573792992250873   dEtot: +2.400e-09   |Residual|: 1.248e-05   |deigs|: 6.609e-08  t[s]:   2056.52
	Linear fluid (dielectric constant: 7.2) occupying 0.989662 of unit cell:	Completed after 0 iterations at t[s]:   2056.88
	Linear fluid (dielectric constant: 7.2) occupying 0.989662 of unit cell:	Completed after 0 iterations at t[s]:   2057.60
SCF: Cycle:  7   Etot: -136.573792995140280   dEtot: -2.889e-09   |Residual|: 1.251e-05   |deigs|: 1.248e-05  t[s]:   2057.79
	Linear fluid (dielectric constant: 7.2) occupying 0.989662 of unit cell:	Completed after 0 iterations at t[s]:   2064.75
	Linear fluid (dielectric constant: 7.2) occupying 0.989662 of unit cell:	Completed after 0 iterations at t[s]:   2065.43
SCF: Cycle:  8   Etot: -136.573792996112900   dEtot: -9.726e-10   |Residual|: 1.268e-05   |deigs|: 2.897e-08  t[s]:   2065.63
SCF: Converged (|Delta E|<1.000000e-08 for 2 iters).

Setting wave functions to eigenvectors of Hamiltonian

-------- Electronic minimization -----------
Will mix electronic density at each iteration.
	Linear fluid (dielectric constant: 7.2) occupying 0.989662 of unit cell:	Completed after 1 iterations at t[s]:   2066.17
	Linear fluid (dielectric constant: 7.2) occupying 0.989662 of unit cell:	Completed after 0 iterations at t[s]:   2066.89
SCF: Cycle:  0   Etot: -136.573793042023908   dEtot: -3.350e-08   |Residual|: 3.721e-05   |deigs|: 9.180e-10  t[s]:   2067.08
	Linear fluid (dielectric constant: 7.2) occupying 0.989662 of unit cell:	Completed after 0 iterations at t[s]:   2067.41
	Linear fluid (dielectric constant: 7.2) occupying 0.989662 of unit cell:	Completed after 0 iterations at t[s]:   2068.10
SCF: Cycle:  1   Etot: -136.573793049792727   dEtot: -7.769e-09   |Residual|: 2.818e-05   |deigs|: 1.781e-07  t[s]:   2068.29
	Linear fluid (dielectric constant: 7.2) occupying 0.989662 of unit cell:	Completed after 0 iterations at t[s]:   2068.62
	Linear fluid (dielectric constant: 7.2) occupying 0.989662 of unit cell:	Completed after 0 iterations at t[s]:   2069.33
SCF: Cycle:  2   Etot: -136.573793041276275   dEtot: +8.516e-09   |Residual|: 1.401e-05   |deigs|: 3.187e-07  t[s]:   2069.53
	Linear fluid (dielectric constant: 7.2) occupying 0.989662 of unit cell:	Completed after 0 iterations at t[s]:   2069.88
	Linear fluid (dielectric constant: 7.2) occupying 0.989662 of unit cell:	Completed after 0 iterations at t[s]:   2070.60
SCF: Cycle:  3   Etot: -136.573793041459879   dEtot: -1.836e-10   |Residual|: 2.034e-05   |deigs|: 1.525e-05  t[s]:   2070.79
	Linear fluid (dielectric constant: 7.2) occupying 0.989662 of unit cell:	Completed after 0 iterations at t[s]:   2071.14
	Linear fluid (dielectric constant: 7.2) occupying 0.989662 of unit cell:	Completed after 0 iterations at t[s]:   2071.88
SCF: Cycle:  4   Etot: -136.573793044491367   dEtot: -3.031e-09   |Residual|: 1.475e-05   |deigs|: 8.619e-06  t[s]:   2072.07
SCF: Converged (|Delta E|<1.000000e-08 for 2 iters).

Setting wave functions to eigenvectors of Hamiltonian

# Ionic positions in cartesian coordinates:
ion S   4.975749341632168  14.006451472112561  25.364347673369778 1
ion S   7.137772321372617  13.304484189236701  28.588600182721450 1
ion S   8.165645350551642   9.487128094665042  28.635815664288984 1
ion S  10.344064375990488   8.716736446167994  25.432359296218070 1
ion Na   5.154635855012048   8.830490408447998  24.123876613884125 1
ion Na  10.157923921961006  13.902191176109714  24.112533715397610 1

# Forces in Cartesian coordinates:
force S  -0.000081744387079  -0.000117603785195   0.000042462659983 1
force S   0.000345348580866  -0.000047812761098  -0.000185448849706 1
force S  -0.000184297689527  -0.000276261359628  -0.000075650791625 1
force S   0.000201619998315  -0.000163012928585  -0.000124897264234 1
force Na   0.000272103754900  -0.000233350452765   0.000014146034592 1
force Na   0.000231857864530  -0.000228224121463  -0.000088772577596 1

# Energy components:
   A_diel =       -0.0640806291578492
   Eewald =       90.9064858338866060
       EH =      203.9745402211939336
     Eloc =     -302.9295588067084850
      Enl =     -136.6855274951822423
      Exc =      -31.2138172060516368
 Exc_core =        7.0709173661769835
       KE =       32.3672476713512864
-------------------------------------
     Etot =     -136.5737930444913673

IonicMinimize: Iter:  27  Etot: -136.573793044491367  |grad|_K:  1.287e-04  alpha:  6.040e+00  linmin: -3.787e-02  t[s]:   2072.42
IonicMinimize: Converged (|Delta Etot|<1.000000e-06 for 2 iters).

#--- Lowdin population analysis ---
# oxidation-state S -0.633 -0.019 -0.020 -0.634
# oxidation-state Na +0.839 +0.840


Dumping 'Na2S4-glyme.wfns' ... done
Dumping 'Na2S4-glyme.fluidState' ... done
Dumping 'Na2S4-glyme.ionpos' ... done
End date and time: Sat Dec 28 16:16:06 2024  (Duration: 0-0:34:33.34)
Done!
