CRYSTAL
PRIMVEC
 14.820031   0.000000   0.000000
 -7.410015  12.834505   0.000000
  0.000000   0.000000  20.000041
PRIMCOORD
4 1
16   4.966553   6.554145  14.975944
16   3.173775   5.347196  15.016895
11   5.853508   3.238204  12.899352
11   2.168463   8.713921  13.075006
