
*************** JDFTx 1.7.0  ***************

Start date and time: Sat Dec 28 16:16:11 2024
Executable jdftx_gpu with command-line: -i /home/akim2/JDFTx/Na2S4-PC/Na2S4-PC.in -o /home/akim2/JDFTx/Na2S4-PC/Na2S4-PC.out
Running on hosts (process indices):  exp-7-57 (0)
Divided in process groups (process indices):  0 (0)
gpuInit: Found compatible cuda device 0 'Tesla V100-SXM2-32GB'
gpuInit: Selected device 0
Resource initialization completed at t[s]:      0.38
Run totals: 1 processes, 1 threads, 1 GPUs


Input parsed successfully to the following command list (including defaults):

basis kpoint-dependent
coords-type Cartesian
core-overlap-check vector
coulomb-interaction Isolated
coulomb-truncation-embed 4.96043 13.9816 25.2655
davidson-band-ratio 1.1
dump End State
dump-name Na2S4-PC.$VAR
elec-cutoff 20 100
elec-eigen-algo Davidson
elec-ex-corr gga-PBE
electronic-minimize  \
	dirUpdateScheme      FletcherReeves \
	linminMethod         DirUpdateRecommended \
	nIterations          100 \
	history              15 \
	knormThreshold       0 \
	energyDiffThreshold  1e-08 \
	nEnergyDiff          2 \
	alphaTstart          1 \
	alphaTmin            1e-10 \
	updateTestStepSize   yes \
	alphaTreduceFactor   0.1 \
	alphaTincreaseFactor 3 \
	nAlphaAdjustMax      3 \
	wolfeEnergy          0.0001 \
	wolfeGradient        0.9 \
	fdTest               no
electronic-scf  \
	nIterations	50 \
	energyDiffThreshold	1e-08 \
	residualThreshold	1e-07 \
	mixFraction	0.5 \
	qMetric	0.8 \
	history	10 \
	nEigSteps	2 \
	eigDiffThreshold	1e-08 \
	mixedVariable	Density \
	qKerker	0.8 \
	qKappa	-1 \
	verbose	no \
	mixFractionMag	1.5
exchange-regularization None
fluid LinearPCM 298.000000 1.013250
fluid-ex-corr lda-TF lda-PZ
fluid-gummel-loop 10 1.000000e-05
fluid-minimize  \
	dirUpdateScheme      PolakRibiere \
	linminMethod         DirUpdateRecommended \
	nIterations          400 \
	history              15 \
	knormThreshold       1e-11 \
	energyDiffThreshold  0 \
	nEnergyDiff          2 \
	alphaTstart          1 \
	alphaTmin            1e-10 \
	updateTestStepSize   yes \
	alphaTreduceFactor   0.1 \
	alphaTincreaseFactor 3 \
	nAlphaAdjustMax      6 \
	wolfeEnergy          0.0001 \
	wolfeGradient        0.9 \
	fdTest               no
fluid-solvent PC 11.6429 ScalarEOS \
	epsBulk 64 \
	pMol 2.95 \
	epsInf 2.02 \
	Pvap 1.53277e-13 \
	sigmaBulk 2.88e-05 \
	Rvdw 0 \
	Res 0 \
	tauNuc 343133
forces-output-coords Positions
ion S   4.960431645660000  13.981560468840000  25.265472781050001 1
ion S   7.075808635770003  13.274826015330000  28.544133544019999 1
ion S   8.239466575169999   9.479152131930000  28.544855420880001 1
ion S  10.355264975069996   8.766735260310000  25.266360954149999 1
ion Na   5.293454984100000   8.983135801530000  24.325194155759998 1
ion Na  10.011364350749997  13.762072108800000  24.311516290019998 1
ion-species GBRV/$ID_pbe.uspp
ion-width Ecut
ionic-minimize  \
	dirUpdateScheme      FletcherReeves \
	linminMethod         DirUpdateRecommended \
	nIterations          200 \
	history              15 \
	knormThreshold       0.0001 \
	energyDiffThreshold  1e-06 \
	nEnergyDiff          2 \
	alphaTstart          1 \
	alphaTmin            1e-10 \
	updateTestStepSize   yes \
	alphaTreduceFactor   0.1 \
	alphaTincreaseFactor 3 \
	nAlphaAdjustMax      3 \
	wolfeEnergy          0.0001 \
	wolfeGradient        0.9 \
	fdTest               no
kpoint   0.000000000000   0.000000000000   0.000000000000  1.00000000000000
kpoint-folding 1 1 1 
latt-move-scale 1 1 1
latt-scale 1 1 1 
lattice Triclinic 28.0058 28.0058 37.7946 90 90 120
lattice-minimize  \
	dirUpdateScheme      L-BFGS \
	linminMethod         DirUpdateRecommended \
	nIterations          0 \
	history              15 \
	knormThreshold       0 \
	energyDiffThreshold  1e-06 \
	nEnergyDiff          2 \
	alphaTstart          1 \
	alphaTmin            1e-10 \
	updateTestStepSize   yes \
	alphaTreduceFactor   0.1 \
	alphaTincreaseFactor 3 \
	nAlphaAdjustMax      3 \
	wolfeEnergy          0.0001 \
	wolfeGradient        0.9 \
	fdTest               no
lcao-params -1 1e-06 0.001
pcm-variant GLSSA13
spintype no-spin
subspace-rotation-factor 1 yes
symmetries automatic
symmetry-threshold 0.0001



---------- Setting up symmetries ----------

Found 24 point-group symmetries of the bravais lattice
Found 1 space-group symmetries with basis
Applied RMS atom displacement 0 bohrs to make symmetries exact.

---------- Initializing the Grid ----------
R = 
[      28.0058     -14.0029            0  ]
[            0      24.2537            0  ]
[            0            0      37.7946  ]
unit cell volume = 25671.8
G =
[   0.224353    0.12953         -0  ]
[          0   0.259061          0  ]
[          0         -0   0.166246  ]
Minimum fftbox size, Smin = [  128  128  172  ]
Chosen fftbox size, S = [  128  128  180  ]

---------- Initializing tighter grid for wavefunction operations ----------
R = 
[      28.0058     -14.0029            0  ]
[            0      24.2537            0  ]
[            0            0      37.7946  ]
unit cell volume = 25671.8
G =
[   0.224353    0.12953         -0  ]
[          0   0.259061          0  ]
[          0         -0   0.166246  ]
Minimum fftbox size, Smin = [  116  116  156  ]
Chosen fftbox size, S = [  120  120  160  ]

---------- Exchange Correlation functional ----------
Initalized PBE GGA exchange.
Initalized PBE GGA correlation.

---------- Setting up pseudopotentials ----------
Width of ionic core gaussian charges (only for fluid interactions / plotting) set to 0.397384

Reading pseudopotential file '/home/akim2/jdftx_install/build/pseudopotentials/GBRV/s_pbe.uspp':
  Title: S.  Created by USPP 7.3.6 on 1-4-15
  Reference state energy: -11.898476.  6 valence electrons in orbitals:
    |300>  occupation: 2  eigenvalue: -0.634167
    |310>  occupation: 4  eigenvalue: -0.257568
  lMax: 2  lLocal: 3  QijEcut: 6
  6 projectors sampled on a log grid with 635 points:
    l: 0  eig: -0.634161  rCut: 1.5
    l: 0  eig: 1.500000  rCut: 1.5
    l: 1  eig: -0.257567  rCut: 1.5
    l: 1  eig: 1.500000  rCut: 1.5
    l: 2  eig: -1.000000  rCut: 1.5
    l: 2  eig: 1.500000  rCut: 1.5
  Partial core density with radius 1.15
  Transforming core density to a uniform radial grid of dG=0.02 with 1625 points.
  Transforming local potential to a uniform radial grid of dG=0.02 with 1625 points.
  Transforming nonlocal projectors to a uniform radial grid of dG=0.02 with 432 points.
  Transforming density augmentations to a uniform radial grid of dG=0.02 with 1625 points.
  Transforming atomic orbitals to a uniform radial grid of dG=0.02 with 432 points.
  Core radius for overlap checks: 1.50 bohrs.

Reading pseudopotential file '/home/akim2/jdftx_install/build/pseudopotentials/GBRV/na_pbe.uspp':
  Title: Na.  Created by USPP 7.3.6 on 23-9-15
  Reference state energy: -47.625620.  9 valence electrons in orbitals:
    |200>  occupation: 2  eigenvalue: -2.085638
    |210>  occupation: 6  eigenvalue: -1.053708
    |300>  occupation: 1  eigenvalue: -0.100838
  lMax: 2  lLocal: 0  QijEcut: 6
  5 projectors sampled on a log grid with 657 points:
    l: 0  eig: -2.085640  rCut: 1.37
    l: 0  eig: -0.100839  rCut: 1.37
    l: 1  eig: -1.053708  rCut: 1.47
    l: 1  eig: 0.500000  rCut: 1.47
    l: 2  eig: 0.750000  rCut: 2
  Transforming local potential to a uniform radial grid of dG=0.02 with 1625 points.
  Transforming nonlocal projectors to a uniform radial grid of dG=0.02 with 432 points.
  Transforming density augmentations to a uniform radial grid of dG=0.02 with 1625 points.
  Transforming atomic orbitals to a uniform radial grid of dG=0.02 with 432 points.
  Core radius for overlap checks: 2.00 bohrs.

Initialized 2 species with 6 total atoms.

Folded 1 k-points by 1x1x1 to 1 k-points.

---------- Setting up k-points, bands, fillings ----------
No reducable k-points. 
Computing the number of bands and number of electrons
Calculating initial fillings.
nElectrons:  42.000000   nBands: 21   nStates: 1

----- Setting up reduced wavefunction bases (one per k-point) -----
average nbasis = 109673.000 , ideal nbasis = 109671.883

---------- Setting up coulomb interaction ----------
Fluid mode embedding: using embedded box, but periodic Coulomb kernel.
(Fluid response is responsible for (approximate) separation between periodic images.)
Setting up double-sized grid for truncated Coulomb potentials:
R = 
[      56.0116     -28.0058            0  ]
[            0      48.5075            0  ]
[            0            0      75.5892  ]
unit cell volume = 205374
G =
[   0.112177  0.0647651         -0  ]
[          0    0.12953          0  ]
[          0         -0  0.0831228  ]
Chosen fftbox size, S = [  256  256  360  ]
Integer grid location selected as the embedding center:
   Grid: [  60  74  120  ]
   Lattice: [  0.465357  0.57647  0.668494  ]
   Cartesian: [  4.96043  13.9816  25.2655  ]
Constructing Wigner-Seitz cell: 8 faces (6 quadrilaterals, 2 hexagons)
Range-separation parameter for embedded mesh potentials due to point charges: 0.590105 bohrs.

---------- Setting up ewald sum ----------
Optimum gaussian width for ewald sums = 17.460913 bohr.
Real space sum over 1089 unit cells with max indices [  5  5  4  ]
Reciprocal space sum over 2873 terms with max indices [  6  6  8  ]

---------- Allocating electronic variables ----------
Initializing wave functions:  linear combination of atomic orbitals
S pseudo-atom occupations:   s ( 2 )  p ( 4 )
Na pseudo-atom occupations:   s ( 2 1 )  p ( 6 )
	FillingsUpdate:  mu: -0.088614534  nElectrons: 42.000000
LCAOMinimize: Iter:   0  Etot: -136.2253494586741738  |grad|_K:  1.848e-02  alpha:  1.000e+00
	FillingsUpdate:  mu: -0.093245074  nElectrons: 42.000000
LCAOMinimize: Iter:   1  Etot: -136.2630642840068163  |grad|_K:  1.041e-02  alpha:  1.874e-01  linmin: -3.574e-01  cgtest:  8.732e-01  t[s]:      3.84
LCAOMinimize: Encountered beta<0, resetting CG.
	FillingsUpdate:  mu: -0.095759784  nElectrons: 42.000000
LCAOMinimize: Iter:   2  Etot: -136.2787173242142558  |grad|_K:  8.187e-03  alpha:  5.527e-01  linmin:  1.878e-01  cgtest: -5.672e-01  t[s]:      4.20
	FillingsUpdate:  mu: -0.095843439  nElectrons: 42.000000
LCAOMinimize: Iter:   3  Etot: -136.2787239709460891  |grad|_K:  8.228e-03  alpha:  5.181e-03  linmin: -2.682e-03  cgtest:  9.991e-01  t[s]:      4.54
LCAOMinimize: None of the convergence criteria satisfied after 3 iterations.
----- createFluidSolver() ----- (Fluid-side solver setup)
   Initializing fluid molecule 'PC'
     Net charge: 0   dipole magnitude: 0
     Initializing spherical shell mfKernel with radius 0 Bohr
     deltaS corrections:

Correction to mu due to finite nuclear width = -0.00020291
   Cavity determined by nc: 0.00098 and sigma: 0.6
   Effective cavity tension: 9.53e-06 Eh/bohr^2 to account for cavitation and dispersion.


---- Citations for features of the code used in this run ----

   Software package:
      R. Sundararaman, K. Letchworth-Weaver, K.A. Schwarz, D. Gunceler, Y. Ozhabes and T.A. Arias, 'JDFTx: software for joint density-functional theory', SoftwareX 6, 278 (2017)

   gga-PBE exchange-correlation functional:
      J.P. Perdew, K. Burke and M. Ernzerhof, Phys. Rev. Lett. 77, 3865 (1996)

   Pseudopotentials:
      KF Garrity, JW Bennett, KM Rabe and D Vanderbilt, Comput. Mater. Sci. 81, 446 (2014)

   Truncated Coulomb potentials:
      R. Sundararaman and T.A. Arias, Phys. Rev. B 87, 165122 (2013)

   Linear/nonlinear dielectric/ionic fluid model with effective cavity tension:
      D. Gunceler, K. Letchworth-Weaver, R. Sundararaman, K.A. Schwarz and T.A. Arias, Modelling Simul. Mater. Sci. Eng. 21, 074005 (2013)

This list may not be complete. Please suggest additional citations or
report any other bugs at https://github.com/shankar1729/jdftx/issues

Initialization completed successfully at t[s]:      4.55

Fluid solver invoked on fresh (random / LCAO) wavefunctions
Running a vacuum solve first:

-------- Initial electronic minimization -----------
Will mix electronic density at each iteration.
SCF: Cycle:  0   Etot: -136.425219965696130   dEtot: -1.465e-01   |Residual|: 2.157e-01   |deigs|: 1.094e-02  t[s]:      5.09
SCF: Cycle:  1   Etot: -136.487570240566470   dEtot: -6.235e-02   |Residual|: 1.162e-01   |deigs|: 1.128e-02  t[s]:      5.49
SCF: Cycle:  2   Etot: -136.527218010098579   dEtot: -3.965e-02   |Residual|: 3.798e-02   |deigs|: 1.318e-02  t[s]:      5.88
SCF: Cycle:  3   Etot: -136.528218612603837   dEtot: -1.001e-03   |Residual|: 2.092e-02   |deigs|: 1.748e-03  t[s]:      6.27
SCF: Cycle:  4   Etot: -136.529074928741920   dEtot: -8.563e-04   |Residual|: 1.727e-02   |deigs|: 6.259e-03  t[s]:      6.66
SCF: Cycle:  5   Etot: -136.529617781672982   dEtot: -5.429e-04   |Residual|: 1.214e-02   |deigs|: 7.555e-04  t[s]:      7.07
SCF: Cycle:  6   Etot: -136.529990966496143   dEtot: -3.732e-04   |Residual|: 1.042e-02   |deigs|: 3.935e-03  t[s]:      7.46
SCF: Cycle:  7   Etot: -136.530117246715719   dEtot: -1.263e-04   |Residual|: 8.701e-03   |deigs|: 1.720e-03  t[s]:      7.86
SCF: Cycle:  8   Etot: -136.530390431788504   dEtot: -2.732e-04   |Residual|: 3.868e-03   |deigs|: 1.414e-03  t[s]:      8.27
SCF: Cycle:  9   Etot: -136.530423620439308   dEtot: -3.319e-05   |Residual|: 2.697e-03   |deigs|: 9.184e-04  t[s]:      8.65
SCF: Cycle: 10   Etot: -136.530378889955358   dEtot: +4.473e-05   |Residual|: 3.784e-03   |deigs|: 6.476e-04  t[s]:      9.06
SCF: Cycle: 11   Etot: -136.530432047145439   dEtot: -5.316e-05   |Residual|: 2.191e-03   |deigs|: 6.538e-04  t[s]:      9.43
SCF: Cycle: 12   Etot: -136.530446327805350   dEtot: -1.428e-05   |Residual|: 1.928e-03   |deigs|: 3.366e-04  t[s]:      9.78
SCF: Cycle: 13   Etot: -136.530449107671927   dEtot: -2.780e-06   |Residual|: 2.349e-03   |deigs|: 4.555e-04  t[s]:     10.13
SCF: Cycle: 14   Etot: -136.530462889101045   dEtot: -1.378e-05   |Residual|: 1.363e-03   |deigs|: 2.399e-04  t[s]:     10.51
SCF: Cycle: 15   Etot: -136.530455173482920   dEtot: +7.716e-06   |Residual|: 2.300e-03   |deigs|: 2.368e-04  t[s]:     10.86
SCF: Cycle: 16   Etot: -136.530464305447055   dEtot: -9.132e-06   |Residual|: 9.126e-04   |deigs|: 1.624e-04  t[s]:     11.20
SCF: Cycle: 17   Etot: -136.530465377635579   dEtot: -1.072e-06   |Residual|: 7.653e-04   |deigs|: 1.795e-04  t[s]:     11.54
SCF: Cycle: 18   Etot: -136.530466814510987   dEtot: -1.437e-06   |Residual|: 4.316e-04   |deigs|: 6.390e-05  t[s]:     11.90
SCF: Cycle: 19   Etot: -136.530466692150583   dEtot: +1.224e-07   |Residual|: 6.242e-04   |deigs|: 7.297e-05  t[s]:     12.24
SCF: Cycle: 20   Etot: -136.530467517824064   dEtot: -8.257e-07   |Residual|: 2.081e-04   |deigs|: 7.223e-05  t[s]:     12.65
SCF: Cycle: 21   Etot: -136.530467739530764   dEtot: -2.217e-07   |Residual|: 1.131e-04   |deigs|: 3.884e-05  t[s]:     13.02
SCF: Cycle: 22   Etot: -136.530467892830416   dEtot: -1.533e-07   |Residual|: 1.015e-04   |deigs|: 1.474e-05  t[s]:     13.36
SCF: Cycle: 23   Etot: -136.530467984590587   dEtot: -9.176e-08   |Residual|: 7.850e-05   |deigs|: 2.368e-05  t[s]:     13.70
SCF: Cycle: 24   Etot: -136.530468038361619   dEtot: -5.377e-08   |Residual|: 4.644e-05   |deigs|: 3.550e-05  t[s]:     14.05
SCF: Cycle: 25   Etot: -136.530468092678575   dEtot: -5.432e-08   |Residual|: 3.704e-05   |deigs|: 1.885e-05  t[s]:     14.45
SCF: Cycle: 26   Etot: -136.530468116856412   dEtot: -2.418e-08   |Residual|: 3.107e-05   |deigs|: 2.607e-05  t[s]:     14.80
SCF: Cycle: 27   Etot: -136.530468137912806   dEtot: -2.106e-08   |Residual|: 1.863e-05   |deigs|: 8.501e-06  t[s]:     15.19
SCF: Cycle: 28   Etot: -136.530468146570115   dEtot: -8.657e-09   |Residual|: 1.483e-05   |deigs|: 5.103e-06  t[s]:     15.54
SCF: Cycle: 29   Etot: -136.530468156127938   dEtot: -9.558e-09   |Residual|: 9.855e-06   |deigs|: 1.431e-06  t[s]:     15.92
SCF: Converged (|Delta E|<1.000000e-08 for 2 iters).

Setting wave functions to eigenvectors of Hamiltonian
Vacuum energy after initial minimize, Etot = -136.530468156127938


-------- Electronic minimization -----------
Will mix electronic density at each iteration.
	Linear fluid (dielectric constant: 64) occupying 0.994656 of unit cell:	Completed after 27 iterations at t[s]:     17.67
	Linear fluid (dielectric constant: 64) occupying 0.994702 of unit cell:	Completed after 24 iterations at t[s]:     20.13
SCF: Cycle:  0   Etot: -136.665502469273775   dEtot: -3.360e-02   |Residual|: 4.516e-02   |deigs|: 1.152e-03  t[s]:     20.42
	Linear fluid (dielectric constant: 64) occupying 0.994673 of unit cell:	Completed after 21 iterations at t[s]:     22.19
	Linear fluid (dielectric constant: 64) occupying 0.994705 of unit cell:	Completed after 23 iterations at t[s]:     24.56
SCF: Cycle:  1   Etot: -136.667542706740676   dEtot: -2.040e-03   |Residual|: 3.159e-02   |deigs|: 3.548e-03  t[s]:     24.82
	Linear fluid (dielectric constant: 64) occupying 0.994692 of unit cell:	Completed after 17 iterations at t[s]:     26.31
	Linear fluid (dielectric constant: 64) occupying 0.994704 of unit cell:	Completed after 20 iterations at t[s]:     28.43
SCF: Cycle:  2   Etot: -136.669099968246485   dEtot: -1.557e-03   |Residual|: 1.524e-02   |deigs|: 5.972e-03  t[s]:     28.71
	Linear fluid (dielectric constant: 64) occupying 0.994688 of unit cell:	Completed after 17 iterations at t[s]:     30.18
	Linear fluid (dielectric constant: 64) occupying 0.994700 of unit cell:	Completed after 19 iterations at t[s]:     32.22
SCF: Cycle:  3   Etot: -136.669398636508959   dEtot: -2.987e-04   |Residual|: 1.116e-02   |deigs|: 5.194e-04  t[s]:     32.49
	Linear fluid (dielectric constant: 64) occupying 0.994695 of unit cell:	Completed after 12 iterations at t[s]:     33.60
	Linear fluid (dielectric constant: 64) occupying 0.994685 of unit cell:	Completed after 12 iterations at t[s]:     35.21
SCF: Cycle:  4   Etot: -136.669772842781981   dEtot: -3.742e-04   |Residual|: 7.970e-03   |deigs|: 5.350e-03  t[s]:     35.48
	Linear fluid (dielectric constant: 64) occupying 0.994688 of unit cell:	Completed after 12 iterations at t[s]:     36.57
	Linear fluid (dielectric constant: 64) occupying 0.994684 of unit cell:	Completed after 12 iterations at t[s]:     38.14
SCF: Cycle:  5   Etot: -136.669866688246259   dEtot: -9.385e-05   |Residual|: 4.935e-03   |deigs|: 1.040e-03  t[s]:     38.42
	Linear fluid (dielectric constant: 64) occupying 0.994657 of unit cell:	Completed after 10 iterations at t[s]:     39.38
	Linear fluid (dielectric constant: 64) occupying 0.994679 of unit cell:	Completed after 9 iterations at t[s]:     40.74
SCF: Cycle:  6   Etot: -136.669937020180384   dEtot: -7.033e-05   |Residual|: 6.299e-03   |deigs|: 1.083e-03  t[s]:     41.02
	Linear fluid (dielectric constant: 64) occupying 0.994655 of unit cell:	Completed after 10 iterations at t[s]:     42.00
	Linear fluid (dielectric constant: 64) occupying 0.994677 of unit cell:	Completed after 8 iterations at t[s]:     43.25
SCF: Cycle:  7   Etot: -136.670004206704448   dEtot: -6.719e-05   |Residual|: 3.315e-03   |deigs|: 4.648e-04  t[s]:     43.53
	Linear fluid (dielectric constant: 64) occupying 0.994638 of unit cell:	Completed after 6 iterations at t[s]:     44.22
	Linear fluid (dielectric constant: 64) occupying 0.994676 of unit cell:	Completed after 10 iterations at t[s]:     45.66
SCF: Cycle:  8   Etot: -136.669993318847958   dEtot: +1.089e-05   |Residual|: 6.032e-03   |deigs|: 4.049e-04  t[s]:     45.95
	Linear fluid (dielectric constant: 64) occupying 0.994645 of unit cell:	Completed after 9 iterations at t[s]:     46.84
	Linear fluid (dielectric constant: 64) occupying 0.994676 of unit cell:	Completed after 6 iterations at t[s]:     48.02
SCF: Cycle:  9   Etot: -136.670057183131490   dEtot: -6.386e-05   |Residual|: 2.634e-03   |deigs|: 4.949e-04  t[s]:     48.26
	Linear fluid (dielectric constant: 64) occupying 0.994667 of unit cell:	Completed after 4 iterations at t[s]:     48.87
	Linear fluid (dielectric constant: 64) occupying 0.994676 of unit cell:	Completed after 5 iterations at t[s]:     49.92
SCF: Cycle: 10   Etot: -136.670057976629550   dEtot: -7.935e-07   |Residual|: 2.851e-03   |deigs|: 1.235e-04  t[s]:     50.13
	Linear fluid (dielectric constant: 64) occupying 0.994668 of unit cell:	Completed after 5 iterations at t[s]:     50.79
	Linear fluid (dielectric constant: 64) occupying 0.994677 of unit cell:	Completed after 4 iterations at t[s]:     51.87
SCF: Cycle: 11   Etot: -136.670064511621121   dEtot: -6.535e-06   |Residual|: 1.818e-03   |deigs|: 1.416e-04  t[s]:     52.06
	Linear fluid (dielectric constant: 64) occupying 0.994687 of unit cell:	Completed after 4 iterations at t[s]:     52.68
	Linear fluid (dielectric constant: 64) occupying 0.994680 of unit cell:	Completed after 9 iterations at t[s]:     53.93
SCF: Cycle: 12   Etot: -136.670038378791560   dEtot: +2.613e-05   |Residual|: 4.176e-03   |deigs|: 2.816e-04  t[s]:     54.22
	Linear fluid (dielectric constant: 64) occupying 0.994696 of unit cell:	Completed after 4 iterations at t[s]:     54.82
	Linear fluid (dielectric constant: 64) occupying 0.994678 of unit cell:	Completed after 5 iterations at t[s]:     55.88
SCF: Cycle: 13   Etot: -136.670067702140813   dEtot: -2.932e-05   |Residual|: 1.652e-03   |deigs|: 4.103e-04  t[s]:     56.10
	Linear fluid (dielectric constant: 64) occupying 0.994693 of unit cell:	Completed after 3 iterations at t[s]:     56.67
	Linear fluid (dielectric constant: 64) occupying 0.994677 of unit cell:	Completed after 5 iterations at t[s]:     57.68
SCF: Cycle: 14   Etot: -136.670059258043437   dEtot: +8.444e-06   |Residual|: 2.821e-03   |deigs|: 9.535e-05  t[s]:     57.88
	Linear fluid (dielectric constant: 64) occupying 0.994684 of unit cell:	Completed after 4 iterations at t[s]:     58.49
	Linear fluid (dielectric constant: 64) occupying 0.994678 of unit cell:	Completed after 4 iterations at t[s]:     59.48
SCF: Cycle: 15   Etot: -136.670063633236992   dEtot: -4.375e-06   |Residual|: 1.724e-03   |deigs|: 1.315e-04  t[s]:     59.67
	Linear fluid (dielectric constant: 64) occupying 0.994675 of unit cell:	Completed after 3 iterations at t[s]:     60.26
	Linear fluid (dielectric constant: 64) occupying 0.994678 of unit cell:	Completed after 4 iterations at t[s]:     61.23
SCF: Cycle: 16   Etot: -136.670067438834963   dEtot: -3.806e-06   |Residual|: 1.068e-03   |deigs|: 1.473e-04  t[s]:     61.43
	Linear fluid (dielectric constant: 64) occupying 0.994676 of unit cell:	Completed after 3 iterations at t[s]:     62.00
	Linear fluid (dielectric constant: 64) occupying 0.994678 of unit cell:	Completed after 2 iterations at t[s]:     62.91
SCF: Cycle: 17   Etot: -136.670069328162185   dEtot: -1.889e-06   |Residual|: 6.953e-04   |deigs|: 1.235e-04  t[s]:     63.11
	Linear fluid (dielectric constant: 64) occupying 0.994678 of unit cell:	Completed after 1 iterations at t[s]:     63.61
	Linear fluid (dielectric constant: 64) occupying 0.994678 of unit cell:	Completed after 1 iterations at t[s]:     64.47
SCF: Cycle: 18   Etot: -136.670069588637944   dEtot: -2.605e-07   |Residual|: 5.874e-04   |deigs|: 1.116e-04  t[s]:     64.66
	Linear fluid (dielectric constant: 64) occupying 0.994681 of unit cell:	Completed after 3 iterations at t[s]:     65.24
	Linear fluid (dielectric constant: 64) occupying 0.994678 of unit cell:	Completed after 1 iterations at t[s]:     66.10
SCF: Cycle: 19   Etot: -136.670071680651887   dEtot: -2.092e-06   |Residual|: 5.292e-04   |deigs|: 1.085e-04  t[s]:     66.30
	Linear fluid (dielectric constant: 64) occupying 0.994680 of unit cell:	Completed after 0 iterations at t[s]:     66.72
	Linear fluid (dielectric constant: 64) occupying 0.994678 of unit cell:	Completed after 0 iterations at t[s]:     67.44
SCF: Cycle: 20   Etot: -136.670072118016691   dEtot: -4.374e-07   |Residual|: 3.509e-04   |deigs|: 4.101e-05  t[s]:     67.64
	Linear fluid (dielectric constant: 64) occupying 0.994678 of unit cell:	Completed after 0 iterations at t[s]:     68.00
	Linear fluid (dielectric constant: 64) occupying 0.994677 of unit cell:	Completed after 2 iterations at t[s]:     68.79
SCF: Cycle: 21   Etot: -136.670072068175529   dEtot: +4.984e-08   |Residual|: 2.982e-04   |deigs|: 6.547e-05  t[s]:     68.99
	Linear fluid (dielectric constant: 64) occupying 0.994677 of unit cell:	Completed after 0 iterations at t[s]:     69.40
	Linear fluid (dielectric constant: 64) occupying 0.994678 of unit cell:	Completed after 0 iterations at t[s]:     70.14
SCF: Cycle: 22   Etot: -136.670072545550227   dEtot: -4.774e-07   |Residual|: 4.143e-04   |deigs|: 1.647e-04  t[s]:     70.34
	Linear fluid (dielectric constant: 64) occupying 0.994677 of unit cell:	Completed after 0 iterations at t[s]:     70.67
	Linear fluid (dielectric constant: 64) occupying 0.994678 of unit cell:	Completed after 0 iterations at t[s]:     71.35
SCF: Cycle: 23   Etot: -136.670072672106812   dEtot: -1.266e-07   |Residual|: 3.179e-04   |deigs|: 4.678e-06  t[s]:     71.55
	Linear fluid (dielectric constant: 64) occupying 0.994677 of unit cell:	Completed after 0 iterations at t[s]:     71.88
	Linear fluid (dielectric constant: 64) occupying 0.994678 of unit cell:	Completed after 0 iterations at t[s]:     72.60
SCF: Cycle: 24   Etot: -136.670072729788728   dEtot: -5.768e-08   |Residual|: 2.228e-04   |deigs|: 3.861e-06  t[s]:     72.80
	Linear fluid (dielectric constant: 64) occupying 0.994677 of unit cell:	Completed after 0 iterations at t[s]:     73.13
	Linear fluid (dielectric constant: 64) occupying 0.994678 of unit cell:	Completed after 0 iterations at t[s]:     73.82
SCF: Cycle: 25   Etot: -136.670072788188264   dEtot: -5.840e-08   |Residual|: 1.530e-04   |deigs|: 2.483e-06  t[s]:     74.01
	Linear fluid (dielectric constant: 64) occupying 0.994678 of unit cell:	Completed after 0 iterations at t[s]:     74.34
	Linear fluid (dielectric constant: 64) occupying 0.994678 of unit cell:	Completed after 0 iterations at t[s]:     75.06
SCF: Cycle: 26   Etot: -136.670072925409244   dEtot: -1.372e-07   |Residual|: 9.942e-05   |deigs|: 1.702e-06  t[s]:     75.25
	Linear fluid (dielectric constant: 64) occupying 0.994678 of unit cell:	Completed after 0 iterations at t[s]:     75.59
	Linear fluid (dielectric constant: 64) occupying 0.994678 of unit cell:	Completed after 0 iterations at t[s]:     76.27
SCF: Cycle: 27   Etot: -136.670073023469172   dEtot: -9.806e-08   |Residual|: 6.648e-05   |deigs|: 2.778e-06  t[s]:     76.47
	Linear fluid (dielectric constant: 64) occupying 0.994678 of unit cell:	Completed after 0 iterations at t[s]:     76.80
	Linear fluid (dielectric constant: 64) occupying 0.994678 of unit cell:	Completed after 0 iterations at t[s]:     77.48
SCF: Cycle: 28   Etot: -136.670073065312096   dEtot: -4.184e-08   |Residual|: 6.842e-05   |deigs|: 1.494e-06  t[s]:     77.67
	Linear fluid (dielectric constant: 64) occupying 0.994678 of unit cell:	Completed after 0 iterations at t[s]:     78.00
	Linear fluid (dielectric constant: 64) occupying 0.994678 of unit cell:	Completed after 0 iterations at t[s]:     78.69
SCF: Cycle: 29   Etot: -136.670073118021151   dEtot: -5.271e-08   |Residual|: 7.977e-05   |deigs|: 2.715e-06  t[s]:     78.88
	Linear fluid (dielectric constant: 64) occupying 0.994678 of unit cell:	Completed after 0 iterations at t[s]:     79.21
	Linear fluid (dielectric constant: 64) occupying 0.994678 of unit cell:	Completed after 0 iterations at t[s]:     79.90
SCF: Cycle: 30   Etot: -136.670073153536464   dEtot: -3.552e-08   |Residual|: 8.478e-05   |deigs|: 2.024e-06  t[s]:     80.09
	Linear fluid (dielectric constant: 64) occupying 0.994678 of unit cell:	Completed after 0 iterations at t[s]:     80.42
	Linear fluid (dielectric constant: 64) occupying 0.994678 of unit cell:	Completed after 0 iterations at t[s]:     81.12
SCF: Cycle: 31   Etot: -136.670073144959531   dEtot: +8.577e-09   |Residual|: 7.438e-05   |deigs|: 6.683e-07  t[s]:     81.32
	Linear fluid (dielectric constant: 64) occupying 0.994678 of unit cell:	Completed after 0 iterations at t[s]:     81.66
	Linear fluid (dielectric constant: 64) occupying 0.994678 of unit cell:	Completed after 0 iterations at t[s]:     82.39
SCF: Cycle: 32   Etot: -136.670073129007676   dEtot: +1.595e-08   |Residual|: 5.118e-05   |deigs|: 1.557e-06  t[s]:     82.58
	Linear fluid (dielectric constant: 64) occupying 0.994678 of unit cell:	Completed after 0 iterations at t[s]:     82.91
	Linear fluid (dielectric constant: 64) occupying 0.994678 of unit cell:	Completed after 0 iterations at t[s]:     83.59
SCF: Cycle: 33   Etot: -136.670073136391579   dEtot: -7.384e-09   |Residual|: 8.423e-05   |deigs|: 1.214e-06  t[s]:     83.78
	Linear fluid (dielectric constant: 64) occupying 0.994678 of unit cell:	Completed after 0 iterations at t[s]:     84.12
	Linear fluid (dielectric constant: 64) occupying 0.994678 of unit cell:	Completed after 0 iterations at t[s]:     84.81
SCF: Cycle: 34   Etot: -136.670073132955764   dEtot: +3.436e-09   |Residual|: 5.488e-05   |deigs|: 9.844e-07  t[s]:     85.00
	Linear fluid (dielectric constant: 64) occupying 0.994678 of unit cell:	Completed after 0 iterations at t[s]:     85.33
	Linear fluid (dielectric constant: 64) occupying 0.994678 of unit cell:	Completed after 0 iterations at t[s]:     86.02
SCF: Cycle: 35   Etot: -136.670073124680499   dEtot: +8.275e-09   |Residual|: 7.026e-05   |deigs|: 3.803e-07  t[s]:     86.22
	Linear fluid (dielectric constant: 64) occupying 0.994678 of unit cell:	Completed after 0 iterations at t[s]:     86.55
	Linear fluid (dielectric constant: 64) occupying 0.994678 of unit cell:	Completed after 1 iterations at t[s]:     87.37
SCF: Cycle: 36   Etot: -136.670072714525418   dEtot: +4.102e-07   |Residual|: 3.530e-05   |deigs|: 2.419e-06  t[s]:     87.57
	Linear fluid (dielectric constant: 64) occupying 0.994678 of unit cell:	Completed after 0 iterations at t[s]:     87.96
	Linear fluid (dielectric constant: 64) occupying 0.994678 of unit cell:	Completed after 0 iterations at t[s]:     88.65
SCF: Cycle: 37   Etot: -136.670072922056875   dEtot: -2.075e-07   |Residual|: 1.967e-04   |deigs|: 6.918e-05  t[s]:     88.85
	Linear fluid (dielectric constant: 64) occupying 0.994677 of unit cell:	Completed after 0 iterations at t[s]:     89.18
	Linear fluid (dielectric constant: 64) occupying 0.994678 of unit cell:	Completed after 0 iterations at t[s]:     89.87
SCF: Cycle: 38   Etot: -136.670072948329619   dEtot: -2.627e-08   |Residual|: 2.032e-04   |deigs|: 5.891e-07  t[s]:     90.06
	Linear fluid (dielectric constant: 64) occupying 0.994677 of unit cell:	Completed after 0 iterations at t[s]:     90.39
	Linear fluid (dielectric constant: 64) occupying 0.994678 of unit cell:	Completed after 0 iterations at t[s]:     91.07
SCF: Cycle: 39   Etot: -136.670072961296484   dEtot: -1.297e-08   |Residual|: 2.185e-04   |deigs|: 2.515e-07  t[s]:     91.27
	Linear fluid (dielectric constant: 64) occupying 0.994678 of unit cell:	Completed after 0 iterations at t[s]:     91.60
	Linear fluid (dielectric constant: 64) occupying 0.994678 of unit cell:	Completed after 0 iterations at t[s]:     92.29
SCF: Cycle: 40   Etot: -136.670072972590390   dEtot: -1.129e-08   |Residual|: 2.161e-04   |deigs|: 6.637e-07  t[s]:     92.48
	Linear fluid (dielectric constant: 64) occupying 0.994678 of unit cell:	Completed after 0 iterations at t[s]:     92.81
	Linear fluid (dielectric constant: 64) occupying 0.994678 of unit cell:	Completed after 0 iterations at t[s]:     93.50
SCF: Cycle: 41   Etot: -136.670072978712085   dEtot: -6.122e-09   |Residual|: 2.208e-04   |deigs|: 9.847e-08  t[s]:     93.69
	Linear fluid (dielectric constant: 64) occupying 0.994678 of unit cell:	Completed after 0 iterations at t[s]:     94.03
	Linear fluid (dielectric constant: 64) occupying 0.994678 of unit cell:	Completed after 0 iterations at t[s]:     94.70
SCF: Cycle: 42   Etot: -136.670072982235808   dEtot: -3.524e-09   |Residual|: 2.215e-04   |deigs|: 5.927e-08  t[s]:     94.90
SCF: Converged (|Delta E|<1.000000e-08 for 2 iters).

Setting wave functions to eigenvectors of Hamiltonian
Single-point solvation energy estimate, DeltaEtot = -0.139604826107870

# Ionic positions in cartesian coordinates:
ion S   4.960431645660000  13.981560468840000  25.265472781050001 1
ion S   7.075808635770003  13.274826015330000  28.544133544019999 1
ion S   8.239466575169999   9.479152131930000  28.544855420880001 1
ion S  10.355264975069996   8.766735260310000  25.266360954149999 1
ion Na   5.293454984100000   8.983135801530000  24.325194155759998 1
ion Na  10.011364350749997  13.762072108800000  24.311516290019998 1

# Forces in Cartesian coordinates:
force S  -0.007893122903699   0.009249231796735   0.011078689598807 1
force S  -0.004847096525097   0.000611606799104   0.001083519964177 1
force S   0.004993495832449  -0.000665912523885   0.001119488582557 1
force S   0.007690619137944  -0.009141357094408   0.011150590525845 1
force Na  -0.015213139142637  -0.013576860022054  -0.012460445367585 1
force Na   0.015253934703429   0.013509273685734  -0.012529203265722 1

# Energy components:
   A_diel =       -0.1890852334696018
   Eewald =       95.1000625064078804
       EH =      207.5198136456642999
     Eloc =     -310.4826545253515633
      Enl =     -136.8856063405243901
      Exc =      -31.2614836150349227
 Exc_core =        7.0709167916623104
       KE =       32.4579637884101686
-------------------------------------
     Etot =     -136.6700729822358085

IonicMinimize: Iter:   0  Etot: -136.670072982235808  |grad|_K:  9.811e-03  alpha:  1.000e+00

#--- Lowdin population analysis ---
# oxidation-state S -0.652 -0.038 -0.039 -0.652
# oxidation-state Na +0.854 +0.854


-------- Electronic minimization -----------
Will mix electronic density at each iteration.
	Linear fluid (dielectric constant: 64) occupying 0.994677 of unit cell:	Completed after 16 iterations at t[s]:     96.30
	Linear fluid (dielectric constant: 64) occupying 0.994637 of unit cell:	Completed after 20 iterations at t[s]:     98.46
SCF: Cycle:  0   Etot: -136.669837748849545   dEtot: -2.074e-02   |Residual|: 6.675e-02   |deigs|: 1.081e-03  t[s]:     98.71
	Linear fluid (dielectric constant: 64) occupying 0.994689 of unit cell:	Completed after 19 iterations at t[s]:    100.33
	Linear fluid (dielectric constant: 64) occupying 0.994646 of unit cell:	Completed after 19 iterations at t[s]:    102.42
SCF: Cycle:  1   Etot: -136.670963394535988   dEtot: -1.126e-03   |Residual|: 3.335e-02   |deigs|: 9.681e-04  t[s]:    102.68
	Linear fluid (dielectric constant: 64) occupying 0.994687 of unit cell:	Completed after 17 iterations at t[s]:    104.15
	Linear fluid (dielectric constant: 64) occupying 0.994663 of unit cell:	Completed after 15 iterations at t[s]:    105.92
SCF: Cycle:  2   Etot: -136.671670567362156   dEtot: -7.072e-04   |Residual|: 6.732e-03   |deigs|: 2.539e-03  t[s]:    106.23
	Linear fluid (dielectric constant: 64) occupying 0.994674 of unit cell:	Completed after 13 iterations at t[s]:    107.40
	Linear fluid (dielectric constant: 64) occupying 0.994664 of unit cell:	Completed after 13 iterations at t[s]:    108.95
SCF: Cycle:  3   Etot: -136.671710503199677   dEtot: -3.994e-05   |Residual|: 3.903e-03   |deigs|: 1.167e-03  t[s]:    109.23
	Linear fluid (dielectric constant: 64) occupying 0.994656 of unit cell:	Completed after 6 iterations at t[s]:    109.92
	Linear fluid (dielectric constant: 64) occupying 0.994665 of unit cell:	Completed after 6 iterations at t[s]:    111.09
SCF: Cycle:  4   Etot: -136.671746516119015   dEtot: -3.601e-05   |Residual|: 1.674e-03   |deigs|: 1.140e-03  t[s]:    111.38
	Linear fluid (dielectric constant: 64) occupying 0.994654 of unit cell:	Completed after 6 iterations at t[s]:    112.06
	Linear fluid (dielectric constant: 64) occupying 0.994666 of unit cell:	Completed after 6 iterations at t[s]:    113.19
SCF: Cycle:  5   Etot: -136.671756816536742   dEtot: -1.030e-05   |Residual|: 1.170e-03   |deigs|: 6.055e-05  t[s]:    113.43
	Linear fluid (dielectric constant: 64) occupying 0.994652 of unit cell:	Completed after 7 iterations at t[s]:    114.21
	Linear fluid (dielectric constant: 64) occupying 0.994666 of unit cell:	Completed after 4 iterations at t[s]:    115.25
SCF: Cycle:  6   Etot: -136.671766665106844   dEtot: -9.849e-06   |Residual|: 7.423e-04   |deigs|: 1.839e-04  t[s]:    115.44
	Linear fluid (dielectric constant: 64) occupying 0.994653 of unit cell:	Completed after 4 iterations at t[s]:    116.05
	Linear fluid (dielectric constant: 64) occupying 0.994667 of unit cell:	Completed after 4 iterations at t[s]:    117.01
SCF: Cycle:  7   Etot: -136.671770033148533   dEtot: -3.368e-06   |Residual|: 6.551e-04   |deigs|: 1.062e-04  t[s]:    117.20
	Linear fluid (dielectric constant: 64) occupying 0.994658 of unit cell:	Completed after 0 iterations at t[s]:    117.66
	Linear fluid (dielectric constant: 64) occupying 0.994667 of unit cell:	Completed after 1 iterations at t[s]:    118.52
SCF: Cycle:  8   Etot: -136.671772719118451   dEtot: -2.686e-06   |Residual|: 5.401e-04   |deigs|: 5.656e-05  t[s]:    118.71
	Linear fluid (dielectric constant: 64) occupying 0.994663 of unit cell:	Completed after 3 iterations at t[s]:    119.28
	Linear fluid (dielectric constant: 64) occupying 0.994667 of unit cell:	Completed after 2 iterations at t[s]:    120.17
SCF: Cycle:  9   Etot: -136.671772610190146   dEtot: +1.089e-07   |Residual|: 6.742e-04   |deigs|: 4.193e-04  t[s]:    120.36
	Linear fluid (dielectric constant: 64) occupying 0.994664 of unit cell:	Completed after 0 iterations at t[s]:    120.83
	Linear fluid (dielectric constant: 64) occupying 0.994667 of unit cell:	Completed after 0 iterations at t[s]:    121.63
SCF: Cycle: 10   Etot: -136.671773033685412   dEtot: -4.235e-07   |Residual|: 2.754e-04   |deigs|: 1.493e-04  t[s]:    121.82
	Linear fluid (dielectric constant: 64) occupying 0.994667 of unit cell:	Completed after 0 iterations at t[s]:    122.22
	Linear fluid (dielectric constant: 64) occupying 0.994667 of unit cell:	Completed after 0 iterations at t[s]:    122.94
SCF: Cycle: 11   Etot: -136.671773177125601   dEtot: -1.434e-07   |Residual|: 2.793e-04   |deigs|: 3.324e-05  t[s]:    123.14
	Linear fluid (dielectric constant: 64) occupying 0.994667 of unit cell:	Completed after 0 iterations at t[s]:    123.49
	Linear fluid (dielectric constant: 64) occupying 0.994668 of unit cell:	Completed after 0 iterations at t[s]:    124.23
SCF: Cycle: 12   Etot: -136.671773413530786   dEtot: -2.364e-07   |Residual|: 2.110e-04   |deigs|: 2.933e-05  t[s]:    124.42
	Linear fluid (dielectric constant: 64) occupying 0.994667 of unit cell:	Completed after 0 iterations at t[s]:    124.76
	Linear fluid (dielectric constant: 64) occupying 0.994667 of unit cell:	Completed after 0 iterations at t[s]:    125.46
SCF: Cycle: 13   Etot: -136.671773661654214   dEtot: -2.481e-07   |Residual|: 1.224e-04   |deigs|: 1.052e-05  t[s]:    125.65
	Linear fluid (dielectric constant: 64) occupying 0.994667 of unit cell:	Completed after 0 iterations at t[s]:    125.99
	Linear fluid (dielectric constant: 64) occupying 0.994667 of unit cell:	Completed after 0 iterations at t[s]:    126.67
SCF: Cycle: 14   Etot: -136.671773827449499   dEtot: -1.658e-07   |Residual|: 1.603e-04   |deigs|: 5.753e-06  t[s]:    126.87
	Linear fluid (dielectric constant: 64) occupying 0.994667 of unit cell:	Completed after 0 iterations at t[s]:    127.23
	Linear fluid (dielectric constant: 64) occupying 0.994667 of unit cell:	Completed after 0 iterations at t[s]:    127.91
SCF: Cycle: 15   Etot: -136.671773783830986   dEtot: +4.362e-08   |Residual|: 7.168e-05   |deigs|: 4.145e-05  t[s]:    128.10
	Linear fluid (dielectric constant: 64) occupying 0.994667 of unit cell:	Completed after 0 iterations at t[s]:    128.43
	Linear fluid (dielectric constant: 64) occupying 0.994667 of unit cell:	Completed after 0 iterations at t[s]:    129.14
SCF: Cycle: 16   Etot: -136.671773794381409   dEtot: -1.055e-08   |Residual|: 9.649e-05   |deigs|: 2.665e-06  t[s]:    129.33
	Linear fluid (dielectric constant: 64) occupying 0.994668 of unit cell:	Completed after 0 iterations at t[s]:    129.67
	Linear fluid (dielectric constant: 64) occupying 0.994668 of unit cell:	Completed after 0 iterations at t[s]:    130.37
SCF: Cycle: 17   Etot: -136.671773810701694   dEtot: -1.632e-08   |Residual|: 1.287e-04   |deigs|: 1.504e-06  t[s]:    130.56
	Linear fluid (dielectric constant: 64) occupying 0.994668 of unit cell:	Completed after 0 iterations at t[s]:    130.89
	Linear fluid (dielectric constant: 64) occupying 0.994668 of unit cell:	Completed after 0 iterations at t[s]:    131.57
SCF: Cycle: 18   Etot: -136.671773838564320   dEtot: -2.786e-08   |Residual|: 1.045e-04   |deigs|: 9.221e-07  t[s]:    131.76
	Linear fluid (dielectric constant: 64) occupying 0.994668 of unit cell:	Completed after 0 iterations at t[s]:    132.09
	Linear fluid (dielectric constant: 64) occupying 0.994668 of unit cell:	Completed after 0 iterations at t[s]:    132.82
SCF: Cycle: 19   Etot: -136.671773887125596   dEtot: -4.856e-08   |Residual|: 7.593e-05   |deigs|: 3.181e-06  t[s]:    133.01
	Linear fluid (dielectric constant: 64) occupying 0.994668 of unit cell:	Completed after 0 iterations at t[s]:    133.35
	Linear fluid (dielectric constant: 64) occupying 0.994668 of unit cell:	Completed after 0 iterations at t[s]:    134.07
SCF: Cycle: 20   Etot: -136.671773793722622   dEtot: +9.340e-08   |Residual|: 4.492e-05   |deigs|: 1.923e-06  t[s]:    134.26
	Linear fluid (dielectric constant: 64) occupying 0.994668 of unit cell:	Completed after 0 iterations at t[s]:    134.63
	Linear fluid (dielectric constant: 64) occupying 0.994668 of unit cell:	Completed after 0 iterations at t[s]:    135.31
SCF: Cycle: 21   Etot: -136.671773800628557   dEtot: -6.906e-09   |Residual|: 5.535e-05   |deigs|: 3.804e-05  t[s]:    135.50
	Linear fluid (dielectric constant: 64) occupying 0.994668 of unit cell:	Completed after 0 iterations at t[s]:    135.84
	Linear fluid (dielectric constant: 64) occupying 0.994668 of unit cell:	Completed after 0 iterations at t[s]:    136.50
SCF: Cycle: 22   Etot: -136.671773807027222   dEtot: -6.399e-09   |Residual|: 6.178e-05   |deigs|: 3.304e-07  t[s]:    136.70
SCF: Converged (|Delta E|<1.000000e-08 for 2 iters).

Setting wave functions to eigenvectors of Hamiltonian
IonicMinimize: 	Predicted alpha/alphaT>3.000000, increasing alphaT to 3.000000e+00.

-------- Electronic minimization -----------
Will mix electronic density at each iteration.
	Linear fluid (dielectric constant: 64) occupying 0.994666 of unit cell:	Completed after 21 iterations at t[s]:    138.08
	Linear fluid (dielectric constant: 64) occupying 0.994589 of unit cell:	Completed after 22 iterations at t[s]:    140.44
SCF: Cycle:  0   Etot: -136.667277258653712   dEtot: -8.320e-02   |Residual|: 1.352e-01   |deigs|: 4.346e-03  t[s]:    140.71
	Linear fluid (dielectric constant: 64) occupying 0.994689 of unit cell:	Completed after 22 iterations at t[s]:    142.54
	Linear fluid (dielectric constant: 64) occupying 0.994605 of unit cell:	Completed after 21 iterations at t[s]:    147.71
SCF: Cycle:  1   Etot: -136.671722797282257   dEtot: -4.446e-03   |Residual|: 6.691e-02   |deigs|: 3.217e-03  t[s]:    147.99
	Linear fluid (dielectric constant: 64) occupying 0.994683 of unit cell:	Completed after 20 iterations at t[s]:    152.98
	Linear fluid (dielectric constant: 64) occupying 0.994638 of unit cell:	Completed after 20 iterations at t[s]:    156.39
SCF: Cycle:  2   Etot: -136.674529206847609   dEtot: -2.806e-03   |Residual|: 1.376e-02   |deigs|: 4.320e-03  t[s]:    156.69
	Linear fluid (dielectric constant: 64) occupying 0.994658 of unit cell:	Completed after 17 iterations at t[s]:    158.15
	Linear fluid (dielectric constant: 64) occupying 0.994640 of unit cell:	Completed after 17 iterations at t[s]:    160.08
SCF: Cycle:  3   Etot: -136.674703268187443   dEtot: -1.741e-04   |Residual|: 7.899e-03   |deigs|: 2.849e-03  t[s]:    160.35
	Linear fluid (dielectric constant: 64) occupying 0.994625 of unit cell:	Completed after 11 iterations at t[s]:    161.40
	Linear fluid (dielectric constant: 64) occupying 0.994643 of unit cell:	Completed after 11 iterations at t[s]:    162.89
SCF: Cycle:  4   Etot: -136.674844738604833   dEtot: -1.415e-04   |Residual|: 3.417e-03   |deigs|: 2.653e-03  t[s]:    163.17
	Linear fluid (dielectric constant: 64) occupying 0.994621 of unit cell:	Completed after 9 iterations at t[s]:    164.06
	Linear fluid (dielectric constant: 64) occupying 0.994644 of unit cell:	Completed after 8 iterations at t[s]:    165.31
SCF: Cycle:  5   Etot: -136.674887375686296   dEtot: -4.264e-05   |Residual|: 2.156e-03   |deigs|: 2.710e-04  t[s]:    165.58
	Linear fluid (dielectric constant: 64) occupying 0.994614 of unit cell:	Completed after 10 iterations at t[s]:    166.58
	Linear fluid (dielectric constant: 64) occupying 0.994644 of unit cell:	Completed after 10 iterations at t[s]:    168.00
SCF: Cycle:  6   Etot: -136.674921357304811   dEtot: -3.398e-05   |Residual|: 1.470e-03   |deigs|: 4.648e-04  t[s]:    168.27
	Linear fluid (dielectric constant: 64) occupying 0.994618 of unit cell:	Completed after 8 iterations at t[s]:    169.11
	Linear fluid (dielectric constant: 64) occupying 0.994646 of unit cell:	Completed after 8 iterations at t[s]:    170.34
SCF: Cycle:  7   Etot: -136.674929336434730   dEtot: -7.979e-06   |Residual|: 1.122e-03   |deigs|: 2.167e-04  t[s]:    170.61
	Linear fluid (dielectric constant: 64) occupying 0.994633 of unit cell:	Completed after 3 iterations at t[s]:    171.19
	Linear fluid (dielectric constant: 64) occupying 0.994647 of unit cell:	Completed after 3 iterations at t[s]:    172.11
SCF: Cycle:  8   Etot: -136.674935868199043   dEtot: -6.532e-06   |Residual|: 8.560e-04   |deigs|: 4.702e-04  t[s]:    172.31
	Linear fluid (dielectric constant: 64) occupying 0.994640 of unit cell:	Completed after 3 iterations at t[s]:    172.88
	Linear fluid (dielectric constant: 64) occupying 0.994646 of unit cell:	Completed after 2 iterations at t[s]:    173.76
SCF: Cycle:  9   Etot: -136.674937263202594   dEtot: -1.395e-06   |Residual|: 6.084e-04   |deigs|: 1.355e-04  t[s]:    173.95
	Linear fluid (dielectric constant: 64) occupying 0.994646 of unit cell:	Completed after 4 iterations at t[s]:    174.56
	Linear fluid (dielectric constant: 64) occupying 0.994646 of unit cell:	Completed after 3 iterations at t[s]:    175.48
SCF: Cycle: 10   Etot: -136.674937683985576   dEtot: -4.208e-07   |Residual|: 6.657e-04   |deigs|: 6.803e-05  t[s]:    175.68
	Linear fluid (dielectric constant: 64) occupying 0.994645 of unit cell:	Completed after 0 iterations at t[s]:    176.10
	Linear fluid (dielectric constant: 64) occupying 0.994647 of unit cell:	Completed after 2 iterations at t[s]:    177.05
SCF: Cycle: 11   Etot: -136.674938888743355   dEtot: -1.205e-06   |Residual|: 3.465e-04   |deigs|: 1.235e-04  t[s]:    177.24
	Linear fluid (dielectric constant: 64) occupying 0.994646 of unit cell:	Completed after 0 iterations at t[s]:    177.70
	Linear fluid (dielectric constant: 64) occupying 0.994646 of unit cell:	Completed after 0 iterations at t[s]:    178.42
SCF: Cycle: 12   Etot: -136.674939058652427   dEtot: -1.699e-07   |Residual|: 3.936e-04   |deigs|: 1.437e-04  t[s]:    178.61
	Linear fluid (dielectric constant: 64) occupying 0.994647 of unit cell:	Completed after 0 iterations at t[s]:    178.97
	Linear fluid (dielectric constant: 64) occupying 0.994646 of unit cell:	Completed after 0 iterations at t[s]:    179.67
SCF: Cycle: 13   Etot: -136.674939432571279   dEtot: -3.739e-07   |Residual|: 1.994e-04   |deigs|: 3.716e-05  t[s]:    179.86
	Linear fluid (dielectric constant: 64) occupying 0.994646 of unit cell:	Completed after 0 iterations at t[s]:    180.23
	Linear fluid (dielectric constant: 64) occupying 0.994646 of unit cell:	Completed after 0 iterations at t[s]:    180.97
SCF: Cycle: 14   Etot: -136.674939480277487   dEtot: -4.771e-08   |Residual|: 2.426e-04   |deigs|: 2.690e-05  t[s]:    181.16
	Linear fluid (dielectric constant: 64) occupying 0.994646 of unit cell:	Completed after 0 iterations at t[s]:    181.51
	Linear fluid (dielectric constant: 64) occupying 0.994647 of unit cell:	Completed after 0 iterations at t[s]:    182.24
SCF: Cycle: 15   Etot: -136.674939585197166   dEtot: -1.049e-07   |Residual|: 1.194e-04   |deigs|: 1.705e-05  t[s]:    182.44
	Linear fluid (dielectric constant: 64) occupying 0.994647 of unit cell:	Completed after 0 iterations at t[s]:    182.77
	Linear fluid (dielectric constant: 64) occupying 0.994647 of unit cell:	Completed after 0 iterations at t[s]:    183.44
SCF: Cycle: 16   Etot: -136.674939642406400   dEtot: -5.721e-08   |Residual|: 1.092e-04   |deigs|: 3.385e-06  t[s]:    183.63
	Linear fluid (dielectric constant: 64) occupying 0.994647 of unit cell:	Completed after 0 iterations at t[s]:    183.96
	Linear fluid (dielectric constant: 64) occupying 0.994647 of unit cell:	Completed after 0 iterations at t[s]:    184.66
SCF: Cycle: 17   Etot: -136.674939696828773   dEtot: -5.442e-08   |Residual|: 1.323e-04   |deigs|: 4.079e-06  t[s]:    184.85
	Linear fluid (dielectric constant: 64) occupying 0.994647 of unit cell:	Completed after 1 iterations at t[s]:    185.26
	Linear fluid (dielectric constant: 64) occupying 0.994647 of unit cell:	Completed after 0 iterations at t[s]:    186.04
SCF: Cycle: 18   Etot: -136.674939478658416   dEtot: +2.182e-07   |Residual|: 2.344e-04   |deigs|: 6.073e-05  t[s]:    186.24
	Linear fluid (dielectric constant: 64) occupying 0.994647 of unit cell:	Completed after 0 iterations at t[s]:    186.59
	Linear fluid (dielectric constant: 64) occupying 0.994647 of unit cell:	Completed after 0 iterations at t[s]:    187.28
SCF: Cycle: 19   Etot: -136.674939488436706   dEtot: -9.778e-09   |Residual|: 1.369e-04   |deigs|: 2.154e-05  t[s]:    187.48
	Linear fluid (dielectric constant: 64) occupying 0.994647 of unit cell:	Completed after 0 iterations at t[s]:    187.81
	Linear fluid (dielectric constant: 64) occupying 0.994647 of unit cell:	Completed after 0 iterations at t[s]:    188.53
SCF: Cycle: 20   Etot: -136.674939550478967   dEtot: -6.204e-08   |Residual|: 9.134e-05   |deigs|: 1.616e-06  t[s]:    188.72
	Linear fluid (dielectric constant: 64) occupying 0.994647 of unit cell:	Completed after 0 iterations at t[s]:    189.05
	Linear fluid (dielectric constant: 64) occupying 0.994647 of unit cell:	Completed after 0 iterations at t[s]:    189.79
SCF: Cycle: 21   Etot: -136.674939650370419   dEtot: -9.989e-08   |Residual|: 6.924e-05   |deigs|: 3.077e-06  t[s]:    189.98
	Linear fluid (dielectric constant: 64) occupying 0.994647 of unit cell:	Completed after 0 iterations at t[s]:    190.31
	Linear fluid (dielectric constant: 64) occupying 0.994647 of unit cell:	Completed after 0 iterations at t[s]:    191.00
SCF: Cycle: 22   Etot: -136.674939728604045   dEtot: -7.823e-08   |Residual|: 6.633e-05   |deigs|: 2.358e-06  t[s]:    191.19
	Linear fluid (dielectric constant: 64) occupying 0.994647 of unit cell:	Completed after 0 iterations at t[s]:    191.52
	Linear fluid (dielectric constant: 64) occupying 0.994647 of unit cell:	Completed after 0 iterations at t[s]:    192.25
SCF: Cycle: 23   Etot: -136.674939814156176   dEtot: -8.555e-08   |Residual|: 4.668e-05   |deigs|: 2.097e-06  t[s]:    192.44
	Linear fluid (dielectric constant: 64) occupying 0.994647 of unit cell:	Completed after 1 iterations at t[s]:    192.85
	Linear fluid (dielectric constant: 64) occupying 0.994647 of unit cell:	Completed after 0 iterations at t[s]:    193.54
SCF: Cycle: 24   Etot: -136.674939618577667   dEtot: +1.956e-07   |Residual|: 5.737e-05   |deigs|: 1.828e-05  t[s]:    193.73
	Linear fluid (dielectric constant: 64) occupying 0.994647 of unit cell:	Completed after 0 iterations at t[s]:    194.07
	Linear fluid (dielectric constant: 64) occupying 0.994647 of unit cell:	Completed after 0 iterations at t[s]:    194.75
SCF: Cycle: 25   Etot: -136.674939624140364   dEtot: -5.563e-09   |Residual|: 6.055e-05   |deigs|: 2.674e-07  t[s]:    194.95
	Linear fluid (dielectric constant: 64) occupying 0.994647 of unit cell:	Completed after 0 iterations at t[s]:    195.28
	Linear fluid (dielectric constant: 64) occupying 0.994647 of unit cell:	Completed after 0 iterations at t[s]:    195.95
SCF: Cycle: 26   Etot: -136.674939630872018   dEtot: -6.732e-09   |Residual|: 6.177e-05   |deigs|: 2.552e-07  t[s]:    196.14
SCF: Converged (|Delta E|<1.000000e-08 for 2 iters).

Setting wave functions to eigenvectors of Hamiltonian
IonicMinimize: 	Predicted alpha/alphaT>3.000000, increasing alphaT to 9.000000e+00.

-------- Electronic minimization -----------
Will mix electronic density at each iteration.
	Linear fluid (dielectric constant: 64) occupying 0.994640 of unit cell:	Completed after 26 iterations at t[s]:    197.88
	Linear fluid (dielectric constant: 64) occupying 0.994454 of unit cell:	Completed after 27 iterations at t[s]:    200.58
SCF: Cycle:  0   Etot: -136.606724559115804   dEtot: -7.629e-01   |Residual|: 4.558e-01   |deigs|: 4.067e-02  t[s]:    200.86
	Linear fluid (dielectric constant: 64) occupying 0.994693 of unit cell:	Completed after 33 iterations at t[s]:    203.44
	Linear fluid (dielectric constant: 64) occupying 0.994471 of unit cell:	Completed after 28 iterations at t[s]:    206.16
SCF: Cycle:  1   Etot: -136.652908574710239   dEtot: -4.618e-02   |Residual|: 2.077e-01   |deigs|: 3.259e-02  t[s]:    206.44
	Linear fluid (dielectric constant: 64) occupying 0.994639 of unit cell:	Completed after 34 iterations at t[s]:    209.12
	Linear fluid (dielectric constant: 64) occupying 0.994539 of unit cell:	Completed after 27 iterations at t[s]:    211.75
SCF: Cycle:  2   Etot: -136.678118446462804   dEtot: -2.521e-02   |Residual|: 5.320e-02   |deigs|: 6.439e-03  t[s]:    212.05
	Linear fluid (dielectric constant: 64) occupying 0.994586 of unit cell:	Completed after 27 iterations at t[s]:    214.24
	Linear fluid (dielectric constant: 64) occupying 0.994557 of unit cell:	Completed after 22 iterations at t[s]:    216.51
SCF: Cycle:  3   Etot: -136.680756423291598   dEtot: -2.638e-03   |Residual|: 2.446e-02   |deigs|: 1.462e-02  t[s]:    216.79
	Linear fluid (dielectric constant: 64) occupying 0.994517 of unit cell:	Completed after 17 iterations at t[s]:    218.28
	Linear fluid (dielectric constant: 64) occupying 0.994571 of unit cell:	Completed after 19 iterations at t[s]:    220.31
SCF: Cycle:  4   Etot: -136.681985536588286   dEtot: -1.229e-03   |Residual|: 1.138e-02   |deigs|: 8.751e-03  t[s]:    220.58
	Linear fluid (dielectric constant: 64) occupying 0.994478 of unit cell:	Completed after 14 iterations at t[s]:    221.85
	Linear fluid (dielectric constant: 64) occupying 0.994575 of unit cell:	Completed after 14 iterations at t[s]:    223.58
SCF: Cycle:  5   Etot: -136.682507633716710   dEtot: -5.221e-04   |Residual|: 6.230e-03   |deigs|: 1.583e-03  t[s]:    223.86
	Linear fluid (dielectric constant: 64) occupying 0.994471 of unit cell:	Completed after 13 iterations at t[s]:    225.05
	Linear fluid (dielectric constant: 64) occupying 0.994577 of unit cell:	Completed after 13 iterations at t[s]:    226.68
SCF: Cycle:  6   Etot: -136.682704275355945   dEtot: -1.966e-04   |Residual|: 4.724e-03   |deigs|: 1.055e-03  t[s]:    226.95
	Linear fluid (dielectric constant: 64) occupying 0.994501 of unit cell:	Completed after 10 iterations at t[s]:    227.94
	Linear fluid (dielectric constant: 64) occupying 0.994581 of unit cell:	Completed after 11 iterations at t[s]:    229.42
SCF: Cycle:  7   Etot: -136.682751659260333   dEtot: -4.738e-05   |Residual|: 3.310e-03   |deigs|: 1.726e-03  t[s]:    229.69
	Linear fluid (dielectric constant: 64) occupying 0.994547 of unit cell:	Completed after 6 iterations at t[s]:    230.37
	Linear fluid (dielectric constant: 64) occupying 0.994583 of unit cell:	Completed after 6 iterations at t[s]:    231.56
SCF: Cycle:  8   Etot: -136.682777918437893   dEtot: -2.626e-05   |Residual|: 2.379e-03   |deigs|: 9.070e-04  t[s]:    231.83
	Linear fluid (dielectric constant: 64) occupying 0.994571 of unit cell:	Completed after 5 iterations at t[s]:    232.48
	Linear fluid (dielectric constant: 64) occupying 0.994584 of unit cell:	Completed after 5 iterations at t[s]:    233.50
SCF: Cycle:  9   Etot: -136.682780874974100   dEtot: -2.957e-06   |Residual|: 2.391e-03   |deigs|: 3.864e-04  t[s]:    233.70
	Linear fluid (dielectric constant: 64) occupying 0.994579 of unit cell:	Completed after 6 iterations at t[s]:    234.42
	Linear fluid (dielectric constant: 64) occupying 0.994584 of unit cell:	Completed after 4 iterations at t[s]:    235.48
SCF: Cycle: 10   Etot: -136.682783802601762   dEtot: -2.928e-06   |Residual|: 1.435e-03   |deigs|: 2.817e-04  t[s]:    235.67
	Linear fluid (dielectric constant: 64) occupying 0.994584 of unit cell:	Completed after 3 iterations at t[s]:    236.24
	Linear fluid (dielectric constant: 64) occupying 0.994587 of unit cell:	Completed after 3 iterations at t[s]:    237.20
SCF: Cycle: 11   Etot: -136.682788272108411   dEtot: -4.470e-06   |Residual|: 9.385e-04   |deigs|: 1.255e-04  t[s]:    237.39
	Linear fluid (dielectric constant: 64) occupying 0.994584 of unit cell:	Completed after 1 iterations at t[s]:    237.90
	Linear fluid (dielectric constant: 64) occupying 0.994586 of unit cell:	Completed after 1 iterations at t[s]:    238.75
SCF: Cycle: 12   Etot: -136.682788616933749   dEtot: -3.448e-07   |Residual|: 6.561e-04   |deigs|: 1.273e-04  t[s]:    238.95
	Linear fluid (dielectric constant: 64) occupying 0.994586 of unit cell:	Completed after 0 iterations at t[s]:    239.38
	Linear fluid (dielectric constant: 64) occupying 0.994587 of unit cell:	Completed after 0 iterations at t[s]:    240.14
SCF: Cycle: 13   Etot: -136.682789812781039   dEtot: -1.196e-06   |Residual|: 5.045e-04   |deigs|: 3.153e-05  t[s]:    240.33
	Linear fluid (dielectric constant: 64) occupying 0.994587 of unit cell:	Completed after 4 iterations at t[s]:    240.85
	Linear fluid (dielectric constant: 64) occupying 0.994587 of unit cell:	Completed after 2 iterations at t[s]:    241.74
SCF: Cycle: 14   Etot: -136.682789445602396   dEtot: +3.672e-07   |Residual|: 4.166e-04   |deigs|: 8.468e-05  t[s]:    241.93
	Linear fluid (dielectric constant: 64) occupying 0.994589 of unit cell:	Completed after 0 iterations at t[s]:    242.35
	Linear fluid (dielectric constant: 64) occupying 0.994588 of unit cell:	Completed after 0 iterations at t[s]:    243.10
SCF: Cycle: 15   Etot: -136.682790232240592   dEtot: -7.866e-07   |Residual|: 3.169e-04   |deigs|: 2.948e-05  t[s]:    243.29
	Linear fluid (dielectric constant: 64) occupying 0.994589 of unit cell:	Completed after 3 iterations at t[s]:    243.80
	Linear fluid (dielectric constant: 64) occupying 0.994587 of unit cell:	Completed after 1 iterations at t[s]:    244.62
SCF: Cycle: 16   Etot: -136.682789923826931   dEtot: +3.084e-07   |Residual|: 4.997e-04   |deigs|: 1.666e-04  t[s]:    244.82
	Linear fluid (dielectric constant: 64) occupying 0.994588 of unit cell:	Completed after 0 iterations at t[s]:    245.24
	Linear fluid (dielectric constant: 64) occupying 0.994587 of unit cell:	Completed after 0 iterations at t[s]:    245.95
SCF: Cycle: 17   Etot: -136.682790188837402   dEtot: -2.650e-07   |Residual|: 2.408e-04   |deigs|: 1.810e-05  t[s]:    246.15
	Linear fluid (dielectric constant: 64) occupying 0.994586 of unit cell:	Completed after 0 iterations at t[s]:    246.51
	Linear fluid (dielectric constant: 64) occupying 0.994587 of unit cell:	Completed after 0 iterations at t[s]:    247.24
SCF: Cycle: 18   Etot: -136.682790561459313   dEtot: -3.726e-07   |Residual|: 2.034e-04   |deigs|: 3.421e-05  t[s]:    247.43
	Linear fluid (dielectric constant: 64) occupying 0.994585 of unit cell:	Completed after 3 iterations at t[s]:    247.91
	Linear fluid (dielectric constant: 64) occupying 0.994587 of unit cell:	Completed after 1 iterations at t[s]:    248.74
SCF: Cycle: 19   Etot: -136.682790074449258   dEtot: +4.870e-07   |Residual|: 6.276e-04   |deigs|: 1.942e-04  t[s]:    248.93
	Linear fluid (dielectric constant: 64) occupying 0.994585 of unit cell:	Completed after 0 iterations at t[s]:    249.36
	Linear fluid (dielectric constant: 64) occupying 0.994587 of unit cell:	Completed after 0 iterations at t[s]:    250.09
SCF: Cycle: 20   Etot: -136.682790089898333   dEtot: -1.545e-08   |Residual|: 2.821e-04   |deigs|: 1.373e-05  t[s]:    250.29
	Linear fluid (dielectric constant: 64) occupying 0.994586 of unit cell:	Completed after 0 iterations at t[s]:    250.65
	Linear fluid (dielectric constant: 64) occupying 0.994587 of unit cell:	Completed after 0 iterations at t[s]:    251.39
SCF: Cycle: 21   Etot: -136.682790463279872   dEtot: -3.734e-07   |Residual|: 2.501e-04   |deigs|: 3.515e-05  t[s]:    251.59
	Linear fluid (dielectric constant: 64) occupying 0.994587 of unit cell:	Completed after 0 iterations at t[s]:    251.92
	Linear fluid (dielectric constant: 64) occupying 0.994587 of unit cell:	Completed after 2 iterations at t[s]:    252.76
SCF: Cycle: 22   Etot: -136.682790034063061   dEtot: +4.292e-07   |Residual|: 3.215e-04   |deigs|: 1.198e-05  t[s]:    252.96
	Linear fluid (dielectric constant: 64) occupying 0.994587 of unit cell:	Completed after 0 iterations at t[s]:    253.37
	Linear fluid (dielectric constant: 64) occupying 0.994587 of unit cell:	Completed after 0 iterations at t[s]:    254.06
SCF: Cycle: 23   Etot: -136.682790502367993   dEtot: -4.683e-07   |Residual|: 3.504e-04   |deigs|: 1.721e-04  t[s]:    254.25
	Linear fluid (dielectric constant: 64) occupying 0.994587 of unit cell:	Completed after 0 iterations at t[s]:    254.59
	Linear fluid (dielectric constant: 64) occupying 0.994587 of unit cell:	Completed after 0 iterations at t[s]:    255.31
SCF: Cycle: 24   Etot: -136.682790468262482   dEtot: +3.411e-08   |Residual|: 3.507e-04   |deigs|: 1.678e-06  t[s]:    255.52
	Linear fluid (dielectric constant: 64) occupying 0.994587 of unit cell:	Completed after 0 iterations at t[s]:    255.87
	Linear fluid (dielectric constant: 64) occupying 0.994587 of unit cell:	Completed after 0 iterations at t[s]:    256.56
SCF: Cycle: 25   Etot: -136.682790526828825   dEtot: -5.857e-08   |Residual|: 2.494e-04   |deigs|: 2.898e-05  t[s]:    256.76
	Linear fluid (dielectric constant: 64) occupying 0.994587 of unit cell:	Completed after 0 iterations at t[s]:    257.09
	Linear fluid (dielectric constant: 64) occupying 0.994587 of unit cell:	Completed after 0 iterations at t[s]:    257.85
SCF: Cycle: 26   Etot: -136.682790533212511   dEtot: -6.384e-09   |Residual|: 1.401e-04   |deigs|: 3.701e-06  t[s]:    258.05
	Linear fluid (dielectric constant: 64) occupying 0.994588 of unit cell:	Completed after 0 iterations at t[s]:    258.41
	Linear fluid (dielectric constant: 64) occupying 0.994587 of unit cell:	Completed after 0 iterations at t[s]:    259.15
SCF: Cycle: 27   Etot: -136.682790555095238   dEtot: -2.188e-08   |Residual|: 6.402e-05   |deigs|: 3.726e-05  t[s]:    259.34
	Linear fluid (dielectric constant: 64) occupying 0.994587 of unit cell:	Completed after 0 iterations at t[s]:    259.67
	Linear fluid (dielectric constant: 64) occupying 0.994587 of unit cell:	Completed after 0 iterations at t[s]:    260.39
SCF: Cycle: 28   Etot: -136.682790579774348   dEtot: -2.468e-08   |Residual|: 5.517e-05   |deigs|: 1.690e-06  t[s]:    260.59
	Linear fluid (dielectric constant: 64) occupying 0.994587 of unit cell:	Completed after 0 iterations at t[s]:    260.93
	Linear fluid (dielectric constant: 64) occupying 0.994587 of unit cell:	Completed after 0 iterations at t[s]:    261.62
SCF: Cycle: 29   Etot: -136.682790585830958   dEtot: -6.057e-09   |Residual|: 5.060e-05   |deigs|: 1.048e-06  t[s]:    261.82
	Linear fluid (dielectric constant: 64) occupying 0.994587 of unit cell:	Completed after 0 iterations at t[s]:    262.15
	Linear fluid (dielectric constant: 64) occupying 0.994587 of unit cell:	Completed after 0 iterations at t[s]:    262.86
SCF: Cycle: 30   Etot: -136.682790599352415   dEtot: -1.352e-08   |Residual|: 5.054e-05   |deigs|: 6.282e-07  t[s]:    263.05
	Linear fluid (dielectric constant: 64) occupying 0.994587 of unit cell:	Completed after 0 iterations at t[s]:    263.38
	Linear fluid (dielectric constant: 64) occupying 0.994587 of unit cell:	Completed after 0 iterations at t[s]:    264.07
SCF: Cycle: 31   Etot: -136.682790606736205   dEtot: -7.384e-09   |Residual|: 3.725e-05   |deigs|: 7.720e-07  t[s]:    264.28
	Linear fluid (dielectric constant: 64) occupying 0.994587 of unit cell:	Completed after 0 iterations at t[s]:    264.61
	Linear fluid (dielectric constant: 64) occupying 0.994587 of unit cell:	Completed after 0 iterations at t[s]:    265.29
SCF: Cycle: 32   Etot: -136.682790610935427   dEtot: -4.199e-09   |Residual|: 1.496e-05   |deigs|: 6.744e-07  t[s]:    265.49
SCF: Converged (|Delta E|<1.000000e-08 for 2 iters).

Setting wave functions to eigenvectors of Hamiltonian

-------- Electronic minimization -----------
Will mix electronic density at each iteration.
	Linear fluid (dielectric constant: 64) occupying 0.994554 of unit cell:	Completed after 32 iterations at t[s]:    267.69
	Linear fluid (dielectric constant: 64) occupying 0.994320 of unit cell:	Completed after 46 iterations at t[s]:    271.71
SCF: Cycle:  0   Etot: -135.845974236294410   dEtot: -5.560e+00   |Residual|: 1.744e+00   |deigs|: 2.626e-01  t[s]:    271.99
	Linear fluid (dielectric constant: 64) occupying 0.994403 of unit cell:	Completed after 60 iterations at t[s]:    276.51
	Linear fluid (dielectric constant: 64) occupying 0.994271 of unit cell:	Completed after 41 iterations at t[s]:    280.15
SCF: Cycle:  1   Etot: -136.377535974040541   dEtot: -5.316e-01   |Residual|: 6.828e-01   |deigs|: 2.349e-01  t[s]:    280.42
	Linear fluid (dielectric constant: 64) occupying 0.994122 of unit cell:	Completed after 58 iterations at t[s]:    284.81
	Linear fluid (dielectric constant: 64) occupying 0.994322 of unit cell:	Completed after 35 iterations at t[s]:    288.01
SCF: Cycle:  2   Etot: -136.605207159002362   dEtot: -2.277e-01   |Residual|: 2.156e-01   |deigs|: 4.975e-02  t[s]:    288.29
	Linear fluid (dielectric constant: 64) occupying 0.994028 of unit cell:	Completed after 44 iterations at t[s]:    291.68
	Linear fluid (dielectric constant: 64) occupying 0.994340 of unit cell:	Completed after 30 iterations at t[s]:    294.55
SCF: Cycle:  3   Etot: -136.672247381182615   dEtot: -6.704e-02   |Residual|: 8.274e-02   |deigs|: 6.397e-02  t[s]:    294.83
	Linear fluid (dielectric constant: 64) occupying 0.994021 of unit cell:	Completed after 34 iterations at t[s]:    297.49
	Linear fluid (dielectric constant: 64) occupying 0.994362 of unit cell:	Completed after 25 iterations at t[s]:    300.00
SCF: Cycle:  4   Etot: -136.687222933489352   dEtot: -1.498e-02   |Residual|: 4.767e-02   |deigs|: 3.136e-02  t[s]:    300.27
	Linear fluid (dielectric constant: 64) occupying 0.994039 of unit cell:	Completed after 19 iterations at t[s]:    301.87
	Linear fluid (dielectric constant: 64) occupying 0.994387 of unit cell:	Completed after 21 iterations at t[s]:    304.10
SCF: Cycle:  5   Etot: -136.693184370890066   dEtot: -5.961e-03   |Residual|: 1.970e-02   |deigs|: 1.934e-02  t[s]:    304.38
	Linear fluid (dielectric constant: 64) occupying 0.994051 of unit cell:	Completed after 17 iterations at t[s]:    305.85
	Linear fluid (dielectric constant: 64) occupying 0.994405 of unit cell:	Completed after 17 iterations at t[s]:    307.77
SCF: Cycle:  6   Etot: -136.694900778709609   dEtot: -1.716e-03   |Residual|: 2.178e-02   |deigs|: 6.301e-03  t[s]:    308.04
	Linear fluid (dielectric constant: 64) occupying 0.994114 of unit cell:	Completed after 15 iterations at t[s]:    309.39
	Linear fluid (dielectric constant: 64) occupying 0.994411 of unit cell:	Completed after 15 iterations at t[s]:    311.16
SCF: Cycle:  7   Etot: -136.695307691197399   dEtot: -4.069e-04   |Residual|: 1.284e-02   |deigs|: 7.856e-03  t[s]:    311.44
	Linear fluid (dielectric constant: 64) occupying 0.994180 of unit cell:	Completed after 14 iterations at t[s]:    312.71
	Linear fluid (dielectric constant: 64) occupying 0.994419 of unit cell:	Completed after 17 iterations at t[s]:    314.64
SCF: Cycle:  8   Etot: -136.695388419091699   dEtot: -8.073e-05   |Residual|: 9.239e-03   |deigs|: 1.927e-03  t[s]:    314.90
	Linear fluid (dielectric constant: 64) occupying 0.994365 of unit cell:	Completed after 10 iterations at t[s]:    315.89
	Linear fluid (dielectric constant: 64) occupying 0.994434 of unit cell:	Completed after 10 iterations at t[s]:    317.32
SCF: Cycle:  9   Etot: -136.695526344576081   dEtot: -1.379e-04   |Residual|: 5.972e-03   |deigs|: 3.504e-03  t[s]:    317.60
	Linear fluid (dielectric constant: 64) occupying 0.994398 of unit cell:	Completed after 11 iterations at t[s]:    318.65
	Linear fluid (dielectric constant: 64) occupying 0.994433 of unit cell:	Completed after 9 iterations at t[s]:    319.99
SCF: Cycle: 10   Etot: -136.695531931234655   dEtot: -5.587e-06   |Residual|: 5.483e-03   |deigs|: 7.575e-04  t[s]:    320.28
	Linear fluid (dielectric constant: 64) occupying 0.994436 of unit cell:	Completed after 11 iterations at t[s]:    321.34
	Linear fluid (dielectric constant: 64) occupying 0.994437 of unit cell:	Completed after 10 iterations at t[s]:    322.76
SCF: Cycle: 11   Etot: -136.695539266779690   dEtot: -7.336e-06   |Residual|: 3.402e-03   |deigs|: 7.430e-04  t[s]:    323.03
	Linear fluid (dielectric constant: 64) occupying 0.994437 of unit cell:	Completed after 8 iterations at t[s]:    323.88
	Linear fluid (dielectric constant: 64) occupying 0.994439 of unit cell:	Completed after 9 iterations at t[s]:    325.16
SCF: Cycle: 12   Etot: -136.695550229660569   dEtot: -1.096e-05   |Residual|: 3.878e-03   |deigs|: 3.397e-04  t[s]:    325.43
	Linear fluid (dielectric constant: 64) occupying 0.994433 of unit cell:	Completed after 4 iterations at t[s]:    326.04
	Linear fluid (dielectric constant: 64) occupying 0.994440 of unit cell:	Completed after 3 iterations at t[s]:    327.03
SCF: Cycle: 13   Etot: -136.695560520305833   dEtot: -1.029e-05   |Residual|: 1.448e-03   |deigs|: 8.424e-04  t[s]:    327.22
	Linear fluid (dielectric constant: 64) occupying 0.994439 of unit cell:	Completed after 4 iterations at t[s]:    327.83
	Linear fluid (dielectric constant: 64) occupying 0.994442 of unit cell:	Completed after 2 iterations at t[s]:    328.71
SCF: Cycle: 14   Etot: -136.695565593491978   dEtot: -5.073e-06   |Residual|: 1.005e-03   |deigs|: 1.797e-04  t[s]:    328.90
	Linear fluid (dielectric constant: 64) occupying 0.994440 of unit cell:	Completed after 2 iterations at t[s]:    329.44
	Linear fluid (dielectric constant: 64) occupying 0.994441 of unit cell:	Completed after 1 iterations at t[s]:    330.28
SCF: Cycle: 15   Etot: -136.695566435105178   dEtot: -8.416e-07   |Residual|: 7.039e-04   |deigs|: 6.178e-05  t[s]:    330.47
	Linear fluid (dielectric constant: 64) occupying 0.994442 of unit cell:	Completed after 0 iterations at t[s]:    330.95
	Linear fluid (dielectric constant: 64) occupying 0.994442 of unit cell:	Completed after 0 iterations at t[s]:    331.77
SCF: Cycle: 16   Etot: -136.695567515726623   dEtot: -1.081e-06   |Residual|: 5.636e-04   |deigs|: 4.966e-05  t[s]:    331.98
	Linear fluid (dielectric constant: 64) occupying 0.994443 of unit cell:	Completed after 3 iterations at t[s]:    332.48
	Linear fluid (dielectric constant: 64) occupying 0.994442 of unit cell:	Completed after 1 iterations at t[s]:    333.33
SCF: Cycle: 17   Etot: -136.695567708836421   dEtot: -1.931e-07   |Residual|: 5.351e-04   |deigs|: 1.060e-04  t[s]:    333.53
	Linear fluid (dielectric constant: 64) occupying 0.994443 of unit cell:	Completed after 1 iterations at t[s]:    333.99
	Linear fluid (dielectric constant: 64) occupying 0.994442 of unit cell:	Completed after 1 iterations at t[s]:    334.81
SCF: Cycle: 18   Etot: -136.695567339717286   dEtot: +3.691e-07   |Residual|: 4.245e-04   |deigs|: 4.715e-05  t[s]:    335.01
	Linear fluid (dielectric constant: 64) occupying 0.994441 of unit cell:	Completed after 3 iterations at t[s]:    335.54
	Linear fluid (dielectric constant: 64) occupying 0.994442 of unit cell:	Completed after 1 iterations at t[s]:    336.40
SCF: Cycle: 19   Etot: -136.695567462417443   dEtot: -1.227e-07   |Residual|: 4.040e-04   |deigs|: 6.745e-05  t[s]:    336.59
	Linear fluid (dielectric constant: 64) occupying 0.994441 of unit cell:	Completed after 0 iterations at t[s]:    336.98
	Linear fluid (dielectric constant: 64) occupying 0.994442 of unit cell:	Completed after 1 iterations at t[s]:    337.80
SCF: Cycle: 20   Etot: -136.695567944807777   dEtot: -4.824e-07   |Residual|: 3.253e-04   |deigs|: 4.510e-05  t[s]:    337.99
	Linear fluid (dielectric constant: 64) occupying 0.994440 of unit cell:	Completed after 1 iterations at t[s]:    338.45
	Linear fluid (dielectric constant: 64) occupying 0.994442 of unit cell:	Completed after 0 iterations at t[s]:    339.24
SCF: Cycle: 21   Etot: -136.695568058236006   dEtot: -1.134e-07   |Residual|: 2.793e-04   |deigs|: 3.052e-05  t[s]:    339.44
	Linear fluid (dielectric constant: 64) occupying 0.994440 of unit cell:	Completed after 0 iterations at t[s]:    339.83
	Linear fluid (dielectric constant: 64) occupying 0.994442 of unit cell:	Completed after 0 iterations at t[s]:    340.51
SCF: Cycle: 22   Etot: -136.695568122020802   dEtot: -6.378e-08   |Residual|: 2.174e-04   |deigs|: 5.388e-05  t[s]:    340.71
	Linear fluid (dielectric constant: 64) occupying 0.994440 of unit cell:	Completed after 3 iterations at t[s]:    341.18
	Linear fluid (dielectric constant: 64) occupying 0.994442 of unit cell:	Completed after 3 iterations at t[s]:    342.13
SCF: Cycle: 23   Etot: -136.695568085608841   dEtot: +3.641e-08   |Residual|: 1.093e-03   |deigs|: 3.338e-04  t[s]:    342.32
	Linear fluid (dielectric constant: 64) occupying 0.994440 of unit cell:	Completed after 1 iterations at t[s]:    342.81
	Linear fluid (dielectric constant: 64) occupying 0.994442 of unit cell:	Completed after 0 iterations at t[s]:    343.61
SCF: Cycle: 24   Etot: -136.695568223304520   dEtot: -1.377e-07   |Residual|: 3.313e-04   |deigs|: 2.032e-04  t[s]:    343.81
	Linear fluid (dielectric constant: 64) occupying 0.994440 of unit cell:	Completed after 0 iterations at t[s]:    344.17
	Linear fluid (dielectric constant: 64) occupying 0.994442 of unit cell:	Completed after 0 iterations at t[s]:    344.84
SCF: Cycle: 25   Etot: -136.695568458761898   dEtot: -2.355e-07   |Residual|: 3.168e-04   |deigs|: 4.032e-05  t[s]:    345.04
	Linear fluid (dielectric constant: 64) occupying 0.994442 of unit cell:	Completed after 2 iterations at t[s]:    345.48
	Linear fluid (dielectric constant: 64) occupying 0.994442 of unit cell:	Completed after 1 iterations at t[s]:    346.33
SCF: Cycle: 26   Etot: -136.695568603785432   dEtot: -1.450e-07   |Residual|: 7.467e-04   |deigs|: 1.350e-04  t[s]:    346.52
	Linear fluid (dielectric constant: 64) occupying 0.994442 of unit cell:	Completed after 0 iterations at t[s]:    346.95
	Linear fluid (dielectric constant: 64) occupying 0.994442 of unit cell:	Completed after 0 iterations at t[s]:    347.62
SCF: Cycle: 27   Etot: -136.695568577447688   dEtot: +2.634e-08   |Residual|: 4.562e-04   |deigs|: 1.224e-04  t[s]:    347.80
	Linear fluid (dielectric constant: 64) occupying 0.994443 of unit cell:	Completed after 0 iterations at t[s]:    348.14
	Linear fluid (dielectric constant: 64) occupying 0.994442 of unit cell:	Completed after 0 iterations at t[s]:    348.87
SCF: Cycle: 28   Etot: -136.695568765294865   dEtot: -1.878e-07   |Residual|: 3.511e-04   |deigs|: 4.413e-06  t[s]:    349.07
	Linear fluid (dielectric constant: 64) occupying 0.994443 of unit cell:	Completed after 0 iterations at t[s]:    349.40
	Linear fluid (dielectric constant: 64) occupying 0.994442 of unit cell:	Completed after 0 iterations at t[s]:    350.06
SCF: Cycle: 29   Etot: -136.695568998169790   dEtot: -2.329e-07   |Residual|: 2.299e-04   |deigs|: 6.052e-06  t[s]:    350.26
	Linear fluid (dielectric constant: 64) occupying 0.994443 of unit cell:	Completed after 1 iterations at t[s]:    350.67
	Linear fluid (dielectric constant: 64) occupying 0.994442 of unit cell:	Completed after 0 iterations at t[s]:    351.36
SCF: Cycle: 30   Etot: -136.695568792542645   dEtot: +2.056e-07   |Residual|: 1.763e-04   |deigs|: 1.118e-04  t[s]:    351.56
	Linear fluid (dielectric constant: 64) occupying 0.994443 of unit cell:	Completed after 0 iterations at t[s]:    351.89
	Linear fluid (dielectric constant: 64) occupying 0.994442 of unit cell:	Completed after 0 iterations at t[s]:    352.57
SCF: Cycle: 31   Etot: -136.695568817425055   dEtot: -2.488e-08   |Residual|: 2.154e-04   |deigs|: 2.054e-06  t[s]:    352.76
	Linear fluid (dielectric constant: 64) occupying 0.994442 of unit cell:	Completed after 0 iterations at t[s]:    353.10
	Linear fluid (dielectric constant: 64) occupying 0.994442 of unit cell:	Completed after 0 iterations at t[s]:    353.87
SCF: Cycle: 32   Etot: -136.695568742425564   dEtot: +7.500e-08   |Residual|: 1.682e-04   |deigs|: 5.272e-06  t[s]:    354.06
	Linear fluid (dielectric constant: 64) occupying 0.994442 of unit cell:	Completed after 0 iterations at t[s]:    354.42
	Linear fluid (dielectric constant: 64) occupying 0.994442 of unit cell:	Completed after 0 iterations at t[s]:    355.10
SCF: Cycle: 33   Etot: -136.695568754307430   dEtot: -1.188e-08   |Residual|: 1.153e-04   |deigs|: 2.703e-05  t[s]:    355.29
	Linear fluid (dielectric constant: 64) occupying 0.994442 of unit cell:	Completed after 0 iterations at t[s]:    355.63
	Linear fluid (dielectric constant: 64) occupying 0.994442 of unit cell:	Completed after 0 iterations at t[s]:    356.30
SCF: Cycle: 34   Etot: -136.695568758504805   dEtot: -4.197e-09   |Residual|: 1.105e-04   |deigs|: 9.116e-07  t[s]:    356.50
	Linear fluid (dielectric constant: 64) occupying 0.994442 of unit cell:	Completed after 0 iterations at t[s]:    356.83
	Linear fluid (dielectric constant: 64) occupying 0.994442 of unit cell:	Completed after 0 iterations at t[s]:    357.52
SCF: Cycle: 35   Etot: -136.695568758881933   dEtot: -3.771e-10   |Residual|: 1.129e-04   |deigs|: 2.029e-07  t[s]:    357.71
SCF: Converged (|Delta E|<1.000000e-08 for 2 iters).

Setting wave functions to eigenvectors of Hamiltonian

# Ionic positions in cartesian coordinates:
ion S   4.767825061612745  14.207388589391531  25.538167914392993 1
ion S   6.957554681515394  13.289812188402678  28.572849454865505 1
ion S   8.361418656437827   9.462954424934402  28.574449315378359 1
ion S  10.543053062239565   8.543654383520845  25.540811168488812 1
ion Na   4.922168904263378   8.651785571119968  24.023305759528299 1
ion Na  10.383770800451089  14.091886629370570  24.007949533226029 1

# Forces in Cartesian coordinates:
force S  -0.010471099631259   0.004065104429193  -0.003356823196279 1
force S   0.009885162640055  -0.003173465286914   0.009544148672931 1
force S  -0.010292989150387   0.003403982122265   0.010085282596162 1
force S   0.010892117210146  -0.004254963402156  -0.003938599330478 1
force Na  -0.006696807965959  -0.006152152119136  -0.005920078387163 1
force Na   0.006708142797137   0.006259352363440  -0.005967427773635 1

# Energy components:
   A_diel =       -0.2455039820789836
   Eewald =       84.8641183806787041
       EH =      197.4193231638651298
     Eloc =     -290.0878919811416381
      Enl =     -136.8980847299840775
      Exc =      -31.2456302501017866
 Exc_core =        7.0709182974507447
       KE =       32.4271823424299939
-------------------------------------
     Etot =     -136.6955687588819330

IonicMinimize: Iter:   1  Etot: -136.695568758881933  |grad|_K:  7.247e-03  alpha:  2.441e+01  linmin: -4.695e-01  t[s]:    358.06

#--- Lowdin population analysis ---
# oxidation-state S -0.641 -0.077 -0.075 -0.639
[...]
	Linear fluid (dielectric constant: 64) occupying 0.994197 of unit cell:	Completed after 0 iterations at t[s]:   5840.06
	Linear fluid (dielectric constant: 64) occupying 0.994197 of unit cell:	Completed after 0 iterations at t[s]:   5840.78
SCF: Cycle:  0   Etot: -136.719906582619615   dEtot: -5.978e-09   |Residual|: 4.016e-05   |deigs|: 1.245e-10  t[s]:   5840.97
	Linear fluid (dielectric constant: 64) occupying 0.994197 of unit cell:	Completed after 0 iterations at t[s]:   5841.31
	Linear fluid (dielectric constant: 64) occupying 0.994197 of unit cell:	Completed after 0 iterations at t[s]:   5842.00
SCF: Cycle:  1   Etot: -136.719906584635623   dEtot: -2.016e-09   |Residual|: 3.325e-05   |deigs|: 2.151e-07  t[s]:   5842.19
SCF: Converged (|Delta E|<1.000000e-08 for 2 iters).

Setting wave functions to eigenvectors of Hamiltonian
IonicMinimize: 	Step failed: resetting search direction.

# Ionic positions in cartesian coordinates:
ion S   4.566338016548379  14.234987534507086  26.382407171983115 1
ion S   7.198157734648785  13.270342427507609  29.151403877333298 1
ion S   8.113974771912766   9.459648208863914  29.130210988877995 1
ion S  10.779186537913237   8.537733899657985  26.377293335949958 1
ion Na   3.323937162463018   7.054009636131534  22.616637850313666 1
ion Na  11.954196943033791  15.690760080071874  22.599579921421988 1

# Forces in Cartesian coordinates:
force S  -0.000353950150997   0.000907987312324  -0.000633528271697 1
force S  -0.000155933510486  -0.002000639234757   0.000719425334263 1
force S   0.000974639213523   0.001174684079618   0.000718661881829 1
force S  -0.000405798306612  -0.000095209104521   0.000071582326207 1
force Na   0.000091838645584   0.000062154122853  -0.000139288840259 1
force Na  -0.000106199664811  -0.000030306493197  -0.000064007277922 1

# Energy components:
   A_diel =       -0.3878745587725261
   Eewald =       59.0739836541347216
       EH =      173.0875134596331293
     Eloc =     -239.7860607199932588
      Enl =     -136.8987447371482347
      Exc =      -31.2008529312478871
 Exc_core =        7.0709183537447444
       KE =       32.3212108950136709
-------------------------------------
     Etot =     -136.7199065846356234

IonicMinimize: Iter:  86  Etot: -136.719906584635623  |grad|_K:  7.029e-04  alpha:  2.731e-04

#--- Lowdin population analysis ---
# oxidation-state S -0.739 -0.045 -0.045 -0.739
# oxidation-state Na +0.973 +0.973


-------- Electronic minimization -----------
Will mix electronic density at each iteration.
	Linear fluid (dielectric constant: 64) occupying 0.994197 of unit cell:	Completed after 3 iterations at t[s]:   5843.11
	Linear fluid (dielectric constant: 64) occupying 0.994197 of unit cell:	Completed after 0 iterations at t[s]:   5843.90
SCF: Cycle:  0   Etot: -136.719906252596274   dEtot: -9.881e-07   |Residual|: 3.463e-04   |deigs|: 2.910e-08  t[s]:   5844.10
	Linear fluid (dielectric constant: 64) occupying 0.994197 of unit cell:	Completed after 0 iterations at t[s]:   5844.43
	Linear fluid (dielectric constant: 64) occupying 0.994197 of unit cell:	Completed after 0 iterations at t[s]:   5845.13
SCF: Cycle:  1   Etot: -136.719906417372158   dEtot: -1.648e-07   |Residual|: 2.585e-04   |deigs|: 1.945e-06  t[s]:   5845.33
	Linear fluid (dielectric constant: 64) occupying 0.994197 of unit cell:	Completed after 0 iterations at t[s]:   5845.65
	Linear fluid (dielectric constant: 64) occupying 0.994197 of unit cell:	Completed after 0 iterations at t[s]:   5846.33
SCF: Cycle:  2   Etot: -136.719906520586392   dEtot: -1.032e-07   |Residual|: 1.004e-04   |deigs|: 3.782e-06  t[s]:   5846.52
	Linear fluid (dielectric constant: 64) occupying 0.994197 of unit cell:	Completed after 0 iterations at t[s]:   5846.85
	Linear fluid (dielectric constant: 64) occupying 0.994197 of unit cell:	Completed after 0 iterations at t[s]:   5847.54
SCF: Cycle:  3   Etot: -136.719906570016093   dEtot: -4.943e-08   |Residual|: 4.991e-05   |deigs|: 1.889e-06  t[s]:   5847.73
	Linear fluid (dielectric constant: 64) occupying 0.994197 of unit cell:	Completed after 0 iterations at t[s]:   5848.06
	Linear fluid (dielectric constant: 64) occupying 0.994197 of unit cell:	Completed after 1 iterations at t[s]:   5848.83
SCF: Cycle:  4   Etot: -136.719905845661543   dEtot: +7.244e-07   |Residual|: 2.989e-05   |deigs|: 9.458e-07  t[s]:   5849.02
	Linear fluid (dielectric constant: 64) occupying 0.994197 of unit cell:	Completed after 0 iterations at t[s]:   5849.40
	Linear fluid (dielectric constant: 64) occupying 0.994197 of unit cell:	Completed after 0 iterations at t[s]:   5850.13
SCF: Cycle:  5   Etot: -136.719906076806240   dEtot: -2.311e-07   |Residual|: 3.008e-04   |deigs|: 4.634e-05  t[s]:   5850.32
	Linear fluid (dielectric constant: 64) occupying 0.994197 of unit cell:	Completed after 0 iterations at t[s]:   5850.67
	Linear fluid (dielectric constant: 64) occupying 0.994197 of unit cell:	Completed after 0 iterations at t[s]:   5851.36
SCF: Cycle:  6   Etot: -136.719906133403356   dEtot: -5.660e-08   |Residual|: 2.331e-04   |deigs|: 7.613e-06  t[s]:   5851.56
	Linear fluid (dielectric constant: 64) occupying 0.994197 of unit cell:	Completed after 0 iterations at t[s]:   5851.89
	Linear fluid (dielectric constant: 64) occupying 0.994197 of unit cell:	Completed after 0 iterations at t[s]:   5852.58
SCF: Cycle:  7   Etot: -136.719906160342049   dEtot: -2.694e-08   |Residual|: 2.783e-04   |deigs|: 2.129e-07  t[s]:   5852.78
	Linear fluid (dielectric constant: 64) occupying 0.994197 of unit cell:	Completed after 0 iterations at t[s]:   5853.10
	Linear fluid (dielectric constant: 64) occupying 0.994197 of unit cell:	Completed after 0 iterations at t[s]:   5853.79
SCF: Cycle:  8   Etot: -136.719906170764716   dEtot: -1.042e-08   |Residual|: 2.858e-04   |deigs|: 1.327e-07  t[s]:   5853.98
	Linear fluid (dielectric constant: 64) occupying 0.994197 of unit cell:	Completed after 0 iterations at t[s]:   5854.31
	Linear fluid (dielectric constant: 64) occupying 0.994197 of unit cell:	Completed after 0 iterations at t[s]:   5854.99
SCF: Cycle:  9   Etot: -136.719906180893048   dEtot: -1.013e-08   |Residual|: 2.784e-04   |deigs|: 3.748e-07  t[s]:   5855.18
	Linear fluid (dielectric constant: 64) occupying 0.994197 of unit cell:	Completed after 0 iterations at t[s]:   5855.51
	Linear fluid (dielectric constant: 64) occupying 0.994197 of unit cell:	Completed after 0 iterations at t[s]:   5856.20
SCF: Cycle: 10   Etot: -136.719906190259366   dEtot: -9.366e-09   |Residual|: 2.216e-04   |deigs|: 1.210e-06  t[s]:   5856.39
	Linear fluid (dielectric constant: 64) occupying 0.994197 of unit cell:	Completed after 0 iterations at t[s]:   5856.72
	Linear fluid (dielectric constant: 64) occupying 0.994197 of unit cell:	Completed after 0 iterations at t[s]:   5857.42
SCF: Cycle: 11   Etot: -136.719906201694783   dEtot: -1.144e-08   |Residual|: 1.671e-04   |deigs|: 1.219e-06  t[s]:   5857.61
	Linear fluid (dielectric constant: 64) occupying 0.994197 of unit cell:	Completed after 0 iterations at t[s]:   5857.95
	Linear fluid (dielectric constant: 64) occupying 0.994197 of unit cell:	Completed after 0 iterations at t[s]:   5858.63
SCF: Cycle: 12   Etot: -136.719906204065580   dEtot: -2.371e-09   |Residual|: 1.728e-04   |deigs|: 6.622e-08  t[s]:   5858.83
	Linear fluid (dielectric constant: 64) occupying 0.994197 of unit cell:	Completed after 0 iterations at t[s]:   5859.17
	Linear fluid (dielectric constant: 64) occupying 0.994197 of unit cell:	Completed after 0 iterations at t[s]:   5859.85
SCF: Cycle: 13   Etot: -136.719906207237841   dEtot: -3.172e-09   |Residual|: 1.722e-04   |deigs|: 3.170e-07  t[s]:   5860.04
SCF: Converged (|Delta E|<1.000000e-08 for 2 iters).

Setting wave functions to eigenvectors of Hamiltonian

-------- Electronic minimization -----------
Will mix electronic density at each iteration.
	Linear fluid (dielectric constant: 64) occupying 0.994197 of unit cell:	Completed after 2 iterations at t[s]:   5860.61
	Linear fluid (dielectric constant: 64) occupying 0.994197 of unit cell:	Completed after 0 iterations at t[s]:   5861.40
SCF: Cycle:  0   Etot: -136.719906403493013   dEtot: -1.674e-07   |Residual|: 1.976e-04   |deigs|: 8.562e-09  t[s]:   5861.59
	Linear fluid (dielectric constant: 64) occupying 0.994197 of unit cell:	Completed after 0 iterations at t[s]:   5861.95
	Linear fluid (dielectric constant: 64) occupying 0.994197 of unit cell:	Completed after 0 iterations at t[s]:   5862.64
SCF: Cycle:  1   Etot: -136.719906446089141   dEtot: -4.260e-08   |Residual|: 1.286e-04   |deigs|: 9.726e-06  t[s]:   5862.84
	Linear fluid (dielectric constant: 64) occupying 0.994197 of unit cell:	Completed after 0 iterations at t[s]:   5863.16
	Linear fluid (dielectric constant: 64) occupying 0.994197 of unit cell:	Completed after 0 iterations at t[s]:   5863.84
SCF: Cycle:  2   Etot: -136.719906471033283   dEtot: -2.494e-08   |Residual|: 7.496e-05   |deigs|: 1.224e-06  t[s]:   5864.04
	Linear fluid (dielectric constant: 64) occupying 0.994197 of unit cell:	Completed after 0 iterations at t[s]:   5864.36
	Linear fluid (dielectric constant: 64) occupying 0.994197 of unit cell:	Completed after 0 iterations at t[s]:   5865.03
SCF: Cycle:  3   Etot: -136.719906482787025   dEtot: -1.175e-08   |Residual|: 3.417e-05   |deigs|: 1.243e-06  t[s]:   5865.23
	Linear fluid (dielectric constant: 64) occupying 0.994197 of unit cell:	Completed after 0 iterations at t[s]:   5865.55
	Linear fluid (dielectric constant: 64) occupying 0.994197 of unit cell:	Completed after 0 iterations at t[s]:   5866.24
SCF: Cycle:  4   Etot: -136.719906488985515   dEtot: -6.198e-09   |Residual|: 4.137e-05   |deigs|: 3.250e-07  t[s]:   5866.44
	Linear fluid (dielectric constant: 64) occupying 0.994197 of unit cell:	Completed after 0 iterations at t[s]:   5866.76
	Linear fluid (dielectric constant: 64) occupying 0.994197 of unit cell:	Completed after 0 iterations at t[s]:   5867.45
SCF: Cycle:  5   Etot: -136.719906493531312   dEtot: -4.546e-09   |Residual|: 1.421e-05   |deigs|: 1.152e-06  t[s]:   5867.65
SCF: Converged (|Delta E|<1.000000e-08 for 2 iters).

Setting wave functions to eigenvectors of Hamiltonian
IonicMinimize: 	Step increased Etot by 9.110431e-08, reducing alpha to 3.023565e-02.

-------- Electronic minimization -----------
Will mix electronic density at each iteration.
	Linear fluid (dielectric constant: 64) occupying 0.994197 of unit cell:	Completed after 3 iterations at t[s]:   5868.58
	Linear fluid (dielectric constant: 64) occupying 0.994197 of unit cell:	Completed after 2 iterations at t[s]:   5869.47
SCF: Cycle:  0   Etot: -136.719906220906353   dEtot: -7.336e-08   |Residual|: 3.771e-04   |deigs|: 1.975e-08  t[s]:   5869.67
	Linear fluid (dielectric constant: 64) occupying 0.994197 of unit cell:	Completed after 0 iterations at t[s]:   5870.07
	Linear fluid (dielectric constant: 64) occupying 0.994197 of unit cell:	Completed after 0 iterations at t[s]:   5870.80
SCF: Cycle:  1   Etot: -136.719906682023321   dEtot: -4.611e-07   |Residual|: 7.272e-05   |deigs|: 4.442e-05  t[s]:   5870.99
	Linear fluid (dielectric constant: 64) occupying 0.994197 of unit cell:	Completed after 0 iterations at t[s]:   5871.32
	Linear fluid (dielectric constant: 64) occupying 0.994197 of unit cell:	Completed after 0 iterations at t[s]:   5871.99
SCF: Cycle:  2   Etot: -136.719906712920647   dEtot: -3.090e-08   |Residual|: 8.387e-05   |deigs|: 2.734e-07  t[s]:   5872.18
	Linear fluid (dielectric constant: 64) occupying 0.994197 of unit cell:	Completed after 0 iterations at t[s]:   5872.51
	Linear fluid (dielectric constant: 64) occupying 0.994197 of unit cell:	Completed after 0 iterations at t[s]:   5873.18
SCF: Cycle:  3   Etot: -136.719906729423826   dEtot: -1.650e-08   |Residual|: 7.354e-05   |deigs|: 5.311e-07  t[s]:   5873.38
	Linear fluid (dielectric constant: 64) occupying 0.994197 of unit cell:	Completed after 0 iterations at t[s]:   5873.70
	Linear fluid (dielectric constant: 64) occupying 0.994197 of unit cell:	Completed after 1 iterations at t[s]:   5874.46
SCF: Cycle:  4   Etot: -136.719906362393573   dEtot: +3.670e-07   |Residual|: 6.650e-05   |deigs|: 3.794e-07  t[s]:   5874.67
	Linear fluid (dielectric constant: 64) occupying 0.994197 of unit cell:	Completed after 0 iterations at t[s]:   5875.04
	Linear fluid (dielectric constant: 64) occupying 0.994197 of unit cell:	Completed after 0 iterations at t[s]:   5875.73
SCF: Cycle:  5   Etot: -136.719906479193014   dEtot: -1.168e-07   |Residual|: 9.672e-05   |deigs|: 2.142e-05  t[s]:   5875.92
	Linear fluid (dielectric constant: 64) occupying 0.994197 of unit cell:	Completed after 0 iterations at t[s]:   5876.25
	Linear fluid (dielectric constant: 64) occupying 0.994197 of unit cell:	Completed after 0 iterations at t[s]:   5876.93
SCF: Cycle:  6   Etot: -136.719906499536535   dEtot: -2.034e-08   |Residual|: 1.201e-04   |deigs|: 2.947e-07  t[s]:   5877.13
	Linear fluid (dielectric constant: 64) occupying 0.994197 of unit cell:	Completed after 0 iterations at t[s]:   5877.46
	Linear fluid (dielectric constant: 64) occupying 0.994197 of unit cell:	Completed after 0 iterations at t[s]:   5878.15
SCF: Cycle:  7   Etot: -136.719906515472047   dEtot: -1.594e-08   |Residual|: 1.158e-04   |deigs|: 5.023e-07  t[s]:   5878.34
	Linear fluid (dielectric constant: 64) occupying 0.994197 of unit cell:	Completed after 0 iterations at t[s]:   5878.67
	Linear fluid (dielectric constant: 64) occupying 0.994197 of unit cell:	Completed after 0 iterations at t[s]:   5879.36
SCF: Cycle:  8   Etot: -136.719906521914311   dEtot: -6.442e-09   |Residual|: 1.087e-04   |deigs|: 2.953e-07  t[s]:   5879.58
	Linear fluid (dielectric constant: 64) occupying 0.994197 of unit cell:	Completed after 0 iterations at t[s]:   5879.91
	Linear fluid (dielectric constant: 64) occupying 0.994197 of unit cell:	Completed after 0 iterations at t[s]:   5880.59
SCF: Cycle:  9   Etot: -136.719906528482340   dEtot: -6.568e-09   |Residual|: 9.998e-05   |deigs|: 4.208e-07  t[s]:   5880.78
SCF: Converged (|Delta E|<1.000000e-08 for 2 iters).

Setting wave functions to eigenvectors of Hamiltonian
IonicMinimize: 	Step increased Etot by 5.615328e-08, reducing alpha to 3.023565e-03.

-------- Electronic minimization -----------
Will mix electronic density at each iteration.
	Linear fluid (dielectric constant: 64) occupying 0.994197 of unit cell:	Completed after 0 iterations at t[s]:   5881.56
	Linear fluid (dielectric constant: 64) occupying 0.994197 of unit cell:	Completed after 0 iterations at t[s]:   5882.26
SCF: Cycle:  0   Etot: -136.719906720067826   dEtot: -3.732e-08   |Residual|: 8.632e-05   |deigs|: 9.535e-10  t[s]:   5882.46
	Linear fluid (dielectric constant: 64) occupying 0.994197 of unit cell:	Completed after 0 iterations at t[s]:   5882.79
	Linear fluid (dielectric constant: 64) occupying 0.994197 of unit cell:	Completed after 0 iterations at t[s]:   5883.47
SCF: Cycle:  1   Etot: -136.719906727347364   dEtot: -7.280e-09   |Residual|: 6.195e-05   |deigs|: 2.310e-07  t[s]:   5883.67
	Linear fluid (dielectric constant: 64) occupying 0.994197 of unit cell:	Completed after 0 iterations at t[s]:   5883.99
	Linear fluid (dielectric constant: 64) occupying 0.994197 of unit cell:	Completed after 0 iterations at t[s]:   5884.68
SCF: Cycle:  2   Etot: -136.719906732991603   dEtot: -5.644e-09   |Residual|: 1.972e-05   |deigs|: 5.410e-07  t[s]:   5884.88
SCF: Converged (|Delta E|<1.000000e-08 for 2 iters).

Setting wave functions to eigenvectors of Hamiltonian

# Ionic positions in cartesian coordinates:
ion S   4.566336923883840  14.234990270457034  26.382404917404063 1
ion S   7.198157240700419  13.270336369036258  29.151405713497354 1
ion S   8.113977696324472   9.459651751188863  29.130212822733704 1
ion S  10.779185288482433   8.537733602378403  26.377293213318602 1
ion Na   3.323937417669863   7.054009814649893  22.616637090099641 1
ion Na  11.954196599458937  15.690759979029554  22.599579388826655 1

# Forces in Cartesian coordinates:
force S   0.000352132033754  -0.001549680850116   0.001012150080920 1
force S   0.000754637464571   0.003189203812533  -0.000843923420271 1
force S  -0.001841235944239  -0.001860561428136  -0.001088762590905 1
force S   0.000606496584991   0.000260734100582   0.000174581292621 1
force Na  -0.000081605333250  -0.000062587415784   0.000358274537029 1
force Na   0.000093570167823   0.000039028112979   0.000243874949004 1

# Energy components:
   A_diel =       -0.3878989821350379
   Eewald =       59.0739882058115455
       EH =      173.0887740795965044
     Eloc =     -239.7856673244251624
      Enl =     -136.9005024915039428
      Exc =      -31.2011563215803136
 Exc_core =        7.0709183537311642
       KE =       32.3216377475136269
-------------------------------------
     Etot =     -136.7199067329916033

IonicMinimize: Iter:  87  Etot: -136.719906732991603  |grad|_K:  1.148e-03  alpha:  3.024e-03  linmin:  9.895e-01  t[s]:   5885.24
IonicMinimize: 	Bad step direction: g.d > 0.
IonicMinimize: 	Undoing step.

#--- Lowdin population analysis ---
# oxidation-state S -0.739 -0.045 -0.044 -0.739
# oxidation-state Na +0.973 +0.973


-------- Electronic minimization -----------
Will mix electronic density at each iteration.
	Linear fluid (dielectric constant: 64) occupying 0.994197 of unit cell:	Completed after 0 iterations at t[s]:   5885.66
	Linear fluid (dielectric constant: 64) occupying 0.994197 of unit cell:	Completed after 0 iterations at t[s]:   5886.37
SCF: Cycle:  0   Etot: -136.719906735486660   dEtot: -2.495e-09   |Residual|: 9.190e-06   |deigs|: 7.245e-11  t[s]:   5886.56
	Linear fluid (dielectric constant: 64) occupying 0.994197 of unit cell:	Completed after 0 iterations at t[s]:   5886.89
	Linear fluid (dielectric constant: 64) occupying 0.994197 of unit cell:	Completed after 0 iterations at t[s]:   5887.56
SCF: Cycle:  1   Etot: -136.719906736716950   dEtot: -1.230e-09   |Residual|: 1.426e-05   |deigs|: 3.598e-08  t[s]:   5887.75
SCF: Converged (|Delta E|<1.000000e-08 for 2 iters).

Setting wave functions to eigenvectors of Hamiltonian
IonicMinimize: 	Step failed: resetting search direction.

# Ionic positions in cartesian coordinates:
ion S   4.566336923883840  14.234990270457034  26.382404917404063 1
ion S   7.198157240700419  13.270336369036258  29.151405713497354 1
ion S   8.113977696324472   9.459651751188863  29.130212822733704 1
ion S  10.779185288482433   8.537733602378403  26.377293213318602 1
ion Na   3.323937417669863   7.054009814649893  22.616637090099641 1
ion Na  11.954196599458937  15.690759979029554  22.599579388826655 1

# Forces in Cartesian coordinates:
force S   0.000361528810613  -0.001584771610670   0.001039048424856 1
force S   0.000762237194965   0.003256914931426  -0.000864179032687 1
force S  -0.001867967681475  -0.001891805213267  -0.001118729215630 1
force S   0.000620636259694   0.000271777886294   0.000184067444469 1
force Na  -0.000086028699218  -0.000066231835117   0.000371368262911 1
force Na   0.000099495032216   0.000040371226610   0.000252744264723 1

# Energy components:
   A_diel =       -0.3878992565847388
   Eewald =       59.0739882058115455
       EH =      173.0887910980119955
     Eloc =     -239.7856342707791839
      Enl =     -136.9005586044457345
      Exc =      -31.2011652460294471
 Exc_core =        7.0709183537311642
       KE =       32.3216529835674038
-------------------------------------
     Etot =     -136.7199067367169505

IonicMinimize: Iter:  88  Etot: -136.719906736716950  |grad|_K:  1.171e-03  alpha:  0.000e+00
IonicMinimize: Converged (|Delta Etot|<1.000000e-06 for 2 iters).

#--- Lowdin population analysis ---
# oxidation-state S -0.739 -0.045 -0.044 -0.739
# oxidation-state Na +0.973 +0.973


Dumping 'Na2S4-PC.wfns' ... done
Dumping 'Na2S4-PC.fluidState' ... done
Dumping 'Na2S4-PC.ionpos' ... done
End date and time: Sat Dec 28 17:54:20 2024  (Duration: 0-1:38:08.85)
Done!
