CRYSTAL
PRIMVEC
 14.820031   0.000000   0.000000
 -7.410015  12.834505   0.000000
  0.000000   0.000000  20.000041
PRIMCOORD
3 1
16   4.001201   4.097614  14.000028
11   1.088035   7.336812  14.000028
11   6.915106   7.346132  14.000028
