
*************** JDFTx 1.7.0  ***************

Start date and time: Fri Sep 27 19:57:33 2024
Executable jdftx_gpu with command-line: -i /home/akim2/JDFTx/Na2S8-PC/Na2S8-PC.in -o /home/akim2/JDFTx/Na2S8-PC/Na2S8-PC.out
Running on hosts (process indices):  exp-1-58 (0)
Divided in process groups (process indices):  0 (0)
gpuInit: Found compatible cuda device 0 'Tesla V100-SXM2-32GB'
gpuInit: Selected device 0
Resource initialization completed at t[s]:      0.40
Run totals: 1 processes, 1 threads, 1 GPUs


Input parsed successfully to the following command list (including defaults):

basis kpoint-dependent
coords-type Cartesian
core-overlap-check vector
coulomb-interaction Isolated
coulomb-truncation-embed 5.2244 10.9463 20.5025
davidson-band-ratio 1.1
dump End State
dump-name Na2S8-PC.$VAR
elec-cutoff 20 100
elec-eigen-algo Davidson
elec-ex-corr gga-PBE
electronic-minimize  \
	dirUpdateScheme      FletcherReeves \
	linminMethod         DirUpdateRecommended \
	nIterations          100 \
	history              15 \
	knormThreshold       0 \
	energyDiffThreshold  1e-08 \
	nEnergyDiff          2 \
	alphaTstart          1 \
	alphaTmin            1e-10 \
	updateTestStepSize   yes \
	alphaTreduceFactor   0.1 \
	alphaTincreaseFactor 3 \
	nAlphaAdjustMax      3 \
	wolfeEnergy          0.0001 \
	wolfeGradient        0.9 \
	fdTest               no
electronic-scf  \
	nIterations	50 \
	energyDiffThreshold	1e-08 \
	residualThreshold	1e-07 \
	mixFraction	0.5 \
	qMetric	0.8 \
	history	10 \
	nEigSteps	2 \
	eigDiffThreshold	1e-08 \
	mixedVariable	Density \
	qKerker	0.8 \
	qKappa	-1 \
	verbose	no \
	mixFractionMag	1.5
exchange-regularization None
fluid LinearPCM 298.000000 1.013250
fluid-ex-corr lda-TF lda-PZ
fluid-gummel-loop 10 1.000000e-05
fluid-minimize  \
	dirUpdateScheme      PolakRibiere \
	linminMethod         DirUpdateRecommended \
	nIterations          400 \
	history              15 \
	knormThreshold       1e-11 \
	energyDiffThreshold  0 \
	nEnergyDiff          2 \
	alphaTstart          1 \
	alphaTmin            1e-10 \
	updateTestStepSize   yes \
	alphaTreduceFactor   0.1 \
	alphaTincreaseFactor 3 \
	nAlphaAdjustMax      6 \
	wolfeEnergy          0.0001 \
	wolfeGradient        0.9 \
	fdTest               no
fluid-solvent PC 11.6429 ScalarEOS \
	epsBulk 64 \
	pMol 2.95 \
	epsInf 2.02 \
	Pvap 1.53277e-13 \
	sigmaBulk 2.88e-05 \
	Rvdw 0 \
	Res 0 \
	tauNuc 343133
forces-output-coords Positions
ion S   5.224404249899997  10.946321496360000  10.502457449030000 1
ion S   4.405930061490001   8.273321088119999  13.990258410559999 1
ion S   4.517822864520001  10.323889787879999  17.113757222690001 1
ion S   8.657034544080000   8.813494739429999  18.671448433579997 1
ion S  10.060045685279999  10.482500495969999  21.757946332309999 1
ion S  11.945089154880002  13.725664570619998  21.194889940430002 1
ion S   6.530742473489992  14.219337635819999  11.830982992549998 1
ion S  10.409702427179997  14.199862078439999  12.327596477629999 1
ion Na   8.885518018920003  14.526203331600000  17.203814195570001 1
ion Na   9.820560202380001   9.211912184519999  13.309165703420000 1
ion-species GBRV/$ID_pbe.uspp
ion-width Ecut
ionic-minimize  \
	dirUpdateScheme      FletcherReeves \
	linminMethod         DirUpdateRecommended \
	nIterations          200 \
	history              15 \
	knormThreshold       0.0001 \
	energyDiffThreshold  1e-06 \
	nEnergyDiff          2 \
	alphaTstart          1 \
	alphaTmin            1e-10 \
	updateTestStepSize   yes \
	alphaTreduceFactor   0.1 \
	alphaTincreaseFactor 3 \
	nAlphaAdjustMax      3 \
	wolfeEnergy          0.0001 \
	wolfeGradient        0.9 \
	fdTest               no
kpoint   0.000000000000   0.000000000000   0.000000000000  1.00000000000000
kpoint-folding 1 1 1 
latt-move-scale 1 1 1
latt-scale 1 1 1 
lattice Triclinic 28.0058 28.0058 37.7946 90 90 120
lattice-minimize  \
	dirUpdateScheme      L-BFGS \
	linminMethod         DirUpdateRecommended \
	nIterations          0 \
	history              15 \
	knormThreshold       0 \
	energyDiffThreshold  1e-06 \
	nEnergyDiff          2 \
	alphaTstart          1 \
	alphaTmin            1e-10 \
	updateTestStepSize   yes \
	alphaTreduceFactor   0.1 \
	alphaTincreaseFactor 3 \
	nAlphaAdjustMax      3 \
	wolfeEnergy          0.0001 \
	wolfeGradient        0.9 \
	fdTest               no
lcao-params -1 1e-06 0.001
pcm-variant GLSSA13
spintype no-spin
subspace-rotation-factor 1 yes
symmetries automatic
symmetry-threshold 0.0001



---------- Setting up symmetries ----------

Found 24 point-group symmetries of the bravais lattice
Found 1 space-group symmetries with basis
Applied RMS atom displacement 0 bohrs to make symmetries exact.

---------- Initializing the Grid ----------
R = 
[      28.0058     -14.0029            0  ]
[            0      24.2537            0  ]
[            0            0      37.7946  ]
unit cell volume = 25671.8
G =
[   0.224353    0.12953         -0  ]
[          0   0.259061          0  ]
[          0         -0   0.166246  ]
Minimum fftbox size, Smin = [  128  128  172  ]
Chosen fftbox size, S = [  128  128  180  ]

---------- Initializing tighter grid for wavefunction operations ----------
R = 
[      28.0058     -14.0029            0  ]
[            0      24.2537            0  ]
[            0            0      37.7946  ]
unit cell volume = 25671.8
G =
[   0.224353    0.12953         -0  ]
[          0   0.259061          0  ]
[          0         -0   0.166246  ]
Minimum fftbox size, Smin = [  116  116  156  ]
Chosen fftbox size, S = [  120  120  160  ]

---------- Exchange Correlation functional ----------
Initalized PBE GGA exchange.
Initalized PBE GGA correlation.

---------- Setting up pseudopotentials ----------
Width of ionic core gaussian charges (only for fluid interactions / plotting) set to 0.397384

Reading pseudopotential file '/home/akim2/jdftx_install/build/pseudopotentials/GBRV/s_pbe.uspp':
  Title: S.  Created by USPP 7.3.6 on 1-4-15
  Reference state energy: -11.898476.  6 valence electrons in orbitals:
    |300>  occupation: 2  eigenvalue: -0.634167
    |310>  occupation: 4  eigenvalue: -0.257568
  lMax: 2  lLocal: 3  QijEcut: 6
  6 projectors sampled on a log grid with 635 points:
    l: 0  eig: -0.634161  rCut: 1.5
    l: 0  eig: 1.500000  rCut: 1.5
    l: 1  eig: -0.257567  rCut: 1.5
    l: 1  eig: 1.500000  rCut: 1.5
    l: 2  eig: -1.000000  rCut: 1.5
    l: 2  eig: 1.500000  rCut: 1.5
  Partial core density with radius 1.15
  Transforming core density to a uniform radial grid of dG=0.02 with 1625 points.
  Transforming local potential to a uniform radial grid of dG=0.02 with 1625 points.
  Transforming nonlocal projectors to a uniform radial grid of dG=0.02 with 432 points.
  Transforming density augmentations to a uniform radial grid of dG=0.02 with 1625 points.
  Transforming atomic orbitals to a uniform radial grid of dG=0.02 with 432 points.
  Core radius for overlap checks: 1.50 bohrs.

Reading pseudopotential file '/home/akim2/jdftx_install/build/pseudopotentials/GBRV/na_pbe.uspp':
  Title: Na.  Created by USPP 7.3.6 on 23-9-15
  Reference state energy: -47.625620.  9 valence electrons in orbitals:
    |200>  occupation: 2  eigenvalue: -2.085638
    |210>  occupation: 6  eigenvalue: -1.053708
    |300>  occupation: 1  eigenvalue: -0.100838
  lMax: 2  lLocal: 0  QijEcut: 6
  5 projectors sampled on a log grid with 657 points:
    l: 0  eig: -2.085640  rCut: 1.37
    l: 0  eig: -0.100839  rCut: 1.37
    l: 1  eig: -1.053708  rCut: 1.47
    l: 1  eig: 0.500000  rCut: 1.47
    l: 2  eig: 0.750000  rCut: 2
  Transforming local potential to a uniform radial grid of dG=0.02 with 1625 points.
  Transforming nonlocal projectors to a uniform radial grid of dG=0.02 with 432 points.
  Transforming density augmentations to a uniform radial grid of dG=0.02 with 1625 points.
  Transforming atomic orbitals to a uniform radial grid of dG=0.02 with 432 points.
  Core radius for overlap checks: 2.00 bohrs.

Initialized 2 species with 10 total atoms.

Folded 1 k-points by 1x1x1 to 1 k-points.

---------- Setting up k-points, bands, fillings ----------
No reducable k-points. 
Computing the number of bands and number of electrons
Calculating initial fillings.
nElectrons:  66.000000   nBands: 33   nStates: 1

----- Setting up reduced wavefunction bases (one per k-point) -----
average nbasis = 109673.000 , ideal nbasis = 109671.883

---------- Setting up coulomb interaction ----------
Fluid mode embedding: using embedded box, but periodic Coulomb kernel.
(Fluid response is responsible for (approximate) separation between periodic images.)
Setting up double-sized grid for truncated Coulomb potentials:
R = 
[      56.0116     -28.0058            0  ]
[            0      48.5075            0  ]
[            0            0      75.5892  ]
unit cell volume = 205374
G =
[   0.112177  0.0647651         -0  ]
[          0    0.12953          0  ]
[          0         -0  0.0831228  ]
Chosen fftbox size, S = [  256  256  360  ]
Integer grid location selected as the embedding center:
   Grid: [  53  58  98  ]
   Lattice: [  0.41221  0.451325  0.542471  ]
   Cartesian: [  5.2244  10.9463  20.5025  ]
Constructing Wigner-Seitz cell: 8 faces (6 quadrilaterals, 2 hexagons)
Range-separation parameter for embedded mesh potentials due to point charges: 0.590105 bohrs.

---------- Setting up ewald sum ----------
Optimum gaussian width for ewald sums = 16.035857 bohr.
Real space sum over 1089 unit cells with max indices [  5  5  4  ]
Reciprocal space sum over 4275 terms with max indices [  7  7  9  ]

---------- Allocating electronic variables ----------
Initializing wave functions:  linear combination of atomic orbitals
S pseudo-atom occupations:   s ( 2 )  p ( 4 )
Na pseudo-atom occupations:   s ( 2 1 )  p ( 6 )
	FillingsUpdate:  mu: -0.158650039  nElectrons: 66.000000
LCAOMinimize: Iter:   0  Etot: -177.0242358909936229  |grad|_K:  1.733e-02  alpha:  1.000e+00
	FillingsUpdate:  mu: -0.158282348  nElectrons: 66.000000
LCAOMinimize: Iter:   1  Etot: -177.0536419309634084  |grad|_K:  1.530e-02  alpha:  5.455e-02  linmin: -3.313e-01  cgtest:  9.393e-01  t[s]:      4.22
LCAOMinimize: Encountered beta<0, resetting CG.
LCAOMinimize: 	Predicted alpha/alphaT>3.000000, increasing alphaT to 1.636486e-01.
LCAOMinimize: 	Step increased Etot by 3.598372e-01, reducing alpha to 4.905919e-02.
	FillingsUpdate:  mu: -0.163485316  nElectrons: 66.000000
LCAOMinimize: Iter:   2  Etot: -177.0741859919518504  |grad|_K:  1.355e-02  alpha:  4.906e-02  linmin: -3.334e-01  cgtest:  9.486e-01  t[s]:      5.10
LCAOMinimize: Encountered beta<0, resetting CG.
LCAOMinimize: 	Predicted alpha/alphaT>3.000000, increasing alphaT to 1.471776e-01.
LCAOMinimize: 	Predicted alpha/alphaT>3.000000, increasing alphaT to 4.415327e-01.
	FillingsUpdate:  mu: -0.170612602  nElectrons: 66.000000
LCAOMinimize: Iter:   3  Etot: -177.1091841417887167  |grad|_K:  9.081e-03  alpha:  1.169e-01  linmin: -3.644e-01  cgtest:  8.643e-01  t[s]:      5.82
LCAOMinimize: Encountered beta<0, resetting CG.
LCAOMinimize: None of the convergence criteria satisfied after 3 iterations.
----- createFluidSolver() ----- (Fluid-side solver setup)
   Initializing fluid molecule 'PC'
     Net charge: 0   dipole magnitude: 0
     Initializing spherical shell mfKernel with radius 0 Bohr
     deltaS corrections:

Correction to mu due to finite nuclear width = -0.000318858
   Cavity determined by nc: 0.00098 and sigma: 0.6
   Effective cavity tension: 9.53e-06 Eh/bohr^2 to account for cavitation and dispersion.


---- Citations for features of the code used in this run ----

   Software package:
      R. Sundararaman, K. Letchworth-Weaver, K.A. Schwarz, D. Gunceler, Y. Ozhabes and T.A. Arias, 'JDFTx: software for joint density-functional theory', SoftwareX 6, 278 (2017)

   gga-PBE exchange-correlation functional:
      J.P. Perdew, K. Burke and M. Ernzerhof, Phys. Rev. Lett. 77, 3865 (1996)

   Pseudopotentials:
      KF Garrity, JW Bennett, KM Rabe and D Vanderbilt, Comput. Mater. Sci. 81, 446 (2014)

   Truncated Coulomb potentials:
      R. Sundararaman and T.A. Arias, Phys. Rev. B 87, 165122 (2013)

   Linear/nonlinear dielectric/ionic fluid model with effective cavity tension:
      D. Gunceler, K. Letchworth-Weaver, R. Sundararaman, K.A. Schwarz and T.A. Arias, Modelling Simul. Mater. Sci. Eng. 21, 074005 (2013)

This list may not be complete. Please suggest additional citations or
report any other bugs at https://github.com/shankar1729/jdftx/issues

Initialization completed successfully at t[s]:      5.84

Fluid solver invoked on fresh (random / LCAO) wavefunctions
Running a vacuum solve first:

-------- Initial electronic minimization -----------
Will mix electronic density at each iteration.
SCF: Cycle:  0   Etot: -177.202976493677511   dEtot: -9.379e-02   |Residual|: 3.863e-01   |deigs|: 1.600e-02  t[s]:      6.54
SCF: Cycle:  1   Etot: -177.474230353716621   dEtot: -2.713e-01   |Residual|: 1.985e-01   |deigs|: 2.192e-02  t[s]:      7.07
SCF: Cycle:  2   Etot: -177.630904353665755   dEtot: -1.567e-01   |Residual|: 1.181e-01   |deigs|: 2.299e-02  t[s]:      7.59
SCF: Cycle:  3   Etot: -177.642619261740435   dEtot: -1.171e-02   |Residual|: 5.455e-02   |deigs|: 8.297e-03  t[s]:      8.12
SCF: Cycle:  4   Etot: -177.648016065602519   dEtot: -5.397e-03   |Residual|: 3.993e-02   |deigs|: 8.860e-03  t[s]:      8.64
SCF: Cycle:  5   Etot: -177.653044587630546   dEtot: -5.029e-03   |Residual|: 1.817e-02   |deigs|: 2.673e-03  t[s]:      9.13
SCF: Cycle:  6   Etot: -177.653908833450174   dEtot: -8.642e-04   |Residual|: 2.441e-02   |deigs|: 7.536e-03  t[s]:      9.66
SCF: Cycle:  7   Etot: -177.654721389786857   dEtot: -8.126e-04   |Residual|: 1.680e-02   |deigs|: 1.016e-03  t[s]:     10.18
SCF: Cycle:  8   Etot: -177.655688370627445   dEtot: -9.670e-04   |Residual|: 6.731e-03   |deigs|: 2.832e-03  t[s]:     10.68
SCF: Cycle:  9   Etot: -177.655722279925868   dEtot: -3.391e-05   |Residual|: 7.448e-03   |deigs|: 1.929e-03  t[s]:     11.19
SCF: Cycle: 10   Etot: -177.655863403654394   dEtot: -1.411e-04   |Residual|: 4.803e-03   |deigs|: 3.196e-03  t[s]:     11.68
SCF: Cycle: 11   Etot: -177.655902431997163   dEtot: -3.903e-05   |Residual|: 3.463e-03   |deigs|: 1.651e-03  t[s]:     12.12
SCF: Cycle: 12   Etot: -177.655959935801690   dEtot: -5.750e-05   |Residual|: 2.489e-03   |deigs|: 2.078e-03  t[s]:     12.60
SCF: Cycle: 13   Etot: -177.655977064634158   dEtot: -1.713e-05   |Residual|: 2.302e-03   |deigs|: 4.452e-04  t[s]:     13.05
SCF: Cycle: 14   Etot: -177.655995767563951   dEtot: -1.870e-05   |Residual|: 2.561e-03   |deigs|: 8.014e-04  t[s]:     13.52
SCF: Cycle: 15   Etot: -177.656010143228258   dEtot: -1.438e-05   |Residual|: 1.296e-03   |deigs|: 2.625e-04  t[s]:     13.96
SCF: Cycle: 16   Etot: -177.656011187820070   dEtot: -1.045e-06   |Residual|: 1.582e-03   |deigs|: 1.079e-04  t[s]:     14.40
SCF: Cycle: 17   Etot: -177.656017677688936   dEtot: -6.490e-06   |Residual|: 9.585e-04   |deigs|: 4.048e-04  t[s]:     14.87
SCF: Cycle: 18   Etot: -177.656019946913432   dEtot: -2.269e-06   |Residual|: 6.407e-04   |deigs|: 2.866e-04  t[s]:     15.30
SCF: Cycle: 19   Etot: -177.656020129925622   dEtot: -1.830e-07   |Residual|: 6.773e-04   |deigs|: 3.598e-04  t[s]:     15.75
SCF: Cycle: 20   Etot: -177.656019069232997   dEtot: +1.061e-06   |Residual|: 8.163e-04   |deigs|: 6.240e-05  t[s]:     16.25
SCF: Cycle: 21   Etot: -177.656020389799465   dEtot: -1.321e-06   |Residual|: 5.002e-04   |deigs|: 5.735e-05  t[s]:     16.69
SCF: Cycle: 22   Etot: -177.656019550512781   dEtot: +8.393e-07   |Residual|: 7.164e-04   |deigs|: 8.221e-05  t[s]:     17.16
SCF: Cycle: 23   Etot: -177.656020032990682   dEtot: -4.825e-07   |Residual|: 5.630e-04   |deigs|: 4.395e-05  t[s]:     17.59
SCF: Cycle: 24   Etot: -177.656021052867288   dEtot: -1.020e-06   |Residual|: 4.194e-04   |deigs|: 5.014e-05  t[s]:     18.06
SCF: Cycle: 25   Etot: -177.656021468402344   dEtot: -4.155e-07   |Residual|: 2.611e-04   |deigs|: 3.625e-05  t[s]:     18.50
SCF: Cycle: 26   Etot: -177.656021836925504   dEtot: -3.685e-07   |Residual|: 3.073e-04   |deigs|: 1.297e-04  t[s]:     18.98
SCF: Cycle: 27   Etot: -177.656022272853306   dEtot: -4.359e-07   |Residual|: 2.199e-04   |deigs|: 6.378e-05  t[s]:     19.41
SCF: Cycle: 28   Etot: -177.656022637182133   dEtot: -3.643e-07   |Residual|: 1.203e-04   |deigs|: 4.086e-05  t[s]:     19.84
SCF: Cycle: 29   Etot: -177.656022740060507   dEtot: -1.029e-07   |Residual|: 9.299e-05   |deigs|: 3.463e-05  t[s]:     20.28
SCF: Cycle: 30   Etot: -177.656022785913223   dEtot: -4.585e-08   |Residual|: 6.298e-05   |deigs|: 1.785e-05  t[s]:     20.71
SCF: Cycle: 31   Etot: -177.656022821798899   dEtot: -3.589e-08   |Residual|: 5.438e-05   |deigs|: 7.106e-06  t[s]:     21.13
SCF: Cycle: 32   Etot: -177.656022845003378   dEtot: -2.320e-08   |Residual|: 3.484e-05   |deigs|: 9.024e-06  t[s]:     21.56
SCF: Cycle: 33   Etot: -177.656022856439620   dEtot: -1.144e-08   |Residual|: 4.199e-05   |deigs|: 1.100e-05  t[s]:     22.02
SCF: Cycle: 34   Etot: -177.656022872922478   dEtot: -1.648e-08   |Residual|: 2.614e-05   |deigs|: 8.252e-06  t[s]:     22.55
SCF: Cycle: 35   Etot: -177.656022880056497   dEtot: -7.134e-09   |Residual|: 1.692e-05   |deigs|: 7.582e-06  t[s]:     22.99
SCF: Cycle: 36   Etot: -177.656022892299916   dEtot: -1.224e-08   |Residual|: 1.163e-05   |deigs|: 7.989e-06  t[s]:     23.51
SCF: Cycle: 37   Etot: -177.656022896717161   dEtot: -4.417e-09   |Residual|: 8.966e-06   |deigs|: 6.672e-06  t[s]:     23.93
SCF: Cycle: 38   Etot: -177.656022902646868   dEtot: -5.930e-09   |Residual|: 8.293e-06   |deigs|: 7.156e-06  t[s]:     24.44
SCF: Converged (|Delta E|<1.000000e-08 for 2 iters).

Setting wave functions to eigenvectors of Hamiltonian
Vacuum energy after initial minimize, Etot = -177.656022902646868


-------- Electronic minimization -----------
Will mix electronic density at each iteration.
	Linear fluid (dielectric constant: 64) occupying 0.990925 of unit cell:	Completed after 30 iterations at t[s]:     26.43
	Linear fluid (dielectric constant: 64) occupying 0.990880 of unit cell:	Completed after 24 iterations at t[s]:     29.01
SCF: Cycle:  0   Etot: -177.775715425022639   dEtot: -3.394e-02   |Residual|: 4.769e-02   |deigs|: 7.489e-04  t[s]:     29.29
	Linear fluid (dielectric constant: 64) occupying 0.990933 of unit cell:	Completed after 20 iterations at t[s]:     30.95
	Linear fluid (dielectric constant: 64) occupying 0.990877 of unit cell:	Completed after 23 iterations at t[s]:     33.39
SCF: Cycle:  1   Etot: -177.778885179713939   dEtot: -3.170e-03   |Residual|: 3.449e-02   |deigs|: 2.644e-03  t[s]:     33.66
	Linear fluid (dielectric constant: 64) occupying 0.990911 of unit cell:	Completed after 17 iterations at t[s]:     35.17
	Linear fluid (dielectric constant: 64) occupying 0.990883 of unit cell:	Completed after 22 iterations at t[s]:     37.55
SCF: Cycle:  2   Etot: -177.781930143847234   dEtot: -3.045e-03   |Residual|: 2.166e-02   |deigs|: 4.716e-03  t[s]:     37.83
	Linear fluid (dielectric constant: 64) occupying 0.990889 of unit cell:	Completed after 19 iterations at t[s]:     39.45
	Linear fluid (dielectric constant: 64) occupying 0.990875 of unit cell:	Completed after 21 iterations at t[s]:     41.73
SCF: Cycle:  3   Etot: -177.782450844388251   dEtot: -5.207e-04   |Residual|: 1.414e-02   |deigs|: 7.210e-04  t[s]:     42.00
	Linear fluid (dielectric constant: 64) occupying 0.990834 of unit cell:	Completed after 15 iterations at t[s]:     43.34
	Linear fluid (dielectric constant: 64) occupying 0.990861 of unit cell:	Completed after 16 iterations at t[s]:     45.27
SCF: Cycle:  4   Etot: -177.783138421572005   dEtot: -6.876e-04   |Residual|: 1.323e-02   |deigs|: 4.980e-03  t[s]:     45.53
	Linear fluid (dielectric constant: 64) occupying 0.990831 of unit cell:	Completed after 15 iterations at t[s]:     46.90
	Linear fluid (dielectric constant: 64) occupying 0.990857 of unit cell:	Completed after 14 iterations at t[s]:     48.65
SCF: Cycle:  5   Etot: -177.783570647794789   dEtot: -4.322e-04   |Residual|: 7.193e-03   |deigs|: 4.372e-04  t[s]:     48.93
	Linear fluid (dielectric constant: 64) occupying 0.990786 of unit cell:	Completed after 14 iterations at t[s]:     50.21
	Linear fluid (dielectric constant: 64) occupying 0.990842 of unit cell:	Completed after 14 iterations at t[s]:     51.99
SCF: Cycle:  6   Etot: -177.783847321142332   dEtot: -2.767e-04   |Residual|: 8.464e-03   |deigs|: 2.783e-03  t[s]:     52.29
	Linear fluid (dielectric constant: 64) occupying 0.990781 of unit cell:	Completed after 12 iterations at t[s]:     53.39
	Linear fluid (dielectric constant: 64) occupying 0.990845 of unit cell:	Completed after 13 iterations at t[s]:     55.10
SCF: Cycle:  7   Etot: -177.783987272842239   dEtot: -1.400e-04   |Residual|: 4.525e-03   |deigs|: 4.724e-04  t[s]:     55.37
	Linear fluid (dielectric constant: 64) occupying 0.990760 of unit cell:	Completed after 10 iterations at t[s]:     56.35
	Linear fluid (dielectric constant: 64) occupying 0.990847 of unit cell:	Completed after 11 iterations at t[s]:     57.92
SCF: Cycle:  8   Etot: -177.784027978044634   dEtot: -4.071e-05   |Residual|: 5.911e-03   |deigs|: 5.364e-04  t[s]:     58.20
	Linear fluid (dielectric constant: 64) occupying 0.990761 of unit cell:	Completed after 11 iterations at t[s]:     59.26
	Linear fluid (dielectric constant: 64) occupying 0.990849 of unit cell:	Completed after 11 iterations at t[s]:     60.84
SCF: Cycle:  9   Etot: -177.784057433483838   dEtot: -2.946e-05   |Residual|: 4.851e-03   |deigs|: 2.346e-04  t[s]:     61.13
	Linear fluid (dielectric constant: 64) occupying 0.990800 of unit cell:	Completed after 11 iterations at t[s]:     62.14
	Linear fluid (dielectric constant: 64) occupying 0.990850 of unit cell:	Completed after 10 iterations at t[s]:     63.64
SCF: Cycle: 10   Etot: -177.784108237225723   dEtot: -5.080e-05   |Residual|: 3.591e-03   |deigs|: 2.738e-04  t[s]:     63.91
	Linear fluid (dielectric constant: 64) occupying 0.990804 of unit cell:	Completed after 9 iterations at t[s]:     64.82
	Linear fluid (dielectric constant: 64) occupying 0.990850 of unit cell:	Completed after 9 iterations at t[s]:     66.18
SCF: Cycle: 11   Etot: -177.784118577486169   dEtot: -1.034e-05   |Residual|: 2.536e-03   |deigs|: 3.802e-04  t[s]:     66.46
	Linear fluid (dielectric constant: 64) occupying 0.990835 of unit cell:	Completed after 6 iterations at t[s]:     67.17
	Linear fluid (dielectric constant: 64) occupying 0.990853 of unit cell:	Completed after 9 iterations at t[s]:     68.50
SCF: Cycle: 12   Etot: -177.784094576754399   dEtot: +2.400e-05   |Residual|: 4.210e-03   |deigs|: 2.986e-04  t[s]:     68.79
	Linear fluid (dielectric constant: 64) occupying 0.990848 of unit cell:	Completed after 7 iterations at t[s]:     69.57
	Linear fluid (dielectric constant: 64) occupying 0.990852 of unit cell:	Completed after 4 iterations at t[s]:     70.71
SCF: Cycle: 13   Etot: -177.784121158091722   dEtot: -2.658e-05   |Residual|: 1.904e-03   |deigs|: 1.238e-04  t[s]:     70.90
	Linear fluid (dielectric constant: 64) occupying 0.990854 of unit cell:	Completed after 4 iterations at t[s]:     71.52
	Linear fluid (dielectric constant: 64) occupying 0.990854 of unit cell:	Completed after 10 iterations at t[s]:     72.88
SCF: Cycle: 14   Etot: -177.784080459398211   dEtot: +4.070e-05   |Residual|: 4.315e-03   |deigs|: 1.370e-04  t[s]:     73.17
	Linear fluid (dielectric constant: 64) occupying 0.990857 of unit cell:	Completed after 8 iterations at t[s]:     74.00
	Linear fluid (dielectric constant: 64) occupying 0.990853 of unit cell:	Completed after 4 iterations at t[s]:     75.17
SCF: Cycle: 15   Etot: -177.784124321905921   dEtot: -4.386e-05   |Residual|: 1.547e-03   |deigs|: 1.527e-04  t[s]:     75.38
	Linear fluid (dielectric constant: 64) occupying 0.990858 of unit cell:	Completed after 4 iterations at t[s]:     75.99
	Linear fluid (dielectric constant: 64) occupying 0.990854 of unit cell:	Completed after 3 iterations at t[s]:     77.01
SCF: Cycle: 16   Etot: -177.784131579842921   dEtot: -7.258e-06   |Residual|: 9.946e-04   |deigs|: 7.265e-05  t[s]:     77.20
	Linear fluid (dielectric constant: 64) occupying 0.990857 of unit cell:	Completed after 3 iterations at t[s]:     77.78
	Linear fluid (dielectric constant: 64) occupying 0.990855 of unit cell:	Completed after 3 iterations at t[s]:     78.81
SCF: Cycle: 17   Etot: -177.784132111875067   dEtot: -5.320e-07   |Residual|: 1.071e-03   |deigs|: 4.603e-05  t[s]:     79.00
	Linear fluid (dielectric constant: 64) occupying 0.990853 of unit cell:	Completed after 4 iterations at t[s]:     79.61
	Linear fluid (dielectric constant: 64) occupying 0.990855 of unit cell:	Completed after 5 iterations at t[s]:     80.76
SCF: Cycle: 18   Etot: -177.784129838413890   dEtot: +2.273e-06   |Residual|: 1.526e-03   |deigs|: 2.259e-04  t[s]:     80.96
	Linear fluid (dielectric constant: 64) occupying 0.990852 of unit cell:	Completed after 4 iterations at t[s]:     81.58
	Linear fluid (dielectric constant: 64) occupying 0.990855 of unit cell:	Completed after 3 iterations at t[s]:     82.62
SCF: Cycle: 19   Etot: -177.784133561907367   dEtot: -3.723e-06   |Residual|: 7.498e-04   |deigs|: 6.057e-05  t[s]:     82.81
	Linear fluid (dielectric constant: 64) occupying 0.990854 of unit cell:	Completed after 3 iterations at t[s]:     83.38
	Linear fluid (dielectric constant: 64) occupying 0.990855 of unit cell:	Completed after 1 iterations at t[s]:     84.33
SCF: Cycle: 20   Etot: -177.784134823816714   dEtot: -1.262e-06   |Residual|: 5.588e-04   |deigs|: 2.266e-05  t[s]:     84.52
	Linear fluid (dielectric constant: 64) occupying 0.990856 of unit cell:	Completed after 0 iterations at t[s]:     84.95
	Linear fluid (dielectric constant: 64) occupying 0.990855 of unit cell:	Completed after 1 iterations at t[s]:     85.81
SCF: Cycle: 21   Etot: -177.784135982338626   dEtot: -1.159e-06   |Residual|: 4.054e-04   |deigs|: 3.558e-05  t[s]:     86.00
	Linear fluid (dielectric constant: 64) occupying 0.990855 of unit cell:	Completed after 2 iterations at t[s]:     86.50
	Linear fluid (dielectric constant: 64) occupying 0.990854 of unit cell:	Completed after 0 iterations at t[s]:     87.33
SCF: Cycle: 22   Etot: -177.784136970658068   dEtot: -9.883e-07   |Residual|: 3.420e-04   |deigs|: 1.507e-04  t[s]:     87.53
	Linear fluid (dielectric constant: 64) occupying 0.990855 of unit cell:	Completed after 0 iterations at t[s]:     87.89
	Linear fluid (dielectric constant: 64) occupying 0.990854 of unit cell:	Completed after 2 iterations at t[s]:     88.76
SCF: Cycle: 23   Etot: -177.784136800420583   dEtot: +1.702e-07   |Residual|: 2.250e-04   |deigs|: 1.896e-05  t[s]:     88.96
	Linear fluid (dielectric constant: 64) occupying 0.990855 of unit cell:	Completed after 0 iterations at t[s]:     92.95
	Linear fluid (dielectric constant: 64) occupying 0.990854 of unit cell:	Completed after 0 iterations at t[s]:     93.76
SCF: Cycle: 24   Etot: -177.784137135954552   dEtot: -3.355e-07   |Residual|: 2.646e-04   |deigs|: 1.107e-04  t[s]:     93.96
	Linear fluid (dielectric constant: 64) occupying 0.990855 of unit cell:	Completed after 0 iterations at t[s]:    109.63
	Linear fluid (dielectric constant: 64) occupying 0.990854 of unit cell:	Completed after 0 iterations at t[s]:    110.40
SCF: Cycle: 25   Etot: -177.784137264024650   dEtot: -1.281e-07   |Residual|: 1.989e-04   |deigs|: 1.419e-06  t[s]:    110.60
	Linear fluid (dielectric constant: 64) occupying 0.990854 of unit cell:	Completed after 0 iterations at t[s]:    110.93
	Linear fluid (dielectric constant: 64) occupying 0.990854 of unit cell:	Completed after 0 iterations at t[s]:    111.72
SCF: Cycle: 26   Etot: -177.784137386603874   dEtot: -1.226e-07   |Residual|: 1.398e-04   |deigs|: 1.649e-06  t[s]:    111.91
	Linear fluid (dielectric constant: 64) occupying 0.990854 of unit cell:	Completed after 0 iterations at t[s]:    112.27
	Linear fluid (dielectric constant: 64) occupying 0.990854 of unit cell:	Completed after 0 iterations at t[s]:    113.02
SCF: Cycle: 27   Etot: -177.784137669450672   dEtot: -2.828e-07   |Residual|: 1.070e-04   |deigs|: 3.483e-05  t[s]:    113.23
	Linear fluid (dielectric constant: 64) occupying 0.990853 of unit cell:	Completed after 1 iterations at t[s]:    113.63
	Linear fluid (dielectric constant: 64) occupying 0.990854 of unit cell:	Completed after 0 iterations at t[s]:    114.41
SCF: Cycle: 28   Etot: -177.784137600529249   dEtot: +6.892e-08   |Residual|: 1.259e-04   |deigs|: 7.509e-05  t[s]:    114.60
	Linear fluid (dielectric constant: 64) occupying 0.990853 of unit cell:	Completed after 0 iterations at t[s]:    114.94
	Linear fluid (dielectric constant: 64) occupying 0.990854 of unit cell:	Completed after 0 iterations at t[s]:    115.70
SCF: Cycle: 29   Etot: -177.784137674050186   dEtot: -7.352e-08   |Residual|: 1.071e-04   |deigs|: 1.458e-06  t[s]:    115.90
	Linear fluid (dielectric constant: 64) occupying 0.990854 of unit cell:	Completed after 0 iterations at t[s]:    116.23
	Linear fluid (dielectric constant: 64) occupying 0.990854 of unit cell:	Completed after 0 iterations at t[s]:    117.00
SCF: Cycle: 30   Etot: -177.784137790220825   dEtot: -1.162e-07   |Residual|: 8.424e-05   |deigs|: 4.864e-06  t[s]:    117.20
	Linear fluid (dielectric constant: 64) occupying 0.990854 of unit cell:	Completed after 0 iterations at t[s]:    117.53
	Linear fluid (dielectric constant: 64) occupying 0.990854 of unit cell:	Completed after 0 iterations at t[s]:    118.28
SCF: Cycle: 31   Etot: -177.784137861305112   dEtot: -7.108e-08   |Residual|: 5.580e-05   |deigs|: 5.378e-07  t[s]:    118.48
	Linear fluid (dielectric constant: 64) occupying 0.990854 of unit cell:	Completed after 0 iterations at t[s]:    118.81
	Linear fluid (dielectric constant: 64) occupying 0.990854 of unit cell:	Completed after 0 iterations at t[s]:    119.58
SCF: Cycle: 32   Etot: -177.784137915220384   dEtot: -5.392e-08   |Residual|: 5.459e-05   |deigs|: 6.018e-07  t[s]:    119.77
	Linear fluid (dielectric constant: 64) occupying 0.990854 of unit cell:	Completed after 0 iterations at t[s]:    120.10
	Linear fluid (dielectric constant: 64) occupying 0.990854 of unit cell:	Completed after 0 iterations at t[s]:    120.85
SCF: Cycle: 33   Etot: -177.784137928014303   dEtot: -1.279e-08   |Residual|: 5.982e-05   |deigs|: 6.479e-07  t[s]:    121.04
	Linear fluid (dielectric constant: 64) occupying 0.990854 of unit cell:	Completed after 0 iterations at t[s]:    121.38
	Linear fluid (dielectric constant: 64) occupying 0.990854 of unit cell:	Completed after 0 iterations at t[s]:    122.18
SCF: Cycle: 34   Etot: -177.784137951367882   dEtot: -2.335e-08   |Residual|: 5.622e-05   |deigs|: 1.947e-06  t[s]:    122.38
	Linear fluid (dielectric constant: 64) occupying 0.990854 of unit cell:	Completed after 0 iterations at t[s]:    122.71
	Linear fluid (dielectric constant: 64) occupying 0.990854 of unit cell:	Completed after 0 iterations at t[s]:    123.46
SCF: Cycle: 35   Etot: -177.784137967061923   dEtot: -1.569e-08   |Residual|: 6.204e-05   |deigs|: 4.909e-07  t[s]:    123.66
	Linear fluid (dielectric constant: 64) occupying 0.990854 of unit cell:	Completed after 0 iterations at t[s]:    123.99
	Linear fluid (dielectric constant: 64) occupying 0.990854 of unit cell:	Completed after 1 iterations at t[s]:    124.90
SCF: Cycle: 36   Etot: -177.784137610469315   dEtot: +3.566e-07   |Residual|: 6.942e-05   |deigs|: 1.118e-06  t[s]:    125.10
	Linear fluid (dielectric constant: 64) occupying 0.990854 of unit cell:	Completed after 0 iterations at t[s]:    125.49
	Linear fluid (dielectric constant: 64) occupying 0.990854 of unit cell:	Completed after 0 iterations at t[s]:    126.26
SCF: Cycle: 37   Etot: -177.784137751669391   dEtot: -1.412e-07   |Residual|: 9.940e-05   |deigs|: 2.509e-05  t[s]:    126.45
	Linear fluid (dielectric constant: 64) occupying 0.990854 of unit cell:	Completed after 0 iterations at t[s]:    126.79
	Linear fluid (dielectric constant: 64) occupying 0.990854 of unit cell:	Completed after 0 iterations at t[s]:    127.54
SCF: Cycle: 38   Etot: -177.784137765538389   dEtot: -1.387e-08   |Residual|: 9.831e-05   |deigs|: 6.893e-07  t[s]:    127.74
	Linear fluid (dielectric constant: 64) occupying 0.990854 of unit cell:	Completed after 0 iterations at t[s]:    128.07
	Linear fluid (dielectric constant: 64) occupying 0.990854 of unit cell:	Completed after 0 iterations at t[s]:    128.82
SCF: Cycle: 39   Etot: -177.784137776914463   dEtot: -1.138e-08   |Residual|: 1.141e-04   |deigs|: 8.139e-08  t[s]:    129.02
	Linear fluid (dielectric constant: 64) occupying 0.990854 of unit cell:	Completed after 0 iterations at t[s]:    129.35
	Linear fluid (dielectric constant: 64) occupying 0.990854 of unit cell:	Completed after 0 iterations at t[s]:    130.13
SCF: Cycle: 40   Etot: -177.784137777700209   dEtot: -7.857e-10   |Residual|: 1.205e-04   |deigs|: 1.045e-07  t[s]:    130.33
	Linear fluid (dielectric constant: 64) occupying 0.990854 of unit cell:	Completed after 0 iterations at t[s]:    130.66
	Linear fluid (dielectric constant: 64) occupying 0.990854 of unit cell:	Completed after 0 iterations at t[s]:    131.50
SCF: Cycle: 41   Etot: -177.784137674936744   dEtot: +1.028e-07   |Residual|: 1.297e-04   |deigs|: 1.736e-07  t[s]:    131.70
	Linear fluid (dielectric constant: 64) occupying 0.990854 of unit cell:	Completed after 0 iterations at t[s]:    132.06
	Linear fluid (dielectric constant: 64) occupying 0.990854 of unit cell:	Completed after 0 iterations at t[s]:    132.81
SCF: Cycle: 42   Etot: -177.784137689660213   dEtot: -1.472e-08   |Residual|: 1.205e-04   |deigs|: 7.051e-06  t[s]:    133.01
	Linear fluid (dielectric constant: 64) occupying 0.990854 of unit cell:	Completed after 0 iterations at t[s]:    133.34
	Linear fluid (dielectric constant: 64) occupying 0.990854 of unit cell:	Completed after 0 iterations at t[s]:    134.10
SCF: Cycle: 43   Etot: -177.784137692223936   dEtot: -2.564e-09   |Residual|: 1.194e-04   |deigs|: 2.570e-07  t[s]:    134.29
	Linear fluid (dielectric constant: 64) occupying 0.990854 of unit cell:	Completed after 0 iterations at t[s]:    134.63
	Linear fluid (dielectric constant: 64) occupying 0.990854 of unit cell:	Completed after 0 iterations at t[s]:    135.38
SCF: Cycle: 44   Etot: -177.784137694392570   dEtot: -2.169e-09   |Residual|: 1.195e-04   |deigs|: 1.346e-07  t[s]:    135.58
SCF: Converged (|Delta E|<1.000000e-08 for 2 iters).

Setting wave functions to eigenvectors of Hamiltonian
Single-point solvation energy estimate, DeltaEtot = -0.128114791745702

# Ionic positions in cartesian coordinates:
ion S   5.224404249899997  10.946321496360000  10.502457449030000 1
ion S   4.405930061490001   8.273321088119999  13.990258410559999 1
ion S   4.517822864520001  10.323889787879999  17.113757222690001 1
ion S   8.657034544080000   8.813494739429999  18.671448433579997 1
ion S  10.060045685279999  10.482500495969999  21.757946332309999 1
ion S  11.945089154880002  13.725664570619998  21.194889940430002 1
ion S   6.530742473489992  14.219337635819999  11.830982992549998 1
ion S  10.409702427179997  14.199862078439999  12.327596477629999 1
ion Na   8.885518018920003  14.526203331600000  17.203814195570001 1
ion Na   9.820560202380001   9.211912184519999  13.309165703420000 1

# Forces in Cartesian coordinates:
force S  -0.004788592322417   0.000018151380362  -0.000341430440473 1
force S  -0.008762331524601  -0.000595528088091  -0.000577279742351 1
force S   0.001778403096262  -0.006306508338876   0.000565421018766 1
force S  -0.005589784403597  -0.000429791710725   0.007185655833163 1
force S  -0.004649619566906  -0.006562286282470   0.003896289308642 1
force S   0.011221708182692   0.001795888218384   0.008155366959748 1
force S   0.004343635341986   0.001504093054437  -0.002065285592002 1
force S  -0.002299779885669   0.011130013611509  -0.014866400154011 1
force Na  -0.005970544270424   0.014376472165561   0.003866996141401 1
force Na   0.014715298879454  -0.015095504945743  -0.005809352217596 1

# Energy components:
   A_diel =       -0.1923874667955270
   Eewald =      203.3873819993915220
       EH =      347.1254366767298620
     Eloc =     -612.0236199658545502
      Enl =     -129.8907579445768761
      Exc =      -48.0269378129109370
 Exc_core =       14.1418393114469314
       KE =       47.6949075081769820
-------------------------------------
     Etot =     -177.7841376943925695

IonicMinimize: Iter:   0  Etot: -177.784137694392570  |grad|_K:  7.333e-03  alpha:  1.000e+00

#--- Lowdin population analysis ---
# oxidation-state S -0.081 -0.020 -0.042 -0.112 +0.204 -0.527 +0.163 -0.582
# oxidation-state Na +0.821 +0.834


-------- Electronic minimization -----------
Will mix electronic density at each iteration.
	Linear fluid (dielectric constant: 64) occupying 0.990854 of unit cell:	Completed after 16 iterations at t[s]:    137.08
	Linear fluid (dielectric constant: 64) occupying 0.990816 of unit cell:	Completed after 20 iterations at t[s]:    139.32
SCF: Cycle:  0   Etot: -177.784264851784570   dEtot: -1.420e-02   |Residual|: 5.555e-02   |deigs|: 5.757e-04  t[s]:    139.58
	Linear fluid (dielectric constant: 64) occupying 0.990869 of unit cell:	Completed after 20 iterations at t[s]:    141.28
	Linear fluid (dielectric constant: 64) occupying 0.990824 of unit cell:	Completed after 18 iterations at t[s]:    143.37
SCF: Cycle:  1   Etot: -177.785031678425469   dEtot: -7.668e-04   |Residual|: 2.802e-02   |deigs|: 7.269e-04  t[s]:    143.63
	Linear fluid (dielectric constant: 64) occupying 0.990870 of unit cell:	Completed after 16 iterations at t[s]:    145.05
	Linear fluid (dielectric constant: 64) occupying 0.990842 of unit cell:	Completed after 14 iterations at t[s]:    146.84
SCF: Cycle:  2   Etot: -177.785543984216190   dEtot: -5.123e-04   |Residual|: 6.145e-03   |deigs|: 2.056e-03  t[s]:    147.13
	Linear fluid (dielectric constant: 64) occupying 0.990858 of unit cell:	Completed after 13 iterations at t[s]:    148.31
	Linear fluid (dielectric constant: 64) occupying 0.990842 of unit cell:	Completed after 13 iterations at t[s]:    149.95
SCF: Cycle:  3   Etot: -177.785590519609883   dEtot: -4.654e-05   |Residual|: 3.775e-03   |deigs|: 5.276e-04  t[s]:    150.24
	Linear fluid (dielectric constant: 64) occupying 0.990837 of unit cell:	Completed after 6 iterations at t[s]:    150.92
	Linear fluid (dielectric constant: 64) occupying 0.990841 of unit cell:	Completed after 6 iterations at t[s]:    152.23
SCF: Cycle:  4   Etot: -177.785647547825278   dEtot: -5.703e-05   |Residual|: 2.159e-03   |deigs|: 5.637e-04  t[s]:    152.43
	Linear fluid (dielectric constant: 64) occupying 0.990836 of unit cell:	Completed after 6 iterations at t[s]:    153.11
	Linear fluid (dielectric constant: 64) occupying 0.990842 of unit cell:	Completed after 6 iterations at t[s]:    154.31
SCF: Cycle:  5   Etot: -177.785660063934529   dEtot: -1.252e-05   |Residual|: 1.768e-03   |deigs|: 5.410e-05  t[s]:    154.55
	Linear fluid (dielectric constant: 64) occupying 0.990829 of unit cell:	Completed after 8 iterations at t[s]:    155.39
	Linear fluid (dielectric constant: 64) occupying 0.990842 of unit cell:	Completed after 7 iterations at t[s]:    156.66
SCF: Cycle:  6   Etot: -177.785689496664105   dEtot: -2.943e-05   |Residual|: 1.088e-03   |deigs|: 1.734e-04  t[s]:    156.92
	Linear fluid (dielectric constant: 64) occupying 0.990827 of unit cell:	Completed after 5 iterations at t[s]:    157.56
	Linear fluid (dielectric constant: 64) occupying 0.990842 of unit cell:	Completed after 5 iterations at t[s]:    158.74
SCF: Cycle:  7   Etot: -177.785695879572586   dEtot: -6.383e-06   |Residual|: 7.918e-04   |deigs|: 1.335e-04  t[s]:    158.94
	Linear fluid (dielectric constant: 64) occupying 0.990828 of unit cell:	Completed after 4 iterations at t[s]:    159.55
	Linear fluid (dielectric constant: 64) occupying 0.990842 of unit cell:	Completed after 5 iterations at t[s]:    160.65
SCF: Cycle:  8   Etot: -177.785700714949826   dEtot: -4.835e-06   |Residual|: 1.157e-03   |deigs|: 1.977e-04  t[s]:    160.85
	Linear fluid (dielectric constant: 64) occupying 0.990831 of unit cell:	Completed after 3 iterations at t[s]:    161.43
	Linear fluid (dielectric constant: 64) occupying 0.990842 of unit cell:	Completed after 3 iterations at t[s]:    162.44
SCF: Cycle:  9   Etot: -177.785702771952799   dEtot: -2.057e-06   |Residual|: 5.051e-04   |deigs|: 1.895e-04  t[s]:    162.64
	Linear fluid (dielectric constant: 64) occupying 0.990833 of unit cell:	Completed after 0 iterations at t[s]:    163.10
	Linear fluid (dielectric constant: 64) occupying 0.990842 of unit cell:	Completed after 3 iterations at t[s]:    164.13
SCF: Cycle: 10   Etot: -177.785703973113698   dEtot: -1.201e-06   |Residual|: 4.003e-04   |deigs|: 4.602e-05  t[s]:    164.33
	Linear fluid (dielectric constant: 64) occupying 0.990837 of unit cell:	Completed after 3 iterations at t[s]:    164.91
	Linear fluid (dielectric constant: 64) occupying 0.990842 of unit cell:	Completed after 2 iterations at t[s]:    165.84
SCF: Cycle: 11   Etot: -177.785704206886749   dEtot: -2.338e-07   |Residual|: 3.992e-04   |deigs|: 1.624e-04  t[s]:    166.04
	Linear fluid (dielectric constant: 64) occupying 0.990837 of unit cell:	Completed after 0 iterations at t[s]:    166.49
	Linear fluid (dielectric constant: 64) occupying 0.990842 of unit cell:	Completed after 0 iterations at t[s]:    167.34
SCF: Cycle: 12   Etot: -177.785704236308078   dEtot: -2.942e-08   |Residual|: 3.062e-04   |deigs|: 3.768e-05  t[s]:    167.54
	Linear fluid (dielectric constant: 64) occupying 0.990839 of unit cell:	Completed after 1 iterations at t[s]:    167.97
	Linear fluid (dielectric constant: 64) occupying 0.990842 of unit cell:	Completed after 1 iterations at t[s]:    168.92
SCF: Cycle: 13   Etot: -177.785704462016753   dEtot: -2.257e-07   |Residual|: 2.965e-04   |deigs|: 3.062e-05  t[s]:    169.11
	Linear fluid (dielectric constant: 64) occupying 0.990840 of unit cell:	Completed after 0 iterations at t[s]:    169.54
	Linear fluid (dielectric constant: 64) occupying 0.990842 of unit cell:	Completed after 2 iterations at t[s]:    170.49
SCF: Cycle: 14   Etot: -177.785704852079220   dEtot: -3.901e-07   |Residual|: 2.857e-04   |deigs|: 3.267e-05  t[s]:    170.70
	Linear fluid (dielectric constant: 64) occupying 0.990841 of unit cell:	Completed after 0 iterations at t[s]:    171.11
	Linear fluid (dielectric constant: 64) occupying 0.990842 of unit cell:	Completed after 0 iterations at t[s]:    171.88
SCF: Cycle: 15   Etot: -177.785704859582381   dEtot: -7.503e-09   |Residual|: 1.471e-04   |deigs|: 9.687e-05  t[s]:    172.09
	Linear fluid (dielectric constant: 64) occupying 0.990842 of unit cell:	Completed after 0 iterations at t[s]:    172.41
	Linear fluid (dielectric constant: 64) occupying 0.990842 of unit cell:	Completed after 0 iterations at t[s]:    173.26
SCF: Cycle: 16   Etot: -177.785704888861915   dEtot: -2.928e-08   |Residual|: 1.253e-04   |deigs|: 4.715e-06  t[s]:    173.46
	Linear fluid (dielectric constant: 64) occupying 0.990842 of unit cell:	Completed after 2 iterations at t[s]:    173.90
	Linear fluid (dielectric constant: 64) occupying 0.990842 of unit cell:	Completed after 1 iterations at t[s]:    174.85
SCF: Cycle: 17   Etot: -177.785704557301472   dEtot: +3.316e-07   |Residual|: 3.521e-04   |deigs|: 1.105e-04  t[s]:    175.05
	Linear fluid (dielectric constant: 64) occupying 0.990842 of unit cell:	Completed after 0 iterations at t[s]:    175.47
	Linear fluid (dielectric constant: 64) occupying 0.990843 of unit cell:	Completed after 0 iterations at t[s]:    176.25
SCF: Cycle: 18   Etot: -177.785704535149421   dEtot: +2.215e-08   |Residual|: 2.557e-04   |deigs|: 3.338e-05  t[s]:    176.45
	Linear fluid (dielectric constant: 64) occupying 0.990843 of unit cell:	Completed after 0 iterations at t[s]:    176.77
	Linear fluid (dielectric constant: 64) occupying 0.990843 of unit cell:	Completed after 0 iterations at t[s]:    177.67
SCF: Cycle: 19   Etot: -177.785704999668553   dEtot: -4.645e-07   |Residual|: 2.731e-04   |deigs|: 4.112e-06  t[s]:    177.87
	Linear fluid (dielectric constant: 64) occupying 0.990843 of unit cell:	Completed after 0 iterations at t[s]:    178.26
	Linear fluid (dielectric constant: 64) occupying 0.990843 of unit cell:	Completed after 1 iterations at t[s]:    179.11
SCF: Cycle: 20   Etot: -177.785704935460927   dEtot: +6.421e-08   |Residual|: 3.205e-04   |deigs|: 2.379e-05  t[s]:    179.31
	Linear fluid (dielectric constant: 64) occupying 0.990843 of unit cell:	Completed after 0 iterations at t[s]:    179.73
	Linear fluid (dielectric constant: 64) occupying 0.990843 of unit cell:	Completed after 0 iterations at t[s]:    180.60
SCF: Cycle: 21   Etot: -177.785704943874407   dEtot: -8.413e-09   |Residual|: 1.421e-04   |deigs|: 5.678e-05  t[s]:    180.82
	Linear fluid (dielectric constant: 64) occupying 0.990843 of unit cell:	Completed after 0 iterations at t[s]:    181.14
	Linear fluid (dielectric constant: 64) occupying 0.990843 of unit cell:	Completed after 0 iterations at t[s]:    182.00
SCF: Cycle: 22   Etot: -177.785705070876560   dEtot: -1.270e-07   |Residual|: 1.432e-04   |deigs|: 1.461e-06  t[s]:    182.20
	Linear fluid (dielectric constant: 64) occupying 0.990843 of unit cell:	Completed after 0 iterations at t[s]:    182.53
	Linear fluid (dielectric constant: 64) occupying 0.990843 of unit cell:	Completed after 0 iterations at t[s]:    183.28
SCF: Cycle: 23   Etot: -177.785705312443213   dEtot: -2.416e-07   |Residual|: 1.540e-04   |deigs|: 2.526e-06  t[s]:    183.47
	Linear fluid (dielectric constant: 64) occupying 0.990844 of unit cell:	Completed after 0 iterations at t[s]:    183.84
	Linear fluid (dielectric constant: 64) occupying 0.990843 of unit cell:	Completed after 0 iterations at t[s]:    184.63
SCF: Cycle: 24   Etot: -177.785705521411501   dEtot: -2.090e-07   |Residual|: 1.268e-04   |deigs|: 3.479e-05  t[s]:    184.84
	Linear fluid (dielectric constant: 64) occupying 0.990844 of unit cell:	Completed after 1 iterations at t[s]:    185.24
	Linear fluid (dielectric constant: 64) occupying 0.990843 of unit cell:	Completed after 0 iterations at t[s]:    186.05
SCF: Cycle: 25   Etot: -177.785705074906303   dEtot: +4.465e-07   |Residual|: 2.326e-04   |deigs|: 7.058e-05  t[s]:    186.24
	Linear fluid (dielectric constant: 64) occupying 0.990844 of unit cell:	Completed after 0 iterations at t[s]:    186.61
	Linear fluid (dielectric constant: 64) occupying 0.990843 of unit cell:	Completed after 0 iterations at t[s]:    187.38
SCF: Cycle: 26   Etot: -177.785705058641156   dEtot: +1.627e-08   |Residual|: 1.563e-04   |deigs|: 2.131e-05  t[s]:    187.58
	Linear fluid (dielectric constant: 64) occupying 0.990844 of unit cell:	Completed after 0 iterations at t[s]:    187.91
	Linear fluid (dielectric constant: 64) occupying 0.990843 of unit cell:	Completed after 0 iterations at t[s]:    188.68
SCF: Cycle: 27   Etot: -177.785705069057769   dEtot: -1.042e-08   |Residual|: 1.478e-04   |deigs|: 7.344e-07  t[s]:    188.88
	Linear fluid (dielectric constant: 64) occupying 0.990843 of unit cell:	Completed after 0 iterations at t[s]:    189.21
	Linear fluid (dielectric constant: 64) occupying 0.990843 of unit cell:	Completed after 0 iterations at t[s]:    190.07
SCF: Cycle: 28   Etot: -177.785705133283187   dEtot: -6.423e-08   |Residual|: 1.183e-04   |deigs|: 2.083e-06  t[s]:    190.26
	Linear fluid (dielectric constant: 64) occupying 0.990843 of unit cell:	Completed after 0 iterations at t[s]:    190.60
	Linear fluid (dielectric constant: 64) occupying 0.990843 of unit cell:	Completed after 0 iterations at t[s]:    191.36
SCF: Cycle: 29   Etot: -177.785705242294512   dEtot: -1.090e-07   |Residual|: 1.252e-04   |deigs|: 1.574e-06  t[s]:    191.55
	Linear fluid (dielectric constant: 64) occupying 0.990843 of unit cell:	Completed after 0 iterations at t[s]:    191.92
	Linear fluid (dielectric constant: 64) occupying 0.990843 of unit cell:	Completed after 0 iterations at t[s]:    192.73
SCF: Cycle: 30   Etot: -177.785705153244265   dEtot: +8.905e-08   |Residual|: 1.608e-04   |deigs|: 1.488e-05  t[s]:    192.93
	Linear fluid (dielectric constant: 64) occupying 0.990843 of unit cell:	Completed after 0 iterations at t[s]:    193.28
	Linear fluid (dielectric constant: 64) occupying 0.990843 of unit cell:	Completed after 0 iterations at t[s]:    194.05
SCF: Cycle: 31   Etot: -177.785705148896227   dEtot: +4.348e-09   |Residual|: 1.258e-04   |deigs|: 1.012e-05  t[s]:    194.26
	Linear fluid (dielectric constant: 64) occupying 0.990843 of unit cell:	Completed after 0 iterations at t[s]:    194.59
	Linear fluid (dielectric constant: 64) occupying 0.990843 of unit cell:	Completed after 0 iterations at t[s]:    195.44
SCF: Cycle: 32   Etot: -177.785705260088179   dEtot: -1.112e-07   |Residual|: 1.367e-04   |deigs|: 2.059e-06  t[s]:    195.63
	Linear fluid (dielectric constant: 64) occupying 0.990843 of unit cell:	Completed after 0 iterations at t[s]:    195.96
	Linear fluid (dielectric constant: 64) occupying 0.990843 of unit cell:	Completed after 0 iterations at t[s]:    196.73
SCF: Cycle: 33   Etot: -177.785705233739748   dEtot: +2.635e-08   |Residual|: 1.411e-04   |deigs|: 6.138e-07  t[s]:    196.92
	Linear fluid (dielectric constant: 64) occupying 0.990843 of unit cell:	Completed after 0 iterations at t[s]:    197.25
	Linear fluid (dielectric constant: 64) occupying 0.990843 of unit cell:	Completed after 1 iterations at t[s]:    198.18
SCF: Cycle: 34   Etot: -177.785704778018925   dEtot: +4.557e-07   |Residual|: 1.410e-04   |deigs|: 2.227e-06  t[s]:    198.38
	Linear fluid (dielectric constant: 64) occupying 0.990843 of unit cell:	Completed after 0 iterations at t[s]:    198.77
	Linear fluid (dielectric constant: 64) occupying 0.990843 of unit cell:	Completed after 0 iterations at t[s]:    199.65
SCF: Cycle: 35   Etot: -177.785705044900681   dEtot: -2.669e-07   |Residual|: 1.169e-04   |deigs|: 5.728e-05  t[s]:    199.84
	Linear fluid (dielectric constant: 64) occupying 0.990843 of unit cell:	Completed after 0 iterations at t[s]:    200.20
	Linear fluid (dielectric constant: 64) occupying 0.990843 of unit cell:	Completed after 0 iterations at t[s]:    201.00
SCF: Cycle: 36   Etot: -177.785705035476894   dEtot: +9.424e-09   |Residual|: 1.726e-04   |deigs|: 4.989e-05  t[s]:    201.20
	Linear fluid (dielectric constant: 64) occupying 0.990843 of unit cell:	Completed after 0 iterations at t[s]:    201.55
	Linear fluid (dielectric constant: 64) occupying 0.990843 of unit cell:	Completed after 0 iterations at t[s]:    202.40
SCF: Cycle: 37   Etot: -177.785704992811446   dEtot: +4.267e-08   |Residual|: 1.253e-04   |deigs|: 2.885e-05  t[s]:    202.60
	Linear fluid (dielectric constant: 64) occupying 0.990843 of unit cell:	Completed after 0 iterations at t[s]:    202.93
	Linear fluid (dielectric constant: 64) occupying 0.990843 of unit cell:	Completed after 0 iterations at t[s]:    203.69
SCF: Cycle: 38   Etot: -177.785705007676484   dEtot: -1.487e-08   |Residual|: 1.310e-04   |deigs|: 5.523e-07  t[s]:    203.89
	Linear fluid (dielectric constant: 64) occupying 0.990843 of unit cell:	Completed after 0 iterations at t[s]:    204.22
	Linear fluid (dielectric constant: 64) occupying 0.990843 of unit cell:	Completed after 0 iterations at t[s]:    204.96
SCF: Cycle: 39   Etot: -177.785705026522606   dEtot: -1.885e-08   |Residual|: 1.278e-04   |deigs|: 3.413e-07  t[s]:    205.16
	Linear fluid (dielectric constant: 64) occupying 0.990843 of unit cell:	Completed after 0 iterations at t[s]:    205.49
	Linear fluid (dielectric constant: 64) occupying 0.990843 of unit cell:	Completed after 0 iterations at t[s]:    206.27
SCF: Cycle: 40   Etot: -177.785704956674294   dEtot: +6.985e-08   |Residual|: 1.272e-04   |deigs|: 7.879e-07  t[s]:    206.47
	Linear fluid (dielectric constant: 64) occupying 0.990843 of unit cell:	Completed after 0 iterations at t[s]:    206.80
	Linear fluid (dielectric constant: 64) occupying 0.990843 of unit cell:	Completed after 0 iterations at t[s]:    207.56
SCF: Cycle: 41   Etot: -177.785705033124316   dEtot: -7.645e-08   |Residual|: 1.189e-04   |deigs|: 1.569e-06  t[s]:    207.75
	Linear fluid (dielectric constant: 64) occupying 0.990843 of unit cell:	Completed after 0 iterations at t[s]:    208.08
	Linear fluid (dielectric constant: 64) occupying 0.990843 of unit cell:	Completed after 0 iterations at t[s]:    208.87
SCF: Cycle: 42   Etot: -177.785704945468552   dEtot: +8.766e-08   |Residual|: 1.268e-04   |deigs|: 1.179e-06  t[s]:    209.07
	Linear fluid (dielectric constant: 64) occupying 0.990843 of unit cell:	Completed after 0 iterations at t[s]:    209.40
	Linear fluid (dielectric constant: 64) occupying 0.990843 of unit cell:	Completed after 0 iterations at t[s]:    210.17
SCF: Cycle: 43   Etot: -177.785704999806171   dEtot: -5.434e-08   |Residual|: 1.522e-04   |deigs|: 2.815e-06  t[s]:    210.38
	Linear fluid (dielectric constant: 64) occupying 0.990843 of unit cell:	Completed after 0 iterations at t[s]:    210.70
	Linear fluid (dielectric constant: 64) occupying 0.990843 of unit cell:	Completed after 0 iterations at t[s]:    211.46
SCF: Cycle: 44   Etot: -177.785704978879494   dEtot: +2.093e-08   |Residual|: 1.461e-04   |deigs|: 1.070e-06  t[s]:    211.66
	Linear fluid (dielectric constant: 64) occupying 0.990843 of unit cell:	Completed after 0 iterations at t[s]:    211.99
	Linear fluid (dielectric constant: 64) occupying 0.990843 of unit cell:	Completed after 0 iterations at t[s]:    212.82
SCF: Cycle: 45   Etot: -177.785705068623116   dEtot: -8.974e-08   |Residual|: 1.738e-04   |deigs|: 3.105e-06  t[s]:    213.03
	Linear fluid (dielectric constant: 64) occupying 0.990843 of unit cell:	Completed after 0 iterations at t[s]:    213.36
	Linear fluid (dielectric constant: 64) occupying 0.990843 of unit cell:	Completed after 0 iterations at t[s]:    214.11
SCF: Cycle: 46   Etot: -177.785705109203036   dEtot: -4.058e-08   |Residual|: 1.809e-04   |deigs|: 8.172e-07  t[s]:    214.30
	Linear fluid (dielectric constant: 64) occupying 0.990843 of unit cell:	Completed after 0 iterations at t[s]:    214.64
	Linear fluid (dielectric constant: 64) occupying 0.990843 of unit cell:	Completed after 0 iterations at t[s]:    215.50
SCF: Cycle: 47   Etot: -177.785705101533097   dEtot: +7.670e-09   |Residual|: 1.359e-04   |deigs|: 4.641e-06  t[s]:    215.70
	Linear fluid (dielectric constant: 64) occupying 0.990843 of unit cell:	Completed after 0 iterations at t[s]:    216.03
	Linear fluid (dielectric constant: 64) occupying 0.990843 of unit cell:	Completed after 0 iterations at t[s]:    216.87
SCF: Cycle: 48   Etot: -177.785705037797186   dEtot: +6.374e-08   |Residual|: 1.529e-04   |deigs|: 4.630e-06  t[s]:    217.06
	Linear fluid (dielectric constant: 64) occupying 0.990843 of unit cell:	Completed after 0 iterations at t[s]:    217.39
	Linear fluid (dielectric constant: 64) occupying 0.990843 of unit cell:	Completed after 0 iterations at t[s]:    218.24
SCF: Cycle: 49   Etot: -177.785705092448978   dEtot: -5.465e-08   |Residual|: 1.496e-04   |deigs|: 3.573e-06  t[s]:    218.44
	Linear fluid (dielectric constant: 64) occupying 0.990843 of unit cell:	Completed after 1 iterations at t[s]:    218.85
Setting wave functions to eigenvectors of Hamiltonian
IonicMinimize: 	Wrong curvature in test step, increasing alphaT to 3.000000e+00.

-------- Electronic minimization -----------
Will mix electronic density at each iteration.
	Linear fluid (dielectric constant: 64) occupying 0.990843 of unit cell:	Completed after 1 iterations at t[s]:    219.67
	Linear fluid (dielectric constant: 64) occupying 0.990843 of unit cell:	Completed after 0 iterations at t[s]:    220.49
SCF: Cycle:  0   Etot: -177.785705534115721   dEtot: -3.345e-07   |Residual|: 1.009e-04   |deigs|: 3.931e-09  t[s]:    220.68
	Linear fluid (dielectric constant: 64) occupying 0.990843 of unit cell:	Completed after 0 iterations at t[s]:    221.01
	Linear fluid (dielectric constant: 64) occupying 0.990843 of unit cell:	Completed after 0 iterations at t[s]:    221.77
SCF: Cycle:  1   Etot: -177.785705664183638   dEtot: -1.301e-07   |Residual|: 8.574e-05   |deigs|: 8.059e-07  t[s]:    221.97
	Linear fluid (dielectric constant: 64) occupying 0.990843 of unit cell:	Completed after 0 iterations at t[s]:    222.29
	Linear fluid (dielectric constant: 64) occupying 0.990843 of unit cell:	Completed after 1 iterations at t[s]:    223.11
SCF: Cycle:  2   Etot: -177.785705256839833   dEtot: +4.073e-07   |Residual|: 7.875e-05   |deigs|: 1.215e-06  t[s]:    223.30
	Linear fluid (dielectric constant: 64) occupying 0.990843 of unit cell:	Completed after 0 iterations at t[s]:    223.68
	Linear fluid (dielectric constant: 64) occupying 0.990843 of unit cell:	Completed after 0 iterations at t[s]:    224.49
SCF: Cycle:  3   Etot: -177.785705212821370   dEtot: +4.402e-08   |Residual|: 6.968e-05   |deigs|: 2.920e-05  t[s]:    224.68
	Linear fluid (dielectric constant: 64) occupying 0.990843 of unit cell:	Completed after 0 iterations at t[s]:    225.03
	Linear fluid (dielectric constant: 64) occupying 0.990843 of unit cell:	Completed after 0 iterations at t[s]:    225.79
SCF: Cycle:  4   Etot: -177.785705218377416   dEtot: -5.556e-09   |Residual|: 4.463e-05   |deigs|: 1.282e-05  t[s]:    225.98
	Linear fluid (dielectric constant: 64) occupying 0.990843 of unit cell:	Completed after 0 iterations at t[s]:    226.31
	Linear fluid (dielectric constant: 64) occupying 0.990843 of unit cell:	Completed after 0 iterations at t[s]:    227.16
SCF: Cycle:  5   Etot: -177.785705229402396   dEtot: -1.102e-08   |Residual|: 3.068e-05   |deigs|: 1.566e-06  t[s]:    227.35
	Linear fluid (dielectric constant: 64) occupying 0.990843 of unit cell:	Completed after 0 iterations at t[s]:    227.68
	Linear fluid (dielectric constant: 64) occupying 0.990843 of unit cell:	Completed after 0 iterations at t[s]:    228.46
SCF: Cycle:  6   Etot: -177.785705236740228   dEtot: -7.338e-09   |Residual|: 1.430e-05   |deigs|: 8.079e-07  t[s]:    228.66
	Linear fluid (dielectric constant: 64) occupying 0.990843 of unit cell:	Completed after 0 iterations at t[s]:    228.99
	Linear fluid (dielectric constant: 64) occupying 0.990843 of unit cell:	Completed after 0 iterations at t[s]:    229.74
SCF: Cycle:  7   Etot: -177.785705243003491   dEtot: -6.263e-09   |Residual|: 1.132e-05   |deigs|: 2.705e-07  t[s]:    229.95
SCF: Converged (|Delta E|<1.000000e-08 for 2 iters).

Setting wave functions to eigenvectors of Hamiltonian

# Ionic positions in cartesian coordinates:
ion S   5.219615818224901  10.946356147833928  10.502115020478000 1
ion S   4.397167890612720   8.272742060125474  13.989680132706120 1
ion S   4.519601428263583  10.317599779634687  17.114321645597240 1
ion S   8.651444920323723   8.813081447812838  18.678633091301631 1
ion S  10.055396226360413  10.475954709781094  21.761841623507113 1
ion S  11.956311023710011  13.727476958931948  21.203044309278223 1
ion S   6.535086269479301  14.220858228968002  11.828916708846469 1
ion S  10.407402807941647  14.211008592145072  12.312729079364461 1
ion Na   8.879547635296897  14.540596303859127  17.207680193599874 1
ion Na   9.835275661906778   9.196833179667820  13.303355353090874 1

# Forces in Cartesian coordinates:
force S  -0.004468448781535   0.000396227791336  -0.000146793439721 1
force S  -0.008511084530737  -0.000732925346901  -0.000699487180637 1
force S   0.001690124249773  -0.006000227296449   0.000904812629806 1
force S  -0.005615419751320  -0.000806951844619   0.006262112983240 1
force S  -0.003526929213665  -0.004334475660881   0.004214594529327 1
force S   0.009978721860861  -0.000043302777421   0.008058661057154 1
force S   0.003209730542555   0.001186197669330  -0.002300717603522 1
force S  -0.001598402625726   0.010563529541038  -0.014264332899405 1
force Na  -0.005621178977876   0.014150075620431   0.003735793537113 1
force Na   0.014624708565062  -0.014592534700495  -0.005762913344512 1

# Energy components:
   A_diel =       -0.1943848272227675
   Eewald =      202.8683745518981993
       EH =      346.6012854405354915
     Eloc =     -610.9754148271915710
      Enl =     -129.8917141085777018
      Exc =      -48.0247985007923575
 Exc_core =       14.1418392472126122
       KE =       47.6891077811346022
-------------------------------------
     Etot =     -177.7857052430034912

IonicMinimize: Iter:   1  Etot: -177.785705243003491  |grad|_K:  6.973e-03  alpha: -1.039e+00  linmin: -9.961e-01  t[s]:    230.35

#--- Lowdin population analysis ---
# oxidation-state S -0.083 -0.019 -0.041 -0.108 +0.201 -0.533 +0.163 -0.579
# oxidation-state Na +0.822 +0.836


-------- Electronic minimization -----------
Will mix electronic density at each iteration.
	Linear fluid (dielectric constant: 64) occupying 0.990842 of unit cell:	Completed after 20 iterations at t[s]:    231.65
	Linear fluid (dielectric constant: 64) occupying 0.990772 of unit cell:	Completed after 22 iterations at t[s]:    234.08
SCF: Cycle:  0   Etot: -177.783549245266443   dEtot: -5.020e-02   |Residual|: 1.047e-01   |deigs|: 2.025e-03  t[s]:    234.36
	Linear fluid (dielectric constant: 64) occupying 0.990869 of unit cell:	Completed after 21 iterations at t[s]:    236.12
	Linear fluid (dielectric constant: 64) occupying 0.990786 of unit cell:	Completed after 21 iterations at t[s]:    238.43
SCF: Cycle:  1   Etot: -177.786114252095530   dEtot: -2.565e-03   |Residual|: 5.256e-02   |deigs|: 1.335e-03  t[s]:    238.71
	Linear fluid (dielectric constant: 64) occupying 0.990872 of unit cell:	Completed after 21 iterations at t[s]:    240.46
	Linear fluid (dielectric constant: 64) occupying 0.990817 of unit cell:	Completed after 19 iterations at t[s]:    242.61
SCF: Cycle:  2   Etot: -177.787875222125365   dEtot: -1.761e-03   |Residual|: 1.133e-02   |deigs|: 3.320e-03  t[s]:    242.88
	Linear fluid (dielectric constant: 64) occupying 0.990848 of unit cell:	Completed after 17 iterations at t[s]:    244.36
	Linear fluid (dielectric constant: 64) occupying 0.990818 of unit cell:	Completed after 17 iterations at t[s]:    246.36
SCF: Cycle:  3   Etot: -177.788050316198991   dEtot: -1.751e-04   |Residual|: 7.011e-03   |deigs|: 1.341e-03  t[s]:    246.63
	Linear fluid (dielectric constant: 64) occupying 0.990812 of unit cell:	Completed after 9 iterations at t[s]:    247.52
	Linear fluid (dielectric constant: 64) occupying 0.990820 of unit cell:	Completed after 9 iterations at t[s]:    249.01
SCF: Cycle:  4   Etot: -177.788237728724312   dEtot: -1.874e-04   |Residual|: 3.610e-03   |deigs|: 1.365e-03  t[s]:    249.28
	Linear fluid (dielectric constant: 64) occupying 0.990808 of unit cell:	Completed after 8 iterations at t[s]:    250.10
	Linear fluid (dielectric constant: 64) occupying 0.990820 of unit cell:	Completed after 8 iterations at t[s]:    251.40
SCF: Cycle:  5   Etot: -177.788291553751947   dEtot: -5.383e-05   |Residual|: 2.621e-03   |deigs|: 1.632e-04  t[s]:    251.66
	Linear fluid (dielectric constant: 64) occupying 0.990789 of unit cell:	Completed after 11 iterations at t[s]:    252.72
	Linear fluid (dielectric constant: 64) occupying 0.990819 of unit cell:	Completed after 11 iterations at t[s]:    254.31
SCF: Cycle:  6   Etot: -177.788385866880645   dEtot: -9.431e-05   |Residual|: 1.903e-03   |deigs|: 2.681e-04  t[s]:    254.58
	Linear fluid (dielectric constant: 64) occupying 0.990789 of unit cell:	Completed after 10 iterations at t[s]:    255.56
	Linear fluid (dielectric constant: 64) occupying 0.990820 of unit cell:	Completed after 10 iterations at t[s]:    257.00
SCF: Cycle:  7   Etot: -177.788398153018704   dEtot: -1.229e-05   |Residual|: 1.628e-03   |deigs|: 2.082e-04  t[s]:    257.28
	Linear fluid (dielectric constant: 64) occupying 0.990798 of unit cell:	Completed after 8 iterations at t[s]:    258.11
	Linear fluid (dielectric constant: 64) occupying 0.990819 of unit cell:	Completed after 6 iterations at t[s]:    259.36
SCF: Cycle:  8   Etot: -177.788415424761752   dEtot: -1.727e-05   |Residual|: 1.284e-03   |deigs|: 8.571e-04  t[s]:    259.60
	Linear fluid (dielectric constant: 64) occupying 0.990799 of unit cell:	Completed after 6 iterations at t[s]:    260.29
	Linear fluid (dielectric constant: 64) occupying 0.990818 of unit cell:	Completed after 4 iterations at t[s]:    261.43
SCF: Cycle:  9   Etot: -177.788417058920004   dEtot: -1.634e-06   |Residual|: 9.903e-04   |deigs|: 9.544e-05  t[s]:    261.64
	Linear fluid (dielectric constant: 64) occupying 0.990805 of unit cell:	Completed after 4 iterations at t[s]:    262.24
	Linear fluid (dielectric constant: 64) occupying 0.990819 of unit cell:	Completed after 5 iterations at t[s]:    263.42
SCF: Cycle: 10   Etot: -177.788419275892011   dEtot: -2.217e-06   |Residual|: 1.431e-03   |deigs|: 2.351e-04  t[s]:    263.62
	Linear fluid (dielectric constant: 64) occupying 0.990807 of unit cell:	Completed after 3 iterations at t[s]:    264.19
	Linear fluid (dielectric constant: 64) occupying 0.990820 of unit cell:	Completed after 3 iterations at t[s]:    265.20
SCF: Cycle: 11   Etot: -177.788420707751669   dEtot: -1.432e-06   |Residual|: 8.411e-04   |deigs|: 1.722e-04  t[s]:    265.40
	Linear fluid (dielectric constant: 64) occupying 0.990811 of unit cell:	Completed after 3 iterations at t[s]:    265.97
	Linear fluid (dielectric constant: 64) occupying 0.990820 of unit cell:	Completed after 1 iterations at t[s]:    266.94
SCF: Cycle: 12   Etot: -177.788421507865706   dEtot: -8.001e-07   |Residual|: 5.667e-04   |deigs|: 3.393e-05  t[s]:    267.14
	Linear fluid (dielectric constant: 64) occupying 0.990814 of unit cell:	Completed after 0 iterations at t[s]:    267.61
	Linear fluid (dielectric constant: 64) occupying 0.990820 of unit cell:	Completed after 0 iterations at t[s]:    268.40
SCF: Cycle: 13   Etot: -177.788422138680517   dEtot: -6.308e-07   |Residual|: 4.318e-04   |deigs|: 6.634e-05  t[s]:    268.60
	Linear fluid (dielectric constant: 64) occupying 0.990817 of unit cell:	Completed after 2 iterations at t[s]:    269.07
	Linear fluid (dielectric constant: 64) occupying 0.990820 of unit cell:	Completed after 1 iterations at t[s]:    269.93
SCF: Cycle: 14   Etot: -177.788422222133050   dEtot: -8.345e-08   |Residual|: 4.596e-04   |deigs|: 2.222e-05  t[s]:    270.13
	Linear fluid (dielectric constant: 64) occupying 0.990819 of unit cell:	Completed after 0 iterations at t[s]:    270.51
	Linear fluid (dielectric constant: 64) occupying 0.990821 of unit cell:	Completed after 0 iterations at t[s]:    271.35
SCF: Cycle: 15   Etot: -177.788422455686259   dEtot: -2.336e-07   |Residual|: 2.686e-04   |deigs|: 2.675e-05  t[s]:    271.54
	Linear fluid (dielectric constant: 64) occupying 0.990822 of unit cell:	Completed after 1 iterations at t[s]:    271.94
	Linear fluid (dielectric constant: 64) occupying 0.990821 of unit cell:	Completed after 0 iterations at t[s]:    272.75
SCF: Cycle: 16   Etot: -177.788422337642771   dEtot: +1.180e-07   |Residual|: 2.843e-04   |deigs|: 5.046e-05  t[s]:    272.95
	Linear fluid (dielectric constant: 64) occupying 0.990823 of unit cell:	Completed after 0 iterations at t[s]:    273.31
	Linear fluid (dielectric constant: 64) occupying 0.990821 of unit cell:	Completed after 0 iterations at t[s]:    274.07
SCF: Cycle: 17   Etot: -177.788422543693400   dEtot: -2.061e-07   |Residual|: 2.346e-04   |deigs|: 1.092e-05  t[s]:    274.27
	Linear fluid (dielectric constant: 64) occupying 0.990823 of unit cell:	Completed after 1 iterations at t[s]:    274.68
	Linear fluid (dielectric constant: 64) occupying 0.990821 of unit cell:	Completed after 0 iterations at t[s]:    275.52
SCF: Cycle: 18   Etot: -177.788422431538038   dEtot: +1.122e-07   |Residual|: 2.677e-04   |deigs|: 2.185e-05  t[s]:    275.71
	Linear fluid (dielectric constant: 64) occupying 0.990823 of unit cell:	Completed after 0 iterations at t[s]:    276.07
	Linear fluid (dielectric constant: 64) occupying 0.990822 of unit cell:	Completed after 0 iterations at t[s]:    276.90
SCF: Cycle: 19   Etot: -177.788422658560421   dEtot: -2.270e-07   |Residual|: 2.052e-04   |deigs|: 2.139e-05  t[s]:    277.10
	Linear fluid (dielectric constant: 64) occupying 0.990823 of unit cell:	Completed after 1 iterations at t[s]:    277.50
	Linear fluid (dielectric constant: 64) occupying 0.990822 of unit cell:	Completed after 0 iterations at t[s]:    278.31
SCF: Cycle: 20   Etot: -177.788422472353204   dEtot: +1.862e-07   |Residual|: 1.747e-04   |deigs|: 4.368e-05  t[s]:    278.50
	Linear fluid (dielectric constant: 64) occupying 0.990823 of unit cell:	Completed after 0 iterations at t[s]:    278.86
	Linear fluid (dielectric constant: 64) occupying 0.990822 of unit cell:	Completed after 0 iterations at t[s]:    279.61
SCF: Cycle: 21   Etot: -177.788422512696485   dEtot: -4.034e-08   |Residual|: 1.284e-04   |deigs|: 1.349e-05  t[s]:    279.80
	Linear fluid (dielectric constant: 64) occupying 0.990822 of unit cell:	Completed after 0 iterations at t[s]:    280.14
	Linear fluid (dielectric constant: 64) occupying 0.990822 of unit cell:	Completed after 0 iterations at t[s]:    281.03
SCF: Cycle: 22   Etot: -177.788422739073098   dEtot: -2.264e-07   |Residual|: 9.102e-05   |deigs|: 3.041e-06  t[s]:    281.22
	Linear fluid (dielectric constant: 64) occupying 0.990822 of unit cell:	Completed after 0 iterations at t[s]:    281.58
	Linear fluid (dielectric constant: 64) occupying 0.990822 of unit cell:	Completed after 0 iterations at t[s]:    282.33
SCF: Cycle: 23   Etot: -177.788422810397577   dEtot: -7.132e-08   |Residual|: 8.598e-05   |deigs|: 1.835e-05  t[s]:    282.52
	Linear fluid (dielectric constant: 64) occupying 0.990822 of unit cell:	Completed after 0 iterations at t[s]:    282.89
	Linear fluid (dielectric constant: 64) occupying 0.990821 of unit cell:	Completed after 0 iterations at t[s]:    283.74
SCF: Cycle: 24   Etot: -177.788422895087166   dEtot: -8.469e-08   |Residual|: 1.068e-04   |deigs|: 6.032e-06  t[s]:    283.93
	Linear fluid (dielectric constant: 64) occupying 0.990821 of unit cell:	Completed after 0 iterations at t[s]:    284.26
	Linear fluid (dielectric constant: 64) occupying 0.990821 of unit cell:	Completed after 0 iterations at t[s]:    285.06
SCF: Cycle: 25   Etot: -177.788422858261129   dEtot: +3.683e-08   |Residual|: 1.030e-04   |deigs|: 1.051e-06  t[s]:    285.26
	Linear fluid (dielectric constant: 64) occupying 0.990821 of unit cell:	Completed after 0 iterations at t[s]:    285.66
	Linear fluid (dielectric constant: 64) occupying 0.990821 of unit cell:	Completed after 0 iterations at t[s]:    286.50
SCF: Cycle: 26   Etot: -177.788422849093052   dEtot: +9.168e-09   |Residual|: 4.608e-05   |deigs|: 8.270e-06  t[s]:    286.69
	Linear fluid (dielectric constant: 64) occupying 0.990821 of unit cell:	Completed after 0 iterations at t[s]:    287.03
	Linear fluid (dielectric constant: 64) occupying 0.990821 of unit cell:	Completed after 0 iterations at t[s]:    287.87
SCF: Cycle: 27   Etot: -177.788422876315394   dEtot: -2.722e-08   |Residual|: 3.190e-05   |deigs|: 1.364e-06  t[s]:    288.06
	Linear fluid (dielectric constant: 64) occupying 0.990821 of unit cell:	Completed after 1 iterations at t[s]:    288.47
	Linear fluid (dielectric constant: 64) occupying 0.990821 of unit cell:	Completed after 0 iterations at t[s]:    289.38
SCF: Cycle: 28   Etot: -177.788422640089038   dEtot: +2.362e-07   |Residual|: 1.372e-04   |deigs|: 3.318e-05  t[s]:    289.57
	Linear fluid (dielectric constant: 64) occupying 0.990821 of unit cell:	Completed after 0 iterations at t[s]:    289.93
	Linear fluid (dielectric constant: 64) occupying 0.990821 of unit cell:	Completed after 0 iterations at t[s]:    290.68
SCF: Cycle: 29   Etot: -177.788422654620433   dEtot: -1.453e-08   |Residual|: 7.991e-05   |deigs|: 2.190e-05  t[s]:    290.87
	Linear fluid (dielectric constant: 64) occupying 0.990821 of unit cell:	Completed after 0 iterations at t[s]:    291.21
	Linear fluid (dielectric constant: 64) occupying 0.990821 of unit cell:	Completed after 0 iterations at t[s]:    291.97
SCF: Cycle: 30   Etot: -177.788422665161647   dEtot: -1.054e-08   |Residual|: 8.669e-05   |deigs|: 8.895e-08  t[s]:    292.17
	Linear fluid (dielectric constant: 64) occupying 0.990821 of unit cell:	Completed after 0 iterations at t[s]:    292.50
	Linear fluid (dielectric constant: 64) occupying 0.990821 of unit cell:	Completed after 0 iterations at t[s]:    293.25
SCF: Cycle: 31   Etot: -177.788422659905052   dEtot: +5.257e-09   |Residual|: 9.073e-05   |deigs|: 1.486e-07  t[s]:    293.44
	Linear fluid (dielectric constant: 64) occupying 0.990821 of unit cell:	Completed after 0 iterations at t[s]:    293.77
	Linear fluid (dielectric constant: 64) occupying 0.990821 of unit cell:	Completed after 0 iterations at t[s]:    294.53
SCF: Cycle: 32   Etot: -177.788422654410169   dEtot: +5.495e-09   |Residual|: 9.533e-05   |deigs|: 3.391e-07  t[s]:    294.73
	Linear fluid (dielectric constant: 64) occupying 0.990821 of unit cell:	Completed after 0 iterations at t[s]:    295.06
	Linear fluid (dielectric constant: 64) occupying 0.990821 of unit cell:	Completed after 0 iterations at t[s]:    295.81
SCF: Cycle: 33   Etot: -177.788422666851687   dEtot: -1.244e-08   |Residual|: 9.291e-05   |deigs|: 4.254e-07  t[s]:    296.00
	Linear fluid (dielectric constant: 64) occupying 0.990821 of unit cell:	Completed after 0 iterations at t[s]:    296.34
	Linear fluid (dielectric constant: 64) occupying 0.990821 of unit cell:	Completed after 0 iterations at t[s]:    297.10
SCF: Cycle: 34   Etot: -177.788422656748139   dEtot: +1.010e-08   |Residual|: 9.806e-05   |deigs|: 2.491e-07  t[s]:    297.29
	Linear fluid (dielectric constant: 64) occupying 0.990821 of unit cell:	Completed after 0 iterations at t[s]:    297.62
	Linear fluid (dielectric constant: 64) occupying 0.990821 of unit cell:	Completed after 0 iterations at t[s]:    298.45
SCF: Cycle: 35   Etot: -177.788422668988460   dEtot: -1.224e-08   |Residual|: 1.260e-04   |deigs|: 1.553e-06  t[s]:    298.65
	Linear fluid (dielectric constant: 64) occupying 0.990821 of unit cell:	Completed after 0 iterations at t[s]:    298.98
	Linear fluid (dielectric constant: 64) occupying 0.990821 of unit cell:	Completed after 0 iterations at t[s]:    299.73
SCF: Cycle: 36   Etot: -177.788422632086338   dEtot: +3.690e-08   |Residual|: 1.273e-04   |deigs|: 3.738e-07  t[s]:    299.93
	Linear fluid (dielectric constant: 64) occupying 0.990821 of unit cell:	Completed after 0 iterations at t[s]:    300.26
	Linear fluid (dielectric constant: 64) occupying 0.990821 of unit cell:	Completed after 0 iterations at t[s]:    301.00
SCF: Cycle: 37   Etot: -177.788422642387332   dEtot: -1.030e-08   |Residual|: 1.309e-04   |deigs|: 3.147e-07  t[s]:    301.20
	Linear fluid (dielectric constant: 64) occupying 0.990821 of unit cell:	Completed after 0 iterations at t[s]:    301.53
	Linear fluid (dielectric constant: 64) occupying 0.990821 of unit cell:	Completed after 0 iterations at t[s]:    302.38
SCF: Cycle: 38   Etot: -177.788422675472191   dEtot: -3.308e-08   |Residual|: 6.851e-05   |deigs|: 2.224e-06  t[s]:    302.58
	Linear fluid (dielectric constant: 64) occupying 0.990821 of unit cell:	Completed after 0 iterations at t[s]:    302.91
	Linear fluid (dielectric constant: 64) occupying 0.990821 of unit cell:	Completed after 0 iterations at t[s]:    303.67
SCF: Cycle: 39   Etot: -177.788422708335872   dEtot: -3.286e-08   |Residual|: 6.452e-05   |deigs|: 3.934e-07  t[s]:    303.86
	Linear fluid (dielectric constant: 64) occupying 0.990821 of unit cell:	Completed after 0 iterations at t[s]:    304.19
	Linear fluid (dielectric constant: 64) occupying 0.990821 of unit cell:	Completed after 0 iterations at t[s]:    305.02
SCF: Cycle: 40   Etot: -177.788422817106522   dEtot: -1.088e-07   |Residual|: 6.075e-05   |deigs|: 1.645e-06  t[s]:    305.22
	Linear fluid (dielectric constant: 64) occupying 0.990821 of unit cell:	Completed after 0 iterations at t[s]:    305.55
	Linear fluid (dielectric constant: 64) occupying 0.990821 of unit cell:	Completed after 0 iterations at t[s]:    306.31
SCF: Cycle: 41   Etot: -177.788422876461794   dEtot: -5.936e-08   |Residual|: 5.416e-05   |deigs|: 2.144e-06  t[s]:    306.50
	Linear fluid (dielectric constant: 64) occupying 0.990822 of unit cell:	Completed after 0 iterations at t[s]:    306.83
	Linear fluid (dielectric constant: 64) occupying 0.990821 of unit cell:	Completed after 0 iterations at t[s]:    307.59
SCF: Cycle: 42   Etot: -177.788422951446250   dEtot: -7.498e-08   |Residual|: 5.373e-05   |deigs|: 4.218e-07  t[s]:    307.79
	Linear fluid (dielectric constant: 64) occupying 0.990821 of unit cell:	Completed after 0 iterations at t[s]:    308.12
	Linear fluid (dielectric constant: 64) occupying 0.990821 of unit cell:	Completed after 0 iterations at t[s]:    308.87
SCF: Cycle: 43   Etot: -177.788423030881688   dEtot: -7.944e-08   |Residual|: 5.080e-05   |deigs|: 1.476e-06  t[s]:    309.06
	Linear fluid (dielectric constant: 64) occupying 0.990821 of unit cell:	Completed after 0 iterations at t[s]:    309.39
	Linear fluid (dielectric constant: 64) occupying 0.990821 of unit cell:	Completed after 0 iterations at t[s]:    310.17
SCF: Cycle: 44   Etot: -177.788423173396353   dEtot: -1.425e-07   |Residual|: 5.033e-05   |deigs|: 2.224e-06  t[s]:    310.36
	Linear fluid (dielectric constant: 64) occupying 0.990821 of unit cell:	Completed after 0 iterations at t[s]:    310.69
	Linear fluid (dielectric constant: 64) occupying 0.990821 of unit cell:	Completed after 0 iterations at t[s]:    311.44
SCF: Cycle: 45   Etot: -177.788423168785698   dEtot: +4.611e-09   |Residual|: 5.083e-05   |deigs|: 1.423e-07  t[s]:    311.64
	Linear fluid (dielectric constant: 64) occupying 0.990821 of unit cell:	Completed after 0 iterations at t[s]:    311.97
	Linear fluid (dielectric constant: 64) occupying 0.990821 of unit cell:	Completed after 0 iterations at t[s]:    312.72
SCF: Cycle: 46   Etot: -177.788423173120634   dEtot: -4.335e-09   |Residual|: 5.306e-05   |deigs|: 8.948e-08  t[s]:    312.92
	Linear fluid (dielectric constant: 64) occupying 0.990821 of unit cell:	Completed after 0 iterations at t[s]:    313.25
	Linear fluid (dielectric constant: 64) occupying 0.990821 of unit cell:	Completed after 1 iterations at t[s]:    314.17
SCF: Cycle: 47   Etot: -177.788422795184175   dEtot: +3.779e-07   |Residual|: 5.959e-05   |deigs|: 9.832e-07  t[s]:    314.37
	Linear fluid (dielectric constant: 64) occupying 0.990821 of unit cell:	Completed after 0 iterations at t[s]:    314.75
	Linear fluid (dielectric constant: 64) occupying 0.990821 of unit cell:	Completed after 0 iterations at t[s]:    315.52
SCF: Cycle: 48   Etot: -177.788422876224331   dEtot: -8.104e-08   |Residual|: 5.977e-05   |deigs|: 2.424e-05  t[s]:    315.71
	Linear fluid (dielectric constant: 64) occupying 0.990821 of unit cell:	Completed after 0 iterations at t[s]:    316.04
	Linear fluid (dielectric constant: 64) occupying 0.990821 of unit cell:	Completed after 0 iterations at t[s]:    316.88
SCF: Cycle: 49   Etot: -177.788422935529354   dEtot: -5.931e-08   |Residual|: 5.811e-05   |deigs|: 1.780e-06  t[s]:    317.07
	Linear fluid (dielectric constant: 64) occupying 0.990821 of unit cell:	Completed after 0 iterations at t[s]:    317.40
Setting wave functions to eigenvectors of Hamiltonian
IonicMinimize: 	Wrong curvature in test step, increasing alphaT to 3.000000e+00.

-------- Electronic minimization -----------
Will mix electronic density at each iteration.
	Linear fluid (dielectric constant: 64) occupying 0.990821 of unit cell:	Completed after 0 iterations at t[s]:    318.15
	Linear fluid (dielectric constant: 64) occupying 0.990821 of unit cell:	Completed after 0 iterations at t[s]:    318.99
[...]
SCF: Cycle:  6   Etot: -177.844750039038018   dEtot: -1.643e-07   |Residual|: 1.948e-04   |deigs|: 7.482e-07  t[s]:  10460.59
	Linear fluid (dielectric constant: 64) occupying 0.990374 of unit cell:	Completed after 0 iterations at t[s]:  10460.92
	Linear fluid (dielectric constant: 64) occupying 0.990374 of unit cell:	Completed after 2 iterations at t[s]:  10461.78
SCF: Cycle:  7   Etot: -177.844749291952496   dEtot: +7.471e-07   |Residual|: 1.188e-04   |deigs|: 1.337e-06  t[s]:  10461.99
	Linear fluid (dielectric constant: 64) occupying 0.990374 of unit cell:	Completed after 0 iterations at t[s]:  10462.40
	Linear fluid (dielectric constant: 64) occupying 0.990374 of unit cell:	Completed after 2 iterations at t[s]:  10463.27
SCF: Cycle:  8   Etot: -177.844749544877345   dEtot: -2.529e-07   |Residual|: 4.083e-04   |deigs|: 2.454e-05  t[s]:  10463.46
	Linear fluid (dielectric constant: 64) occupying 0.990374 of unit cell:	Completed after 0 iterations at t[s]:  10463.91
	Linear fluid (dielectric constant: 64) occupying 0.990374 of unit cell:	Completed after 0 iterations at t[s]:  10464.69
SCF: Cycle:  9   Etot: -177.844749832022671   dEtot: -2.871e-07   |Residual|: 2.241e-04   |deigs|: 2.538e-05  t[s]:  10464.89
	Linear fluid (dielectric constant: 64) occupying 0.990374 of unit cell:	Completed after 0 iterations at t[s]:  10465.22
	Linear fluid (dielectric constant: 64) occupying 0.990374 of unit cell:	Completed after 0 iterations at t[s]:  10465.98
SCF: Cycle: 10   Etot: -177.844749885175446   dEtot: -5.315e-08   |Residual|: 1.856e-04   |deigs|: 3.374e-08  t[s]:  10466.19
	Linear fluid (dielectric constant: 64) occupying 0.990374 of unit cell:	Completed after 0 iterations at t[s]:  10466.51
	Linear fluid (dielectric constant: 64) occupying 0.990374 of unit cell:	Completed after 0 iterations at t[s]:  10467.29
SCF: Cycle: 11   Etot: -177.844749906782880   dEtot: -2.161e-08   |Residual|: 1.570e-04   |deigs|: 1.061e-07  t[s]:  10467.49
	Linear fluid (dielectric constant: 64) occupying 0.990374 of unit cell:	Completed after 0 iterations at t[s]:  10467.82
	Linear fluid (dielectric constant: 64) occupying 0.990374 of unit cell:	Completed after 0 iterations at t[s]:  10468.63
SCF: Cycle: 12   Etot: -177.844749924565548   dEtot: -1.778e-08   |Residual|: 1.553e-04   |deigs|: 2.448e-07  t[s]:  10468.82
	Linear fluid (dielectric constant: 64) occupying 0.990374 of unit cell:	Completed after 0 iterations at t[s]:  10469.15
	Linear fluid (dielectric constant: 64) occupying 0.990374 of unit cell:	Completed after 0 iterations at t[s]:  10469.91
SCF: Cycle: 13   Etot: -177.844749930370625   dEtot: -5.805e-09   |Residual|: 1.908e-04   |deigs|: 1.261e-06  t[s]:  10470.12
	Linear fluid (dielectric constant: 64) occupying 0.990374 of unit cell:	Completed after 0 iterations at t[s]:  10470.44
	Linear fluid (dielectric constant: 64) occupying 0.990374 of unit cell:	Completed after 0 iterations at t[s]:  10471.27
SCF: Cycle: 14   Etot: -177.844749939843695   dEtot: -9.473e-09   |Residual|: 1.857e-04   |deigs|: 1.584e-07  t[s]:  10471.46
SCF: Converged (|Delta E|<1.000000e-08 for 2 iters).

Setting wave functions to eigenvectors of Hamiltonian

# Ionic positions in cartesian coordinates:
ion S   4.472765260334858  11.448009396813948  10.908837797878208 1
ion S   3.579282290104025   8.502227839764013  14.208975566135544 1
ion S   4.687774824987423  10.141314681209570  17.373264839750771 1
ion S   8.494733376369068   8.423896310638632  18.273587105031893 1
ion S   9.751340682195391   9.987292096842863  21.524040714188523 1
ion S  11.888707966123949  13.180018537083267  21.033690581602059 1
ion S   6.711737401552536  14.126458348726784  12.338677256166413 1
ion S  10.481152815252310  13.428050564795113  11.926365847295987 1
ion Na   7.340933658446309  19.333361680651429  18.293569914025731 1
ion Na  13.048421406754102   6.151877952234383  12.021307535694890 1

# Forces in Cartesian coordinates:
force S   0.000157003941011   0.000383548376475  -0.000128432796163 1
force S  -0.000185878902276  -0.000214605147909  -0.000380048635394 1
force S  -0.000018669619183   0.000182100115090   0.000624466479271 1
force S   0.000166936783105  -0.000222753095423  -0.000141749039895 1
force S   0.000122570696683   0.000351600437846   0.000177384824320 1
force S  -0.000203372494267  -0.000072543071682  -0.000023554427378 1
force S  -0.000128235495269  -0.000309437509504  -0.000105843590815 1
force S   0.000179472227597   0.000022147890935  -0.000018681409516 1
force Na   0.000039015665185  -0.000114950684753  -0.000010332830766 1
force Na   0.000017147133727  -0.000072670168340   0.000031038517757 1

# Energy components:
   A_diel =       -0.3678674049535484
   Eewald =      149.6601218031444205
       EH =      297.4950334127263432
     Eloc =     -508.4561998543192658
      Enl =     -129.8910593308775105
      Exc =      -47.9655467794960941
 Exc_core =       14.1418383638798097
       KE =       47.5389298500522059
-------------------------------------
     Etot =     -177.8447499398436946

IonicMinimize: Iter: 132  Etot: -177.844749939843695  |grad|_K:  2.103e-04  alpha:  1.148e+00  linmin:  8.913e-02  t[s]:  10471.87

#--- Lowdin population analysis ---
# oxidation-state S -0.132 -0.068 +0.033 -0.065 +0.105 -0.653 +0.168 -0.628
# oxidation-state Na +0.975 +0.970


-------- Electronic minimization -----------
Will mix electronic density at each iteration.
	Linear fluid (dielectric constant: 64) occupying 0.990374 of unit cell:	Completed after 3 iterations at t[s]:  10472.47
	Linear fluid (dielectric constant: 64) occupying 0.990373 of unit cell:	Completed after 2 iterations at t[s]:  10473.44
SCF: Cycle:  0   Etot: -177.844750023297564   dEtot: -1.170e-06   |Residual|: 4.862e-04   |deigs|: 3.661e-08  t[s]:  10473.63
	Linear fluid (dielectric constant: 64) occupying 0.990374 of unit cell:	Completed after 0 iterations at t[s]:  10474.08
	Linear fluid (dielectric constant: 64) occupying 0.990373 of unit cell:	Completed after 0 iterations at t[s]:  10474.88
SCF: Cycle:  1   Etot: -177.844750526093947   dEtot: -5.028e-07   |Residual|: 1.519e-04   |deigs|: 3.780e-05  t[s]:  10475.07
	Linear fluid (dielectric constant: 64) occupying 0.990374 of unit cell:	Completed after 0 iterations at t[s]:  10475.40
	Linear fluid (dielectric constant: 64) occupying 0.990373 of unit cell:	Completed after 0 iterations at t[s]:  10476.16
SCF: Cycle:  2   Etot: -177.844750643773068   dEtot: -1.177e-07   |Residual|: 1.162e-04   |deigs|: 4.147e-07  t[s]:  10476.36
	Linear fluid (dielectric constant: 64) occupying 0.990374 of unit cell:	Completed after 0 iterations at t[s]:  10476.68
	Linear fluid (dielectric constant: 64) occupying 0.990373 of unit cell:	Completed after 0 iterations at t[s]:  10477.43
SCF: Cycle:  3   Etot: -177.844750696879231   dEtot: -5.311e-08   |Residual|: 9.222e-05   |deigs|: 4.202e-07  t[s]:  10477.63
	Linear fluid (dielectric constant: 64) occupying 0.990374 of unit cell:	Completed after 0 iterations at t[s]:  10477.95
	Linear fluid (dielectric constant: 64) occupying 0.990373 of unit cell:	Completed after 0 iterations at t[s]:  10478.70
SCF: Cycle:  4   Etot: -177.844750730025481   dEtot: -3.315e-08   |Residual|: 4.999e-05   |deigs|: 5.576e-07  t[s]:  10478.89
	Linear fluid (dielectric constant: 64) occupying 0.990373 of unit cell:	Completed after 0 iterations at t[s]:  10479.22
	Linear fluid (dielectric constant: 64) occupying 0.990373 of unit cell:	Completed after 0 iterations at t[s]:  10479.98
SCF: Cycle:  5   Etot: -177.844750750536548   dEtot: -2.051e-08   |Residual|: 3.543e-05   |deigs|: 4.000e-07  t[s]:  10480.17
	Linear fluid (dielectric constant: 64) occupying 0.990373 of unit cell:	Completed after 0 iterations at t[s]:  10480.54
	Linear fluid (dielectric constant: 64) occupying 0.990373 of unit cell:	Completed after 0 iterations at t[s]:  10481.31
SCF: Cycle:  6   Etot: -177.844750634165905   dEtot: +1.164e-07   |Residual|: 5.113e-05   |deigs|: 1.286e-05  t[s]:  10481.51
	Linear fluid (dielectric constant: 64) occupying 0.990373 of unit cell:	Completed after 0 iterations at t[s]:  10481.83
	Linear fluid (dielectric constant: 64) occupying 0.990373 of unit cell:	Completed after 0 iterations at t[s]:  10482.59
SCF: Cycle:  7   Etot: -177.844750641113848   dEtot: -6.948e-09   |Residual|: 4.400e-05   |deigs|: 3.112e-07  t[s]:  10482.79
	Linear fluid (dielectric constant: 64) occupying 0.990373 of unit cell:	Completed after 0 iterations at t[s]:  10483.11
	Linear fluid (dielectric constant: 64) occupying 0.990373 of unit cell:	Completed after 0 iterations at t[s]:  10483.88
SCF: Cycle:  8   Etot: -177.844750643154782   dEtot: -2.041e-09   |Residual|: 6.467e-05   |deigs|: 2.411e-07  t[s]:  10484.07
SCF: Converged (|Delta E|<1.000000e-08 for 2 iters).

Setting wave functions to eigenvectors of Hamiltonian

-------- Electronic minimization -----------
Will mix electronic density at each iteration.
	Linear fluid (dielectric constant: 64) occupying 0.990373 of unit cell:	Completed after 3 iterations at t[s]:  10484.73
	Linear fluid (dielectric constant: 64) occupying 0.990373 of unit cell:	Completed after 2 iterations at t[s]:  10485.70
SCF: Cycle:  0   Etot: -177.844749967719963   dEtot: +7.304e-08   |Residual|: 5.004e-04   |deigs|: 1.892e-08  t[s]:  10485.89
	Linear fluid (dielectric constant: 64) occupying 0.990373 of unit cell:	Completed after 0 iterations at t[s]:  10486.35
	Linear fluid (dielectric constant: 64) occupying 0.990373 of unit cell:	Completed after 0 iterations at t[s]:  10487.23
SCF: Cycle:  1   Etot: -177.844750656077593   dEtot: -6.884e-07   |Residual|: 1.053e-04   |deigs|: 4.601e-05  t[s]:  10487.42
	Linear fluid (dielectric constant: 64) occupying 0.990373 of unit cell:	Completed after 0 iterations at t[s]:  10487.77
	Linear fluid (dielectric constant: 64) occupying 0.990373 of unit cell:	Completed after 0 iterations at t[s]:  10488.54
SCF: Cycle:  2   Etot: -177.844750698530703   dEtot: -4.245e-08   |Residual|: 9.968e-05   |deigs|: 9.116e-06  t[s]:  10488.73
	Linear fluid (dielectric constant: 64) occupying 0.990373 of unit cell:	Completed after 0 iterations at t[s]:  10489.05
	Linear fluid (dielectric constant: 64) occupying 0.990373 of unit cell:	Completed after 0 iterations at t[s]:  10489.80
SCF: Cycle:  3   Etot: -177.844750721082789   dEtot: -2.255e-08   |Residual|: 1.014e-04   |deigs|: 2.098e-07  t[s]:  10489.99
	Linear fluid (dielectric constant: 64) occupying 0.990373 of unit cell:	Completed after 0 iterations at t[s]:  10490.32
	Linear fluid (dielectric constant: 64) occupying 0.990373 of unit cell:	Completed after 0 iterations at t[s]:  10491.08
SCF: Cycle:  4   Etot: -177.844750735700899   dEtot: -1.462e-08   |Residual|: 9.236e-05   |deigs|: 2.203e-07  t[s]:  10491.27
	Linear fluid (dielectric constant: 64) occupying 0.990373 of unit cell:	Completed after 0 iterations at t[s]:  10491.60
	Linear fluid (dielectric constant: 64) occupying 0.990373 of unit cell:	Completed after 0 iterations at t[s]:  10492.39
SCF: Cycle:  5   Etot: -177.844750755295877   dEtot: -1.959e-08   |Residual|: 9.794e-05   |deigs|: 2.819e-07  t[s]:  10492.58
	Linear fluid (dielectric constant: 64) occupying 0.990373 of unit cell:	Completed after 0 iterations at t[s]:  10492.91
	Linear fluid (dielectric constant: 64) occupying 0.990373 of unit cell:	Completed after 0 iterations at t[s]:  10493.66
SCF: Cycle:  6   Etot: -177.844750761288509   dEtot: -5.993e-09   |Residual|: 1.155e-04   |deigs|: 1.569e-07  t[s]:  10493.86
	Linear fluid (dielectric constant: 64) occupying 0.990373 of unit cell:	Completed after 0 iterations at t[s]:  10494.19
	Linear fluid (dielectric constant: 64) occupying 0.990373 of unit cell:	Completed after 1 iterations at t[s]:  10495.08
SCF: Cycle:  7   Etot: -177.844750022976683   dEtot: +7.383e-07   |Residual|: 1.142e-04   |deigs|: 3.155e-07  t[s]:  10495.27
	Linear fluid (dielectric constant: 64) occupying 0.990373 of unit cell:	Completed after 0 iterations at t[s]:  10495.66
	Linear fluid (dielectric constant: 64) occupying 0.990373 of unit cell:	Completed after 2 iterations at t[s]:  10496.55
SCF: Cycle:  8   Etot: -177.844750085762200   dEtot: -6.279e-08   |Residual|: 4.428e-04   |deigs|: 3.926e-05  t[s]:  10496.75
	Linear fluid (dielectric constant: 64) occupying 0.990373 of unit cell:	Completed after 1 iterations at t[s]:  10497.23
	Linear fluid (dielectric constant: 64) occupying 0.990373 of unit cell:	Completed after 0 iterations at t[s]:  10498.06
SCF: Cycle:  9   Etot: -177.844750522901336   dEtot: -4.371e-07   |Residual|: 2.593e-04   |deigs|: 2.825e-05  t[s]:  10498.25
	Linear fluid (dielectric constant: 64) occupying 0.990373 of unit cell:	Completed after 0 iterations at t[s]:  10498.60
	Linear fluid (dielectric constant: 64) occupying 0.990373 of unit cell:	Completed after 0 iterations at t[s]:  10499.35
SCF: Cycle: 10   Etot: -177.844750524196712   dEtot: -1.295e-09   |Residual|: 2.369e-04   |deigs|: 5.335e-08  t[s]:  10499.55
	Linear fluid (dielectric constant: 64) occupying 0.990373 of unit cell:	Completed after 0 iterations at t[s]:  10499.88
	Linear fluid (dielectric constant: 64) occupying 0.990373 of unit cell:	Completed after 0 iterations at t[s]:  10500.68
SCF: Cycle: 11   Etot: -177.844750522879025   dEtot: +1.318e-09   |Residual|: 2.209e-04   |deigs|: 2.053e-08  t[s]:  10500.88
	Linear fluid (dielectric constant: 64) occupying 0.990373 of unit cell:	Completed after 0 iterations at t[s]:  10501.21
	Linear fluid (dielectric constant: 64) occupying 0.990373 of unit cell:	Completed after 0 iterations at t[s]:  10501.97
SCF: Cycle: 12   Etot: -177.844750522387045   dEtot: +4.920e-10   |Residual|: 2.175e-04   |deigs|: 2.993e-08  t[s]:  10502.17
	Linear fluid (dielectric constant: 64) occupying 0.990373 of unit cell:	Completed after 0 iterations at t[s]:  10502.50
	Linear fluid (dielectric constant: 64) occupying 0.990373 of unit cell:	Completed after 0 iterations at t[s]:  10503.25
SCF: Cycle: 13   Etot: -177.844750522332220   dEtot: +5.483e-11   |Residual|: 2.085e-04   |deigs|: 8.612e-08  t[s]:  10503.45
	Linear fluid (dielectric constant: 64) occupying 0.990373 of unit cell:	Completed after 0 iterations at t[s]:  10503.78
	Linear fluid (dielectric constant: 64) occupying 0.990373 of unit cell:	Completed after 0 iterations at t[s]:  10504.59
SCF: Cycle: 14   Etot: -177.844750522408845   dEtot: -7.662e-11   |Residual|: 1.966e-04   |deigs|: 1.086e-07  t[s]:  10504.78
	Linear fluid (dielectric constant: 64) occupying 0.990373 of unit cell:	Completed after 0 iterations at t[s]:  10505.11
	Linear fluid (dielectric constant: 64) occupying 0.990373 of unit cell:	Completed after 0 iterations at t[s]:  10505.86
SCF: Cycle: 15   Etot: -177.844750522276854   dEtot: +1.320e-10   |Residual|: 1.993e-04   |deigs|: 4.696e-08  t[s]:  10506.05
	Linear fluid (dielectric constant: 64) occupying 0.990373 of unit cell:	Completed after 0 iterations at t[s]:  10506.39
	Linear fluid (dielectric constant: 64) occupying 0.990373 of unit cell:	Completed after 0 iterations at t[s]:  10507.13
SCF: Cycle: 16   Etot: -177.844750522566699   dEtot: -2.898e-10   |Residual|: 1.924e-04   |deigs|: 1.008e-07  t[s]:  10507.34
	Linear fluid (dielectric constant: 64) occupying 0.990373 of unit cell:	Completed after 0 iterations at t[s]:  10507.67
	Linear fluid (dielectric constant: 64) occupying 0.990373 of unit cell:	Completed after 0 iterations at t[s]:  10508.47
SCF: Cycle: 17   Etot: -177.844750519822412   dEtot: +2.744e-09   |Residual|: 2.152e-04   |deigs|: 4.031e-07  t[s]:  10508.66
	Linear fluid (dielectric constant: 64) occupying 0.990373 of unit cell:	Completed after 0 iterations at t[s]:  10508.99
	Linear fluid (dielectric constant: 64) occupying 0.990373 of unit cell:	Completed after 0 iterations at t[s]:  10514.69
SCF: Cycle: 18   Etot: -177.844750515847949   dEtot: +3.974e-09   |Residual|: 2.449e-04   |deigs|: 1.117e-06  t[s]:  10514.89
	Linear fluid (dielectric constant: 64) occupying 0.990373 of unit cell:	Completed after 0 iterations at t[s]:  10515.24
	Linear fluid (dielectric constant: 64) occupying 0.990373 of unit cell:	Completed after 0 iterations at t[s]:  10515.99
SCF: Cycle: 19   Etot: -177.844750513051622   dEtot: +2.796e-09   |Residual|: 2.573e-04   |deigs|: 2.550e-07  t[s]:  10516.19
	Linear fluid (dielectric constant: 64) occupying 0.990373 of unit cell:	Completed after 0 iterations at t[s]:  10516.52
	Linear fluid (dielectric constant: 64) occupying 0.990373 of unit cell:	Completed after 0 iterations at t[s]:  10517.33
SCF: Cycle: 20   Etot: -177.844750526657378   dEtot: -1.361e-08   |Residual|: 1.299e-04   |deigs|: 1.885e-06  t[s]:  10517.53
	Linear fluid (dielectric constant: 64) occupying 0.990374 of unit cell:	Completed after 0 iterations at t[s]:  10517.87
	Linear fluid (dielectric constant: 64) occupying 0.990373 of unit cell:	Completed after 0 iterations at t[s]:  10518.62
SCF: Cycle: 21   Etot: -177.844750531373677   dEtot: -4.716e-09   |Residual|: 5.589e-05   |deigs|: 1.126e-06  t[s]:  10518.81
	Linear fluid (dielectric constant: 64) occupying 0.990373 of unit cell:	Completed after 0 iterations at t[s]:  10519.15
	Linear fluid (dielectric constant: 64) occupying 0.990373 of unit cell:	Completed after 0 iterations at t[s]:  10523.85
SCF: Cycle: 22   Etot: -177.844750533521250   dEtot: -2.148e-09   |Residual|: 2.413e-05   |deigs|: 4.911e-07  t[s]:  10524.04
SCF: Converged (|Delta E|<1.000000e-08 for 2 iters).

Setting wave functions to eigenvectors of Hamiltonian

# Ionic positions in cartesian coordinates:
ion S   4.475287292730064  11.449334248178708  10.909484800570125 1
ion S   3.577980432833185   8.501944173493813  14.208468970920782 1
ion S   4.688275143071167  10.139775671905166  17.374103714311051 1
ion S   8.494644507728566   8.423101193817800  18.273087973666641 1
ion S   9.751331423920128   9.988363501941006  21.524068571990643 1
ion S  11.888282542385959  13.181305910012322  21.033818112213748 1
ion S   6.711714133280410  14.128322803935827  12.338731679777622 1
ion S  10.480067404392827  13.426353785612900  11.925640269604614 1
ion Na   7.340993117730786  19.332383772605009  18.293373356019693 1
ion Na  13.048273684046874   6.151622347257454  12.021539708695109 1

# Forces in Cartesian coordinates:
force S  -0.000216140292691   0.000133273422578  -0.000008661788288 1
force S   0.000046433019645   0.000080481560192  -0.000400657004023 1
force S  -0.000085221657880   0.000153830939987   0.000397133260157 1
force S   0.000333038553854  -0.000122266868285   0.000038320034416 1
force S   0.000109990421248   0.000246006596430  -0.000100268109990 1
force S  -0.000248451049851  -0.000121074471940  -0.000062429635617 1
force S  -0.000234975577894  -0.000239171584244  -0.000040025661002 1
force S   0.000480185255393   0.000029432762441  -0.000025442087005 1
force Na   0.000026580199031  -0.000048847413293   0.000003547019696 1
force Na   0.000010118114689  -0.000031766869260   0.000022569567908 1

# Energy components:
   A_diel =       -0.3678553872469563
   Eewald =      149.6635230228493185
       EH =      297.4980435716396983
     Eloc =     -508.4621353580411665
      Enl =     -129.8912797570505404
      Exc =      -47.9654330755671623
 Exc_core =       14.1418383691823148
       KE =       47.5385480807132481
-------------------------------------
     Etot =     -177.8447505335212497

IonicMinimize: Iter: 133  Etot: -177.844750533521250  |grad|_K:  1.875e-04  alpha:  1.519e+00  linmin:  1.653e-01  t[s]:  10524.45
IonicMinimize: Converged (|Delta Etot|<1.000000e-06 for 2 iters).

#--- Lowdin population analysis ---
# oxidation-state S -0.132 -0.068 +0.033 -0.065 +0.105 -0.653 +0.168 -0.628
# oxidation-state Na +0.975 +0.970


Dumping 'Na2S8-PC.wfns' ... done
Dumping 'Na2S8-PC.fluidState' ... done
Dumping 'Na2S8-PC.ionpos' ... done
End date and time: Fri Sep 27 22:53:01 2024  (Duration: 0-2:55:28.08)
Done!
