CRYSTAL
PRIMVEC
 14.820031   0.000000   0.000000
 -7.410015  12.834505   0.000000
  0.000000   0.000000  20.000041
PRIMCOORD
4 1
16   4.975787   6.577714  14.427237
16   3.133503   5.338180  14.468481
11   5.213931   4.203278  13.478617
11   2.839078   7.734295  13.592862
