CRYSTAL
PRIMVEC
 14.820031   0.000000   0.000000
 -7.410015  12.834505   0.000000
  0.000000   0.000000  20.000041
PRIMCOORD
3 1
16   4.001783   5.387907  14.000028
11   1.933255   6.695439  14.000028
11   6.069304   6.697213  14.000028
