
*************** JDFTx 1.7.0  ***************

Start date and time: Mon Dec 23 13:01:58 2024
Executable jdftx_gpu with command-line: -i /home/akim2/JDFTx/Na2S4-PC/Na2S4-PC.in -o /home/akim2/JDFTx/Na2S4-PC/Na2S4-PC.out
Running on hosts (process indices):  exp-1-60 (0)
Divided in process groups (process indices):  0 (0)
gpuInit: Found compatible cuda device 0 'Tesla V100-SXM2-32GB'
gpuInit: Selected device 0
Resource initialization completed at t[s]:      0.38
Run totals: 1 processes, 1 threads, 1 GPUs


Input parsed successfully to the following command list (including defaults):

basis kpoint-dependent
coords-type Cartesian
core-overlap-check vector
coulomb-interaction Isolated
coulomb-truncation-embed 4.96043 13.9816 25.2655
davidson-band-ratio 1.1
dump End State
dump-name Na2S4-PC.$VAR
elec-cutoff 20 100
elec-eigen-algo Davidson
elec-ex-corr gga-PBE
electronic-minimize  \
	dirUpdateScheme      FletcherReeves \
	linminMethod         DirUpdateRecommended \
	nIterations          100 \
	history              15 \
	knormThreshold       0 \
	energyDiffThreshold  1e-08 \
	nEnergyDiff          2 \
	alphaTstart          1 \
	alphaTmin            1e-10 \
	updateTestStepSize   yes \
	alphaTreduceFactor   0.1 \
	alphaTincreaseFactor 3 \
	nAlphaAdjustMax      3 \
	wolfeEnergy          0.0001 \
	wolfeGradient        0.9 \
	fdTest               no
exchange-regularization None
fluid LinearPCM 298.000000 1.013250
fluid-ex-corr lda-TF lda-PZ
fluid-gummel-loop 10 1.000000e-05
fluid-minimize  \
	dirUpdateScheme      PolakRibiere \
	linminMethod         DirUpdateRecommended \
	nIterations          400 \
	history              15 \
	knormThreshold       1e-11 \
	energyDiffThreshold  0 \
	nEnergyDiff          2 \
	alphaTstart          1 \
	alphaTmin            1e-10 \
	updateTestStepSize   yes \
	alphaTreduceFactor   0.1 \
	alphaTincreaseFactor 3 \
	nAlphaAdjustMax      6 \
	wolfeEnergy          0.0001 \
	wolfeGradient        0.9 \
	fdTest               no
fluid-solvent PC 11.6429 ScalarEOS \
	epsBulk 64 \
	pMol 2.95 \
	epsInf 2.02 \
	Pvap 1.53277e-13 \
	sigmaBulk 2.88e-05 \
	Rvdw 0 \
	Res 0 \
	tauNuc 343133
forces-output-coords Positions
ion S   4.960431645660000  13.981560468840000  25.265472781050001 1
ion S   7.075808635770003  13.274826015330000  28.544133544019999 1
ion S   8.239466575169999   9.479152131930000  28.544855420880001 1
ion S  10.355264975069996   8.766735260310000  25.266360954149999 1
ion Na   5.293454984100000   8.983135801530000  24.325194155759998 1
ion Na  10.011364350749997  13.762072108800000  24.311516290019998 1
ion-species GBRV/$ID_pbe.uspp
ion-width Ecut
ionic-minimize  \
	dirUpdateScheme      FletcherReeves \
	linminMethod         DirUpdateRecommended \
	nIterations          200 \
	history              15 \
	knormThreshold       0.0001 \
	energyDiffThreshold  1e-06 \
	nEnergyDiff          2 \
	alphaTstart          1 \
	alphaTmin            1e-10 \
	updateTestStepSize   yes \
	alphaTreduceFactor   0.1 \
	alphaTincreaseFactor 3 \
	nAlphaAdjustMax      3 \
	wolfeEnergy          0.0001 \
	wolfeGradient        0.9 \
	fdTest               no
kpoint   0.000000000000   0.000000000000   0.000000000000  1.00000000000000
kpoint-folding 1 1 1 
latt-move-scale 1 1 1
latt-scale 1 1 1 
lattice Triclinic 28.0058 28.0058 37.7946 90 90 120
lattice-minimize  \
	dirUpdateScheme      L-BFGS \
	linminMethod         DirUpdateRecommended \
	nIterations          0 \
	history              15 \
	knormThreshold       0 \
	energyDiffThreshold  1e-06 \
	nEnergyDiff          2 \
	alphaTstart          1 \
	alphaTmin            1e-10 \
	updateTestStepSize   yes \
	alphaTreduceFactor   0.1 \
	alphaTincreaseFactor 3 \
	nAlphaAdjustMax      3 \
	wolfeEnergy          0.0001 \
	wolfeGradient        0.9 \
	fdTest               no
lcao-params -1 1e-06 0.001
pcm-variant GLSSA13
spintype no-spin
subspace-rotation-factor 1 yes
symmetries automatic
symmetry-threshold 0.0001



---------- Setting up symmetries ----------

Found 24 point-group symmetries of the bravais lattice
Found 1 space-group symmetries with basis
Applied RMS atom displacement 0 bohrs to make symmetries exact.

---------- Initializing the Grid ----------
R = 
[      28.0058     -14.0029            0  ]
[            0      24.2537            0  ]
[            0            0      37.7946  ]
unit cell volume = 25671.8
G =
[   0.224353    0.12953         -0  ]
[          0   0.259061          0  ]
[          0         -0   0.166246  ]
Minimum fftbox size, Smin = [  128  128  172  ]
Chosen fftbox size, S = [  128  128  180  ]

---------- Initializing tighter grid for wavefunction operations ----------
R = 
[      28.0058     -14.0029            0  ]
[            0      24.2537            0  ]
[            0            0      37.7946  ]
unit cell volume = 25671.8
G =
[   0.224353    0.12953         -0  ]
[          0   0.259061          0  ]
[          0         -0   0.166246  ]
Minimum fftbox size, Smin = [  116  116  156  ]
Chosen fftbox size, S = [  120  120  160  ]

---------- Exchange Correlation functional ----------
Initalized PBE GGA exchange.
Initalized PBE GGA correlation.

---------- Setting up pseudopotentials ----------
Width of ionic core gaussian charges (only for fluid interactions / plotting) set to 0.397384

Reading pseudopotential file '/home/akim2/jdftx_install/build/pseudopotentials/GBRV/s_pbe.uspp':
  Title: S.  Created by USPP 7.3.6 on 1-4-15
  Reference state energy: -11.898476.  6 valence electrons in orbitals:
    |300>  occupation: 2  eigenvalue: -0.634167
    |310>  occupation: 4  eigenvalue: -0.257568
  lMax: 2  lLocal: 3  QijEcut: 6
  6 projectors sampled on a log grid with 635 points:
    l: 0  eig: -0.634161  rCut: 1.5
    l: 0  eig: 1.500000  rCut: 1.5
    l: 1  eig: -0.257567  rCut: 1.5
    l: 1  eig: 1.500000  rCut: 1.5
    l: 2  eig: -1.000000  rCut: 1.5
    l: 2  eig: 1.500000  rCut: 1.5
  Partial core density with radius 1.15
  Transforming core density to a uniform radial grid of dG=0.02 with 1625 points.
  Transforming local potential to a uniform radial grid of dG=0.02 with 1625 points.
  Transforming nonlocal projectors to a uniform radial grid of dG=0.02 with 432 points.
  Transforming density augmentations to a uniform radial grid of dG=0.02 with 1625 points.
  Transforming atomic orbitals to a uniform radial grid of dG=0.02 with 432 points.
  Core radius for overlap checks: 1.50 bohrs.

Reading pseudopotential file '/home/akim2/jdftx_install/build/pseudopotentials/GBRV/na_pbe.uspp':
  Title: Na.  Created by USPP 7.3.6 on 23-9-15
  Reference state energy: -47.625620.  9 valence electrons in orbitals:
    |200>  occupation: 2  eigenvalue: -2.085638
    |210>  occupation: 6  eigenvalue: -1.053708
    |300>  occupation: 1  eigenvalue: -0.100838
  lMax: 2  lLocal: 0  QijEcut: 6
  5 projectors sampled on a log grid with 657 points:
    l: 0  eig: -2.085640  rCut: 1.37
    l: 0  eig: -0.100839  rCut: 1.37
    l: 1  eig: -1.053708  rCut: 1.47
    l: 1  eig: 0.500000  rCut: 1.47
    l: 2  eig: 0.750000  rCut: 2
  Transforming local potential to a uniform radial grid of dG=0.02 with 1625 points.
  Transforming nonlocal projectors to a uniform radial grid of dG=0.02 with 432 points.
  Transforming density augmentations to a uniform radial grid of dG=0.02 with 1625 points.
  Transforming atomic orbitals to a uniform radial grid of dG=0.02 with 432 points.
  Core radius for overlap checks: 2.00 bohrs.

Initialized 2 species with 6 total atoms.

Folded 1 k-points by 1x1x1 to 1 k-points.

---------- Setting up k-points, bands, fillings ----------
No reducable k-points. 
Computing the number of bands and number of electrons
Calculating initial fillings.
nElectrons:  42.000000   nBands: 21   nStates: 1

----- Setting up reduced wavefunction bases (one per k-point) -----
average nbasis = 109673.000 , ideal nbasis = 109671.883

---------- Setting up coulomb interaction ----------
Fluid mode embedding: using embedded box, but periodic Coulomb kernel.
(Fluid response is responsible for (approximate) separation between periodic images.)
Setting up double-sized grid for truncated Coulomb potentials:
R = 
[      56.0116     -28.0058            0  ]
[            0      48.5075            0  ]
[            0            0      75.5892  ]
unit cell volume = 205374
G =
[   0.112177  0.0647651         -0  ]
[          0    0.12953          0  ]
[          0         -0  0.0831228  ]
Chosen fftbox size, S = [  256  256  360  ]
Integer grid location selected as the embedding center:
   Grid: [  60  74  120  ]
   Lattice: [  0.465357  0.57647  0.668494  ]
   Cartesian: [  4.96043  13.9816  25.2655  ]
Constructing Wigner-Seitz cell: 8 faces (6 quadrilaterals, 2 hexagons)
Range-separation parameter for embedded mesh potentials due to point charges: 0.590105 bohrs.

---------- Setting up ewald sum ----------
Optimum gaussian width for ewald sums = 17.460913 bohr.
Real space sum over 1089 unit cells with max indices [  5  5  4  ]
Reciprocal space sum over 2873 terms with max indices [  6  6  8  ]

---------- Allocating electronic variables ----------
Initializing wave functions:  linear combination of atomic orbitals
S pseudo-atom occupations:   s ( 2 )  p ( 4 )
Na pseudo-atom occupations:   s ( 2 1 )  p ( 6 )
	FillingsUpdate:  mu: -0.088614534  nElectrons: 42.000000
LCAOMinimize: Iter:   0  Etot: -136.2253494586741738  |grad|_K:  1.848e-02  alpha:  1.000e+00
	FillingsUpdate:  mu: -0.093245074  nElectrons: 42.000000
LCAOMinimize: Iter:   1  Etot: -136.2630642840068163  |grad|_K:  1.041e-02  alpha:  1.874e-01  linmin: -3.574e-01  cgtest:  8.732e-01  t[s]:      3.94
LCAOMinimize: Encountered beta<0, resetting CG.
	FillingsUpdate:  mu: -0.095759784  nElectrons: 42.000000
LCAOMinimize: Iter:   2  Etot: -136.2787173242142558  |grad|_K:  8.187e-03  alpha:  5.527e-01  linmin:  1.878e-01  cgtest: -5.672e-01  t[s]:      4.26
	FillingsUpdate:  mu: -0.095843439  nElectrons: 42.000000
LCAOMinimize: Iter:   3  Etot: -136.2787239709460891  |grad|_K:  8.228e-03  alpha:  5.181e-03  linmin: -2.682e-03  cgtest:  9.991e-01  t[s]:      4.59
LCAOMinimize: None of the convergence criteria satisfied after 3 iterations.
----- createFluidSolver() ----- (Fluid-side solver setup)
   Initializing fluid molecule 'PC'
     Net charge: 0   dipole magnitude: 0
     Initializing spherical shell mfKernel with radius 0 Bohr
     deltaS corrections:

Correction to mu due to finite nuclear width = -0.00020291
   Cavity determined by nc: 0.00098 and sigma: 0.6
   Effective cavity tension: 9.53e-06 Eh/bohr^2 to account for cavitation and dispersion.


---- Citations for features of the code used in this run ----

   Software package:
      R. Sundararaman, K. Letchworth-Weaver, K.A. Schwarz, D. Gunceler, Y. Ozhabes and T.A. Arias, 'JDFTx: software for joint density-functional theory', SoftwareX 6, 278 (2017)

   gga-PBE exchange-correlation functional:
      J.P. Perdew, K. Burke and M. Ernzerhof, Phys. Rev. Lett. 77, 3865 (1996)

   Pseudopotentials:
      KF Garrity, JW Bennett, KM Rabe and D Vanderbilt, Comput. Mater. Sci. 81, 446 (2014)

   Truncated Coulomb potentials:
      R. Sundararaman and T.A. Arias, Phys. Rev. B 87, 165122 (2013)

   Linear/nonlinear dielectric/ionic fluid model with effective cavity tension:
      D. Gunceler, K. Letchworth-Weaver, R. Sundararaman, K.A. Schwarz and T.A. Arias, Modelling Simul. Mater. Sci. Eng. 21, 074005 (2013)

   Total energy minimization:
      T.A. Arias, M.C. Payne and J.D. Joannopoulos, Phys. Rev. Lett. 69, 1077 (1992)

This list may not be complete. Please suggest additional citations or
report any other bugs at https://github.com/shankar1729/jdftx/issues

Initialization completed successfully at t[s]:      4.59

Fluid solver invoked on fresh (random / LCAO) wavefunctions
Running a vacuum solve first:

-------- Initial electronic minimization -----------
ElecMinimize: Iter:   0  Etot: -136.278723970946146  |grad|_K:  2.815e-04  alpha:  1.000e+00
ElecMinimize: Iter:   1  Etot: -136.469914709118626  |grad|_K:  1.302e-04  alpha:  1.048e+00  linmin:  4.379e-03  t[s]:      5.16
ElecMinimize: Iter:   2  Etot: -136.512737076379437  |grad|_K:  7.571e-05  alpha:  1.100e+00  linmin: -1.532e-04  t[s]:      5.49
ElecMinimize: Iter:   3  Etot: -136.521286043236614  |grad|_K:  5.796e-05  alpha:  6.482e-01  linmin:  4.388e-05  t[s]:      5.83
ElecMinimize: Iter:   4  Etot: -136.525510890710393  |grad|_K:  3.894e-05  alpha:  5.461e-01  linmin:  7.118e-05  t[s]:      6.17
ElecMinimize: Iter:   5  Etot: -136.527974761661255  |grad|_K:  2.389e-05  alpha:  7.056e-01  linmin: -2.472e-04  t[s]:      6.50
ElecMinimize: Iter:   6  Etot: -136.529103002451336  |grad|_K:  1.999e-05  alpha:  8.585e-01  linmin:  1.432e-04  t[s]:      6.83
ElecMinimize: Iter:   7  Etot: -136.529780252711504  |grad|_K:  1.356e-05  alpha:  7.359e-01  linmin:  6.500e-05  t[s]:      7.15
ElecMinimize: Iter:   8  Etot: -136.530114944003628  |grad|_K:  1.037e-05  alpha:  7.902e-01  linmin: -6.851e-05  t[s]:      7.48
ElecMinimize: Iter:   9  Etot: -136.530306532820305  |grad|_K:  6.394e-06  alpha:  7.732e-01  linmin: -1.132e-04  t[s]:      7.81
ElecMinimize: Iter:  10  Etot: -136.530399413101691  |grad|_K:  4.401e-06  alpha:  9.861e-01  linmin:  7.035e-06  t[s]:      8.14
ElecMinimize: Iter:  11  Etot: -136.530435719452527  |grad|_K:  2.943e-06  alpha:  8.139e-01  linmin:  1.834e-06  t[s]:      8.48
ElecMinimize: Iter:  12  Etot: -136.530453291205617  |grad|_K:  1.956e-06  alpha:  8.811e-01  linmin: -1.594e-05  t[s]:      8.82
ElecMinimize: Iter:  13  Etot: -136.530461060036515  |grad|_K:  1.445e-06  alpha:  8.812e-01  linmin: -2.113e-05  t[s]:      9.14
ElecMinimize: Iter:  14  Etot: -136.530464209635625  |grad|_K:  1.131e-06  alpha:  6.552e-01  linmin:  7.587e-07  t[s]:      9.48
ElecMinimize: Iter:  15  Etot: -136.530465925442002  |grad|_K:  7.786e-07  alpha:  5.823e-01  linmin: -6.632e-06  t[s]:      9.80
ElecMinimize: Iter:  16  Etot: -136.530466949848119  |grad|_K:  5.263e-07  alpha:  7.338e-01  linmin:  4.218e-06  t[s]:     10.13
ElecMinimize: Iter:  17  Etot: -136.530467503316913  |grad|_K:  4.000e-07  alpha:  8.676e-01  linmin:  1.029e-06  t[s]:     10.46
ElecMinimize: Iter:  18  Etot: -136.530467818689999  |grad|_K:  2.832e-07  alpha:  8.559e-01  linmin: -1.534e-07  t[s]:     10.79
ElecMinimize: Iter:  19  Etot: -136.530467977669275  |grad|_K:  2.157e-07  alpha:  8.606e-01  linmin: -1.228e-06  t[s]:     11.12
ElecMinimize: Iter:  20  Etot: -136.530468056527752  |grad|_K:  1.582e-07  alpha:  7.359e-01  linmin:  1.292e-07  t[s]:     11.45
ElecMinimize: Iter:  21  Etot: -136.530468107326527  |grad|_K:  1.136e-07  alpha:  8.811e-01  linmin:  2.601e-06  t[s]:     11.78
ElecMinimize: Iter:  22  Etot: -136.530468132578306  |grad|_K:  8.554e-08  alpha:  8.493e-01  linmin:  2.446e-06  t[s]:     12.13
ElecMinimize: Iter:  23  Etot: -136.530468148111140  |grad|_K:  6.678e-08  alpha:  9.218e-01  linmin: -4.867e-06  t[s]:     12.45
ElecMinimize: Iter:  24  Etot: -136.530468156753273  |grad|_K:  5.501e-08  alpha:  8.414e-01  linmin: -1.947e-07  t[s]:     12.78
ElecMinimize: Iter:  25  Etot: -136.530468161678584  |grad|_K:  4.199e-08  alpha:  7.066e-01  linmin:  6.636e-06  t[s]:     13.12
ElecMinimize: Converged (|Delta Etot|<1.000000e-08 for 2 iters).
Setting wave functions to eigenvectors of Hamiltonian
Vacuum energy after initial minimize, Etot = -136.530468161678584


-------- Electronic minimization -----------
	Linear fluid (dielectric constant: 64) occupying 0.994656 of unit cell:	Completed after 27 iterations at t[s]:     14.80
ElecMinimize: Iter:   0  Etot: -136.631901123052160  |grad|_K:  9.997e-05  alpha:  1.000e+00
	Linear fluid (dielectric constant: 64) occupying 0.994712 of unit cell:	Completed after 24 iterations at t[s]:     17.17
	Linear fluid (dielectric constant: 64) occupying 0.994707 of unit cell:	Completed after 12 iterations at t[s]:     18.62
ElecMinimize: Iter:   1  Etot: -136.653282789134835  |grad|_K:  7.317e-05  alpha:  9.275e-01  linmin:  7.374e-03  t[s]:     18.96
	Linear fluid (dielectric constant: 64) occupying 0.994705 of unit cell:	Completed after 15 iterations at t[s]:     20.30
	Linear fluid (dielectric constant: 64) occupying 0.994707 of unit cell:	Completed after 10 iterations at t[s]:     21.58
ElecMinimize: Iter:   2  Etot: -136.661574012463518  |grad|_K:  5.817e-05  alpha:  6.777e-01  linmin:  1.445e-04  t[s]:     21.93
	Linear fluid (dielectric constant: 64) occupying 0.994688 of unit cell:	Completed after 13 iterations at t[s]:     23.14
	Linear fluid (dielectric constant: 64) occupying 0.994691 of unit cell:	Completed after 6 iterations at t[s]:     24.14
ElecMinimize: Iter:   3  Etot: -136.666118858078789  |grad|_K:  3.693e-05  alpha:  5.835e-01  linmin: -2.132e-04  t[s]:     24.48
	Linear fluid (dielectric constant: 64) occupying 0.994682 of unit cell:	Completed after 12 iterations at t[s]:     25.62
	Linear fluid (dielectric constant: 64) occupying 0.994680 of unit cell:	Completed after 4 iterations at t[s]:     26.54
ElecMinimize: Iter:   4  Etot: -136.668159711516353  |grad|_K:  2.453e-05  alpha:  6.497e-01  linmin: -5.988e-04  t[s]:     26.82
	Linear fluid (dielectric constant: 64) occupying 0.994680 of unit cell:	Completed after 12 iterations at t[s]:     27.95
	Linear fluid (dielectric constant: 64) occupying 0.994680 of unit cell:	Completed after 2 iterations at t[s]:     28.80
ElecMinimize: Iter:   5  Etot: -136.669156313771623  |grad|_K:  1.690e-05  alpha:  7.184e-01  linmin: -5.680e-04  t[s]:     29.06
	Linear fluid (dielectric constant: 64) occupying 0.994679 of unit cell:	Completed after 6 iterations at t[s]:     29.77
	Linear fluid (dielectric constant: 64) occupying 0.994679 of unit cell:	Completed after 3 iterations at t[s]:     30.61
ElecMinimize: Iter:   6  Etot: -136.669595551459793  |grad|_K:  1.186e-05  alpha:  6.683e-01  linmin: -5.217e-04  t[s]:     30.87
	Linear fluid (dielectric constant: 64) occupying 0.994678 of unit cell:	Completed after 4 iterations at t[s]:     31.52
	Linear fluid (dielectric constant: 64) occupying 0.994678 of unit cell:	Completed after 0 iterations at t[s]:     32.16
ElecMinimize: Iter:   7  Etot: -136.669858795941678  |grad|_K:  7.036e-06  alpha:  8.115e-01  linmin: -6.164e-03  t[s]:     32.43
	Linear fluid (dielectric constant: 64) occupying 0.994678 of unit cell:	Completed after 3 iterations at t[s]:     33.05
	Linear fluid (dielectric constant: 64) occupying 0.994678 of unit cell:	Completed after 0 iterations at t[s]:     33.70
ElecMinimize: Iter:   8  Etot: -136.669971740323859  |grad|_K:  5.372e-06  alpha:  9.802e-01  linmin: -8.725e-03  t[s]:     33.96
	Linear fluid (dielectric constant: 64) occupying 0.994678 of unit cell:	Completed after 3 iterations at t[s]:     34.58
	Linear fluid (dielectric constant: 64) occupying 0.994678 of unit cell:	Completed after 3 iterations at t[s]:     35.37
ElecMinimize: Iter:   9  Etot: -136.670014007602049  |grad|_K:  4.160e-06  alpha:  6.188e-01  linmin:  4.601e-03  t[s]:     35.63
	Linear fluid (dielectric constant: 64) occupying 0.994678 of unit cell:	Completed after 3 iterations at t[s]:     36.24
	Linear fluid (dielectric constant: 64) occupying 0.994678 of unit cell:	Completed after 0 iterations at t[s]:     36.90
ElecMinimize: Iter:  10  Etot: -136.670042349181529  |grad|_K:  2.693e-06  alpha:  7.132e-01  linmin: -2.144e-02  t[s]:     37.15
	Linear fluid (dielectric constant: 64) occupying 0.994678 of unit cell:	Completed after 0 iterations at t[s]:     37.56
	Linear fluid (dielectric constant: 64) occupying 0.994678 of unit cell:	Completed after 0 iterations at t[s]:     38.14
ElecMinimize: Iter:  11  Etot: -136.670056812132572  |grad|_K:  1.986e-06  alpha:  8.350e-01  linmin: -9.433e-03  t[s]:     38.41
	Linear fluid (dielectric constant: 64) occupying 0.994678 of unit cell:	Completed after 3 iterations at t[s]:     38.92
	Linear fluid (dielectric constant: 64) occupying 0.994678 of unit cell:	Completed after 0 iterations at t[s]:     39.57
ElecMinimize: Iter:  12  Etot: -136.670063368532226  |grad|_K:  1.498e-06  alpha:  7.269e-01  linmin: -3.190e-02  t[s]:     39.84
	Linear fluid (dielectric constant: 64) occupying 0.994678 of unit cell:	Completed after 2 iterations at t[s]:     40.32
	Linear fluid (dielectric constant: 64) occupying 0.994678 of unit cell:	Completed after 0 iterations at t[s]:     40.96
ElecMinimize: Iter:  13  Etot: -136.670067027190470  |grad|_K:  1.209e-06  alpha:  6.721e-01  linmin: -1.766e-02  t[s]:     41.21
	Linear fluid (dielectric constant: 64) occupying 0.994678 of unit cell:	Completed after 0 iterations at t[s]:     41.58
	Linear fluid (dielectric constant: 64) occupying 0.994678 of unit cell:	Completed after 0 iterations at t[s]:     42.13
ElecMinimize: Iter:  14  Etot: -136.670069887458112  |grad|_K:  9.449e-07  alpha:  8.200e-01  linmin:  7.300e-05  t[s]:     42.40
	Linear fluid (dielectric constant: 64) occupying 0.994677 of unit cell:	Completed after 3 iterations at t[s]:     42.91
	Linear fluid (dielectric constant: 64) occupying 0.994678 of unit cell:	Completed after 0 iterations at t[s]:     43.56
ElecMinimize: Iter:  15  Etot: -136.670070226847315  |grad|_K:  1.463e-06  alpha:  3.415e-01  linmin:  4.291e-02  t[s]:     43.82
	Linear fluid (dielectric constant: 64) occupying 0.994677 of unit cell:	Completed after 0 iterations at t[s]:     44.19
	Linear fluid (dielectric constant: 64) occupying 0.994677 of unit cell:	Completed after 0 iterations at t[s]:     44.74
ElecMinimize: Iter:  16  Etot: -136.670071123442938  |grad|_K:  1.377e-06  alpha:  2.258e-01  linmin: -2.841e-08  t[s]:     45.00
	Linear fluid (dielectric constant: 64) occupying 0.994677 of unit cell:	Completed after 2 iterations at t[s]:     45.49
	Linear fluid (dielectric constant: 64) occupying 0.994677 of unit cell:	Completed after 0 iterations at t[s]:     46.13
ElecMinimize: Iter:  17  Etot: -136.670071187231656  |grad|_K:  8.301e-07  alpha:  9.624e-02  linmin:  4.489e-02  t[s]:     46.38
	Linear fluid (dielectric constant: 64) occupying 0.994677 of unit cell:	Completed after 0 iterations at t[s]:     46.75
ElecMinimize: 	Predicted alpha/alphaT>3.000000, increasing alphaT to 2.887325e-01.
	Linear fluid (dielectric constant: 64) occupying 0.994677 of unit cell:	Completed after 0 iterations at t[s]:     47.30
	Linear fluid (dielectric constant: 64) occupying 0.994677 of unit cell:	Completed after 0 iterations at t[s]:     47.85
ElecMinimize: Iter:  18  Etot: -136.670071849789394  |grad|_K:  6.559e-07  alpha:  4.685e-01  linmin: -5.241e-05  t[s]:     48.12
	Linear fluid (dielectric constant: 64) occupying 0.994677 of unit cell:	Completed after 0 iterations at t[s]:     48.52
	Linear fluid (dielectric constant: 64) occupying 0.994677 of unit cell:	Completed after 0 iterations at t[s]:     49.10
ElecMinimize: Iter:  19  Etot: -136.670072189854579  |grad|_K:  5.078e-07  alpha:  3.827e-01  linmin: -1.036e-01  t[s]:     49.37
	Linear fluid (dielectric constant: 64) occupying 0.994678 of unit cell:	Completed after 0 iterations at t[s]:     49.74
	Linear fluid (dielectric constant: 64) occupying 0.994678 of unit cell:	Completed after 0 iterations at t[s]:     50.29
ElecMinimize: Iter:  20  Etot: -136.670072531342072  |grad|_K:  3.958e-07  alpha:  4.792e-01  linmin: -3.146e-05  t[s]:     50.55
	Linear fluid (dielectric constant: 64) occupying 0.994678 of unit cell:	Completed after 0 iterations at t[s]:     50.92
	Linear fluid (dielectric constant: 64) occupying 0.994678 of unit cell:	Completed after 0 iterations at t[s]:     51.47
ElecMinimize: Iter:  21  Etot: -136.670072744028744  |grad|_K:  3.759e-07  alpha:  5.894e-01  linmin: -1.507e-05  t[s]:     51.72
	Linear fluid (dielectric constant: 64) occupying 0.994678 of unit cell:	Completed after 1 iterations at t[s]:     52.16
	Linear fluid (dielectric constant: 64) occupying 0.994678 of unit cell:	Completed after 0 iterations at t[s]:     52.77
ElecMinimize: 	Step increased Etot by 3.074525e-07, reducing alpha to 1.504036e-02.
	Linear fluid (dielectric constant: 64) occupying 0.994678 of unit cell:	Completed after 0 iterations at t[s]:     53.39
ElecMinimize: 	Step increased Etot by 3.392767e-07, reducing alpha to 1.504036e-03.
	Linear fluid (dielectric constant: 64) occupying 0.994678 of unit cell:	Completed after 0 iterations at t[s]:     54.02
ElecMinimize: 	Step increased Etot by 3.437696e-07, reducing alpha to 1.504036e-04.
ElecMinimize: 	Step failed to reduce Etot after 3 attempts. Quitting step.
ElecMinimize: 	Undoing step.
	Linear fluid (dielectric constant: 64) occupying 0.994678 of unit cell:	Completed after 0 iterations at t[s]:     54.64
ElecMinimize: 	Step failed: resetting search direction.
ElecMinimize: Iter:  22  Etot: -136.670072400207857  |grad|_K:  5.109e-07  alpha:  1.504e-04
	Linear fluid (dielectric constant: 64) occupying 0.994678 of unit cell:	Completed after 0 iterations at t[s]:     55.30
	Linear fluid (dielectric constant: 64) occupying 0.994678 of unit cell:	Completed after 0 iterations at t[s]:     55.88
ElecMinimize: Iter:  23  Etot: -136.670072604665364  |grad|_K:  2.427e-07  alpha:  4.419e-01  linmin: -4.868e-01  t[s]:     56.15
	Linear fluid (dielectric constant: 64) occupying 0.994678 of unit cell:	Completed after 0 iterations at t[s]:     56.52
	Linear fluid (dielectric constant: 64) occupying 0.994677 of unit cell:	Completed after 0 iterations at t[s]:     57.08
ElecMinimize: Iter:  24  Etot: -136.670072825935961  |grad|_K:  2.254e-07  alpha:  1.286e+00  linmin:  1.725e-03  t[s]:     57.33
	Linear fluid (dielectric constant: 64) occupying 0.994677 of unit cell:	Completed after 1 iterations at t[s]:     57.77
	Linear fluid (dielectric constant: 64) occupying 0.994677 of unit cell:	Completed after 0 iterations at t[s]:     58.38
ElecMinimize: 	Step increased Etot by 6.292038e-08, reducing alpha to 2.455643e-02.
	Linear fluid (dielectric constant: 64) occupying 0.994677 of unit cell:	Completed after 0 iterations at t[s]:     59.04
ElecMinimize: 	Step increased Etot by 1.603111e-07, reducing alpha to 2.455643e-03.
	Linear fluid (dielectric constant: 64) occupying 0.994677 of unit cell:	Completed after 0 iterations at t[s]:     59.66
ElecMinimize: 	Step increased Etot by 1.581084e-07, reducing alpha to 2.455643e-04.
ElecMinimize: 	Step failed to reduce Etot after 3 attempts. Quitting step.
ElecMinimize: 	Undoing step.
	Linear fluid (dielectric constant: 64) occupying 0.994677 of unit cell:	Completed after 0 iterations at t[s]:     60.29
ElecMinimize: 	Step failed: resetting search direction.
ElecMinimize: Iter:  25  Etot: -136.670072667851485  |grad|_K:  3.187e-07  alpha:  2.456e-04
	Linear fluid (dielectric constant: 64) occupying 0.994678 of unit cell:	Completed after 0 iterations at t[s]:     60.91
	Linear fluid (dielectric constant: 64) occupying 0.994678 of unit cell:	Completed after 0 iterations at t[s]:     61.46
ElecMinimize: Iter:  26  Etot: -136.670072898691473  |grad|_K:  2.378e-07  alpha:  9.873e-01  linmin: -2.357e-04  t[s]:     61.74
	Linear fluid (dielectric constant: 64) occupying 0.994678 of unit cell:	Completed after 1 iterations at t[s]:     62.18
	Linear fluid (dielectric constant: 64) occupying 0.994678 of unit cell:	Completed after 0 iterations at t[s]:     62.78
ElecMinimize: 	Step increased Etot by 1.460510e-07, reducing alpha to 2.122599e-02.
	Linear fluid (dielectric constant: 64) occupying 0.994678 of unit cell:	Completed after 0 iterations at t[s]:     63.42
ElecMinimize: 	Step increased Etot by 1.257031e-07, reducing alpha to 2.122599e-03.
	Linear fluid (dielectric constant: 64) occupying 0.994678 of unit cell:	Completed after 0 iterations at t[s]:     64.04
ElecMinimize: 	Step increased Etot by 1.242727e-07, reducing alpha to 2.122599e-04.
ElecMinimize: 	Step failed to reduce Etot after 3 attempts. Quitting step.
ElecMinimize: 	Undoing step.
	Linear fluid (dielectric constant: 64) occupying 0.994678 of unit cell:	Completed after 0 iterations at t[s]:     64.67
ElecMinimize: 	Step failed: resetting search direction.
ElecMinimize: Iter:  27  Etot: -136.670072774434317  |grad|_K:  3.308e-07  alpha:  2.123e-04
	Linear fluid (dielectric constant: 64) occupying 0.994677 of unit cell:	Completed after 0 iterations at t[s]:     65.33
	Linear fluid (dielectric constant: 64) occupying 0.994677 of unit cell:	Completed after 0 iterations at t[s]:     65.91
ElecMinimize: Iter:  28  Etot: -136.670072800834589  |grad|_K:  1.032e-07  alpha:  4.093e-01  linmin: -4.158e-02  t[s]:     66.16
	Linear fluid (dielectric constant: 64) occupying 0.994677 of unit cell:	Completed after 0 iterations at t[s]:     66.53
	Linear fluid (dielectric constant: 64) occupying 0.994677 of unit cell:	Completed after 0 iterations at t[s]:     67.09
ElecMinimize: Iter:  29  Etot: -136.670072821332269  |grad|_K:  9.266e-08  alpha:  8.210e-01  linmin: -2.546e-05  t[s]:     67.35
	Linear fluid (dielectric constant: 64) occupying 0.994678 of unit cell:	Completed after 0 iterations at t[s]:     67.72
	Linear fluid (dielectric constant: 64) occupying 0.994678 of unit cell:	Completed after 0 iterations at t[s]:     68.27
ElecMinimize: Iter:  30  Etot: -136.670072844670074  |grad|_K:  9.573e-08  alpha:  1.180e+00  linmin: -8.670e-05  t[s]:     68.53
	Linear fluid (dielectric constant: 64) occupying 0.994678 of unit cell:	Completed after 0 iterations at t[s]:     68.89
	Linear fluid (dielectric constant: 64) occupying 0.994678 of unit cell:	Completed after 0 iterations at t[s]:     69.45
ElecMinimize: Iter:  31  Etot: -136.670072862629070  |grad|_K:  5.748e-08  alpha:  8.507e-01  linmin: -1.109e-05  t[s]:     69.71
	Linear fluid (dielectric constant: 64) occupying 0.994678 of unit cell:	Completed after 0 iterations at t[s]:     70.08
	Linear fluid (dielectric constant: 64) occupying 0.994678 of unit cell:	Completed after 0 iterations at t[s]:     70.63
ElecMinimize: Iter:  32  Etot: -136.670072869105752  |grad|_K:  4.445e-08  alpha:  8.510e-01  linmin: -6.197e-06  t[s]:     70.90
	Linear fluid (dielectric constant: 64) occupying 0.994678 of unit cell:	Completed after 0 iterations at t[s]:     71.27
	Linear fluid (dielectric constant: 64) occupying 0.994678 of unit cell:	Completed after 0 iterations at t[s]:     71.82
ElecMinimize: Iter:  33  Etot: -136.670072873714957  |grad|_K:  3.958e-08  alpha:  1.013e+00  linmin: -2.195e-05  t[s]:     72.08
ElecMinimize: Converged (|Delta Etot|<1.000000e-08 for 2 iters).
Setting wave functions to eigenvectors of Hamiltonian
Single-point solvation energy estimate, DeltaEtot = -0.139604712036373

# Ionic positions in cartesian coordinates:
ion S   4.960431645660000  13.981560468840000  25.265472781050001 1
ion S   7.075808635770003  13.274826015330000  28.544133544019999 1
ion S   8.239466575169999   9.479152131930000  28.544855420880001 1
ion S  10.355264975069996   8.766735260310000  25.266360954149999 1
ion Na   5.293454984100000   8.983135801530000  24.325194155759998 1
ion Na  10.011364350749997  13.762072108800000  24.311516290019998 1

# Forces in Cartesian coordinates:
force S  -0.008042573459086   0.009203693307849   0.011212343141440 1
force S  -0.004872754846095   0.000523727902873   0.001235103322574 1
force S   0.005018989797565  -0.000581648558857   0.001272607366492 1
force S   0.007838688392442  -0.009098348724293   0.011286249210224 1
force Na  -0.015124399510037  -0.013430526931967  -0.012319100654226 1
force Na   0.015156417188664   0.013354537774757  -0.012385787693998 1

# Energy components:
   A_diel =       -0.1890934693336614
   Eewald =       95.1000625064078804
       EH =      207.5216389978260452
     Eloc =     -310.4816504688036503
      Enl =     -136.8881855110180936
      Exc =      -31.2617615778422397
 Exc_core =        7.0709167916623104
       KE =       32.4579998573864117
-------------------------------------
     Etot =     -136.6700728737149575

IonicMinimize: Iter:   0  Etot: -136.670072873714957  |grad|_K:  9.780e-03  alpha:  1.000e+00

#--- Lowdin population analysis ---
# oxidation-state S -0.652 -0.038 -0.038 -0.653
# oxidation-state Na +0.854 +0.854


-------- Electronic minimization -----------
	Linear fluid (dielectric constant: 64) occupying 0.994677 of unit cell:	Completed after 16 iterations at t[s]:     73.40
ElecMinimize: Iter:   0  Etot: -136.649336279114749  |grad|_K:  1.549e-04  alpha:  1.000e+00
	Linear fluid (dielectric constant: 64) occupying 0.994668 of unit cell:	Completed after 21 iterations at t[s]:     75.49
	Linear fluid (dielectric constant: 64) occupying 0.994674 of unit cell:	Completed after 19 iterations at t[s]:     77.42
ElecMinimize: Iter:   1  Etot: -136.670352930618265  |grad|_K:  2.993e-05  alpha:  3.812e-01  linmin: -2.447e-04  t[s]:     77.76
	Linear fluid (dielectric constant: 64) occupying 0.994670 of unit cell:	Completed after 10 iterations at t[s]:     78.77
	Linear fluid (dielectric constant: 64) occupying 0.994669 of unit cell:	Completed after 7 iterations at t[s]:     79.83
ElecMinimize: Iter:   2  Etot: -136.671440494923843  |grad|_K:  1.505e-05  alpha:  5.277e-01  linmin:  1.851e-03  t[s]:     80.18
	Linear fluid (dielectric constant: 64) occupying 0.994668 of unit cell:	Completed after 6 iterations at t[s]:     80.90
	Linear fluid (dielectric constant: 64) occupying 0.994668 of unit cell:	Completed after 3 iterations at t[s]:     81.77
ElecMinimize: Iter:   3  Etot: -136.671657791644719  |grad|_K:  6.816e-06  alpha:  4.187e-01  linmin: -1.823e-03  t[s]:     82.03
	Linear fluid (dielectric constant: 64) occupying 0.994668 of unit cell:	Completed after 4 iterations at t[s]:     82.67
	Linear fluid (dielectric constant: 64) occupying 0.994668 of unit cell:	Completed after 4 iterations at t[s]:     83.50
ElecMinimize: Iter:   4  Etot: -136.671725954054466  |grad|_K:  4.272e-06  alpha:  6.386e-01  linmin:  2.365e-05  t[s]:     83.77
	Linear fluid (dielectric constant: 64) occupying 0.994668 of unit cell:	Completed after 3 iterations at t[s]:     84.38
	Linear fluid (dielectric constant: 64) occupying 0.994668 of unit cell:	Completed after 0 iterations at t[s]:     85.03
ElecMinimize: Iter:   5  Etot: -136.671746426553597  |grad|_K:  2.810e-06  alpha:  4.834e-01  linmin:  2.996e-02  t[s]:     85.28
	Linear fluid (dielectric constant: 64) occupying 0.994668 of unit cell:	Completed after 3 iterations at t[s]:     85.89
	Linear fluid (dielectric constant: 64) occupying 0.994668 of unit cell:	Completed after 0 iterations at t[s]:     86.54
ElecMinimize: Iter:   6  Etot: -136.671759111348706  |grad|_K:  1.646e-06  alpha:  6.749e-01  linmin: -1.491e-01  t[s]:     86.80
	Linear fluid (dielectric constant: 64) occupying 0.994668 of unit cell:	Completed after 1 iterations at t[s]:     87.33
	Linear fluid (dielectric constant: 64) occupying 0.994668 of unit cell:	Completed after 0 iterations at t[s]:     87.98
ElecMinimize: Iter:   7  Etot: -136.671764582470360  |grad|_K:  1.354e-06  alpha:  7.423e-01  linmin: -2.981e-02  t[s]:     88.24
	Linear fluid (dielectric constant: 64) occupying 0.994668 of unit cell:	Completed after 3 iterations at t[s]:     88.75
	Linear fluid (dielectric constant: 64) occupying 0.994668 of unit cell:	Completed after 0 iterations at t[s]:     89.40
ElecMinimize: Iter:   8  Etot: -136.671766187855781  |grad|_K:  1.319e-06  alpha:  4.436e-01  linmin: -6.163e-03  t[s]:     89.66
	Linear fluid (dielectric constant: 64) occupying 0.994668 of unit cell:	Completed after 2 iterations at t[s]:     90.13
	Linear fluid (dielectric constant: 64) occupying 0.994668 of unit cell:	Completed after 0 iterations at t[s]:     90.77
ElecMinimize: Iter:   9  Etot: -136.671766960452828  |grad|_K:  7.728e-07  alpha:  2.379e-01  linmin:  1.035e-02  t[s]:     91.03
	Linear fluid (dielectric constant: 64) occupying 0.994668 of unit cell:	Completed after 0 iterations at t[s]:     91.40
	Linear fluid (dielectric constant: 64) occupying 0.994668 of unit cell:	Completed after 0 iterations at t[s]:     91.95
ElecMinimize: Iter:  10  Etot: -136.671767870712813  |grad|_K:  5.863e-07  alpha:  6.745e-01  linmin:  7.671e-05  t[s]:     92.20
	Linear fluid (dielectric constant: 64) occupying 0.994667 of unit cell:	Completed after 0 iterations at t[s]:     92.61
	Linear fluid (dielectric constant: 64) occupying 0.994667 of unit cell:	Completed after 0 iterations at t[s]:     93.19
ElecMinimize: Iter:  11  Etot: -136.671768275658110  |grad|_K:  3.909e-07  alpha:  5.512e-01  linmin: -8.042e-02  t[s]:     93.45
	Linear fluid (dielectric constant: 64) occupying 0.994667 of unit cell:	Completed after 0 iterations at t[s]:     93.82
	Linear fluid (dielectric constant: 64) occupying 0.994667 of unit cell:	Completed after 0 iterations at t[s]:     94.37
ElecMinimize: Iter:  12  Etot: -136.671768520631502  |grad|_K:  3.168e-07  alpha:  6.130e-01  linmin: -9.226e-07  t[s]:     94.62
	Linear fluid (dielectric constant: 64) occupying 0.994667 of unit cell:	Completed after 0 iterations at t[s]:     94.99
	Linear fluid (dielectric constant: 64) occupying 0.994667 of unit cell:	Completed after 0 iterations at t[s]:     95.54
ElecMinimize: Iter:  13  Etot: -136.671768679729439  |grad|_K:  2.322e-07  alpha:  6.881e-01  linmin: -3.559e-05  t[s]:     95.80
	Linear fluid (dielectric constant: 64) occupying 0.994667 of unit cell:	Completed after 0 iterations at t[s]:     96.17
	Linear fluid (dielectric constant: 64) occupying 0.994667 of unit cell:	Completed after 0 iterations at t[s]:     96.72
ElecMinimize: Iter:  14  Etot: -136.671768776671172  |grad|_K:  2.178e-07  alpha:  7.803e-01  linmin: -1.920e-05  t[s]:     96.97
	Linear fluid (dielectric constant: 64) occupying 0.994667 of unit cell:	Completed after 1 iterations at t[s]:     97.41
	Linear fluid (dielectric constant: 64) occupying 0.994667 of unit cell:	Completed after 0 iterations at t[s]:     98.02
ElecMinimize: 	Step increased Etot by 3.604997e-07, reducing alpha to 1.163417e-02.
	Linear fluid (dielectric constant: 64) occupying 0.994667 of unit cell:	Completed after 0 iterations at t[s]:     98.64
ElecMinimize: 	Step increased Etot by 3.694915e-07, reducing alpha to 1.163417e-03.
	Linear fluid (dielectric constant: 64) occupying 0.994667 of unit cell:	Completed after 0 iterations at t[s]:     99.26
ElecMinimize: 	Step increased Etot by 3.706216e-07, reducing alpha to 1.163417e-04.
ElecMinimize: 	Step failed to reduce Etot after 3 attempts. Quitting step.
ElecMinimize: 	Undoing step.
	Linear fluid (dielectric constant: 64) occupying 0.994667 of unit cell:	Completed after 0 iterations at t[s]:     99.88
ElecMinimize: 	Step failed: resetting search direction.
ElecMinimize: Iter:  15  Etot: -136.671768406036676  |grad|_K:  3.704e-07  alpha:  1.163e-04
	Linear fluid (dielectric constant: 64) occupying 0.994667 of unit cell:	Completed after 0 iterations at t[s]:    100.50
	Linear fluid (dielectric constant: 64) occupying 0.994667 of unit cell:	Completed after 0 iterations at t[s]:    101.09
ElecMinimize: Iter:  16  Etot: -136.671768558899657  |grad|_K:  3.485e-07  alpha:  9.067e-01  linmin:  8.917e-02  t[s]:    101.34
	Linear fluid (dielectric constant: 64) occupying 0.994667 of unit cell:	Completed after 1 iterations at t[s]:    101.79
	Linear fluid (dielectric constant: 64) occupying 0.994667 of unit cell:	Completed after 0 iterations at t[s]:    102.40
ElecMinimize: 	Step increased Etot by 4.526299e-09, reducing alpha to 3.062509e-02.
	Linear fluid (dielectric constant: 64) occupying 0.994667 of unit cell:	Completed after 0 iterations at t[s]:    103.02
ElecMinimize: 	Step increased Etot by 2.825118e-10, reducing alpha to 3.062509e-03.
	Linear fluid (dielectric constant: 64) occupying 0.994667 of unit cell:	Completed after 0 iterations at t[s]:    103.64
ElecMinimize: 	Step increased Etot by 2.941391e-09, reducing alpha to 3.062509e-04.
ElecMinimize: 	Step failed to reduce Etot after 3 attempts. Quitting step.
ElecMinimize: 	Undoing step.
	Linear fluid (dielectric constant: 64) occupying 0.994667 of unit cell:	Completed after 0 iterations at t[s]:    104.26
ElecMinimize: 	Step failed: resetting search direction.
ElecMinimize: Iter:  17  Etot: -136.671768555925468  |grad|_K:  3.897e-07  alpha:  3.063e-04
	Linear fluid (dielectric constant: 64) occupying 0.994667 of unit cell:	Completed after 0 iterations at t[s]:    104.88
	Linear fluid (dielectric constant: 64) occupying 0.994667 of unit cell:	Completed after 0 iterations at t[s]:    105.44
ElecMinimize: Iter:  18  Etot: -136.671768698374706  |grad|_K:  1.698e-07  alpha:  4.074e-01  linmin:  6.433e-05  t[s]:    105.70
	Linear fluid (dielectric constant: 64) occupying 0.994667 of unit cell:	Completed after 0 iterations at t[s]:    106.06
	Linear fluid (dielectric constant: 64) occupying 0.994667 of unit cell:	Completed after 0 iterations at t[s]:    106.62
ElecMinimize: Iter:  19  Etot: -136.671768748802435  |grad|_K:  1.105e-07  alpha:  7.588e-01  linmin: -6.504e-04  t[s]:    106.87
	Linear fluid (dielectric constant: 64) occupying 0.994667 of unit cell:	Completed after 0 iterations at t[s]:    107.24
	Linear fluid (dielectric constant: 64) occupying 0.994667 of unit cell:	Completed after 0 iterations at t[s]:    107.83
ElecMinimize: 	Step increased Etot by 2.511943e-07, reducing alpha to 1.103772e-01.
	Linear fluid (dielectric constant: 64) occupying 0.994667 of unit cell:	Completed after 0 iterations at t[s]:    108.45
ElecMinimize: 	Step increased Etot by 2.073552e-07, reducing alpha to 1.103772e-02.
	Linear fluid (dielectric constant: 64) occupying 0.994667 of unit cell:	Completed after 0 iterations at t[s]:    109.07
ElecMinimize: 	Step increased Etot by 2.057510e-07, reducing alpha to 1.103772e-03.
ElecMinimize: 	Step failed to reduce Etot after 3 attempts. Quitting step.
ElecMinimize: 	Undoing step.
	Linear fluid (dielectric constant: 64) occupying 0.994667 of unit cell:	Completed after 0 iterations at t[s]:    109.69
ElecMinimize: 	Step failed: resetting search direction.
ElecMinimize: Iter:  20  Etot: -136.671768543066321  |grad|_K:  2.117e-07  alpha:  1.104e-03
	Linear fluid (dielectric constant: 64) occupying 0.994667 of unit cell:	Completed after 0 iterations at t[s]:    110.31
	Linear fluid (dielectric constant: 64) occupying 0.994667 of unit cell:	Completed after 0 iterations at t[s]:    110.87
ElecMinimize: Iter:  21  Etot: -136.671768621495801  |grad|_K:  1.316e-07  alpha:  7.597e-01  linmin:  6.366e-05  t[s]:    111.12
	Linear fluid (dielectric constant: 64) occupying 0.994667 of unit cell:	Completed after 0 iterations at t[s]:    111.49
	Linear fluid (dielectric constant: 64) occupying 0.994667 of unit cell:	Completed after 0 iterations at t[s]:    112.04
ElecMinimize: Iter:  22  Etot: -136.671768657352288  |grad|_K:  1.194e-07  alpha:  8.987e-01  linmin:  1.722e-04  t[s]:    112.30
	Linear fluid (dielectric constant: 64) occupying 0.994667 of unit cell:	Completed after 0 iterations at t[s]:    112.66
	Linear fluid (dielectric constant: 64) occupying 0.994667 of unit cell:	Completed after 0 iterations at t[s]:    113.21
ElecMinimize: Iter:  23  Etot: -136.671768683336012  |grad|_K:  7.509e-08  alpha:  7.916e-01  linmin:  1.503e-04  t[s]:    113.47
	Linear fluid (dielectric constant: 64) occupying 0.994667 of unit cell:	Completed after 0 iterations at t[s]:    113.84
	Linear fluid (dielectric constant: 64) occupying 0.994667 of unit cell:	Completed after 0 iterations at t[s]:    114.39
ElecMinimize: Iter:  24  Etot: -136.671768694216382  |grad|_K:  6.161e-08  alpha:  8.380e-01  linmin:  7.300e-05  t[s]:    114.65
	Linear fluid (dielectric constant: 64) occupying 0.994667 of unit cell:	Completed after 0 iterations at t[s]:    115.05
	Linear fluid (dielectric constant: 64) occupying 0.994667 of unit cell:	Completed after 0 iterations at t[s]:    115.63
ElecMinimize: 	Step increased Etot by 9.519584e-08, reducing alpha to 5.789720e-03.
	Linear fluid (dielectric constant: 64) occupying 0.994667 of unit cell:	Completed after 0 iterations at t[s]:    116.25
ElecMinimize: 	Step increased Etot by 9.574853e-08, reducing alpha to 5.789720e-04.
	Linear fluid (dielectric constant: 64) occupying 0.994667 of unit cell:	Completed after 0 iterations at t[s]:    116.87
ElecMinimize: 	Step increased Etot by 9.580597e-08, reducing alpha to 5.789720e-05.
ElecMinimize: 	Step failed to reduce Etot after 3 attempts. Quitting step.
ElecMinimize: 	Undoing step.
	Linear fluid (dielectric constant: 64) occupying 0.994667 of unit cell:	Completed after 0 iterations at t[s]:    117.49
ElecMinimize: 	Step failed: resetting search direction.
ElecMinimize: Iter:  25  Etot: -136.671768598409813  |grad|_K:  8.554e-08  alpha:  5.790e-05
	Linear fluid (dielectric constant: 64) occupying 0.994667 of unit cell:	Completed after 0 iterations at t[s]:    118.11
	Linear fluid (dielectric constant: 64) occupying 0.994667 of unit cell:	Completed after 0 iterations at t[s]:    118.67
ElecMinimize: Iter:  26  Etot: -136.671768612288645  |grad|_K:  7.476e-08  alpha:  8.235e-01  linmin:  7.350e-06  t[s]:    118.92
	Linear fluid (dielectric constant: 64) occupying 0.994667 of unit cell:	Completed after 0 iterations at t[s]:    119.29
	Linear fluid (dielectric constant: 64) occupying 0.994667 of unit cell:	Completed after 0 iterations at t[s]:    119.84
ElecMinimize: Iter:  27  Etot: -136.671768623230832  |grad|_K:  3.739e-08  alpha:  8.500e-01  linmin:  7.584e-05  t[s]:    120.10
	Linear fluid (dielectric constant: 64) occupying 0.994667 of unit cell:	Completed after 0 iterations at t[s]:    120.47
	Linear fluid (dielectric constant: 64) occupying 0.994667 of unit cell:	Completed after 0 iterations at t[s]:    121.02
ElecMinimize: Iter:  28  Etot: -136.671768625056473  |grad|_K:  2.431e-08  alpha:  5.672e-01  linmin:  5.387e-05  t[s]:    121.28
	Linear fluid (dielectric constant: 64) occupying 0.994667 of unit cell:	Completed after 0 iterations at t[s]:    121.65
	Linear fluid (dielectric constant: 64) occupying 0.994667 of unit cell:	Completed after 0 iterations at t[s]:    122.20
ElecMinimize: Iter:  29  Etot: -136.671768626568166  |grad|_K:  1.991e-08  alpha:  1.111e+00  linmin:  2.250e-04  t[s]:    122.45
ElecMinimize: Converged (|Delta Etot|<1.000000e-08 for 2 iters).
Setting wave functions to eigenvectors of Hamiltonian
IonicMinimize: 	Predicted alpha/alphaT>3.000000, increasing alphaT to 3.000000e+00.

-------- Electronic minimization -----------
	Linear fluid (dielectric constant: 64) occupying 0.994666 of unit cell:	Completed after 21 iterations at t[s]:    123.80
ElecMinimize: Iter:   0  Etot: -136.585086603881564  |grad|_K:  3.111e-04  alpha:  1.000e+00
	Linear fluid (dielectric constant: 64) occupying 0.994650 of unit cell:	Completed after 23 iterations at t[s]:    126.11
	Linear fluid (dielectric constant: 64) occupying 0.994660 of unit cell:	Completed after 21 iterations at t[s]:    128.17
ElecMinimize: Iter:   1  Etot: -136.668934689898947  |grad|_K:  6.411e-05  alpha:  3.793e-01  linmin: -1.960e-03  t[s]:    128.53
	Linear fluid (dielectric constant: 64) occupying 0.994653 of unit cell:	Completed after 13 iterations at t[s]:    129.69
	Linear fluid (dielectric constant: 64) occupying 0.994651 of unit cell:	Completed after 9 iterations at t[s]:    130.91
ElecMinimize: Iter:   2  Etot: -136.673315149154007  |grad|_K:  3.408e-05  alpha:  4.630e-01  linmin:  3.881e-03  t[s]:    131.27
	Linear fluid (dielectric constant: 64) occupying 0.994649 of unit cell:	Completed after 10 iterations at t[s]:    132.27
	Linear fluid (dielectric constant: 64) occupying 0.994650 of unit cell:	Completed after 3 iterations at t[s]:    133.15
ElecMinimize: Iter:   3  Etot: -136.674451732325167  |grad|_K:  1.394e-05  alpha:  4.265e-01  linmin: -5.872e-04  t[s]:    133.41
	Linear fluid (dielectric constant: 64) occupying 0.994649 of unit cell:	Completed after 6 iterations at t[s]:    134.13
	Linear fluid (dielectric constant: 64) occupying 0.994649 of unit cell:	Completed after 5 iterations at t[s]:    135.06
ElecMinimize: Iter:   4  Etot: -136.674742997999516  |grad|_K:  8.832e-06  alpha:  6.516e-01  linmin:  1.591e-03  t[s]:    135.39
	Linear fluid (dielectric constant: 64) occupying 0.994649 of unit cell:	Completed after 5 iterations at t[s]:    136.08
	Linear fluid (dielectric constant: 64) occupying 0.994649 of unit cell:	Completed after 2 iterations at t[s]:    136.88
ElecMinimize: Iter:   5  Etot: -136.674834574426342  |grad|_K:  5.195e-06  alpha:  5.137e-01  linmin: -1.809e-03  t[s]:    137.13
	Linear fluid (dielectric constant: 64) occupying 0.994649 of unit cell:	Completed after 3 iterations at t[s]:    137.74
	Linear fluid (dielectric constant: 64) occupying 0.994649 of unit cell:	Completed after 3 iterations at t[s]:    138.54
ElecMinimize: Iter:   6  Etot: -136.674893813777317  |grad|_K:  3.073e-06  alpha:  9.413e-01  linmin: -1.599e-02  t[s]:    138.80
	Linear fluid (dielectric constant: 64) occupying 0.994649 of unit cell:	Completed after 4 iterations at t[s]:    139.45
	Linear fluid (dielectric constant: 64) occupying 0.994649 of unit cell:	Completed after 0 iterations at t[s]:    140.10
ElecMinimize: Iter:   7  Etot: -136.674912697187892  |grad|_K:  2.363e-06  alpha:  8.514e-01  linmin:  7.734e-03  t[s]:    140.35
	Linear fluid (dielectric constant: 64) occupying 0.994648 of unit cell:	Completed after 3 iterations at t[s]:    140.97
	Linear fluid (dielectric constant: 64) occupying 0.994648 of unit cell:	Completed after 0 iterations at t[s]:    141.61
ElecMinimize: Iter:   8  Etot: -136.674919448889142  |grad|_K:  2.253e-06  alpha:  4.847e-01  linmin:  7.338e-02  t[s]:    141.87
	Linear fluid (dielectric constant: 64) occupying 0.994648 of unit cell:	Completed after 3 iterations at t[s]:    142.46
	Linear fluid (dielectric constant: 64) occupying 0.994648 of unit cell:	Completed after 0 iterations at t[s]:    143.12
ElecMinimize: Iter:   9  Etot: -136.674921523142586  |grad|_K:  1.088e-06  alpha:  2.977e-01  linmin: -5.777e-02  t[s]:    143.37
	Linear fluid (dielectric constant: 64) occupying 0.994648 of unit cell:	Completed after 0 iterations at t[s]:    143.74
	Linear fluid (dielectric constant: 64) occupying 0.994647 of unit cell:	Completed after 0 iterations at t[s]:    144.29
ElecMinimize: Iter:  10  Etot: -136.674924015595650  |grad|_K:  8.974e-07  alpha:  8.563e-01  linmin:  5.580e-05  t[s]:    144.55
	Linear fluid (dielectric constant: 64) occupying 0.994647 of unit cell:	Completed after 3 iterations at t[s]:    145.06
	Linear fluid (dielectric constant: 64) occupying 0.994647 of unit cell:	Completed after 0 iterations at t[s]:    145.71
ElecMinimize: Iter:  11  Etot: -136.674924207256879  |grad|_K:  1.345e-06  alpha:  3.342e-01  linmin:  5.273e-02  t[s]:    145.97
	Linear fluid (dielectric constant: 64) occupying 0.994647 of unit cell:	Completed after 0 iterations at t[s]:    146.33
	Linear fluid (dielectric constant: 64) occupying 0.994647 of unit cell:	Completed after 0 iterations at t[s]:    146.89
ElecMinimize: Iter:  12  Etot: -136.674924877557117  |grad|_K:  1.239e-06  alpha:  2.043e-01  linmin:  7.655e-08  t[s]:    147.15
	Linear fluid (dielectric constant: 64) occupying 0.994647 of unit cell:	Completed after 2 iterations at t[s]:    147.63
	Linear fluid (dielectric constant: 64) occupying 0.994647 of unit cell:	Completed after 0 iterations at t[s]:    148.27
ElecMinimize: 	Step increased Etot by 9.419435e-08, reducing alpha to 8.192656e-03.
	Linear fluid (dielectric constant: 64) occupying 0.994647 of unit cell:	Completed after 0 iterations at t[s]:    148.88
ElecMinimize: 	Step increased Etot by 1.372195e-07, reducing alpha to 8.192656e-04.
	Linear fluid (dielectric constant: 64) occupying 0.994647 of unit cell:	Completed after 0 iterations at t[s]:    149.51
ElecMinimize: 	Step increased Etot by 1.498450e-07, reducing alpha to 8.192656e-05.
ElecMinimize: 	Step failed to reduce Etot after 3 attempts. Quitting step.
ElecMinimize: 	Undoing step.
	Linear fluid (dielectric constant: 64) occupying 0.994647 of unit cell:	Completed after 0 iterations at t[s]:    150.13
ElecMinimize: 	Step failed: resetting search direction.
ElecMinimize: Iter:  13  Etot: -136.674924727563450  |grad|_K:  7.444e-07  alpha:  8.193e-05
	Linear fluid (dielectric constant: 64) occupying 0.994647 of unit cell:	Completed after 0 iterations at t[s]:    150.75
	Linear fluid (dielectric constant: 64) occupying 0.994647 of unit cell:	Completed after 0 iterations at t[s]:    151.31
ElecMinimize: Iter:  14  Etot: -136.674925368580091  |grad|_K:  5.011e-07  alpha:  5.022e-01  linmin: -1.551e-04  t[s]:    151.58
	Linear fluid (dielectric constant: 64) occupying 0.994647 of unit cell:	Completed after 0 iterations at t[s]:    151.98
	Linear fluid (dielectric constant: 64) occupying 0.994647 of unit cell:	Completed after 0 iterations at t[s]:    152.56
ElecMinimize: Iter:  15  Etot: -136.674925653253126  |grad|_K:  2.877e-07  alpha:  4.967e-01  linmin: -3.899e-01  t[s]:    152.82
	Linear fluid (dielectric constant: 64) occupying 0.994647 of unit cell:	Completed after 0 iterations at t[s]:    153.18
	Linear fluid (dielectric constant: 64) occupying 0.994647 of unit cell:	Completed after 0 iterations at t[s]:    153.74
ElecMinimize: Iter:  16  Etot: -136.674925839284441  |grad|_K:  3.332e-07  alpha:  6.878e-01  linmin: -1.021e-04  t[s]:    153.99
	Linear fluid (dielectric constant: 64) occupying 0.994648 of unit cell:	Completed after 2 iterations at t[s]:    154.47
	Linear fluid (dielectric constant: 64) occupying 0.994647 of unit cell:	Completed after 0 iterations at t[s]:    155.11
ElecMinimize: 	Step increased Etot by 3.202876e-07, reducing alpha to 1.285621e-02.
	Linear fluid (dielectric constant: 64) occupying 0.994647 of unit cell:	Completed after 0 iterations at t[s]:    155.73
ElecMinimize: 	Step increased Etot by 2.910725e-07, reducing alpha to 1.285621e-03.
	Linear fluid (dielectric constant: 64) occupying 0.994647 of unit cell:	Completed after 0 iterations at t[s]:    156.34
ElecMinimize: 	Step increased Etot by 2.886509e-07, reducing alpha to 1.285621e-04.
ElecMinimize: 	Step failed to reduce Etot after 3 attempts. Quitting step.
ElecMinimize: 	Undoing step.
	Linear fluid (dielectric constant: 64) occupying 0.994647 of unit cell:	Completed after 0 iterations at t[s]:    163.30
ElecMinimize: 	Step failed: resetting search direction.
ElecMinimize: Iter:  17  Etot: -136.674925550660078  |grad|_K:  5.935e-07  alpha:  1.286e-04
	Linear fluid (dielectric constant: 64) occupying 0.994647 of unit cell:	Completed after 0 iterations at t[s]:    163.96
	Linear fluid (dielectric constant: 64) occupying 0.994647 of unit cell:	Completed after 0 iterations at t[s]:    164.54
ElecMinimize: Iter:  18  Etot: -136.674925877704794  |grad|_K:  2.748e-07  alpha:  4.732e-01  linmin: -9.944e-02  t[s]:    164.81
	Linear fluid (dielectric constant: 64) occupying 0.994647 of unit cell:	Completed after 0 iterations at t[s]:    165.18
	Linear fluid (dielectric constant: 64) occupying 0.994647 of unit cell:	Completed after 0 iterations at t[s]:    165.73
ElecMinimize: Iter:  19  Etot: -136.674926068684613  |grad|_K:  2.470e-07  alpha:  1.024e+00  linmin:  9.569e-04  t[s]:    165.99
	Linear fluid (dielectric constant: 64) occupying 0.994647 of unit cell:	Completed after 0 iterations at t[s]:    166.36
	Linear fluid (dielectric constant: 64) occupying 0.994647 of unit cell:	Completed after 0 iterations at t[s]:    166.92
ElecMinimize: Iter:  20  Etot: -136.674926173743756  |grad|_K:  1.630e-07  alpha:  7.490e-01  linmin:  5.700e-05  t[s]:    167.17
	Linear fluid (dielectric constant: 64) occupying 0.994647 of unit cell:	Completed after 0 iterations at t[s]:    167.54
	Linear fluid (dielectric constant: 64) occupying 0.994647 of unit cell:	Completed after 2 iterations at t[s]:    168.20
ElecMinimize: 	Step increased Etot by 9.381876e-07, reducing alpha to 9.389410e-02.
	Linear fluid (dielectric constant: 64) occupying 0.994647 of unit cell:	Completed after 0 iterations at t[s]:    168.88
ElecMinimize: 	Step increased Etot by 7.891312e-07, reducing alpha to 9.389410e-03.
	Linear fluid (dielectric constant: 64) occupying 0.994647 of unit cell:	Completed after 0 iterations at t[s]:    169.50
ElecMinimize: 	Step increased Etot by 7.793364e-07, reducing alpha to 9.389410e-04.
ElecMinimize: 	Step failed to reduce Etot after 3 attempts. Quitting step.
ElecMinimize: 	Undoing step.
	Linear fluid (dielectric constant: 64) occupying 0.994647 of unit cell:	Completed after 0 iterations at t[s]:    170.12
ElecMinimize: 	Step failed: resetting search direction.
ElecMinimize: Iter:  21  Etot: -136.674925394511035  |grad|_K:  7.336e-07  alpha:  9.389e-04
	Linear fluid (dielectric constant: 64) occupying 0.994647 of unit cell:	Completed after 3 iterations at t[s]:    170.89
	Linear fluid (dielectric constant: 64) occupying 0.994647 of unit cell:	Completed after 0 iterations at t[s]:    171.54
ElecMinimize: Iter:  22  Etot: -136.674925910019425  |grad|_K:  5.220e-07  alpha:  3.683e-01  linmin:  2.764e-01  t[s]:    171.81
	Linear fluid (dielectric constant: 64) occupying 0.994647 of unit cell:	Completed after 0 iterations at t[s]:    172.17
	Linear fluid (dielectric constant: 64) occupying 0.994647 of unit cell:	Completed after 0 iterations at t[s]:    172.73
ElecMinimize: Iter:  23  Etot: -136.674926164111753  |grad|_K:  2.113e-07  alpha:  6.552e-01  linmin: -8.519e-04  t[s]:    172.98
	Linear fluid (dielectric constant: 64) occupying 0.994647 of unit cell:	Completed after 0 iterations at t[s]:    173.35
	Linear fluid (dielectric constant: 64) occupying 0.994647 of unit cell:	Completed after 0 iterations at t[s]:    173.91
ElecMinimize: Iter:  24  Etot: -136.674926232365863  |grad|_K:  1.405e-07  alpha:  6.638e-01  linmin: -1.106e-05  t[s]:    174.16
	Linear fluid (dielectric constant: 64) occupying 0.994647 of unit cell:	Completed after 0 iterations at t[s]:    174.53
	Linear fluid (dielectric constant: 64) occupying 0.994647 of unit cell:	Completed after 0 iterations at t[s]:    175.08
ElecMinimize: Iter:  25  Etot: -136.674926266561243  |grad|_K:  1.156e-07  alpha:  7.523e-01  linmin: -5.064e-07  t[s]:    175.34
	Linear fluid (dielectric constant: 64) occupying 0.994647 of unit cell:	Completed after 1 iterations at t[s]:    175.78
	Linear fluid (dielectric constant: 64) occupying 0.994647 of unit cell:	Completed after 0 iterations at t[s]:    176.39
ElecMinimize: 	Step increased Etot by 4.504575e-07, reducing alpha to 3.412199e-03.
	Linear fluid (dielectric constant: 64) occupying 0.994647 of unit cell:	Completed after 0 iterations at t[s]:    177.01
ElecMinimize: 	Step increased Etot by 4.505119e-07, reducing alpha to 3.412199e-04.
	Linear fluid (dielectric constant: 64) occupying 0.994647 of unit cell:	Completed after 0 iterations at t[s]:    177.62
ElecMinimize: 	Step increased Etot by 4.505202e-07, reducing alpha to 3.412199e-05.
ElecMinimize: 	Step failed to reduce Etot after 3 attempts. Quitting step.
ElecMinimize: 	Undoing step.
	Linear fluid (dielectric constant: 64) occupying 0.994647 of unit cell:	Completed after 0 iterations at t[s]:    178.25
ElecMinimize: 	Step failed: resetting search direction.
ElecMinimize: Iter:  26  Etot: -136.674925816040940  |grad|_K:  3.865e-07  alpha:  3.412e-05
	Linear fluid (dielectric constant: 64) occupying 0.994647 of unit cell:	Completed after 0 iterations at t[s]:    178.87
	Linear fluid (dielectric constant: 64) occupying 0.994647 of unit cell:	Completed after 0 iterations at t[s]:    179.43
ElecMinimize: Iter:  27  Etot: -136.674926057969742  |grad|_K:  1.956e-07  alpha:  7.030e-01  linmin:  1.316e-04  t[s]:    179.69
	Linear fluid (dielectric constant: 64) occupying 0.994647 of unit cell:	Completed after 0 iterations at t[s]:    180.06
	Linear fluid (dielectric constant: 64) occupying 0.994647 of unit cell:	Completed after 0 iterations at t[s]:    180.65
ElecMinimize: 	Step increased Etot by 1.259875e-07, reducing alpha to 1.053381e-01.
	Linear fluid (dielectric constant: 64) occupying 0.994647 of unit cell:	Completed after 0 iterations at t[s]:    181.27
ElecMinimize: 	Step increased Etot by 1.023211e-07, reducing alpha to 1.053381e-02.
	Linear fluid (dielectric constant: 64) occupying 0.994647 of unit cell:	Completed after 0 iterations at t[s]:    181.90
ElecMinimize: 	Step increased Etot by 1.082078e-07, reducing alpha to 1.053381e-03.
ElecMinimize: 	Step failed to reduce Etot after 3 attempts. Quitting step.
ElecMinimize: 	Undoing step.
	Linear fluid (dielectric constant: 64) occupying 0.994647 of unit cell:	Completed after 0 iterations at t[s]:    182.51
ElecMinimize: 	Step failed: resetting search direction.
ElecMinimize: Iter:  28  Etot: -136.674925949688259  |grad|_K:  1.652e-07  alpha:  1.053e-03
	Linear fluid (dielectric constant: 64) occupying 0.994647 of unit cell:	Completed after 0 iterations at t[s]:    183.14
	Linear fluid (dielectric constant: 64) occupying 0.994647 of unit cell:	Completed after 0 iterations at t[s]:    183.69
ElecMinimize: Iter:  29  Etot: -136.674925981895370  |grad|_K:  7.330e-08  alpha:  5.125e-01  linmin: -6.649e-06  t[s]:    183.95
	Linear fluid (dielectric constant: 64) occupying 0.994647 of unit cell:	Completed after 0 iterations at t[s]:    184.32
	Linear fluid (dielectric constant: 64) occupying 0.994647 of unit cell:	Completed after 0 iterations at t[s]:    184.87
ElecMinimize: Iter:  30  Etot: -136.674925994259013  |grad|_K:  7.746e-08  alpha:  9.991e-01  linmin: -4.190e-05  t[s]:    185.14
	Linear fluid (dielectric constant: 64) occupying 0.994647 of unit cell:	Completed after 0 iterations at t[s]:    185.51
	Linear fluid (dielectric constant: 64) occupying 0.994647 of unit cell:	Completed after 0 iterations at t[s]:    186.06
ElecMinimize: Iter:  31  Etot: -136.674926007973284  |grad|_K:  6.773e-08  alpha:  9.922e-01  linmin: -2.573e-05  t[s]:    186.32
	Linear fluid (dielectric constant: 64) occupying 0.994647 of unit cell:	Completed after 0 iterations at t[s]:    186.68
	Linear fluid (dielectric constant: 64) occupying 0.994647 of unit cell:	Completed after 0 iterations at t[s]:    187.24
ElecMinimize: Iter:  32  Etot: -136.674926017735800  |grad|_K:  4.633e-08  alpha:  9.240e-01  linmin: -1.212e-05  t[s]:    187.49
	Linear fluid (dielectric constant: 64) occupying 0.994647 of unit cell:	Completed after 0 iterations at t[s]:    187.86
	Linear fluid (dielectric constant: 64) occupying 0.994647 of unit cell:	Completed after 0 iterations at t[s]:    188.41
ElecMinimize: Iter:  33  Etot: -136.674926023641945  |grad|_K:  4.128e-08  alpha:  1.194e+00  linmin:  3.332e-06  t[s]:    188.68
ElecMinimize: Converged (|Delta Etot|<1.000000e-08 for 2 iters).
Setting wave functions to eigenvectors of Hamiltonian
IonicMinimize: 	Predicted alpha/alphaT>3.000000, increasing alphaT to 9.000000e+00.

-------- Electronic minimization -----------
	Linear fluid (dielectric constant: 64) occupying 0.994640 of unit cell:	Completed after 26 iterations at t[s]:    190.36
ElecMinimize: Iter:   0  Etot: -135.853429926206360  |grad|_K:  9.805e-04  alpha:  1.000e+00
	Linear fluid (dielectric constant: 64) occupying 0.994619 of unit cell:	Completed after 33 iterations at t[s]:    193.36
	Linear fluid (dielectric constant: 64) occupying 0.994634 of unit cell:	Completed after 24 iterations at t[s]:    195.66
ElecMinimize: Iter:   1  Etot: -136.604780461630099  |grad|_K:  2.664e-04  alpha:  3.681e-01  linmin: -5.133e-02  t[s]:    196.01
	Linear fluid (dielectric constant: 64) occupying 0.994604 of unit cell:	Completed after 22 iterations at t[s]:    197.84
	Linear fluid (dielectric constant: 64) occupying 0.994606 of unit cell:	Completed after 10 iterations at t[s]:    199.11
ElecMinimize: Iter:   2  Etot: -136.662447655667393  |grad|_K:  1.127e-04  alpha:  3.460e-01  linmin:  7.694e-03  t[s]:    199.48
	Linear fluid (dielectric constant: 64) occupying 0.994598 of unit cell:	Completed after 14 iterations at t[s]:    200.75
	Linear fluid (dielectric constant: 64) occupying 0.994594 of unit cell:	Completed after 12 iterations at t[s]:    202.17
ElecMinimize: Iter:   3  Etot: -136.678045496753072  |grad|_K:  4.628e-05  alpha:  5.352e-01  linmin: -2.777e-03  t[s]:    202.53
	Linear fluid (dielectric constant: 64) occupying 0.994592 of unit cell:	Completed after 12 iterations at t[s]:    203.66
	Linear fluid (dielectric constant: 64) occupying 0.994592 of unit cell:	Completed after 0 iterations at t[s]:    204.40
ElecMinimize: Iter:   4  Etot: -136.680789131003138  |grad|_K:  2.950e-05  alpha:  5.549e-01  linmin: -3.025e-03  t[s]:    204.66
	Linear fluid (dielectric constant: 64) occupying 0.994591 of unit cell:	Completed after 12 iterations at t[s]:    205.62
	Linear fluid (dielectric constant: 64) occupying 0.994591 of unit cell:	Completed after 0 iterations at t[s]:    206.37
ElecMinimize: Iter:   5  Etot: -136.681869953963769  |grad|_K:  1.662e-05  alpha:  5.373e-01  linmin:  1.765e-03  t[s]:    206.62
	Linear fluid (dielectric constant: 64) occupying 0.994592 of unit cell:	Completed after 6 iterations at t[s]:    207.34
	Linear fluid (dielectric constant: 64) occupying 0.994592 of unit cell:	Completed after 5 iterations at t[s]:    208.21
ElecMinimize: Iter:   6  Etot: -136.682305300476969  |grad|_K:  1.462e-05  alpha:  6.862e-01  linmin: -8.475e-04  t[s]:    208.47
	Linear fluid (dielectric constant: 64) occupying 0.994592 of unit cell:	Completed after 6 iterations at t[s]:    209.19
	Linear fluid (dielectric constant: 64) occupying 0.994592 of unit cell:	Completed after 3 iterations at t[s]:    210.06
ElecMinimize: Iter:   7  Etot: -136.682561609674735  |grad|_K:  7.910e-06  alpha:  5.226e-01  linmin: -2.597e-03  t[s]:    210.32
	Linear fluid (dielectric constant: 64) occupying 0.994591 of unit cell:	Completed after 3 iterations at t[s]:    210.94
	Linear fluid (dielectric constant: 64) occupying 0.994590 of unit cell:	Completed after 3 iterations at t[s]:    211.73
ElecMinimize: Iter:   8  Etot: -136.682680875167932  |grad|_K:  5.163e-06  alpha:  8.266e-01  linmin:  3.013e-04  t[s]:    211.99
	Linear fluid (dielectric constant: 64) occupying 0.994589 of unit cell:	Completed after 4 iterations at t[s]:    212.64
	Linear fluid (dielectric constant: 64) occupying 0.994589 of unit cell:	Completed after 0 iterations at t[s]:    213.29
ElecMinimize: Iter:   9  Etot: -136.682720990362043  |grad|_K:  4.232e-06  alpha:  6.460e-01  linmin:  2.281e-02  t[s]:    213.54
	Linear fluid (dielectric constant: 64) occupying 0.994587 of unit cell:	Completed after 3 iterations at t[s]:    214.15
	Linear fluid (dielectric constant: 64) occupying 0.994588 of unit cell:	Completed after 3 iterations at t[s]:    214.96
ElecMinimize: Iter:  10  Etot: -136.682736178292771  |grad|_K:  2.681e-06  alpha:  4.133e-01  linmin: -1.134e-02  t[s]:    215.21
	Linear fluid (dielectric constant: 64) occupying 0.994588 of unit cell:	Completed after 0 iterations at t[s]:    215.68
	Linear fluid (dielectric constant: 64) occupying 0.994587 of unit cell:	Completed after 0 iterations at t[s]:    216.32
ElecMinimize: Iter:  11  Etot: -136.682750316364718  |grad|_K:  2.065e-06  alpha:  8.400e-01  linmin: -4.432e-05  t[s]:    216.58
	Linear fluid (dielectric constant: 64) occupying 0.994587 of unit cell:	Completed after 4 iterations at t[s]:    217.13
	Linear fluid (dielectric constant: 64) occupying 0.994587 of unit cell:	Completed after 0 iterations at t[s]:    217.79
ElecMinimize: Iter:  12  Etot: -136.682754190194913  |grad|_K:  2.540e-06  alpha:  4.416e-01  linmin:  4.166e-02  t[s]:    218.04
	Linear fluid (dielectric constant: 64) occupying 0.994587 of unit cell:	Completed after 2 iterations at t[s]:    218.52
	Linear fluid (dielectric constant: 64) occupying 0.994587 of unit cell:	Completed after 0 iterations at t[s]:    219.16
ElecMinimize: Iter:  13  Etot: -136.682757067701800  |grad|_K:  1.371e-06  alpha:  2.754e-01  linmin: -3.606e-02  t[s]:    219.41
	Linear fluid (dielectric constant: 64) occupying 0.994587 of unit cell:	Completed after 0 iterations at t[s]:    219.78
	Linear fluid (dielectric constant: 64) occupying 0.994587 of unit cell:	Completed after 1 iterations at t[s]:    220.41
ElecMinimize: Iter:  14  Etot: -136.682759831130056  |grad|_K:  1.165e-06  alpha:  7.007e-01  linmin:  4.437e-02  t[s]:    220.68
	Linear fluid (dielectric constant: 64) occupying 0.994587 of unit cell:	Completed after 0 iterations at t[s]:    221.07
	Linear fluid (dielectric constant: 64) occupying 0.994587 of unit cell:	Completed after 0 iterations at t[s]:    221.62
ElecMinimize: Iter:  15  Etot: -136.682761625304408  |grad|_K:  8.008e-07  alpha:  6.465e-01  linmin:  6.152e-06  t[s]:    221.88
	Linear fluid (dielectric constant: 64) occupying 0.994587 of unit cell:	Completed after 0 iterations at t[s]:    222.30
	Linear fluid (dielectric constant: 64) occupying 0.994587 of unit cell:	Completed after 0 iterations at t[s]:    222.88
ElecMinimize: Iter:  16  Etot: -136.682762336243371  |grad|_K:  5.529e-07  alpha:  5.109e-01  linmin: -4.924e-02  t[s]:    223.14
	Linear fluid (dielectric constant: 64) occupying 0.994587 of unit cell:	Completed after 0 iterations at t[s]:    223.50
	Linear fluid (dielectric constant: 64) occupying 0.994587 of unit cell:	Completed after 0 iterations at t[s]:    224.05
ElecMinimize: Iter:  17  Etot: -136.682762813673776  |grad|_K:  4.035e-07  alpha:  6.222e-01  linmin: -7.089e-06  t[s]:    224.31
	Linear fluid (dielectric constant: 64) occupying 0.994587 of unit cell:	Completed after 0 iterations at t[s]:    224.71
	Linear fluid (dielectric constant: 64) occupying 0.994587 of unit cell:	Completed after 0 iterations at t[s]:    225.29
ElecMinimize: Iter:  18  Etot: -136.682762921335694  |grad|_K:  2.905e-07  alpha:  4.348e-01  linmin: -1.777e-01  t[s]:    225.55
	Linear fluid (dielectric constant: 64) occupying 0.994587 of unit cell:	Completed after 0 iterations at t[s]:    225.92
	Linear fluid (dielectric constant: 64) occupying 0.994587 of unit cell:	Completed after 0 iterations at t[s]:    226.47
ElecMinimize: Iter:  19  Etot: -136.682763080938628  |grad|_K:  2.517e-07  alpha:  6.212e-01  linmin: -7.206e-06  t[s]:    226.74
	Linear fluid (dielectric constant: 64) occupying 0.994587 of unit cell:	Completed after 0 iterations at t[s]:    227.11
	Linear fluid (dielectric constant: 64) occupying 0.994587 of unit cell:	Completed after 0 iterations at t[s]:    227.66
ElecMinimize: Iter:  20  Etot: -136.682763166074267  |grad|_K:  2.040e-07  alpha:  5.834e-01  linmin: -2.456e-06  t[s]:    227.93
	Linear fluid (dielectric constant: 64) occupying 0.994587 of unit cell:	Completed after 0 iterations at t[s]:    228.30
	Linear fluid (dielectric constant: 64) occupying 0.994587 of unit cell:	Completed after 0 iterations at t[s]:    228.86
ElecMinimize: Iter:  21  Etot: -136.682763221575271  |grad|_K:  1.765e-07  alpha:  5.791e-01  linmin: -6.143e-07  t[s]:    229.11
	Linear fluid (dielectric constant: 64) occupying 0.994587 of unit cell:	Completed after 0 iterations at t[s]:    229.48
	Linear fluid (dielectric constant: 64) occupying 0.994587 of unit cell:	Completed after 0 iterations at t[s]:    230.03
ElecMinimize: Iter:  22  Etot: -136.682763258060163  |grad|_K:  1.252e-07  alpha:  5.084e-01  linmin: -1.934e-06  t[s]:    230.29
	Linear fluid (dielectric constant: 64) occupying 0.994587 of unit cell:	Completed after 0 iterations at t[s]:    230.66
	Linear fluid (dielectric constant: 64) occupying 0.994587 of unit cell:	Completed after 0 iterations at t[s]:    231.21
ElecMinimize: Iter:  23  Etot: -136.682763278320550  |grad|_K:  1.129e-07  alpha:  5.609e-01  linmin: -3.729e-06  t[s]:    231.48
	Linear fluid (dielectric constant: 64) occupying 0.994587 of unit cell:	Completed after 0 iterations at t[s]:    231.85
	Linear fluid (dielectric constant: 64) occupying 0.994587 of unit cell:	Completed after 0 iterations at t[s]:    232.40
ElecMinimize: Iter:  24  Etot: -136.682763296456557  |grad|_K:  9.508e-08  alpha:  6.178e-01  linmin:  6.520e-06  t[s]:    232.67
	Linear fluid (dielectric constant: 64) occupying 0.994587 of unit cell:	Completed after 0 iterations at t[s]:    233.04
	Linear fluid (dielectric constant: 64) occupying 0.994587 of unit cell:	Completed after 0 iterations at t[s]:    233.60
ElecMinimize: Iter:  25  Etot: -136.682763307078233  |grad|_K:  7.264e-08  alpha:  5.102e-01  linmin:  1.074e-06  t[s]:    233.86
	Linear fluid (dielectric constant: 64) occupying 0.994587 of unit cell:	Completed after 0 iterations at t[s]:    234.22
	Linear fluid (dielectric constant: 64) occupying 0.994587 of unit cell:	Completed after 0 iterations at t[s]:    234.77
ElecMinimize: Iter:  26  Etot: -136.682763313969332  |grad|_K:  6.222e-08  alpha:  5.671e-01  linmin:  5.235e-06  t[s]:    235.03
	Linear fluid (dielectric constant: 64) occupying 0.994587 of unit cell:	Completed after 0 iterations at t[s]:    235.40
	Linear fluid (dielectric constant: 64) occupying 0.994587 of unit cell:	Completed after 0 iterations at t[s]:    235.96
ElecMinimize: Iter:  27  Etot: -136.682763319079356  |grad|_K:  5.056e-08  alpha:  5.731e-01  linmin:  8.696e-06  t[s]:    236.21
ElecMinimize: Converged (|Delta Etot|<1.000000e-08 for 2 iters).
Setting wave functions to eigenvectors of Hamiltonian

-------- Electronic minimization -----------
	Linear fluid (dielectric constant: 64) occupying 0.994553 of unit cell:	Completed after 33 iterations at t[s]:    238.40
ElecMinimize: Iter:   0  Etot: -129.938936274405563  |grad|_K:  3.371e-03  alpha:  1.000e+00
	Linear fluid (dielectric constant: 64) occupying 0.994588 of unit cell:	Completed after 37 iterations at t[s]:    241.67
	Linear fluid (dielectric constant: 64) occupying 0.994514 of unit cell:	Completed after 78 iterations at t[s]:    247.79
ElecMinimize: 	Step increased Etot by 3.622379e+00, reducing alpha to 4.183699e-02.
	Linear fluid (dielectric constant: 64) occupying 0.994485 of unit cell:	Completed after 67 iterations at t[s]:    253.18
ElecMinimize: 	Step increased Etot by 2.307041e+01, reducing alpha to 4.183699e-03.
	Linear fluid (dielectric constant: 64) occupying 0.994485 of unit cell:	Completed after 80 iterations at t[s]:    259.47
ElecMinimize: 	Step increased Etot by 2.523759e+01, reducing alpha to 4.183699e-04.
ElecMinimize: 	Step failed to reduce Etot after 3 attempts. Quitting step.
ElecMinimize: 	Undoing step.
	Linear fluid (dielectric constant: 64) occupying 0.994485 of unit cell:	Completed after 12 iterations at t[s]:    260.98
ElecMinimize: 	Step failed along negative gradient direction.
ElecMinimize: Probably at roundoff error limit. (Stopping)
Setting wave functions to eigenvectors of Hamiltonian
IonicMinimize: 	Step increased Etot by 3.199730e+01, reducing alpha to 2.485722e+00.

-------- Electronic minimization -----------
	Linear fluid (dielectric constant: 64) occupying 0.994719 of unit cell:	Completed after 34 iterations at t[s]:    264.30
ElecMinimize: Iter:   0  Etot: -130.314452195127217  |grad|_K:  2.683e-03  alpha:  1.000e+00
	Linear fluid (dielectric constant: 64) occupying 0.994619 of unit cell:	Completed after 30 iterations at t[s]:    267.06
	Linear fluid (dielectric constant: 64) occupying 0.994709 of unit cell:	Completed after 29 iterations at t[s]:    269.68
ElecMinimize: Iter:   1  Etot: -135.446705724390057  |grad|_K:  1.050e-03  alpha:  4.137e-01  linmin: -6.026e-01  t[s]:    270.03
	Linear fluid (dielectric constant: 64) occupying 0.994705 of unit cell:	Completed after 26 iterations at t[s]:    272.18
	Linear fluid (dielectric constant: 64) occupying 0.994710 of unit cell:	Completed after 20 iterations at t[s]:    274.17
ElecMinimize: Iter:   2  Etot: -136.500165339478031  |grad|_K:  3.634e-04  alpha:  3.152e-01  linmin:  4.762e-03  t[s]:    274.52
	Linear fluid (dielectric constant: 64) occupying 0.994695 of unit cell:	Completed after 14 iterations at t[s]:    275.80
	Linear fluid (dielectric constant: 64) occupying 0.994689 of unit cell:	Completed after 11 iterations at t[s]:    277.17
ElecMinimize: Iter:   3  Etot: -136.627367591279693  |grad|_K:  1.656e-04  alpha:  4.189e-01  linmin: -4.257e-03  t[s]:    277.51
	Linear fluid (dielectric constant: 64) occupying 0.994674 of unit cell:	Completed after 17 iterations at t[s]:    279.02
	Linear fluid (dielectric constant: 64) occupying 0.994673 of unit cell:	Completed after 4 iterations at t[s]:    279.94
ElecMinimize: Iter:   4  Etot: -136.655045591959151  |grad|_K:  9.191e-05  alpha:  4.367e-01  linmin: -7.102e-04  t[s]:    280.20
	Linear fluid (dielectric constant: 64) occupying 0.994663 of unit cell:	Completed after 17 iterations at t[s]:    281.70
	Linear fluid (dielectric constant: 64) occupying 0.994661 of unit cell:	Completed after 10 iterations at t[s]:    282.97
ElecMinimize: Iter:   5  Etot: -136.665300893394232  |grad|_K:  6.215e-05  alpha:  5.268e-01  linmin:  2.176e-06  t[s]:    283.32
	Linear fluid (dielectric constant: 64) occupying 0.994659 of unit cell:	Completed after 11 iterations at t[s]:    284.38
	Linear fluid (dielectric constant: 64) occupying 0.994660 of unit cell:	Completed after 0 iterations at t[s]:    285.14
ElecMinimize: Iter:   6  Etot: -136.669961617405846  |grad|_K:  4.045e-05  alpha:  5.239e-01  linmin:  3.068e-04  t[s]:    285.40
	Linear fluid (dielectric constant: 64) occupying 0.994661 of unit cell:	Completed after 11 iterations at t[s]:    286.30
	Linear fluid (dielectric constant: 64) occupying 0.994661 of unit cell:	Completed after 1 iterations at t[s]:    287.11
ElecMinimize: Iter:   7  Etot: -136.672128447062619  |grad|_K:  2.811e-05  alpha:  5.751e-01  linmin: -1.241e-03  t[s]:    287.37
	Linear fluid (dielectric constant: 64) occupying 0.994662 of unit cell:	Completed after 10 iterations at t[s]:    288.28
	Linear fluid (dielectric constant: 64) occupying 0.994662 of unit cell:	Completed after 0 iterations at t[s]:    289.02
ElecMinimize: Iter:   8  Etot: -136.673156095454033  |grad|_K:  1.982e-05  alpha:  5.634e-01  linmin: -6.548e-05  t[s]:    289.27
	Linear fluid (dielectric constant: 64) occupying 0.994660 of unit cell:	Completed after 9 iterations at t[s]:    290.10
	Linear fluid (dielectric constant: 64) occupying 0.994660 of unit cell:	Completed after 0 iterations at t[s]:    290.82
ElecMinimize: Iter:   9  Etot: -136.673628216967700  |grad|_K:  1.335e-05  alpha:  5.217e-01  linmin:  2.375e-03  t[s]:    291.09
	Linear fluid (dielectric constant: 64) occupying 0.994657 of unit cell:	Completed after 4 iterations at t[s]:    291.73
	Linear fluid (dielectric constant: 64) occupying 0.994657 of unit cell:	Completed after 0 iterations at t[s]:    292.38
ElecMinimize: Iter:  10  Etot: -136.673868580555705  |grad|_K:  9.165e-06  alpha:  5.872e-01  linmin: -5.146e-03  t[s]:    292.64
	Linear fluid (dielectric constant: 64) occupying 0.994654 of unit cell:	Completed after 5 iterations at t[s]:    293.32
	Linear fluid (dielectric constant: 64) occupying 0.994655 of unit cell:	Completed after 0 iterations at t[s]:    293.97
ElecMinimize: Iter:  11  Etot: -136.673979260730164  |grad|_K:  6.626e-06  alpha:  5.675e-01  linmin: -3.793e-03  t[s]:    294.23
	Linear fluid (dielectric constant: 64) occupying 0.994653 of unit cell:	Completed after 3 iterations at t[s]:    294.84
	Linear fluid (dielectric constant: 64) occupying 0.994653 of unit cell:	Completed after 0 iterations at t[s]:    295.48
ElecMinimize: Iter:  12  Etot: -136.674036909027137  |grad|_K:  5.259e-06  alpha:  5.662e-01  linmin: -5.131e-03  t[s]:    295.74
	Linear fluid (dielectric constant: 64) occupying 0.994653 of unit cell:	Completed after 3 iterations at t[s]:    296.25
	Linear fluid (dielectric constant: 64) occupying 0.994653 of unit cell:	Completed after 0 iterations at t[s]:    296.91
ElecMinimize: Iter:  13  Etot: -136.674077759017962  |grad|_K:  4.268e-06  alpha:  6.335e-01  linmin: -3.981e-03  t[s]:    297.17
	Linear fluid (dielectric constant: 64) occupying 0.994653 of unit cell:	Completed after 3 iterations at t[s]:    297.68
	Linear fluid (dielectric constant: 64) occupying 0.994653 of unit cell:	Completed after 0 iterations at t[s]:    298.33
[...]
ElecMinimize: Iter:   6  Etot: -136.719893706146138  |grad|_K:  6.711e-07  alpha:  1.340e-03
	Linear fluid (dielectric constant: 64) occupying 0.994186 of unit cell:	Completed after 2 iterations at t[s]:   2458.53
	Linear fluid (dielectric constant: 64) occupying 0.994186 of unit cell:	Completed after 0 iterations at t[s]:   2459.16
ElecMinimize: Iter:   7  Etot: -136.719894010859093  |grad|_K:  3.813e-07  alpha:  2.549e-01  linmin:  5.426e-01  t[s]:   2459.42
	Linear fluid (dielectric constant: 64) occupying 0.994186 of unit cell:	Completed after 0 iterations at t[s]:   2459.79
ElecMinimize: 	Predicted alpha/alphaT>3.000000, increasing alphaT to 7.646890e-01.
	Linear fluid (dielectric constant: 64) occupying 0.994186 of unit cell:	Completed after 0 iterations at t[s]:   2460.37
	Linear fluid (dielectric constant: 64) occupying 0.994186 of unit cell:	Completed after 0 iterations at t[s]:   2460.95
ElecMinimize: 	Step increased Etot by 7.173546e-08, reducing alpha to 3.383857e-02.
	Linear fluid (dielectric constant: 64) occupying 0.994186 of unit cell:	Completed after 0 iterations at t[s]:   2461.57
ElecMinimize: 	Step increased Etot by 1.297810e-07, reducing alpha to 3.383857e-03.
	Linear fluid (dielectric constant: 64) occupying 0.994186 of unit cell:	Completed after 0 iterations at t[s]:   2462.19
ElecMinimize: 	Step increased Etot by 1.369080e-07, reducing alpha to 3.383857e-04.
ElecMinimize: 	Step failed to reduce Etot after 3 attempts. Quitting step.
ElecMinimize: 	Undoing step.
	Linear fluid (dielectric constant: 64) occupying 0.994186 of unit cell:	Completed after 0 iterations at t[s]:   2462.81
ElecMinimize: 	Step failed: resetting search direction.
ElecMinimize: Iter:   8  Etot: -136.719893873870774  |grad|_K:  3.025e-07  alpha:  3.384e-04
	Linear fluid (dielectric constant: 64) occupying 0.994186 of unit cell:	Completed after 0 iterations at t[s]:   2463.43
	Linear fluid (dielectric constant: 64) occupying 0.994186 of unit cell:	Completed after 0 iterations at t[s]:   2463.98
ElecMinimize: Iter:   9  Etot: -136.719893988196134  |grad|_K:  1.321e-07  alpha:  5.425e-01  linmin:  7.186e-05  t[s]:   2464.24
	Linear fluid (dielectric constant: 64) occupying 0.994186 of unit cell:	Completed after 0 iterations at t[s]:   2464.65
	Linear fluid (dielectric constant: 64) occupying 0.994186 of unit cell:	Completed after 0 iterations at t[s]:   2465.23
ElecMinimize: 	Step increased Etot by 7.372438e-08, reducing alpha to 1.208516e-02.
	Linear fluid (dielectric constant: 64) occupying 0.994186 of unit cell:	Completed after 0 iterations at t[s]:   2465.85
ElecMinimize: 	Step increased Etot by 8.028766e-08, reducing alpha to 1.208516e-03.
	Linear fluid (dielectric constant: 64) occupying 0.994186 of unit cell:	Completed after 0 iterations at t[s]:   2466.47
ElecMinimize: 	Step increased Etot by 8.097902e-08, reducing alpha to 1.208516e-04.
ElecMinimize: 	Step failed to reduce Etot after 3 attempts. Quitting step.
ElecMinimize: 	Undoing step.
	Linear fluid (dielectric constant: 64) occupying 0.994186 of unit cell:	Completed after 0 iterations at t[s]:   2467.09
ElecMinimize: 	Step failed: resetting search direction.
ElecMinimize: Iter:  10  Etot: -136.719893907209496  |grad|_K:  1.296e-07  alpha:  1.209e-04
	Linear fluid (dielectric constant: 64) occupying 0.994186 of unit cell:	Completed after 0 iterations at t[s]:   2467.71
	Linear fluid (dielectric constant: 64) occupying 0.994186 of unit cell:	Completed after 0 iterations at t[s]:   2468.26
ElecMinimize: Iter:  11  Etot: -136.719893932509535  |grad|_K:  8.904e-08  alpha:  6.538e-01  linmin:  1.608e-05  t[s]:   2468.51
	Linear fluid (dielectric constant: 64) occupying 0.994186 of unit cell:	Completed after 0 iterations at t[s]:   2468.88
ElecMinimize: 	Predicted alpha/alphaT>3.000000, increasing alphaT to 1.961545e+00.
	Linear fluid (dielectric constant: 64) occupying 0.994185 of unit cell:	Completed after 0 iterations at t[s]:   2469.44
	Linear fluid (dielectric constant: 64) occupying 0.994185 of unit cell:	Completed after 0 iterations at t[s]:   2469.99
ElecMinimize: Iter:  12  Etot: -136.719893969491181  |grad|_K:  6.105e-08  alpha:  2.025e+00  linmin:  5.542e-04  t[s]:   2470.24
	Linear fluid (dielectric constant: 64) occupying 0.994185 of unit cell:	Completed after 0 iterations at t[s]:   2470.61
	Linear fluid (dielectric constant: 64) occupying 0.994185 of unit cell:	Completed after 0 iterations at t[s]:   2471.16
ElecMinimize: Iter:  13  Etot: -136.719893975944160  |grad|_K:  6.133e-08  alpha:  7.522e-01  linmin: -3.905e-08  t[s]:   2471.42
	Linear fluid (dielectric constant: 64) occupying 0.994185 of unit cell:	Completed after 0 iterations at t[s]:   2471.79
	Linear fluid (dielectric constant: 64) occupying 0.994185 of unit cell:	Completed after 0 iterations at t[s]:   2472.34
ElecMinimize: Iter:  14  Etot: -136.719893988332387  |grad|_K:  6.325e-08  alpha:  1.430e+00  linmin: -7.659e-06  t[s]:   2472.60
	Linear fluid (dielectric constant: 64) occupying 0.994185 of unit cell:	Completed after 0 iterations at t[s]:   2472.96
	Linear fluid (dielectric constant: 64) occupying 0.994185 of unit cell:	Completed after 0 iterations at t[s]:   2473.52
ElecMinimize: Iter:  15  Etot: -136.719893996790518  |grad|_K:  3.701e-08  alpha:  9.179e-01  linmin:  3.845e-07  t[s]:   2473.77
	Linear fluid (dielectric constant: 64) occupying 0.994185 of unit cell:	Completed after 0 iterations at t[s]:   2474.14
	Linear fluid (dielectric constant: 64) occupying 0.994185 of unit cell:	Completed after 0 iterations at t[s]:   2474.69
ElecMinimize: Iter:  16  Etot: -136.719893999703061  |grad|_K:  1.977e-08  alpha:  9.233e-01  linmin:  1.837e-05  t[s]:   2474.94
ElecMinimize: Converged (|Delta Etot|<1.000000e-08 for 2 iters).
Setting wave functions to eigenvectors of Hamiltonian

-------- Electronic minimization -----------
	Linear fluid (dielectric constant: 64) occupying 0.994185 of unit cell:	Completed after 2 iterations at t[s]:   2475.47
ElecMinimize: Iter:   0  Etot: -136.719894062232981  |grad|_K:  6.835e-07  alpha:  1.000e+00
	Linear fluid (dielectric constant: 64) occupying 0.994186 of unit cell:	Completed after 3 iterations at t[s]:   2476.30
	Linear fluid (dielectric constant: 64) occupying 0.994186 of unit cell:	Completed after 2 iterations at t[s]:   2477.06
ElecMinimize: Iter:   1  Etot: -136.719894434929301  |grad|_K:  3.466e-07  alpha:  2.895e-01  linmin:  2.828e-01  t[s]:   2477.31
	Linear fluid (dielectric constant: 64) occupying 0.994186 of unit cell:	Completed after 0 iterations at t[s]:   2477.74
	Linear fluid (dielectric constant: 64) occupying 0.994186 of unit cell:	Completed after 0 iterations at t[s]:   2478.30
ElecMinimize: Iter:   2  Etot: -136.719894603664216  |grad|_K:  1.315e-07  alpha:  8.304e-01  linmin: -9.293e-05  t[s]:   2478.55
	Linear fluid (dielectric constant: 64) occupying 0.994186 of unit cell:	Completed after 0 iterations at t[s]:   2478.92
	Linear fluid (dielectric constant: 64) occupying 0.994186 of unit cell:	Completed after 0 iterations at t[s]:   2479.47
ElecMinimize: Iter:   3  Etot: -136.719894648801073  |grad|_K:  1.116e-07  alpha:  1.133e+00  linmin:  1.347e-05  t[s]:   2479.73
	Linear fluid (dielectric constant: 64) occupying 0.994186 of unit cell:	Completed after 0 iterations at t[s]:   2480.10
	Linear fluid (dielectric constant: 64) occupying 0.994186 of unit cell:	Completed after 0 iterations at t[s]:   2480.65
ElecMinimize: Iter:   4  Etot: -136.719894689995328  |grad|_K:  8.683e-08  alpha:  1.436e+00  linmin:  6.133e-05  t[s]:   2480.90
	Linear fluid (dielectric constant: 64) occupying 0.994186 of unit cell:	Completed after 0 iterations at t[s]:   2481.27
	Linear fluid (dielectric constant: 64) occupying 0.994186 of unit cell:	Completed after 0 iterations at t[s]:   2481.82
ElecMinimize: Iter:   5  Etot: -136.719894703482623  |grad|_K:  6.045e-08  alpha:  7.768e-01  linmin: -3.272e-06  t[s]:   2482.08
	Linear fluid (dielectric constant: 64) occupying 0.994186 of unit cell:	Completed after 0 iterations at t[s]:   2482.45
	Linear fluid (dielectric constant: 64) occupying 0.994186 of unit cell:	Completed after 0 iterations at t[s]:   2483.00
ElecMinimize: Iter:   6  Etot: -136.719894712530589  |grad|_K:  5.388e-08  alpha:  1.075e+00  linmin: -7.096e-06  t[s]:   2483.25
	Linear fluid (dielectric constant: 64) occupying 0.994186 of unit cell:	Completed after 0 iterations at t[s]:   2483.62
	Linear fluid (dielectric constant: 64) occupying 0.994186 of unit cell:	Completed after 0 iterations at t[s]:   2484.17
ElecMinimize: Iter:   7  Etot: -136.719894717933073  |grad|_K:  3.666e-08  alpha:  8.081e-01  linmin: -2.328e-06  t[s]:   2484.43
ElecMinimize: Converged (|Delta Etot|<1.000000e-08 for 2 iters).
Setting wave functions to eigenvectors of Hamiltonian
IonicMinimize: 	Step increased Etot by 3.725868e-07, reducing alpha to 3.785037e-02.

-------- Electronic minimization -----------
	Linear fluid (dielectric constant: 64) occupying 0.994186 of unit cell:	Completed after 3 iterations at t[s]:   2485.28
ElecMinimize: Iter:   0  Etot: -136.719894539940412  |grad|_K:  5.636e-07  alpha:  1.000e+00
	Linear fluid (dielectric constant: 64) occupying 0.994186 of unit cell:	Completed after 2 iterations at t[s]:   2486.11
	Linear fluid (dielectric constant: 64) occupying 0.994186 of unit cell:	Completed after 0 iterations at t[s]:   2486.74
ElecMinimize: Iter:   1  Etot: -136.719895177400247  |grad|_K:  6.614e-07  alpha:  3.158e-01  linmin:  4.597e-01  t[s]:   2487.00
	Linear fluid (dielectric constant: 64) occupying 0.994186 of unit cell:	Completed after 0 iterations at t[s]:   2487.37
	Linear fluid (dielectric constant: 64) occupying 0.994186 of unit cell:	Completed after 0 iterations at t[s]:   2487.92
ElecMinimize: Iter:   2  Etot: -136.719895177512598  |grad|_K:  6.603e-07  alpha:  2.163e-02  linmin:  3.271e-07  t[s]:   2488.18
	Linear fluid (dielectric constant: 64) occupying 0.994186 of unit cell:	Completed after 0 iterations at t[s]:   2488.58
	Linear fluid (dielectric constant: 64) occupying 0.994186 of unit cell:	Completed after 0 iterations at t[s]:   2489.16
ElecMinimize: 	Step increased Etot by 1.266390e-07, reducing alpha to 3.429636e-04.
	Linear fluid (dielectric constant: 64) occupying 0.994186 of unit cell:	Completed after 0 iterations at t[s]:   2489.78
ElecMinimize: 	Step increased Etot by 1.324059e-07, reducing alpha to 3.429636e-05.
	Linear fluid (dielectric constant: 64) occupying 0.994186 of unit cell:	Completed after 0 iterations at t[s]:   2490.40
ElecMinimize: 	Step increased Etot by 1.329849e-07, reducing alpha to 3.429636e-06.
ElecMinimize: 	Step failed to reduce Etot after 3 attempts. Quitting step.
ElecMinimize: 	Undoing step.
	Linear fluid (dielectric constant: 64) occupying 0.994186 of unit cell:	Completed after 0 iterations at t[s]:   2491.02
ElecMinimize: 	Step failed: resetting search direction.
ElecMinimize: Iter:   3  Etot: -136.719895044521195  |grad|_K:  6.083e-07  alpha:  3.430e-06
	Linear fluid (dielectric constant: 64) occupying 0.994186 of unit cell:	Completed after 0 iterations at t[s]:   2491.64
ElecMinimize: 	Predicted alpha/alphaT>3.000000, increasing alphaT to 6.488553e-02.
	Linear fluid (dielectric constant: 64) occupying 0.994186 of unit cell:	Completed after 0 iterations at t[s]:   2492.19
ElecMinimize: 	Predicted alpha/alphaT>3.000000, increasing alphaT to 1.946566e-01.
	Linear fluid (dielectric constant: 64) occupying 0.994186 of unit cell:	Completed after 0 iterations at t[s]:   2492.77
	Linear fluid (dielectric constant: 64) occupying 0.994186 of unit cell:	Completed after 0 iterations at t[s]:   2493.35
ElecMinimize: Iter:   4  Etot: -136.719895193140900  |grad|_K:  3.473e-07  alpha:  1.852e-01  linmin: -6.273e-01  t[s]:   2493.61
	Linear fluid (dielectric constant: 64) occupying 0.994186 of unit cell:	Completed after 0 iterations at t[s]:   2493.98
	Linear fluid (dielectric constant: 64) occupying 0.994186 of unit cell:	Completed after 2 iterations at t[s]:   2494.64
ElecMinimize: 	Step increased Etot by 1.088232e-06, reducing alpha to 3.660057e-02.
	Linear fluid (dielectric constant: 64) occupying 0.994186 of unit cell:	Completed after 0 iterations at t[s]:   2495.32
ElecMinimize: 	Step increased Etot by 4.197587e-07, reducing alpha to 3.660057e-03.
	Linear fluid (dielectric constant: 64) occupying 0.994186 of unit cell:	Completed after 0 iterations at t[s]:   2495.94
ElecMinimize: 	Step increased Etot by 3.670343e-07, reducing alpha to 3.660057e-04.
ElecMinimize: 	Step failed to reduce Etot after 3 attempts. Quitting step.
ElecMinimize: 	Undoing step.
	Linear fluid (dielectric constant: 64) occupying 0.994186 of unit cell:	Completed after 0 iterations at t[s]:   2496.56
ElecMinimize: 	Step failed: resetting search direction.
ElecMinimize: Iter:   5  Etot: -136.719894826678029  |grad|_K:  6.809e-07  alpha:  3.660e-04
	Linear fluid (dielectric constant: 64) occupying 0.994186 of unit cell:	Completed after 0 iterations at t[s]:   2497.18
ElecMinimize: 	Predicted alpha/alphaT>3.000000, increasing alphaT to 5.557139e-01.
	Linear fluid (dielectric constant: 64) occupying 0.994186 of unit cell:	Completed after 2 iterations at t[s]:   2497.84
	Linear fluid (dielectric constant: 64) occupying 0.994186 of unit cell:	Completed after 0 iterations at t[s]:   2498.48
ElecMinimize: Iter:   6  Etot: -136.719894966159131  |grad|_K:  4.714e-07  alpha:  1.863e-01  linmin:  4.960e-01  t[s]:   2498.73
	Linear fluid (dielectric constant: 64) occupying 0.994186 of unit cell:	Completed after 0 iterations at t[s]:   2499.10
ElecMinimize: 	Predicted alpha/alphaT>3.000000, increasing alphaT to 5.587530e-01.
	Linear fluid (dielectric constant: 64) occupying 0.994186 of unit cell:	Completed after 0 iterations at t[s]:   2499.65
	Linear fluid (dielectric constant: 64) occupying 0.994186 of unit cell:	Completed after 0 iterations at t[s]:   2500.20
ElecMinimize: Iter:   7  Etot: -136.719895171097420  |grad|_K:  2.050e-07  alpha:  1.079e+00  linmin: -2.381e-05  t[s]:   2500.46
	Linear fluid (dielectric constant: 64) occupying 0.994186 of unit cell:	Completed after 1 iterations at t[s]:   2500.90
	Linear fluid (dielectric constant: 64) occupying 0.994186 of unit cell:	Completed after 0 iterations at t[s]:   2501.54
ElecMinimize: 	Step increased Etot by 4.847892e-07, reducing alpha to 1.421500e-02.
	Linear fluid (dielectric constant: 64) occupying 0.994186 of unit cell:	Completed after 0 iterations at t[s]:   2502.17
ElecMinimize: 	Step increased Etot by 4.698309e-07, reducing alpha to 1.421500e-03.
	Linear fluid (dielectric constant: 64) occupying 0.994186 of unit cell:	Completed after 0 iterations at t[s]:   2502.79
ElecMinimize: 	Step increased Etot by 4.684830e-07, reducing alpha to 1.421500e-04.
ElecMinimize: 	Step failed to reduce Etot after 3 attempts. Quitting step.
ElecMinimize: 	Undoing step.
	Linear fluid (dielectric constant: 64) occupying 0.994186 of unit cell:	Completed after 0 iterations at t[s]:   2503.40
ElecMinimize: 	Step failed: resetting search direction.
ElecMinimize: Iter:   8  Etot: -136.719894702629148  |grad|_K:  3.678e-07  alpha:  1.422e-04
	Linear fluid (dielectric constant: 64) occupying 0.994186 of unit cell:	Completed after 0 iterations at t[s]:   2504.03
	Linear fluid (dielectric constant: 64) occupying 0.994186 of unit cell:	Completed after 0 iterations at t[s]:   2504.58
ElecMinimize: Iter:   9  Etot: -136.719894848913498  |grad|_K:  9.811e-08  alpha:  4.696e-01  linmin:  2.551e-05  t[s]:   2504.83
	Linear fluid (dielectric constant: 64) occupying 0.994186 of unit cell:	Completed after 0 iterations at t[s]:   2505.20
	Linear fluid (dielectric constant: 64) occupying 0.994186 of unit cell:	Completed after 0 iterations at t[s]:   2505.75
ElecMinimize: Iter:  10  Etot: -136.719894872280804  |grad|_K:  6.238e-08  alpha:  1.054e+00  linmin: -3.084e-04  t[s]:   2506.01
	Linear fluid (dielectric constant: 64) occupying 0.994186 of unit cell:	Completed after 0 iterations at t[s]:   2506.38
	Linear fluid (dielectric constant: 64) occupying 0.994186 of unit cell:	Completed after 0 iterations at t[s]:   2506.93
ElecMinimize: Iter:  11  Etot: -136.719894881465763  |grad|_K:  3.979e-08  alpha:  1.024e+00  linmin: -1.021e-04  t[s]:   2507.19
	Linear fluid (dielectric constant: 64) occupying 0.994186 of unit cell:	Completed after 0 iterations at t[s]:   2507.56
	Linear fluid (dielectric constant: 64) occupying 0.994186 of unit cell:	Completed after 0 iterations at t[s]:   2508.11
ElecMinimize: Iter:  12  Etot: -136.719894884704075  |grad|_K:  3.318e-08  alpha:  8.880e-01  linmin: -1.315e-06  t[s]:   2508.36
ElecMinimize: Converged (|Delta Etot|<1.000000e-08 for 2 iters).
Setting wave functions to eigenvectors of Hamiltonian
IonicMinimize: 	Step increased Etot by 2.058158e-07, reducing alpha to 3.785037e-03.

-------- Electronic minimization -----------
	Linear fluid (dielectric constant: 64) occupying 0.994186 of unit cell:	Completed after 0 iterations at t[s]:   2509.06
ElecMinimize: Iter:   0  Etot: -136.719895012854408  |grad|_K:  8.434e-08  alpha:  1.000e+00
	Linear fluid (dielectric constant: 64) occupying 0.994186 of unit cell:	Completed after 0 iterations at t[s]:   2509.69
	Linear fluid (dielectric constant: 64) occupying 0.994186 of unit cell:	Completed after 0 iterations at t[s]:   2510.24
ElecMinimize: Iter:   1  Etot: -136.719895033168939  |grad|_K:  7.370e-08  alpha:  1.240e+00  linmin:  3.502e-06  t[s]:   2510.50
	Linear fluid (dielectric constant: 64) occupying 0.994186 of unit cell:	Completed after 0 iterations at t[s]:   2510.86
	Linear fluid (dielectric constant: 64) occupying 0.994186 of unit cell:	Completed after 0 iterations at t[s]:   2511.41
ElecMinimize: Iter:   2  Etot: -136.719895040798406  |grad|_K:  3.596e-08  alpha:  6.098e-01  linmin: -2.157e-06  t[s]:   2511.67
	Linear fluid (dielectric constant: 64) occupying 0.994186 of unit cell:	Completed after 0 iterations at t[s]:   2512.04
	Linear fluid (dielectric constant: 64) occupying 0.994186 of unit cell:	Completed after 0 iterations at t[s]:   2512.59
ElecMinimize: Iter:   3  Etot: -136.719895043537747  |grad|_K:  2.745e-08  alpha:  9.198e-01  linmin: -1.080e-04  t[s]:   2512.84
ElecMinimize: Converged (|Delta Etot|<1.000000e-08 for 2 iters).
Setting wave functions to eigenvectors of Hamiltonian
IonicMinimize: 	Step increased Etot by 4.698211e-08, reducing alpha to 3.785037e-04.
IonicMinimize: 	Step failed to reduce Etot after 3 attempts. Quitting step.
IonicMinimize: 	Undoing step.

-------- Electronic minimization -----------
	Linear fluid (dielectric constant: 64) occupying 0.994186 of unit cell:	Completed after 0 iterations at t[s]:   2513.55
ElecMinimize: Iter:   0  Etot: -136.719895046664192  |grad|_K:  2.743e-08  alpha:  1.000e+00
	Linear fluid (dielectric constant: 64) occupying 0.994186 of unit cell:	Completed after 0 iterations at t[s]:   2514.17
	Linear fluid (dielectric constant: 64) occupying 0.994186 of unit cell:	Completed after 0 iterations at t[s]:   2514.72
ElecMinimize: Iter:   1  Etot: -136.719895047603842  |grad|_K:  1.938e-08  alpha:  5.424e-01  linmin:  4.140e-05  t[s]:   2514.98
	Linear fluid (dielectric constant: 64) occupying 0.994186 of unit cell:	Completed after 0 iterations at t[s]:   2515.35
	Linear fluid (dielectric constant: 64) occupying 0.994186 of unit cell:	Completed after 0 iterations at t[s]:   2515.90
ElecMinimize: Iter:   2  Etot: -136.719895048619890  |grad|_K:  2.036e-08  alpha:  1.173e+00  linmin: -1.906e-04  t[s]:   2516.15
ElecMinimize: Converged (|Delta Etot|<1.000000e-08 for 2 iters).
Setting wave functions to eigenvectors of Hamiltonian
IonicMinimize: 	Step failed along negative gradient direction.
IonicMinimize: Probably at roundoff error limit. (Stopping)

Dumping 'Na2S4-PC.wfns' ... done
Dumping 'Na2S4-PC.fluidState' ... done
Dumping 'Na2S4-PC.ionpos' ... done
End date and time: Mon Dec 23 13:43:55 2024  (Duration: 0-0:41:57.22)
Done!
