
*************** JDFTx 1.7.0  ***************

Start date and time: Mon Dec 23 12:33:19 2024
Executable jdftx_gpu with command-line: -i /home/akim2/JDFTx/Na2S2-PC/Na2S2-PC.in -o /home/akim2/JDFTx/Na2S2-PC/Na2S2-PC.out
Running on hosts (process indices):  exp-1-60 (0)
Divided in process groups (process indices):  0 (0)
gpuInit: Found compatible cuda device 0 'Tesla V100-SXM2-32GB'
gpuInit: Selected device 0
Resource initialization completed at t[s]:      0.38
Run totals: 1 processes, 1 threads, 1 GPUs


Input parsed successfully to the following command list (including defaults):

basis kpoint-dependent
coords-type Cartesian
core-overlap-check vector
coulomb-interaction Isolated
coulomb-truncation-embed 9.40288 12.4301 27.2635
davidson-band-ratio 1.1
dump End State
dump-name Na2S2-PC.$VAR
elec-cutoff 20 100
elec-eigen-algo Davidson
elec-ex-corr gga-PBE
electronic-minimize  \
	dirUpdateScheme      FletcherReeves \
	linminMethod         DirUpdateRecommended \
	nIterations          100 \
	history              15 \
	knormThreshold       0 \
	energyDiffThreshold  1e-08 \
	nEnergyDiff          2 \
	alphaTstart          1 \
	alphaTmin            1e-10 \
	updateTestStepSize   yes \
	alphaTreduceFactor   0.1 \
	alphaTincreaseFactor 3 \
	nAlphaAdjustMax      3 \
	wolfeEnergy          0.0001 \
	wolfeGradient        0.9 \
	fdTest               no
exchange-regularization None
fluid LinearPCM 298.000000 1.013250
fluid-ex-corr lda-TF lda-PZ
fluid-gummel-loop 10 1.000000e-05
fluid-minimize  \
	dirUpdateScheme      PolakRibiere \
	linminMethod         DirUpdateRecommended \
	nIterations          400 \
	history              15 \
	knormThreshold       1e-11 \
	energyDiffThreshold  0 \
	nEnergyDiff          2 \
	alphaTstart          1 \
	alphaTmin            1e-10 \
	updateTestStepSize   yes \
	alphaTreduceFactor   0.1 \
	alphaTincreaseFactor 3 \
	nAlphaAdjustMax      6 \
	wolfeEnergy          0.0001 \
	wolfeGradient        0.9 \
	fdTest               no
fluid-solvent PC 11.6429 ScalarEOS \
	epsBulk 64 \
	pMol 2.95 \
	epsInf 2.02 \
	Pvap 1.53277e-13 \
	sigmaBulk 2.88e-05 \
	Rvdw 0 \
	Res 0 \
	tauNuc 343133
forces-output-coords Positions
ion S   9.402875070209999  12.430078910730000  27.263527773840000 1
ion S   5.921463285810000  10.087698104369998  27.341467797959996 1
ion Na   9.852901041599997   7.943043527369999  25.470895880699999 1
ion Na   5.365079530559999  14.615699054669998  25.686786194819998 1
ion-species GBRV/$ID_pbe.uspp
ion-width Ecut
ionic-minimize  \
	dirUpdateScheme      FletcherReeves \
	linminMethod         DirUpdateRecommended \
	nIterations          200 \
	history              15 \
	knormThreshold       0.0001 \
	energyDiffThreshold  1e-06 \
	nEnergyDiff          2 \
	alphaTstart          1 \
	alphaTmin            1e-10 \
	updateTestStepSize   yes \
	alphaTreduceFactor   0.1 \
	alphaTincreaseFactor 3 \
	nAlphaAdjustMax      3 \
	wolfeEnergy          0.0001 \
	wolfeGradient        0.9 \
	fdTest               no
kpoint   0.000000000000   0.000000000000   0.000000000000  1.00000000000000
kpoint-folding 1 1 1 
latt-move-scale 1 1 1
latt-scale 1 1 1 
lattice Triclinic 28.0058 28.0058 37.7946 90 90 120
lattice-minimize  \
	dirUpdateScheme      L-BFGS \
	linminMethod         DirUpdateRecommended \
	nIterations          0 \
	history              15 \
	knormThreshold       0 \
	energyDiffThreshold  1e-06 \
	nEnergyDiff          2 \
	alphaTstart          1 \
	alphaTmin            1e-10 \
	updateTestStepSize   yes \
	alphaTreduceFactor   0.1 \
	alphaTincreaseFactor 3 \
	nAlphaAdjustMax      3 \
	wolfeEnergy          0.0001 \
	wolfeGradient        0.9 \
	fdTest               no
lcao-params -1 1e-06 0.001
pcm-variant GLSSA13
spintype no-spin
subspace-rotation-factor 1 yes
symmetries automatic
symmetry-threshold 0.0001



---------- Setting up symmetries ----------

Found 24 point-group symmetries of the bravais lattice
Found 1 space-group symmetries with basis
Applied RMS atom displacement 0 bohrs to make symmetries exact.

---------- Initializing the Grid ----------
R = 
[      28.0058     -14.0029            0  ]
[            0      24.2537            0  ]
[            0            0      37.7946  ]
unit cell volume = 25671.8
G =
[   0.224353    0.12953         -0  ]
[          0   0.259061          0  ]
[          0         -0   0.166246  ]
Minimum fftbox size, Smin = [  128  128  172  ]
Chosen fftbox size, S = [  128  128  180  ]

---------- Initializing tighter grid for wavefunction operations ----------
R = 
[      28.0058     -14.0029            0  ]
[            0      24.2537            0  ]
[            0            0      37.7946  ]
unit cell volume = 25671.8
G =
[   0.224353    0.12953         -0  ]
[          0   0.259061          0  ]
[          0         -0   0.166246  ]
Minimum fftbox size, Smin = [  116  116  156  ]
Chosen fftbox size, S = [  120  120  160  ]

---------- Exchange Correlation functional ----------
Initalized PBE GGA exchange.
Initalized PBE GGA correlation.

---------- Setting up pseudopotentials ----------
Width of ionic core gaussian charges (only for fluid interactions / plotting) set to 0.397384

Reading pseudopotential file '/home/akim2/jdftx_install/build/pseudopotentials/GBRV/s_pbe.uspp':
  Title: S.  Created by USPP 7.3.6 on 1-4-15
  Reference state energy: -11.898476.  6 valence electrons in orbitals:
    |300>  occupation: 2  eigenvalue: -0.634167
    |310>  occupation: 4  eigenvalue: -0.257568
  lMax: 2  lLocal: 3  QijEcut: 6
  6 projectors sampled on a log grid with 635 points:
    l: 0  eig: -0.634161  rCut: 1.5
    l: 0  eig: 1.500000  rCut: 1.5
    l: 1  eig: -0.257567  rCut: 1.5
    l: 1  eig: 1.500000  rCut: 1.5
    l: 2  eig: -1.000000  rCut: 1.5
    l: 2  eig: 1.500000  rCut: 1.5
  Partial core density with radius 1.15
  Transforming core density to a uniform radial grid of dG=0.02 with 1625 points.
  Transforming local potential to a uniform radial grid of dG=0.02 with 1625 points.
  Transforming nonlocal projectors to a uniform radial grid of dG=0.02 with 432 points.
  Transforming density augmentations to a uniform radial grid of dG=0.02 with 1625 points.
  Transforming atomic orbitals to a uniform radial grid of dG=0.02 with 432 points.
  Core radius for overlap checks: 1.50 bohrs.

Reading pseudopotential file '/home/akim2/jdftx_install/build/pseudopotentials/GBRV/na_pbe.uspp':
  Title: Na.  Created by USPP 7.3.6 on 23-9-15
  Reference state energy: -47.625620.  9 valence electrons in orbitals:
    |200>  occupation: 2  eigenvalue: -2.085638
    |210>  occupation: 6  eigenvalue: -1.053708
    |300>  occupation: 1  eigenvalue: -0.100838
  lMax: 2  lLocal: 0  QijEcut: 6
  5 projectors sampled on a log grid with 657 points:
    l: 0  eig: -2.085640  rCut: 1.37
    l: 0  eig: -0.100839  rCut: 1.37
    l: 1  eig: -1.053708  rCut: 1.47
    l: 1  eig: 0.500000  rCut: 1.47
    l: 2  eig: 0.750000  rCut: 2
  Transforming local potential to a uniform radial grid of dG=0.02 with 1625 points.
  Transforming nonlocal projectors to a uniform radial grid of dG=0.02 with 432 points.
  Transforming density augmentations to a uniform radial grid of dG=0.02 with 1625 points.
  Transforming atomic orbitals to a uniform radial grid of dG=0.02 with 432 points.
  Core radius for overlap checks: 2.00 bohrs.

Initialized 2 species with 4 total atoms.

Folded 1 k-points by 1x1x1 to 1 k-points.

---------- Setting up k-points, bands, fillings ----------
No reducable k-points. 
Computing the number of bands and number of electrons
Calculating initial fillings.
nElectrons:  30.000000   nBands: 15   nStates: 1

----- Setting up reduced wavefunction bases (one per k-point) -----
average nbasis = 109673.000 , ideal nbasis = 109671.883

---------- Setting up coulomb interaction ----------
Fluid mode embedding: using embedded box, but periodic Coulomb kernel.
(Fluid response is responsible for (approximate) separation between periodic images.)
Setting up double-sized grid for truncated Coulomb potentials:
R = 
[      56.0116     -28.0058            0  ]
[            0      48.5075            0  ]
[            0            0      75.5892  ]
unit cell volume = 205374
G =
[   0.112177  0.0647651         -0  ]
[          0    0.12953          0  ]
[          0         -0  0.0831228  ]
Chosen fftbox size, S = [  256  256  360  ]
Integer grid location selected as the embedding center:
   Grid: [  76  66  130  ]
   Lattice: [  0.591998  0.512502  0.72136  ]
   Cartesian: [  9.40288  12.4301  27.2635  ]
Constructing Wigner-Seitz cell: 8 faces (6 quadrilaterals, 2 hexagons)
Range-separation parameter for embedded mesh potentials due to point charges: 0.590105 bohrs.

---------- Setting up ewald sum ----------
Optimum gaussian width for ewald sums = 18.681662 bohr.
Real space sum over 1089 unit cells with max indices [  5  5  4  ]
Reciprocal space sum over 2873 terms with max indices [  6  6  8  ]

---------- Allocating electronic variables ----------
Initializing wave functions:  linear combination of atomic orbitals
S pseudo-atom occupations:   s ( 2 )  p ( 4 )
Na pseudo-atom occupations:   s ( 2 1 )  p ( 6 )
	FillingsUpdate:  mu: -0.000443411  nElectrons: 30.000000
LCAOMinimize: Iter:   0  Etot: -115.7661534105568393  |grad|_K:  1.230e-02  alpha:  1.000e+00
	FillingsUpdate:  mu: -0.002888541  nElectrons: 30.000000
LCAOMinimize: Iter:   1  Etot: -115.7702864728458394  |grad|_K:  1.213e-02  alpha:  7.333e-02  linmin: -1.090e-01  cgtest:  9.274e-01  t[s]:      3.79
LCAOMinimize: 	Wrong curvature in test step, increasing alphaT to 2.199864e-01.
	FillingsUpdate:  mu: -0.005609494  nElectrons: 30.000000
LCAOMinimize: Iter:   2  Etot: -115.7745525082539046  |grad|_K:  1.189e-02  alpha: -1.248e+00  linmin: -1.144e-01  cgtest:  9.257e-01  t[s]:      4.08
	FillingsUpdate:  mu: -0.008105406  nElectrons: 30.000000
LCAOMinimize: Iter:   3  Etot: -115.7781888437365865  |grad|_K:  1.163e-02  alpha:  6.556e-02  linmin: -1.193e-01  cgtest:  9.365e-01  t[s]:      4.37
LCAOMinimize: None of the convergence criteria satisfied after 3 iterations.
----- createFluidSolver() ----- (Fluid-side solver setup)
   Initializing fluid molecule 'PC'
     Net charge: 0   dipole magnitude: 0
     Initializing spherical shell mfKernel with radius 0 Bohr
     deltaS corrections:

Correction to mu due to finite nuclear width = -0.000144935
   Cavity determined by nc: 0.00098 and sigma: 0.6
   Effective cavity tension: 9.53e-06 Eh/bohr^2 to account for cavitation and dispersion.


---- Citations for features of the code used in this run ----

   Software package:
      R. Sundararaman, K. Letchworth-Weaver, K.A. Schwarz, D. Gunceler, Y. Ozhabes and T.A. Arias, 'JDFTx: software for joint density-functional theory', SoftwareX 6, 278 (2017)

   gga-PBE exchange-correlation functional:
      J.P. Perdew, K. Burke and M. Ernzerhof, Phys. Rev. Lett. 77, 3865 (1996)

   Pseudopotentials:
      KF Garrity, JW Bennett, KM Rabe and D Vanderbilt, Comput. Mater. Sci. 81, 446 (2014)

   Truncated Coulomb potentials:
      R. Sundararaman and T.A. Arias, Phys. Rev. B 87, 165122 (2013)

   Linear/nonlinear dielectric/ionic fluid model with effective cavity tension:
      D. Gunceler, K. Letchworth-Weaver, R. Sundararaman, K.A. Schwarz and T.A. Arias, Modelling Simul. Mater. Sci. Eng. 21, 074005 (2013)

   Total energy minimization:
      T.A. Arias, M.C. Payne and J.D. Joannopoulos, Phys. Rev. Lett. 69, 1077 (1992)

This list may not be complete. Please suggest additional citations or
report any other bugs at https://github.com/shankar1729/jdftx/issues

Initialization completed successfully at t[s]:      4.38

Fluid solver invoked on fresh (random / LCAO) wavefunctions
Running a vacuum solve first:

-------- Initial electronic minimization -----------
ElecMinimize: Iter:   0  Etot: -115.778188843736586  |grad|_K:  2.688e-04  alpha:  1.000e+00
ElecMinimize: Iter:   1  Etot: -115.887855288137658  |grad|_K:  1.210e-04  alpha:  9.215e-01  linmin:  8.722e-03  t[s]:      4.90
ElecMinimize: Iter:   2  Etot: -115.905836893839378  |grad|_K:  9.741e-05  alpha:  7.499e-01  linmin:  5.825e-04  t[s]:      5.19
ElecMinimize: Iter:   3  Etot: -115.914477933768467  |grad|_K:  6.146e-05  alpha:  5.538e-01  linmin:  2.855e-05  t[s]:      5.49
ElecMinimize: Iter:   4  Etot: -115.917681059401090  |grad|_K:  4.086e-05  alpha:  5.154e-01  linmin:  4.080e-04  t[s]:      5.79
ElecMinimize: Iter:   5  Etot: -115.919757723422521  |grad|_K:  2.759e-05  alpha:  7.568e-01  linmin:  2.297e-04  t[s]:      6.09
ElecMinimize: Iter:   6  Etot: -115.920544841059865  |grad|_K:  2.003e-05  alpha:  6.285e-01  linmin:  1.372e-04  t[s]:      6.38
ElecMinimize: Iter:   7  Etot: -115.921026552026248  |grad|_K:  1.462e-05  alpha:  7.303e-01  linmin:  3.247e-04  t[s]:      6.68
ElecMinimize: Iter:   8  Etot: -115.921329418324206  |grad|_K:  9.125e-06  alpha:  8.617e-01  linmin:  3.148e-04  t[s]:      6.97
ElecMinimize: Iter:   9  Etot: -115.921475570844677  |grad|_K:  6.294e-06  alpha:  1.067e+00  linmin: -1.541e-04  t[s]:      7.27
ElecMinimize: Iter:  10  Etot: -115.921534394506466  |grad|_K:  5.428e-06  alpha:  9.024e-01  linmin: -6.784e-05  t[s]:      7.57
ElecMinimize: Iter:  11  Etot: -115.921560131447563  |grad|_K:  4.272e-06  alpha:  5.309e-01  linmin:  1.383e-06  t[s]:      7.86
ElecMinimize: Iter:  12  Etot: -115.921581550097301  |grad|_K:  2.902e-06  alpha:  7.133e-01  linmin: -8.028e-05  t[s]:      8.17
ElecMinimize: Iter:  13  Etot: -115.921592718883375  |grad|_K:  2.218e-06  alpha:  8.063e-01  linmin: -8.099e-05  t[s]:      8.47
ElecMinimize: Iter:  14  Etot: -115.921599222798008  |grad|_K:  1.593e-06  alpha:  8.036e-01  linmin: -9.236e-05  t[s]:      8.76
ElecMinimize: Iter:  15  Etot: -115.921602603757421  |grad|_K:  1.272e-06  alpha:  8.099e-01  linmin: -4.055e-05  t[s]:      9.07
ElecMinimize: Iter:  16  Etot: -115.921604487276525  |grad|_K:  9.337e-07  alpha:  7.074e-01  linmin: -3.409e-06  t[s]:      9.36
ElecMinimize: Iter:  17  Etot: -115.921605624220462  |grad|_K:  6.970e-07  alpha:  7.928e-01  linmin: -4.367e-06  t[s]:      9.67
ElecMinimize: Iter:  18  Etot: -115.921606339849262  |grad|_K:  5.142e-07  alpha:  8.954e-01  linmin:  1.214e-06  t[s]:      9.96
ElecMinimize: Iter:  19  Etot: -115.921606683638430  |grad|_K:  4.643e-07  alpha:  7.904e-01  linmin:  1.533e-07  t[s]:     10.26
ElecMinimize: Iter:  20  Etot: -115.921606877932732  |grad|_K:  3.316e-07  alpha:  5.480e-01  linmin:  2.326e-07  t[s]:     10.56
ElecMinimize: Iter:  21  Etot: -115.921607004029738  |grad|_K:  2.433e-07  alpha:  6.970e-01  linmin:  2.018e-06  t[s]:     10.86
ElecMinimize: Iter:  22  Etot: -115.921607079504469  |grad|_K:  1.656e-07  alpha:  7.750e-01  linmin:  9.850e-06  t[s]:     11.16
ElecMinimize: Iter:  23  Etot: -115.921607115616453  |grad|_K:  1.283e-07  alpha:  8.008e-01  linmin:  1.354e-06  t[s]:     11.46
ElecMinimize: Iter:  24  Etot: -115.921607134115007  |grad|_K:  8.870e-08  alpha:  6.829e-01  linmin: -1.270e-06  t[s]:     11.75
ElecMinimize: Iter:  25  Etot: -115.921607144900975  |grad|_K:  6.368e-08  alpha:  8.333e-01  linmin:  5.907e-06  t[s]:     12.06
ElecMinimize: Iter:  26  Etot: -115.921607149956529  |grad|_K:  4.334e-08  alpha:  7.577e-01  linmin:  1.092e-05  t[s]:     12.36
ElecMinimize: Iter:  27  Etot: -115.921607152381611  |grad|_K:  3.044e-08  alpha:  7.848e-01  linmin: -1.095e-05  t[s]:     12.65
ElecMinimize: Converged (|Delta Etot|<1.000000e-08 for 2 iters).
Setting wave functions to eigenvectors of Hamiltonian
Vacuum energy after initial minimize, Etot = -115.921607152381611


-------- Electronic minimization -----------
	Linear fluid (dielectric constant: 64) occupying 0.996331 of unit cell:	Completed after 27 iterations at t[s]:     14.32
ElecMinimize: Iter:   0  Etot: -116.053790905198014  |grad|_K:  1.232e-04  alpha:  1.000e+00
	Linear fluid (dielectric constant: 64) occupying 0.996424 of unit cell:	Completed after 24 iterations at t[s]:     16.67
	Linear fluid (dielectric constant: 64) occupying 0.996404 of unit cell:	Completed after 15 iterations at t[s]:     18.29
ElecMinimize: Iter:   1  Etot: -116.074007423169817  |grad|_K:  8.666e-05  alpha:  8.081e-01  linmin:  2.407e-03  t[s]:     18.62
	Linear fluid (dielectric constant: 64) occupying 0.996431 of unit cell:	Completed after 16 iterations at t[s]:     20.04
	Linear fluid (dielectric constant: 64) occupying 0.996425 of unit cell:	Completed after 10 iterations at t[s]:     21.32
ElecMinimize: Iter:   2  Etot: -116.081695634014153  |grad|_K:  6.708e-05  alpha:  6.236e-01  linmin:  3.139e-04  t[s]:     21.66
	Linear fluid (dielectric constant: 64) occupying 0.996423 of unit cell:	Completed after 13 iterations at t[s]:     22.84
	Linear fluid (dielectric constant: 64) occupying 0.996424 of unit cell:	Completed after 5 iterations at t[s]:     23.80
ElecMinimize: Iter:   3  Etot: -116.085783498233141  |grad|_K:  4.222e-05  alpha:  5.525e-01  linmin:  5.264e-04  t[s]:     24.09
	Linear fluid (dielectric constant: 64) occupying 0.996417 of unit cell:	Completed after 13 iterations at t[s]:     25.31
	Linear fluid (dielectric constant: 64) occupying 0.996416 of unit cell:	Completed after 3 iterations at t[s]:     26.17
ElecMinimize: Iter:   4  Etot: -116.087520441136220  |grad|_K:  2.726e-05  alpha:  5.927e-01  linmin: -1.556e-03  t[s]:     26.41
	Linear fluid (dielectric constant: 64) occupying 0.996414 of unit cell:	Completed after 8 iterations at t[s]:     27.27
	Linear fluid (dielectric constant: 64) occupying 0.996413 of unit cell:	Completed after 5 iterations at t[s]:     28.22
ElecMinimize: Iter:   5  Etot: -116.088404209315229  |grad|_K:  1.911e-05  alpha:  7.226e-01  linmin:  2.656e-03  t[s]:     28.48
	Linear fluid (dielectric constant: 64) occupying 0.996410 of unit cell:	Completed after 9 iterations at t[s]:     29.41
	Linear fluid (dielectric constant: 64) occupying 0.996411 of unit cell:	Completed after 3 iterations at t[s]:     30.29
ElecMinimize: Iter:   6  Etot: -116.088758820611488  |grad|_K:  1.317e-05  alpha:  5.940e-01  linmin:  5.105e-05  t[s]:     30.53
	Linear fluid (dielectric constant: 64) occupying 0.996409 of unit cell:	Completed after 4 iterations at t[s]:     31.17
	Linear fluid (dielectric constant: 64) occupying 0.996408 of unit cell:	Completed after 1 iterations at t[s]:     31.90
ElecMinimize: Iter:   7  Etot: -116.088984221567117  |grad|_K:  7.901e-06  alpha:  7.887e-01  linmin: -5.665e-03  t[s]:     32.13
	Linear fluid (dielectric constant: 64) occupying 0.996409 of unit cell:	Completed after 4 iterations at t[s]:     32.77
	Linear fluid (dielectric constant: 64) occupying 0.996409 of unit cell:	Completed after 0 iterations at t[s]:     33.41
ElecMinimize: Iter:   8  Etot: -116.089076794677311  |grad|_K:  6.201e-06  alpha:  8.939e-01  linmin: -6.411e-03  t[s]:     33.66
	Linear fluid (dielectric constant: 64) occupying 0.996408 of unit cell:	Completed after 3 iterations at t[s]:     34.26
	Linear fluid (dielectric constant: 64) occupying 0.996408 of unit cell:	Completed after 3 iterations at t[s]:     35.05
ElecMinimize: Iter:   9  Etot: -116.089111241195866  |grad|_K:  4.495e-06  alpha:  5.358e-01  linmin:  3.942e-03  t[s]:     35.28
	Linear fluid (dielectric constant: 64) occupying 0.996408 of unit cell:	Completed after 3 iterations at t[s]:     35.88
	Linear fluid (dielectric constant: 64) occupying 0.996408 of unit cell:	Completed after 0 iterations at t[s]:     36.52
ElecMinimize: Iter:  10  Etot: -116.089134508457363  |grad|_K:  2.895e-06  alpha:  6.973e-01  linmin: -2.699e-02  t[s]:     36.77
	Linear fluid (dielectric constant: 64) occupying 0.996408 of unit cell:	Completed after 1 iterations at t[s]:     37.28
	Linear fluid (dielectric constant: 64) occupying 0.996408 of unit cell:	Completed after 0 iterations at t[s]:     37.88
ElecMinimize: Iter:  11  Etot: -116.089145782232237  |grad|_K:  2.095e-06  alpha:  7.829e-01  linmin: -1.916e-02  t[s]:     38.12
	Linear fluid (dielectric constant: 64) occupying 0.996408 of unit cell:	Completed after 0 iterations at t[s]:     38.48
	Linear fluid (dielectric constant: 64) occupying 0.996408 of unit cell:	Completed after 0 iterations at t[s]:     39.03
ElecMinimize: Iter:  12  Etot: -116.089151848691429  |grad|_K:  1.608e-06  alpha:  8.162e-01  linmin:  1.825e-06  t[s]:     39.27
	Linear fluid (dielectric constant: 64) occupying 0.996409 of unit cell:	Completed after 2 iterations at t[s]:     39.74
	Linear fluid (dielectric constant: 64) occupying 0.996408 of unit cell:	Completed after 0 iterations at t[s]:     40.37
ElecMinimize: Iter:  13  Etot: -116.089154609813761  |grad|_K:  1.249e-06  alpha:  6.935e-01  linmin: -9.232e-02  t[s]:     40.61
	Linear fluid (dielectric constant: 64) occupying 0.996408 of unit cell:	Completed after 0 iterations at t[s]:     40.96
	Linear fluid (dielectric constant: 64) occupying 0.996408 of unit cell:	Completed after 0 iterations at t[s]:     41.51
ElecMinimize: Iter:  14  Etot: -116.089156564950628  |grad|_K:  1.049e-06  alpha:  6.567e-01  linmin:  7.241e-06  t[s]:     41.75
	Linear fluid (dielectric constant: 64) occupying 0.996408 of unit cell:	Completed after 0 iterations at t[s]:     42.10
	Linear fluid (dielectric constant: 64) occupying 0.996408 of unit cell:	Completed after 0 iterations at t[s]:     42.65
ElecMinimize: Iter:  15  Etot: -116.089158125002029  |grad|_K:  9.247e-07  alpha:  8.620e-01  linmin:  5.659e-07  t[s]:     42.90
	Linear fluid (dielectric constant: 64) occupying 0.996408 of unit cell:	Completed after 1 iterations at t[s]:     43.33
	Linear fluid (dielectric constant: 64) occupying 0.996408 of unit cell:	Completed after 0 iterations at t[s]:     43.93
ElecMinimize: Iter:  16  Etot: -116.089158516622575  |grad|_K:  7.648e-07  alpha:  4.650e-01  linmin: -5.334e-02  t[s]:     44.17
	Linear fluid (dielectric constant: 64) occupying 0.996408 of unit cell:	Completed after 0 iterations at t[s]:     44.52
	Linear fluid (dielectric constant: 64) occupying 0.996408 of unit cell:	Completed after 0 iterations at t[s]:     45.07
ElecMinimize: Iter:  17  Etot: -116.089159141283901  |grad|_K:  7.072e-07  alpha:  5.803e-01  linmin: -1.729e-05  t[s]:     45.31
	Linear fluid (dielectric constant: 64) occupying 0.996408 of unit cell:	Completed after 1 iterations at t[s]:     45.74
	Linear fluid (dielectric constant: 64) occupying 0.996408 of unit cell:	Completed after 0 iterations at t[s]:     46.34
ElecMinimize: Iter:  18  Etot: -116.089159231104460  |grad|_K:  5.886e-07  alpha:  3.153e-01  linmin: -8.354e-02  t[s]:     46.58
	Linear fluid (dielectric constant: 64) occupying 0.996408 of unit cell:	Completed after 0 iterations at t[s]:     46.95
	Linear fluid (dielectric constant: 64) occupying 0.996408 of unit cell:	Completed after 0 iterations at t[s]:     47.49
ElecMinimize: Iter:  19  Etot: -116.089159572709860  |grad|_K:  5.101e-07  alpha:  4.999e-01  linmin: -1.711e-05  t[s]:     47.72
	Linear fluid (dielectric constant: 64) occupying 0.996408 of unit cell:	Completed after 0 iterations at t[s]:     48.08
	Linear fluid (dielectric constant: 64) occupying 0.996408 of unit cell:	Completed after 0 iterations at t[s]:     48.63
ElecMinimize: Iter:  20  Etot: -116.089159800957447  |grad|_K:  4.634e-07  alpha:  5.332e-01  linmin:  4.595e-06  t[s]:     48.86
	Linear fluid (dielectric constant: 64) occupying 0.996408 of unit cell:	Completed after 0 iterations at t[s]:     49.22
	Linear fluid (dielectric constant: 64) occupying 0.996408 of unit cell:	Completed after 0 iterations at t[s]:     49.77
ElecMinimize: Iter:  21  Etot: -116.089159974684549  |grad|_K:  4.070e-07  alpha:  4.917e-01  linmin:  6.442e-06  t[s]:     50.01
	Linear fluid (dielectric constant: 64) occupying 0.996408 of unit cell:	Completed after 0 iterations at t[s]:     50.36
	Linear fluid (dielectric constant: 64) occupying 0.996408 of unit cell:	Completed after 0 iterations at t[s]:     50.91
ElecMinimize: Iter:  22  Etot: -116.089160111390328  |grad|_K:  3.668e-07  alpha:  5.018e-01  linmin:  1.392e-05  t[s]:     51.14
	Linear fluid (dielectric constant: 64) occupying 0.996408 of unit cell:	Completed after 0 iterations at t[s]:     51.50
	Linear fluid (dielectric constant: 64) occupying 0.996408 of unit cell:	Completed after 0 iterations at t[s]:     52.04
ElecMinimize: Iter:  23  Etot: -116.089160225187555  |grad|_K:  3.247e-07  alpha:  5.141e-01  linmin:  1.075e-05  t[s]:     52.28
	Linear fluid (dielectric constant: 64) occupying 0.996408 of unit cell:	Completed after 2 iterations at t[s]:     52.75
	Linear fluid (dielectric constant: 64) occupying 0.996408 of unit cell:	Completed after 0 iterations at t[s]:     53.38
ElecMinimize: 	Step increased Etot by 6.509804e-07, reducing alpha to 4.910339e-03.
	Linear fluid (dielectric constant: 64) occupying 0.996408 of unit cell:	Completed after 0 iterations at t[s]:     53.97
ElecMinimize: 	Step increased Etot by 6.493030e-07, reducing alpha to 4.910339e-04.
	Linear fluid (dielectric constant: 64) occupying 0.996408 of unit cell:	Completed after 0 iterations at t[s]:     54.56
ElecMinimize: 	Step increased Etot by 6.492139e-07, reducing alpha to 4.910339e-05.
ElecMinimize: 	Step failed to reduce Etot after 3 attempts. Quitting step.
ElecMinimize: 	Undoing step.
	Linear fluid (dielectric constant: 64) occupying 0.996408 of unit cell:	Completed after 0 iterations at t[s]:     55.15
ElecMinimize: 	Step failed: resetting search direction.
ElecMinimize: Iter:  24  Etot: -116.089159575974548  |grad|_K:  5.528e-07  alpha:  4.910e-05
	Linear fluid (dielectric constant: 64) occupying 0.996408 of unit cell:	Completed after 0 iterations at t[s]:     55.75
	Linear fluid (dielectric constant: 64) occupying 0.996408 of unit cell:	Completed after 0 iterations at t[s]:     56.32
ElecMinimize: Iter:  25  Etot: -116.089159912682121  |grad|_K:  4.759e-07  alpha:  9.778e-01  linmin:  5.468e-02  t[s]:     56.56
	Linear fluid (dielectric constant: 64) occupying 0.996408 of unit cell:	Completed after 1 iterations at t[s]:     57.00
	Linear fluid (dielectric constant: 64) occupying 0.996408 of unit cell:	Completed after 0 iterations at t[s]:     57.64
ElecMinimize: 	Step increased Etot by 1.515509e-07, reducing alpha to 2.941512e-02.
	Linear fluid (dielectric constant: 64) occupying 0.996408 of unit cell:	Completed after 0 iterations at t[s]:     58.25
ElecMinimize: 	Step increased Etot by 1.615862e-07, reducing alpha to 2.941512e-03.
	Linear fluid (dielectric constant: 64) occupying 0.996408 of unit cell:	Completed after 0 iterations at t[s]:     58.84
ElecMinimize: 	Step increased Etot by 1.672964e-07, reducing alpha to 2.941512e-04.
ElecMinimize: 	Step failed to reduce Etot after 3 attempts. Quitting step.
ElecMinimize: 	Undoing step.
	Linear fluid (dielectric constant: 64) occupying 0.996408 of unit cell:	Completed after 0 iterations at t[s]:     59.43
ElecMinimize: 	Step failed: resetting search direction.
ElecMinimize: Iter:  26  Etot: -116.089159745317474  |grad|_K:  5.342e-07  alpha:  2.942e-04
	Linear fluid (dielectric constant: 64) occupying 0.996408 of unit cell:	Completed after 0 iterations at t[s]:     60.02
	Linear fluid (dielectric constant: 64) occupying 0.996408 of unit cell:	Completed after 0 iterations at t[s]:     60.57
ElecMinimize: Iter:  27  Etot: -116.089159942835607  |grad|_K:  2.592e-07  alpha:  4.207e-01  linmin: -6.663e-05  t[s]:     60.80
	Linear fluid (dielectric constant: 64) occupying 0.996408 of unit cell:	Completed after 0 iterations at t[s]:     61.16
	Linear fluid (dielectric constant: 64) occupying 0.996408 of unit cell:	Completed after 0 iterations at t[s]:     61.71
ElecMinimize: Iter:  28  Etot: -116.089160023533779  |grad|_K:  1.829e-07  alpha:  7.302e-01  linmin:  5.350e-04  t[s]:     61.94
	Linear fluid (dielectric constant: 64) occupying 0.996408 of unit cell:	Completed after 0 iterations at t[s]:     62.30
	Linear fluid (dielectric constant: 64) occupying 0.996408 of unit cell:	Completed after 0 iterations at t[s]:     62.85
ElecMinimize: Iter:  29  Etot: -116.089160072679192  |grad|_K:  1.231e-07  alpha:  8.935e-01  linmin:  5.935e-04  t[s]:     63.08
	Linear fluid (dielectric constant: 64) occupying 0.996408 of unit cell:	Completed after 0 iterations at t[s]:     63.48
	Linear fluid (dielectric constant: 64) occupying 0.996408 of unit cell:	Completed after 0 iterations at t[s]:     64.05
ElecMinimize: 	Step increased Etot by 1.989266e-07, reducing alpha to 7.451834e-03.
	Linear fluid (dielectric constant: 64) occupying 0.996408 of unit cell:	Completed after 0 iterations at t[s]:     64.64
ElecMinimize: 	Step increased Etot by 1.985977e-07, reducing alpha to 7.451834e-04.
	Linear fluid (dielectric constant: 64) occupying 0.996408 of unit cell:	Completed after 0 iterations at t[s]:     65.23
ElecMinimize: 	Step increased Etot by 1.985779e-07, reducing alpha to 7.451834e-05.
ElecMinimize: 	Step failed to reduce Etot after 3 attempts. Quitting step.
ElecMinimize: 	Undoing step.
	Linear fluid (dielectric constant: 64) occupying 0.996408 of unit cell:	Completed after 0 iterations at t[s]:     65.82
ElecMinimize: 	Step failed: resetting search direction.
ElecMinimize: Iter:  30  Etot: -116.089159874101369  |grad|_K:  2.556e-07  alpha:  7.452e-05
	Linear fluid (dielectric constant: 64) occupying 0.996408 of unit cell:	Completed after 0 iterations at t[s]:     66.42
	Linear fluid (dielectric constant: 64) occupying 0.996408 of unit cell:	Completed after 0 iterations at t[s]:     67.00
ElecMinimize: Iter:  31  Etot: -116.089159895777257  |grad|_K:  1.746e-07  alpha:  1.014e+00  linmin:  1.622e-01  t[s]:     67.24
	Linear fluid (dielectric constant: 64) occupying 0.996408 of unit cell:	Completed after 0 iterations at t[s]:     67.61
	Linear fluid (dielectric constant: 64) occupying 0.996408 of unit cell:	Completed after 0 iterations at t[s]:     68.15
ElecMinimize: Iter:  32  Etot: -116.089159922240043  |grad|_K:  9.833e-08  alpha:  6.349e-01  linmin:  3.545e-05  t[s]:     68.38
	Linear fluid (dielectric constant: 64) occupying 0.996408 of unit cell:	Completed after 0 iterations at t[s]:     68.74
	Linear fluid (dielectric constant: 64) occupying 0.996408 of unit cell:	Completed after 0 iterations at t[s]:     69.29
ElecMinimize: Iter:  33  Etot: -116.089159932181786  |grad|_K:  6.350e-08  alpha:  6.251e-01  linmin: -1.477e-05  t[s]:     69.52
	Linear fluid (dielectric constant: 64) occupying 0.996408 of unit cell:	Completed after 0 iterations at t[s]:     69.88
	Linear fluid (dielectric constant: 64) occupying 0.996408 of unit cell:	Completed after 0 iterations at t[s]:     70.43
ElecMinimize: Iter:  34  Etot: -116.089159938137001  |grad|_K:  5.802e-08  alpha:  8.976e-01  linmin: -2.892e-05  t[s]:     70.66
ElecMinimize: Converged (|Delta Etot|<1.000000e-08 for 2 iters).
Setting wave functions to eigenvectors of Hamiltonian
Single-point solvation energy estimate, DeltaEtot = -0.167552785755390

# Ionic positions in cartesian coordinates:
ion S   9.402875070209999  12.430078910730000  27.263527773840000 1
ion S   5.921463285810000  10.087698104369998  27.341467797959996 1
ion Na   9.852901041599997   7.943043527369999  25.470895880699999 1
ion Na   5.365079530559999  14.615699054669998  25.686786194819998 1

# Forces in Cartesian coordinates:
force S  -0.001309123340330  -0.001180704918374   0.011352804015489 1
force S   0.001930616968505   0.000907602003050   0.011310724856525 1
force Na   0.014651173866207  -0.022256771717525  -0.012110523551592 1
force Na  -0.015341828649160   0.022555278319010  -0.010635726830965 1

# Energy components:
   A_diel =       -0.2066620622805132
   Eewald =       42.5786531081733202
       EH =      139.3415889240931165
     Eloc =     -162.8649385205143290
      Enl =     -140.4082214772433019
      Exc =      -22.8420828056085412
 Exc_core =        3.5354580038104433
       KE =       24.7770448914328227
-------------------------------------
     Etot =     -116.0891599381370014

IonicMinimize: Iter:   0  Etot: -116.089159938137001  |grad|_K:  1.284e-02  alpha:  1.000e+00

#--- Lowdin population analysis ---
# oxidation-state S -0.793 -0.793
# oxidation-state Na +0.878 +0.878


-------- Electronic minimization -----------
	Linear fluid (dielectric constant: 64) occupying 0.996408 of unit cell:	Completed after 16 iterations at t[s]:     71.97
ElecMinimize: Iter:   0  Etot: -116.058794273242299  |grad|_K:  2.291e-04  alpha:  1.000e+00
	Linear fluid (dielectric constant: 64) occupying 0.996400 of unit cell:	Completed after 19 iterations at t[s]:     73.89
	Linear fluid (dielectric constant: 64) occupying 0.996405 of unit cell:	Completed after 18 iterations at t[s]:     75.77
ElecMinimize: Iter:   1  Etot: -116.089356549741183  |grad|_K:  4.227e-05  alpha:  3.552e-01  linmin: -1.250e-03  t[s]:     76.08
	Linear fluid (dielectric constant: 64) occupying 0.996401 of unit cell:	Completed after 10 iterations at t[s]:     77.06
	Linear fluid (dielectric constant: 64) occupying 0.996400 of unit cell:	Completed after 5 iterations at t[s]:     78.01
ElecMinimize: Iter:   2  Etot: -116.090731157641613  |grad|_K:  2.057e-05  alpha:  4.676e-01  linmin: -1.390e-03  t[s]:     78.33
	Linear fluid (dielectric constant: 64) occupying 0.996399 of unit cell:	Completed after 6 iterations at t[s]:     79.04
	Linear fluid (dielectric constant: 64) occupying 0.996399 of unit cell:	Completed after 3 iterations at t[s]:     79.89
ElecMinimize: Iter:   3  Etot: -116.090997832341046  |grad|_K:  8.246e-06  alpha:  3.839e-01  linmin: -3.483e-03  t[s]:     80.13
	Linear fluid (dielectric constant: 64) occupying 0.996399 of unit cell:	Completed after 4 iterations at t[s]:     80.76
	Linear fluid (dielectric constant: 64) occupying 0.996399 of unit cell:	Completed after 4 iterations at t[s]:     81.59
ElecMinimize: Iter:   4  Etot: -116.091059836923733  |grad|_K:  4.468e-06  alpha:  5.572e-01  linmin:  3.962e-03  t[s]:     81.85
	Linear fluid (dielectric constant: 64) occupying 0.996399 of unit cell:	Completed after 3 iterations at t[s]:     82.46
	Linear fluid (dielectric constant: 64) occupying 0.996399 of unit cell:	Completed after 0 iterations at t[s]:     83.10
ElecMinimize: Iter:   5  Etot: -116.091073178988353  |grad|_K:  2.469e-06  alpha:  4.060e-01  linmin:  3.724e-02  t[s]:     83.33
	Linear fluid (dielectric constant: 64) occupying 0.996399 of unit cell:	Completed after 3 iterations at t[s]:     83.93
	Linear fluid (dielectric constant: 64) occupying 0.996399 of unit cell:	Completed after 0 iterations at t[s]:     84.57
ElecMinimize: Iter:   6  Etot: -116.091078748366670  |grad|_K:  1.529e-06  alpha:  5.266e-01  linmin: -2.220e-01  t[s]:     84.81
	Linear fluid (dielectric constant: 64) occupying 0.996400 of unit cell:	Completed after 0 iterations at t[s]:     85.26
	Linear fluid (dielectric constant: 64) occupying 0.996400 of unit cell:	Completed after 1 iterations at t[s]:     85.91
ElecMinimize: Iter:   7  Etot: -116.091081956740837  |grad|_K:  1.532e-06  alpha:  7.837e-01  linmin:  5.554e-02  t[s]:     86.15
	Linear fluid (dielectric constant: 64) occupying 0.996400 of unit cell:	Completed after 3 iterations at t[s]:     86.69
	Linear fluid (dielectric constant: 64) occupying 0.996400 of unit cell:	Completed after 0 iterations at t[s]:     87.37
ElecMinimize: Iter:   8  Etot: -116.091082820952764  |grad|_K:  1.616e-06  alpha:  3.723e-01  linmin:  2.366e-02  t[s]:     87.60
	Linear fluid (dielectric constant: 64) occupying 0.996400 of unit cell:	Completed after 2 iterations at t[s]:     88.09
	Linear fluid (dielectric constant: 64) occupying 0.996400 of unit cell:	Completed after 0 iterations at t[s]:     88.72
ElecMinimize: Iter:   9  Etot: -116.091083406191188  |grad|_K:  8.011e-07  alpha:  1.773e-01  linmin:  5.256e-02  t[s]:     88.95
	Linear fluid (dielectric constant: 64) occupying 0.996400 of unit cell:	Completed after 0 iterations at t[s]:     89.31
ElecMinimize: 	Predicted alpha/alphaT>3.000000, increasing alphaT to 5.319525e-01.
	Linear fluid (dielectric constant: 64) occupying 0.996400 of unit cell:	Completed after 0 iterations at t[s]:     89.85
	Linear fluid (dielectric constant: 64) occupying 0.996400 of unit cell:	Completed after 0 iterations at t[s]:     90.40
ElecMinimize: Iter:  10  Etot: -116.091083933709314  |grad|_K:  6.265e-07  alpha:  5.409e-01  linmin:  1.377e-05  t[s]:     90.63
	Linear fluid (dielectric constant: 64) occupying 0.996400 of unit cell:	Completed after 0 iterations at t[s]:     90.99
	Linear fluid (dielectric constant: 64) occupying 0.996400 of unit cell:	Completed after 0 iterations at t[s]:     91.53
ElecMinimize: Iter:  11  Etot: -116.091084246880953  |grad|_K:  4.844e-07  alpha:  4.850e-01  linmin:  2.267e-05  t[s]:     91.77
	Linear fluid (dielectric constant: 64) occupying 0.996400 of unit cell:	Completed after 0 iterations at t[s]:     92.16
	Linear fluid (dielectric constant: 64) occupying 0.996400 of unit cell:	Completed after 0 iterations at t[s]:     92.74
ElecMinimize: 	Step increased Etot by 2.056983e-08, reducing alpha to 2.508828e-02.
	Linear fluid (dielectric constant: 64) occupying 0.996400 of unit cell:	Completed after 0 iterations at t[s]:     93.33
ElecMinimize: 	Step increased Etot by 1.229198e-07, reducing alpha to 2.508828e-03.
	Linear fluid (dielectric constant: 64) occupying 0.996400 of unit cell:	Completed after 0 iterations at t[s]:     93.92
ElecMinimize: 	Step increased Etot by 1.369591e-07, reducing alpha to 2.508828e-04.
ElecMinimize: 	Step failed to reduce Etot after 3 attempts. Quitting step.
ElecMinimize: 	Undoing step.
	Linear fluid (dielectric constant: 64) occupying 0.996400 of unit cell:	Completed after 0 iterations at t[s]:     94.51
ElecMinimize: 	Step failed: resetting search direction.
ElecMinimize: Iter:  12  Etot: -116.091084109761823  |grad|_K:  4.605e-07  alpha:  2.509e-04
	Linear fluid (dielectric constant: 64) occupying 0.996400 of unit cell:	Completed after 0 iterations at t[s]:     95.10
	Linear fluid (dielectric constant: 64) occupying 0.996400 of unit cell:	Completed after 0 iterations at t[s]:     95.65
ElecMinimize: Iter:  13  Etot: -116.091084303155242  |grad|_K:  2.905e-07  alpha:  5.544e-01  linmin:  4.238e-07  t[s]:     95.88
	Linear fluid (dielectric constant: 64) occupying 0.996400 of unit cell:	Completed after 0 iterations at t[s]:     96.24
	Linear fluid (dielectric constant: 64) occupying 0.996400 of unit cell:	Completed after 0 iterations at t[s]:     96.79
ElecMinimize: Iter:  14  Etot: -116.091084402363293  |grad|_K:  2.291e-07  alpha:  7.144e-01  linmin:  3.946e-07  t[s]:     97.02
	Linear fluid (dielectric constant: 64) occupying 0.996399 of unit cell:	Completed after 0 iterations at t[s]:     97.38
	Linear fluid (dielectric constant: 64) occupying 0.996399 of unit cell:	Completed after 0 iterations at t[s]:     97.93
ElecMinimize: Iter:  15  Etot: -116.091084491804878  |grad|_K:  1.388e-07  alpha:  1.036e+00  linmin:  2.546e-07  t[s]:     98.16
	Linear fluid (dielectric constant: 64) occupying 0.996399 of unit cell:	Completed after 0 iterations at t[s]:     98.52
	Linear fluid (dielectric constant: 64) occupying 0.996399 of unit cell:	Completed after 0 iterations at t[s]:     99.06
ElecMinimize: Iter:  16  Etot: -116.091084513469056  |grad|_K:  8.085e-08  alpha:  6.838e-01  linmin:  7.973e-07  t[s]:     99.30
	Linear fluid (dielectric constant: 64) occupying 0.996399 of unit cell:	Completed after 0 iterations at t[s]:     99.66
	Linear fluid (dielectric constant: 64) occupying 0.996399 of unit cell:	Completed after 0 iterations at t[s]:    100.20
ElecMinimize: Iter:  17  Etot: -116.091084524195452  |grad|_K:  5.477e-08  alpha:  9.976e-01  linmin: -2.181e-06  t[s]:    100.43
	Linear fluid (dielectric constant: 64) occupying 0.996399 of unit cell:	Completed after 0 iterations at t[s]:    100.79
	Linear fluid (dielectric constant: 64) occupying 0.996399 of unit cell:	Completed after 0 iterations at t[s]:    101.34
ElecMinimize: Iter:  18  Etot: -116.091084530087585  |grad|_K:  5.250e-08  alpha:  1.194e+00  linmin: -1.392e-06  t[s]:    101.57
	Linear fluid (dielectric constant: 64) occupying 0.996399 of unit cell:	Completed after 0 iterations at t[s]:    101.93
	Linear fluid (dielectric constant: 64) occupying 0.996399 of unit cell:	Completed after 0 iterations at t[s]:    102.48
ElecMinimize: Iter:  19  Etot: -116.091084533865370  |grad|_K:  3.695e-08  alpha:  8.333e-01  linmin:  5.724e-06  t[s]:    102.71
ElecMinimize: Converged (|Delta Etot|<1.000000e-08 for 2 iters).
Setting wave functions to eigenvectors of Hamiltonian
IonicMinimize: 	Predicted alpha/alphaT>3.000000, increasing alphaT to 3.000000e+00.

-------- Electronic minimization -----------
	Linear fluid (dielectric constant: 64) occupying 0.996397 of unit cell:	Completed after 20 iterations at t[s]:    103.95
ElecMinimize: Iter:   0  Etot: -115.964962085415891  |grad|_K:  4.617e-04  alpha:  1.000e+00
	Linear fluid (dielectric constant: 64) occupying 0.996386 of unit cell:	Completed after 23 iterations at t[s]:    106.21
	Linear fluid (dielectric constant: 64) occupying 0.996394 of unit cell:	Completed after 21 iterations at t[s]:    108.29
ElecMinimize: Iter:   1  Etot: -116.086968311148581  |grad|_K:  9.372e-05  alpha:  3.530e-01  linmin: -7.499e-03  t[s]:    108.61
	Linear fluid (dielectric constant: 64) occupying 0.996385 of unit cell:	Completed after 14 iterations at t[s]:    109.90
	Linear fluid (dielectric constant: 64) occupying 0.996384 of unit cell:	Completed after 5 iterations at t[s]:    110.84
ElecMinimize: Iter:   2  Etot: -116.092741401720090  |grad|_K:  4.699e-05  alpha:  3.989e-01  linmin:  1.190e-03  t[s]:    111.13
	Linear fluid (dielectric constant: 64) occupying 0.996382 of unit cell:	Completed after 10 iterations at t[s]:    112.14
	Linear fluid (dielectric constant: 64) occupying 0.996382 of unit cell:	Completed after 0 iterations at t[s]:    112.89
ElecMinimize: Iter:   3  Etot: -116.094223700003795  |grad|_K:  1.711e-05  alpha:  4.084e-01  linmin: -1.329e-02  t[s]:    113.12
	Linear fluid (dielectric constant: 64) occupying 0.996381 of unit cell:	Completed after 9 iterations at t[s]:    113.94
	Linear fluid (dielectric constant: 64) occupying 0.996381 of unit cell:	Completed after 4 iterations at t[s]:    114.76
ElecMinimize: Iter:   4  Etot: -116.094497096510395  |grad|_K:  9.180e-06  alpha:  5.595e-01  linmin: -1.559e-02  t[s]:    115.05
	Linear fluid (dielectric constant: 64) occupying 0.996382 of unit cell:	Completed after 4 iterations at t[s]:    115.68
	Linear fluid (dielectric constant: 64) occupying 0.996382 of unit cell:	Completed after 2 iterations at t[s]:    116.43
ElecMinimize: Iter:   5  Etot: -116.094558858120237  |grad|_K:  4.587e-06  alpha:  4.423e-01  linmin: -1.649e-03  t[s]:    116.67
	Linear fluid (dielectric constant: 64) occupying 0.996382 of unit cell:	Completed after 3 iterations at t[s]:    117.27
	Linear fluid (dielectric constant: 64) occupying 0.996383 of unit cell:	Completed after 1 iterations at t[s]:    118.01
ElecMinimize: Iter:   6  Etot: -116.094587874139904  |grad|_K:  2.944e-06  alpha:  8.059e-01  linmin: -5.606e-02  t[s]:    118.25
	Linear fluid (dielectric constant: 64) occupying 0.996384 of unit cell:	Completed after 3 iterations at t[s]:    118.85
	Linear fluid (dielectric constant: 64) occupying 0.996383 of unit cell:	Completed after 0 iterations at t[s]:    119.50
ElecMinimize: Iter:   7  Etot: -116.094598036743605  |grad|_K:  2.520e-06  alpha:  6.605e-01  linmin:  2.469e-02  t[s]:    119.73
	Linear fluid (dielectric constant: 64) occupying 0.996384 of unit cell:	Completed after 3 iterations at t[s]:    120.34
	Linear fluid (dielectric constant: 64) occupying 0.996384 of unit cell:	Completed after 0 iterations at t[s]:    120.99
ElecMinimize: Iter:   8  Etot: -116.094602198862745  |grad|_K:  1.695e-06  alpha:  4.366e-01  linmin:  3.146e-02  t[s]:    121.22
	Linear fluid (dielectric constant: 64) occupying 0.996383 of unit cell:	Completed after 2 iterations at t[s]:    121.70
	Linear fluid (dielectric constant: 64) occupying 0.996384 of unit cell:	Completed after 0 iterations at t[s]:    122.34
ElecMinimize: Iter:   9  Etot: -116.094603817836770  |grad|_K:  9.265e-07  alpha:  3.867e-01  linmin: -1.850e-01  t[s]:    122.58
	Linear fluid (dielectric constant: 64) occupying 0.996383 of unit cell:	Completed after 0 iterations at t[s]:    122.94
	Linear fluid (dielectric constant: 64) occupying 0.996383 of unit cell:	Completed after 0 iterations at t[s]:    123.52
ElecMinimize: Iter:  10  Etot: -116.094604955512892  |grad|_K:  7.418e-07  alpha:  7.280e-01  linmin:  1.328e-02  t[s]:    123.76
	Linear fluid (dielectric constant: 64) occupying 0.996383 of unit cell:	Completed after 0 iterations at t[s]:    124.13
	Linear fluid (dielectric constant: 64) occupying 0.996383 of unit cell:	Completed after 0 iterations at t[s]:    124.67
ElecMinimize: Iter:  11  Etot: -116.094605557149691  |grad|_K:  5.571e-07  alpha:  6.825e-01  linmin:  1.448e-05  t[s]:    124.91
	Linear fluid (dielectric constant: 64) occupying 0.996382 of unit cell:	Completed after 0 iterations at t[s]:    125.26
	Linear fluid (dielectric constant: 64) occupying 0.996382 of unit cell:	Completed after 0 iterations at t[s]:    125.81
ElecMinimize: Iter:  12  Etot: -116.094605949972504  |grad|_K:  4.103e-07  alpha:  7.695e-01  linmin:  1.046e-07  t[s]:    126.04
	Linear fluid (dielectric constant: 64) occupying 0.996382 of unit cell:	Completed after 1 iterations at t[s]:    126.47
	Linear fluid (dielectric constant: 64) occupying 0.996382 of unit cell:	Completed after 0 iterations at t[s]:    127.08
ElecMinimize: 	Step increased Etot by 1.808749e-07, reducing alpha to 2.846416e-02.
	Linear fluid (dielectric constant: 64) occupying 0.996382 of unit cell:	Completed after 0 iterations at t[s]:    127.67
ElecMinimize: 	Step increased Etot by 2.600273e-07, reducing alpha to 2.846416e-03.
	Linear fluid (dielectric constant: 64) occupying 0.996382 of unit cell:	Completed after 0 iterations at t[s]:    128.26
ElecMinimize: 	Step increased Etot by 2.703306e-07, reducing alpha to 2.846416e-04.
ElecMinimize: 	Step failed to reduce Etot after 3 attempts. Quitting step.
ElecMinimize: 	Undoing step.
	Linear fluid (dielectric constant: 64) occupying 0.996382 of unit cell:	Completed after 0 iterations at t[s]:    128.85
ElecMinimize: 	Step failed: resetting search direction.
ElecMinimize: Iter:  13  Etot: -116.094605679524904  |grad|_K:  4.596e-07  alpha:  2.846e-04
	Linear fluid (dielectric constant: 64) occupying 0.996382 of unit cell:	Completed after 0 iterations at t[s]:    129.45
	Linear fluid (dielectric constant: 64) occupying 0.996382 of unit cell:	Completed after 0 iterations at t[s]:    129.99
ElecMinimize: Iter:  14  Etot: -116.094605941058589  |grad|_K:  3.182e-07  alpha:  7.526e-01  linmin: -9.123e-05  t[s]:    130.22
	Linear fluid (dielectric constant: 64) occupying 0.996383 of unit cell:	Completed after 0 iterations at t[s]:    130.62
	Linear fluid (dielectric constant: 64) occupying 0.996383 of unit cell:	Completed after 0 iterations at t[s]:    131.19
ElecMinimize: 	Step increased Etot by 1.884284e-08, reducing alpha to 3.817787e-02.
	Linear fluid (dielectric constant: 64) occupying 0.996382 of unit cell:	Completed after 0 iterations at t[s]:    131.79
ElecMinimize: 	Step increased Etot by 8.197783e-08, reducing alpha to 3.817787e-03.
	Linear fluid (dielectric constant: 64) occupying 0.996382 of unit cell:	Completed after 0 iterations at t[s]:    132.38
ElecMinimize: 	Step increased Etot by 9.053254e-08, reducing alpha to 3.817787e-04.
ElecMinimize: 	Step failed to reduce Etot after 3 attempts. Quitting step.
ElecMinimize: 	Undoing step.
	Linear fluid (dielectric constant: 64) occupying 0.996382 of unit cell:	Completed after 0 iterations at t[s]:    132.97
ElecMinimize: 	Step failed: resetting search direction.
ElecMinimize: Iter:  15  Etot: -116.094605850428749  |grad|_K:  3.037e-07  alpha:  3.818e-04
	Linear fluid (dielectric constant: 64) occupying 0.996382 of unit cell:	Completed after 0 iterations at t[s]:    133.57
	Linear fluid (dielectric constant: 64) occupying 0.996382 of unit cell:	Completed after 0 iterations at t[s]:    134.11
ElecMinimize: Iter:  16  Etot: -116.094605930560107  |grad|_K:  1.744e-07  alpha:  5.280e-01  linmin:  4.126e-07  t[s]:    134.35
	Linear fluid (dielectric constant: 64) occupying 0.996382 of unit cell:	Completed after 0 iterations at t[s]:    134.71
	Linear fluid (dielectric constant: 64) occupying 0.996383 of unit cell:	Completed after 0 iterations at t[s]:    135.25
ElecMinimize: Iter:  17  Etot: -116.094606002746673  |grad|_K:  1.995e-07  alpha:  1.442e+00  linmin: -1.162e-06  t[s]:    135.48
	Linear fluid (dielectric constant: 64) occupying 0.996383 of unit cell:	Completed after 0 iterations at t[s]:    135.84
	Linear fluid (dielectric constant: 64) occupying 0.996383 of unit cell:	Completed after 0 iterations at t[s]:    136.40
ElecMinimize: Iter:  18  Etot: -116.094606041156410  |grad|_K:  1.143e-07  alpha:  5.865e-01  linmin:  1.215e-06  t[s]:    136.63
	Linear fluid (dielectric constant: 64) occupying 0.996383 of unit cell:	Completed after 0 iterations at t[s]:    136.99
	Linear fluid (dielectric constant: 64) occupying 0.996383 of unit cell:	Completed after 0 iterations at t[s]:    137.55
ElecMinimize: Iter:  19  Etot: -116.094606062361493  |grad|_K:  1.049e-07  alpha:  9.865e-01  linmin: -5.552e-06  t[s]:    137.79
	Linear fluid (dielectric constant: 64) occupying 0.996383 of unit cell:	Completed after 0 iterations at t[s]:    138.15
	Linear fluid (dielectric constant: 64) occupying 0.996383 of unit cell:	Completed after 0 iterations at t[s]:    138.69
ElecMinimize: Iter:  20  Etot: -116.094606086222981  |grad|_K:  9.643e-08  alpha:  1.319e+00  linmin: -2.901e-06  t[s]:    138.93
	Linear fluid (dielectric constant: 64) occupying 0.996383 of unit cell:	Completed after 0 iterations at t[s]:    139.28
	Linear fluid (dielectric constant: 64) occupying 0.996383 of unit cell:	Completed after 0 iterations at t[s]:    139.83
ElecMinimize: Iter:  21  Etot: -116.094606102760835  |grad|_K:  8.260e-08  alpha:  1.081e+00  linmin:  1.033e-06  t[s]:    140.06
	Linear fluid (dielectric constant: 64) occupying 0.996383 of unit cell:	Completed after 0 iterations at t[s]:    140.42
	Linear fluid (dielectric constant: 64) occupying 0.996383 of unit cell:	Completed after 0 iterations at t[s]:    140.96
ElecMinimize: Iter:  22  Etot: -116.094606115426117  |grad|_K:  7.345e-08  alpha:  1.128e+00  linmin:  2.992e-06  t[s]:    141.20
	Linear fluid (dielectric constant: 64) occupying 0.996383 of unit cell:	Completed after 0 iterations at t[s]:    141.55
	Linear fluid (dielectric constant: 64) occupying 0.996383 of unit cell:	Completed after 0 iterations at t[s]:    142.10
ElecMinimize: Iter:  23  Etot: -116.094606122592111  |grad|_K:  5.382e-08  alpha:  8.073e-01  linmin: -1.159e-06  t[s]:    142.34
	Linear fluid (dielectric constant: 64) occupying 0.996383 of unit cell:	Completed after 0 iterations at t[s]:    142.70
	Linear fluid (dielectric constant: 64) occupying 0.996383 of unit cell:	Completed after 0 iterations at t[s]:    143.24
ElecMinimize: Iter:  24  Etot: -116.094606126930444  |grad|_K:  4.943e-08  alpha:  9.104e-01  linmin:  3.101e-06  t[s]:    143.48
ElecMinimize: Converged (|Delta Etot|<1.000000e-08 for 2 iters).
Setting wave functions to eigenvectors of Hamiltonian
IonicMinimize: 	Predicted alpha/alphaT>3.000000, increasing alphaT to 9.000000e+00.

-------- Electronic minimization -----------
	Linear fluid (dielectric constant: 64) occupying 0.996373 of unit cell:	Completed after 25 iterations at t[s]:    145.08
ElecMinimize: Iter:   0  Etot: -114.886278576362230  |grad|_K:  1.499e-03  alpha:  1.000e+00
	Linear fluid (dielectric constant: 64) occupying 0.996374 of unit cell:	Completed after 39 iterations at t[s]:    148.47
	Linear fluid (dielectric constant: 64) occupying 0.996376 of unit cell:	Completed after 29 iterations at t[s]:    151.11
ElecMinimize: Iter:   1  Etot: -115.980016474138935  |grad|_K:  4.173e-04  alpha:  3.453e-01  linmin: -1.718e-01  t[s]:    151.43
	Linear fluid (dielectric constant: 64) occupying 0.996342 of unit cell:	Completed after 23 iterations at t[s]:    153.35
	Linear fluid (dielectric constant: 64) occupying 0.996344 of unit cell:	Completed after 10 iterations at t[s]:    154.64
ElecMinimize: Iter:   2  Etot: -116.078384588528181  |grad|_K:  1.565e-04  alpha:  3.225e-01  linmin:  1.155e-02  t[s]:    154.98
	Linear fluid (dielectric constant: 64) occupying 0.996335 of unit cell:	Completed after 16 iterations at t[s]:    156.38
	Linear fluid (dielectric constant: 64) occupying 0.996330 of unit cell:	Completed after 12 iterations at t[s]:    157.81
ElecMinimize: Iter:   3  Etot: -116.098690839640511  |grad|_K:  6.242e-05  alpha:  5.073e-01  linmin: -1.663e-03  t[s]:    158.13
	Linear fluid (dielectric constant: 64) occupying 0.996329 of unit cell:	Completed after 12 iterations at t[s]:    159.27
	Linear fluid (dielectric constant: 64) occupying 0.996329 of unit cell:	Completed after 4 iterations at t[s]:    160.18
ElecMinimize: Iter:   4  Etot: -116.101621095263482  |grad|_K:  3.401e-05  alpha:  4.567e-01  linmin:  1.302e-04  t[s]:    160.44
	Linear fluid (dielectric constant: 64) occupying 0.996329 of unit cell:	Completed after 11 iterations at t[s]:    161.49
	Linear fluid (dielectric constant: 64) occupying 0.996329 of unit cell:	Completed after 0 iterations at t[s]:    162.22
ElecMinimize: Iter:   5  Etot: -116.102513821476094  |grad|_K:  1.554e-05  alpha:  4.693e-01  linmin: -3.098e-03  t[s]:    162.46
	Linear fluid (dielectric constant: 64) occupying 0.996331 of unit cell:	Completed after 5 iterations at t[s]:    163.13
	Linear fluid (dielectric constant: 64) occupying 0.996331 of unit cell:	Completed after 3 iterations at t[s]:    163.92
ElecMinimize: Iter:   6  Etot: -116.102732742576507  |grad|_K:  1.230e-05  alpha:  5.518e-01  linmin:  6.070e-03  t[s]:    164.15
	Linear fluid (dielectric constant: 64) occupying 0.996334 of unit cell:	Completed after 6 iterations at t[s]:    164.86
	Linear fluid (dielectric constant: 64) occupying 0.996334 of unit cell:	Completed after 0 iterations at t[s]:    165.50
ElecMinimize: Iter:   7  Etot: -116.102876180264474  |grad|_K:  7.182e-06  alpha:  5.816e-01  linmin: -8.942e-03  t[s]:    165.74
	Linear fluid (dielectric constant: 64) occupying 0.996335 of unit cell:	Completed after 5 iterations at t[s]:    166.41
	Linear fluid (dielectric constant: 64) occupying 0.996335 of unit cell:	Completed after 0 iterations at t[s]:    167.05
ElecMinimize: Iter:   8  Etot: -116.102940281841569  |grad|_K:  4.681e-06  alpha:  7.364e-01  linmin: -3.226e-02  t[s]:    167.29
	Linear fluid (dielectric constant: 64) occupying 0.996335 of unit cell:	Completed after 3 iterations at t[s]:    167.89
	Linear fluid (dielectric constant: 64) occupying 0.996335 of unit cell:	Completed after 1 iterations at t[s]:    168.61
ElecMinimize: Iter:   9  Etot: -116.102960976378796  |grad|_K:  3.751e-06  alpha:  5.566e-01  linmin:  1.061e-02  t[s]:    168.84
	Linear fluid (dielectric constant: 64) occupying 0.996334 of unit cell:	Completed after 3 iterations at t[s]:    169.44
	Linear fluid (dielectric constant: 64) occupying 0.996334 of unit cell:	Completed after 0 iterations at t[s]:    170.12
ElecMinimize: Iter:  10  Etot: -116.102969848191719  |grad|_K:  2.236e-06  alpha:  4.025e-01  linmin:  1.982e-02  t[s]:    170.35
	Linear fluid (dielectric constant: 64) occupying 0.996334 of unit cell:	Completed after 0 iterations at t[s]:    170.74
	Linear fluid (dielectric constant: 64) occupying 0.996334 of unit cell:	Completed after 2 iterations at t[s]:    171.39
ElecMinimize: Iter:  11  Etot: -116.102974797366045  |grad|_K:  1.810e-06  alpha:  7.723e-01  linmin:  6.202e-02  t[s]:    171.62
	Linear fluid (dielectric constant: 64) occupying 0.996333 of unit cell:	Completed after 2 iterations at t[s]:    172.16
	Linear fluid (dielectric constant: 64) occupying 0.996333 of unit cell:	Completed after 0 iterations at t[s]:    172.79
ElecMinimize: Iter:  12  Etot: -116.102977492726438  |grad|_K:  1.227e-06  alpha:  5.680e-01  linmin:  1.394e-02  t[s]:    173.02
	Linear fluid (dielectric constant: 64) occupying 0.996333 of unit cell:	Completed after 0 iterations at t[s]:    173.38
	Linear fluid (dielectric constant: 64) occupying 0.996333 of unit cell:	Completed after 0 iterations at t[s]:    173.92
ElecMinimize: Iter:  13  Etot: -116.102979209632110  |grad|_K:  8.713e-07  alpha:  7.101e-01  linmin: -2.245e-06  t[s]:    174.16
	Linear fluid (dielectric constant: 64) occupying 0.996333 of unit cell:	Completed after 0 iterations at t[s]:    174.52
	Linear fluid (dielectric constant: 64) occupying 0.996333 of unit cell:	Completed after 0 iterations at t[s]:    175.06
ElecMinimize: Iter:  14  Etot: -116.102980207134905  |grad|_K:  6.752e-07  alpha:  7.987e-01  linmin: -2.333e-05  t[s]:    175.29
	Linear fluid (dielectric constant: 64) occupying 0.996333 of unit cell:	Completed after 1 iterations at t[s]:    175.72
	Linear fluid (dielectric constant: 64) occupying 0.996333 of unit cell:	Completed after 0 iterations at t[s]:    176.33
ElecMinimize: Iter:  15  Etot: -116.102980262337809  |grad|_K:  6.369e-07  alpha:  4.263e-01  linmin: -1.336e-01  t[s]:    176.56
	Linear fluid (dielectric constant: 64) occupying 0.996333 of unit cell:	Completed after 0 iterations at t[s]:    176.92
	Linear fluid (dielectric constant: 64) occupying 0.996333 of unit cell:	Completed after 0 iterations at t[s]:    177.46
ElecMinimize: Iter:  16  Etot: -116.102980653403421  |grad|_K:  5.573e-07  alpha:  4.565e-01  linmin:  1.980e-06  t[s]:    177.70
	Linear fluid (dielectric constant: 64) occupying 0.996333 of unit cell:	Completed after 0 iterations at t[s]:    178.10
	Linear fluid (dielectric constant: 64) occupying 0.996333 of unit cell:	Completed after 0 iterations at t[s]:    178.67
ElecMinimize: Iter:  17  Etot: -116.102980733005737  |grad|_K:  4.630e-07  alpha:  2.883e-01  linmin: -9.165e-02  t[s]:    178.90
	Linear fluid (dielectric constant: 64) occupying 0.996333 of unit cell:	Completed after 0 iterations at t[s]:    179.26
	Linear fluid (dielectric constant: 64) occupying 0.996333 of unit cell:	Completed after 0 iterations at t[s]:    179.80
ElecMinimize: Iter:  18  Etot: -116.102980923378340  |grad|_K:  3.695e-07  alpha:  4.244e-01  linmin:  8.683e-05  t[s]:    180.04
	Linear fluid (dielectric constant: 64) occupying 0.996333 of unit cell:	Completed after 0 iterations at t[s]:    180.40
	Linear fluid (dielectric constant: 64) occupying 0.996333 of unit cell:	Completed after 0 iterations at t[s]:    180.94
ElecMinimize: Iter:  19  Etot: -116.102981027424264  |grad|_K:  3.240e-07  alpha:  4.633e-01  linmin:  3.834e-05  t[s]:    181.18
	Linear fluid (dielectric constant: 64) occupying 0.996333 of unit cell:	Completed after 0 iterations at t[s]:    181.64
	Linear fluid (dielectric constant: 64) occupying 0.996333 of unit cell:	Completed after 0 iterations at t[s]:    182.18
ElecMinimize: Iter:  20  Etot: -116.102981104954779  |grad|_K:  2.950e-07  alpha:  4.490e-01  linmin:  1.429e-05  t[s]:    182.42
	Linear fluid (dielectric constant: 64) occupying 0.996333 of unit cell:	Completed after 0 iterations at t[s]:    182.78
	Linear fluid (dielectric constant: 64) occupying 0.996333 of unit cell:	Completed after 0 iterations at t[s]:    183.32
ElecMinimize: Iter:  21  Etot: -116.102981171822719  |grad|_K:  2.691e-07  alpha:  4.671e-01  linmin:  6.877e-06  t[s]:    183.55
	Linear fluid (dielectric constant: 64) occupying 0.996333 of unit cell:	Completed after 0 iterations at t[s]:    183.95
	Linear fluid (dielectric constant: 64) occupying 0.996333 of unit cell:	Completed after 0 iterations at t[s]:    184.52
ElecMinimize: 	Step increased Etot by 1.119592e-07, reducing alpha to 1.256327e-02.
	Linear fluid (dielectric constant: 64) occupying 0.996333 of unit cell:	Completed after 0 iterations at t[s]:    185.11
ElecMinimize: 	Step increased Etot by 1.296964e-07, reducing alpha to 1.256327e-03.
	Linear fluid (dielectric constant: 64) occupying 0.996333 of unit cell:	Completed after 0 iterations at t[s]:    185.70
ElecMinimize: 	Step increased Etot by 1.318071e-07, reducing alpha to 1.256327e-04.
ElecMinimize: 	Step failed to reduce Etot after 3 attempts. Quitting step.
ElecMinimize: 	Undoing step.
	Linear fluid (dielectric constant: 64) occupying 0.996333 of unit cell:	Completed after 0 iterations at t[s]:    186.29
ElecMinimize: 	Step failed: resetting search direction.
ElecMinimize: Iter:  22  Etot: -116.102981039991732  |grad|_K:  3.039e-07  alpha:  1.256e-04
	Linear fluid (dielectric constant: 64) occupying 0.996333 of unit cell:	Completed after 0 iterations at t[s]:    186.89
	Linear fluid (dielectric constant: 64) occupying 0.996333 of unit cell:	Completed after 0 iterations at t[s]:    187.43
ElecMinimize: Iter:  23  Etot: -116.102981143546771  |grad|_K:  2.314e-07  alpha:  6.816e-01  linmin: -1.117e-04  t[s]:    187.67
	Linear fluid (dielectric constant: 64) occupying 0.996333 of unit cell:	Completed after 0 iterations at t[s]:    188.03
	Linear fluid (dielectric constant: 64) occupying 0.996333 of unit cell:	Completed after 0 iterations at t[s]:    188.57
ElecMinimize: Iter:  24  Etot: -116.102981225351769  |grad|_K:  1.827e-07  alpha:  9.282e-01  linmin: -4.017e-04  t[s]:    188.80
	Linear fluid (dielectric constant: 64) occupying 0.996333 of unit cell:	Completed after 0 iterations at t[s]:    189.20
	Linear fluid (dielectric constant: 64) occupying 0.996333 of unit cell:	Completed after 0 iterations at t[s]:    189.77
ElecMinimize: 	Step increased Etot by 4.828100e-08, reducing alpha to 2.865736e-02.
	Linear fluid (dielectric constant: 64) occupying 0.996333 of unit cell:	Completed after 0 iterations at t[s]:    190.36
ElecMinimize: 	Step increased Etot by 6.153361e-08, reducing alpha to 2.865736e-03.
	Linear fluid (dielectric constant: 64) occupying 0.996333 of unit cell:	Completed after 0 iterations at t[s]:    190.95
ElecMinimize: 	Step increased Etot by 6.346650e-08, reducing alpha to 2.865736e-04.
ElecMinimize: 	Step failed to reduce Etot after 3 attempts. Quitting step.
ElecMinimize: 	Undoing step.
	Linear fluid (dielectric constant: 64) occupying 0.996333 of unit cell:	Completed after 0 iterations at t[s]:    191.54
ElecMinimize: 	Step failed: resetting search direction.
ElecMinimize: Iter:  25  Etot: -116.102981161863141  |grad|_K:  1.842e-07  alpha:  2.866e-04
	Linear fluid (dielectric constant: 64) occupying 0.996333 of unit cell:	Completed after 0 iterations at t[s]:    192.14
	Linear fluid (dielectric constant: 64) occupying 0.996333 of unit cell:	Completed after 0 iterations at t[s]:    192.68
ElecMinimize: Iter:  26  Etot: -116.102981187606289  |grad|_K:  1.100e-07  alpha:  4.613e-01  linmin: -2.001e-06  t[s]:    192.92
	Linear fluid (dielectric constant: 64) occupying 0.996333 of unit cell:	Completed after 0 iterations at t[s]:    193.27
	Linear fluid (dielectric constant: 64) occupying 0.996333 of unit cell:	Completed after 0 iterations at t[s]:    193.82
ElecMinimize: Iter:  27  Etot: -116.102981205829082  |grad|_K:  1.029e-07  alpha:  9.148e-01  linmin:  4.214e-05  t[s]:    194.05
	Linear fluid (dielectric constant: 64) occupying 0.996333 of unit cell:	Completed after 0 iterations at t[s]:    194.41
	Linear fluid (dielectric constant: 64) occupying 0.996333 of unit cell:	Completed after 0 iterations at t[s]:    194.95
ElecMinimize: Iter:  28  Etot: -116.102981235094731  |grad|_K:  1.129e-07  alpha:  1.681e+00  linmin:  9.816e-05  t[s]:    195.19
	Linear fluid (dielectric constant: 64) occupying 0.996333 of unit cell:	Completed after 0 iterations at t[s]:    195.55
	Linear fluid (dielectric constant: 64) occupying 0.996333 of unit cell:	Completed after 0 iterations at t[s]:    196.10
ElecMinimize: Iter:  29  Etot: -116.102981256294143  |grad|_K:  1.015e-07  alpha:  1.012e+00  linmin: -3.194e-06  t[s]:    196.34
	Linear fluid (dielectric constant: 64) occupying 0.996333 of unit cell:	Completed after 0 iterations at t[s]:    196.70
	Linear fluid (dielectric constant: 64) occupying 0.996333 of unit cell:	Completed after 0 iterations at t[s]:    197.24
ElecMinimize: Iter:  30  Etot: -116.102981276778209  |grad|_K:  9.276e-08  alpha:  1.210e+00  linmin: -2.834e-06  t[s]:    197.47
	Linear fluid (dielectric constant: 64) occupying 0.996333 of unit cell:	Completed after 0 iterations at t[s]:    197.83
	Linear fluid (dielectric constant: 64) occupying 0.996333 of unit cell:	Completed after 0 iterations at t[s]:    198.37
ElecMinimize: Iter:  31  Etot: -116.102981289108769  |grad|_K:  7.219e-08  alpha:  8.712e-01  linmin:  5.877e-07  t[s]:    198.61
	Linear fluid (dielectric constant: 64) occupying 0.996333 of unit cell:	Completed after 0 iterations at t[s]:    198.98
	Linear fluid (dielectric constant: 64) occupying 0.996333 of unit cell:	Completed after 0 iterations at t[s]:    199.52
ElecMinimize: Iter:  32  Etot: -116.102981297515058  |grad|_K:  5.082e-08  alpha:  9.806e-01  linmin: -8.055e-06  t[s]:    199.76
	Linear fluid (dielectric constant: 64) occupying 0.996333 of unit cell:	Completed after 0 iterations at t[s]:    200.12
	Linear fluid (dielectric constant: 64) occupying 0.996333 of unit cell:	Completed after 0 iterations at t[s]:    200.68
ElecMinimize: Iter:  33  Etot: -116.102981300922849  |grad|_K:  3.940e-08  alpha:  8.021e-01  linmin:  3.000e-06  t[s]:    200.91
ElecMinimize: Converged (|Delta Etot|<1.000000e-08 for 2 iters).
Setting wave functions to eigenvectors of Hamiltonian

-------- Electronic minimization -----------
	Linear fluid (dielectric constant: 64) occupying 0.996306 of unit cell:	Completed after 31 iterations at t[s]:    202.93
ElecMinimize: Iter:   0  Etot: -111.484548109640102  |grad|_K:  3.322e-03  alpha:  1.000e+00
	Linear fluid (dielectric constant: 64) occupying 0.996338 of unit cell:	Completed after 36 iterations at t[s]:    206.12
	Linear fluid (dielectric constant: 64) occupying 0.996282 of unit cell:	Completed after 31 iterations at t[s]:    208.90
ElecMinimize: Iter:   1  Etot: -111.559792024083890  |grad|_K:  3.287e-03  alpha:  3.857e-01  linmin: -5.700e-01  t[s]:    209.21
	Linear fluid (dielectric constant: 64) occupying 0.996344 of unit cell:	Completed after 46 iterations at t[s]:    212.76
	Linear fluid (dielectric constant: 64) occupying 0.996280 of unit cell:	Completed after 31 iterations at t[s]:    215.53
ElecMinimize: Iter:   2  Etot: -112.624913182031918  |grad|_K:  2.604e-03  alpha:  1.658e-01  linmin: -4.918e-01  t[s]:    215.84
	Linear fluid (dielectric constant: 64) occupying 0.996313 of unit cell:	Completed after 39 iterations at t[s]:    218.94
	Linear fluid (dielectric constant: 64) occupying 0.996302 of unit cell:	Completed after 26 iterations at t[s]:    221.35
ElecMinimize: Iter:   3  Etot: -114.730414861396511  |grad|_K:  1.437e-03  alpha:  1.009e-01  linmin: -6.808e-02  t[s]:    221.66
	Linear fluid (dielectric constant: 64) occupying 0.996290 of unit cell:	Completed after 23 iterations at t[s]:    223.59
	Linear fluid (dielectric constant: 64) occupying 0.996286 of unit cell:	Completed after 15 iterations at t[s]:    225.23
ElecMinimize: Iter:   4  Etot: -115.243980997973324  |grad|_K:  1.207e-03  alpha:  1.344e-01  linmin: -5.370e-03  t[s]:    225.55
	Linear fluid (dielectric constant: 64) occupying 0.996253 of unit cell:	Completed after 23 iterations at t[s]:    227.46
	Linear fluid (dielectric constant: 64) occupying 0.996257 of unit cell:	Completed after 12 iterations at t[s]:    228.89
ElecMinimize: Iter:   5  Etot: -115.533295521998753  |grad|_K:  9.577e-04  alpha:  1.191e-01  linmin:  2.312e-03  t[s]:    229.22
	Linear fluid (dielectric constant: 64) occupying 0.996230 of unit cell:	Completed after 23 iterations at t[s]:    231.11
	Linear fluid (dielectric constant: 64) occupying 0.996232 of unit cell:	Completed after 9 iterations at t[s]:    232.31
ElecMinimize: Iter:   6  Etot: -115.703685419989313  |grad|_K:  7.897e-04  alpha:  1.134e-01  linmin:  2.580e-03  t[s]:    232.63
	Linear fluid (dielectric constant: 64) occupying 0.996215 of unit cell:	Completed after 22 iterations at t[s]:    234.51
	Linear fluid (dielectric constant: 64) occupying 0.996215 of unit cell:	Completed after 4 iterations at t[s]:    235.40
ElecMinimize: Iter:   7  Etot: -115.822741938201119  |grad|_K:  6.935e-04  alpha:  1.167e-01  linmin:  2.082e-03  t[s]:    235.66
	Linear fluid (dielectric constant: 64) occupying 0.996208 of unit cell:	Completed after 19 iterations at t[s]:    237.33
	Linear fluid (dielectric constant: 64) occupying 0.996208 of unit cell:	Completed after 4 iterations at t[s]:    238.22
ElecMinimize: Iter:   8  Etot: -115.912014624262852  |grad|_K:  5.967e-04  alpha:  1.133e-01  linmin:  8.651e-04  t[s]:    238.48
	Linear fluid (dielectric constant: 64) occupying 0.996210 of unit cell:	Completed after 19 iterations at t[s]:    240.15
	Linear fluid (dielectric constant: 64) occupying 0.996210 of unit cell:	Completed after 4 iterations at t[s]:    241.04
ElecMinimize: Iter:   9  Etot: -115.974226564694391  |grad|_K:  4.858e-04  alpha:  1.064e-01  linmin: -3.834e-04  t[s]:    241.29
	Linear fluid (dielectric constant: 64) occupying 0.996217 of unit cell:	Completed after 16 iterations at t[s]:    242.73
	Linear fluid (dielectric constant: 64) occupying 0.996217 of unit cell:	Completed after 0 iterations at t[s]:    243.49
ElecMinimize: Iter:  10  Etot: -116.015331875474828  |grad|_K:  3.964e-04  alpha:  1.058e-01  linmin: -4.525e-04  t[s]:    243.72
	Linear fluid (dielectric constant: 64) occupying 0.996225 of unit cell:	Completed after 15 iterations at t[s]:    244.96
	Linear fluid (dielectric constant: 64) occupying 0.996225 of unit cell:	Completed after 3 iterations at t[s]:    245.84
ElecMinimize: Iter:  11  Etot: -116.044057876962754  |grad|_K:  3.366e-04  alpha:  1.110e-01  linmin: -3.670e-04  t[s]:    246.08
	Linear fluid (dielectric constant: 64) occupying 0.996231 of unit cell:	Completed after 13 iterations at t[s]:    247.26
	Linear fluid (dielectric constant: 64) occupying 0.996231 of unit cell:	Completed after 2 iterations at t[s]:    248.10
ElecMinimize: Iter:  12  Etot: -116.065202972240272  |grad|_K:  2.861e-04  alpha:  1.134e-01  linmin: -3.738e-04  t[s]:    248.34
	Linear fluid (dielectric constant: 64) occupying 0.996234 of unit cell:	Completed after 13 iterations at t[s]:    249.49
	Linear fluid (dielectric constant: 64) occupying 0.996234 of unit cell:	Completed after 3 iterations at t[s]:    250.38
ElecMinimize: Iter:  13  Etot: -116.080012512262584  |grad|_K:  2.346e-04  alpha:  1.099e-01  linmin:  3.078e-04  t[s]:    250.61
	Linear fluid (dielectric constant: 64) occupying 0.996236 of unit cell:	Completed after 14 iterations at t[s]:    251.91
	Linear fluid (dielectric constant: 64) occupying 0.996236 of unit cell:	Completed after 3 iterations at t[s]:    252.78
ElecMinimize: Iter:  14  Etot: -116.089719705144972  |grad|_K:  1.919e-04  alpha:  1.073e-01  linmin:  5.203e-04  t[s]:    253.01
	Linear fluid (dielectric constant: 64) occupying 0.996238 of unit cell:	Completed after 13 iterations at t[s]:    254.21
	Linear fluid (dielectric constant: 64) occupying 0.996238 of unit cell:	Completed after 2 iterations at t[s]:    255.05
ElecMinimize: Iter:  15  Etot: -116.096403731697450  |grad|_K:  1.633e-04  alpha:  1.105e-01  linmin:  2.738e-05  t[s]:    255.28
	Linear fluid (dielectric constant: 64) occupying 0.996241 of unit cell:	Completed after 9 iterations at t[s]:    256.14
	Linear fluid (dielectric constant: 64) occupying 0.996241 of unit cell:	Completed after 0 iterations at t[s]:    256.88
ElecMinimize: Iter:  16  Etot: -116.101354506654630  |grad|_K:  1.400e-04  alpha:  1.128e-01  linmin: -7.710e-04  t[s]:    257.11
	Linear fluid (dielectric constant: 64) occupying 0.996245 of unit cell:	Completed after 9 iterations at t[s]:    257.93
	Linear fluid (dielectric constant: 64) occupying 0.996245 of unit cell:	Completed after 0 iterations at t[s]:    258.61
ElecMinimize: Iter:  17  Etot: -116.104893977808274  |grad|_K:  1.152e-04  alpha:  1.095e-01  linmin:  8.227e-04  t[s]:    258.84
	Linear fluid (dielectric constant: 64) occupying 0.996248 of unit cell:	Completed after 11 iterations at t[s]:    259.76
	Linear fluid (dielectric constant: 64) occupying 0.996248 of unit cell:	Completed after 0 iterations at t[s]:    260.49
ElecMinimize: Iter:  18  Etot: -116.107222075138978  |grad|_K:  9.287e-05  alpha:  1.069e-01  linmin:  2.815e-03  t[s]:    260.73
	Linear fluid (dielectric constant: 64) occupying 0.996251 of unit cell:	Completed after 10 iterations at t[s]:    261.58
	Linear fluid (dielectric constant: 64) occupying 0.996251 of unit cell:	Completed after 0 iterations at t[s]:    262.29
ElecMinimize: Iter:  19  Etot: -116.108777424911366  |grad|_K:  7.766e-05  alpha:  1.103e-01  linmin: -3.991e-04  t[s]:    262.53
	Linear fluid (dielectric constant: 64) occupying 0.996252 of unit cell:	Completed after 9 iterations at t[s]:    263.35
	Linear fluid (dielectric constant: 64) occupying 0.996252 of unit cell:	Completed after 0 iterations at t[s]:    264.03
ElecMinimize: Iter:  20  Etot: -116.109904818046203  |grad|_K:  6.695e-05  alpha:  1.135e-01  linmin: -2.788e-03  t[s]:    264.27
	Linear fluid (dielectric constant: 64) occupying 0.996252 of unit cell:	Completed after 4 iterations at t[s]:    264.90
	Linear fluid (dielectric constant: 64) occupying 0.996252 of unit cell:	Completed after 0 iterations at t[s]:    265.54
ElecMinimize: Iter:  21  Etot: -116.110740402694432  |grad|_K:  5.604e-05  alpha:  1.126e-01  linmin: -5.829e-05  t[s]:    265.78
	Linear fluid (dielectric constant: 64) occupying 0.996250 of unit cell:	Completed after 5 iterations at t[s]:    266.45
	Linear fluid (dielectric constant: 64) occupying 0.996250 of unit cell:	Completed after 0 iterations at t[s]:    267.09
ElecMinimize: Iter:  22  Etot: -116.111296431626897  |grad|_K:  4.528e-05  alpha:  1.076e-01  linmin:  2.621e-03  t[s]:    267.33
	Linear fluid (dielectric constant: 64) occupying 0.996249 of unit cell:	Completed after 9 iterations at t[s]:    268.15
	Linear fluid (dielectric constant: 64) occupying 0.996249 of unit cell:	Completed after 0 iterations at t[s]:    268.79
ElecMinimize: Iter:  23  Etot: -116.111657621339830  |grad|_K:  3.727e-05  alpha:  1.077e-01  linmin:  3.723e-04  t[s]:    269.03
	Linear fluid (dielectric constant: 64) occupying 0.996248 of unit cell:	Completed after 3 iterations at t[s]:    269.63
	Linear fluid (dielectric constant: 64) occupying 0.996248 of unit cell:	Completed after 0 iterations at t[s]:    270.27
ElecMinimize: Iter:  24  Etot: -116.111914450581480  |grad|_K:  3.190e-05  alpha:  1.124e-01  linmin: -1.723e-03  t[s]:    270.51
	Linear fluid (dielectric constant: 64) occupying 0.996247 of unit cell:	Completed after 4 iterations at t[s]:    271.06
	Linear fluid (dielectric constant: 64) occupying 0.996247 of unit cell:	Completed after 0 iterations at t[s]:    271.70
ElecMinimize: Iter:  25  Etot: -116.112105321566105  |grad|_K:  2.757e-05  alpha:  1.135e-01  linmin: -3.275e-03  t[s]:    271.94
	Linear fluid (dielectric constant: 64) occupying 0.996246 of unit cell:	Completed after 3 iterations at t[s]:    272.45
	Linear fluid (dielectric constant: 64) occupying 0.996246 of unit cell:	Completed after 0 iterations at t[s]:    273.09
ElecMinimize: Iter:  26  Etot: -116.112245075887003  |grad|_K:  2.279e-05  alpha:  1.109e-01  linmin: -4.452e-04  t[s]:    273.33
	Linear fluid (dielectric constant: 64) occupying 0.996246 of unit cell:	Completed after 3 iterations at t[s]:    273.83
	Linear fluid (dielectric constant: 64) occupying 0.996246 of unit cell:	Completed after 0 iterations at t[s]:    274.47
ElecMinimize: Iter:  27  Etot: -116.112338314561612  |grad|_K:  1.850e-05  alpha:  1.090e-01  linmin:  2.006e-03  t[s]:    274.71
	Linear fluid (dielectric constant: 64) occupying 0.996246 of unit cell:	Completed after 3 iterations at t[s]:    275.21
	Linear fluid (dielectric constant: 64) occupying 0.996246 of unit cell:	Completed after 0 iterations at t[s]:    275.85
ElecMinimize: Iter:  28  Etot: -116.112399128446327  |grad|_K:  1.519e-05  alpha:  1.084e-01  linmin:  7.057e-05  t[s]:    276.09
	Linear fluid (dielectric constant: 64) occupying 0.996246 of unit cell:	Completed after 0 iterations at t[s]:    276.45
	Linear fluid (dielectric constant: 64) occupying 0.996246 of unit cell:	Completed after 0 iterations at t[s]:    276.99
ElecMinimize: Iter:  29  Etot: -116.112442169743190  |grad|_K:  1.258e-05  alpha:  1.135e-01  linmin:  1.852e-06  t[s]:    277.23
	Linear fluid (dielectric constant: 64) occupying 0.996246 of unit cell:	Completed after 2 iterations at t[s]:    277.70
	Linear fluid (dielectric constant: 64) occupying 0.996246 of unit cell:	Completed after 0 iterations at t[s]:    278.33
ElecMinimize: Iter:  30  Etot: -116.112470096826144  |grad|_K:  1.093e-05  alpha:  1.078e-01  linmin: -1.766e-02  t[s]:    278.56
	Linear fluid (dielectric constant: 64) occupying 0.996247 of unit cell:	Completed after 3 iterations at t[s]:    279.07
	Linear fluid (dielectric constant: 64) occupying 0.996247 of unit cell:	Completed after 0 iterations at t[s]:    279.71
ElecMinimize: Iter:  31  Etot: -116.112493756433096  |grad|_K:  9.325e-06  alpha:  1.149e-01  linmin: -6.512e-03  t[s]:    279.94
	Linear fluid (dielectric constant: 64) occupying 0.996247 of unit cell:	Completed after 2 iterations at t[s]:    280.41
	Linear fluid (dielectric constant: 64) occupying 0.996247 of unit cell:	Completed after 0 iterations at t[s]:    281.04
ElecMinimize: Iter:  32  Etot: -116.112509688802106  |grad|_K:  7.903e-06  alpha:  1.099e-01  linmin: -4.506e-03  t[s]:    281.28
	Linear fluid (dielectric constant: 64) occupying 0.996247 of unit cell:	Completed after 0 iterations at t[s]:    281.64
	Linear fluid (dielectric constant: 64) occupying 0.996247 of unit cell:	Completed after 0 iterations at t[s]:    282.18
ElecMinimize: Iter:  33  Etot: -116.112521220787698  |grad|_K:  6.368e-06  alpha:  1.111e-01  linmin: -7.755e-07  t[s]:    282.42
	Linear fluid (dielectric constant: 64) occupying 0.996247 of unit cell:	Completed after 3 iterations at t[s]:    282.92
	Linear fluid (dielectric constant: 64) occupying 0.996247 of unit cell:	Completed after 0 iterations at t[s]:    283.56
ElecMinimize: Iter:  34  Etot: -116.112527476144479  |grad|_K:  5.328e-06  alpha:  9.623e-02  linmin: -2.582e-02  t[s]:    283.79
	Linear fluid (dielectric constant: 64) occupying 0.996248 of unit cell:	Completed after 0 iterations at t[s]:    284.15
	Linear fluid (dielectric constant: 64) occupying 0.996248 of unit cell:	Completed after 2 iterations at t[s]:    284.80
ElecMinimize: Iter:  35  Etot: -116.112532800720231  |grad|_K:  4.557e-06  alpha:  1.264e-01  linmin:  5.019e-02  t[s]:    285.04
	Linear fluid (dielectric constant: 64) occupying 0.996248 of unit cell:	Completed after 2 iterations at t[s]:    285.57
	Linear fluid (dielectric constant: 64) occupying 0.996248 of unit cell:	Completed after 0 iterations at t[s]:    286.20
ElecMinimize: Iter:  36  Etot: -116.112535582764039  |grad|_K:  4.255e-06  alpha:  9.828e-02  linmin: -1.068e-02  t[s]:    286.44
	Linear fluid (dielectric constant: 64) occupying 0.996248 of unit cell:	Completed after 0 iterations at t[s]:    286.80
	Linear fluid (dielectric constant: 64) occupying 0.996248 of unit cell:	Completed after 0 iterations at t[s]:    287.34
ElecMinimize: Iter:  37  Etot: -116.112539213008603  |grad|_K:  3.540e-06  alpha:  1.185e-01  linmin:  2.086e-06  t[s]:    287.57
	Linear fluid (dielectric constant: 64) occupying 0.996248 of unit cell:	Completed after 1 iterations at t[s]:    288.00
	Linear fluid (dielectric constant: 64) occupying 0.996248 of unit cell:	Completed after 0 iterations at t[s]:    288.60
ElecMinimize: Iter:  38  Etot: -116.112541146274552  |grad|_K:  3.045e-06  alpha:  9.878e-02  linmin: -4.450e-02  t[s]:    288.84
[...]
	Linear fluid (dielectric constant: 64) occupying 0.996020 of unit cell:	Completed after 0 iterations at t[s]:   1016.88
ElecMinimize: Iter:  21  Etot: -116.129287486357740  |grad|_K:  1.286e-07  alpha:  1.075e+00  linmin:  2.110e-07  t[s]:   1017.12
	Linear fluid (dielectric constant: 64) occupying 0.996020 of unit cell:	Completed after 0 iterations at t[s]:   1017.48
	Linear fluid (dielectric constant: 64) occupying 0.996020 of unit cell:	Completed after 0 iterations at t[s]:   1018.02
ElecMinimize: Iter:  22  Etot: -116.129287511606350  |grad|_K:  1.105e-07  alpha:  9.286e-01  linmin:  7.458e-07  t[s]:   1018.25
	Linear fluid (dielectric constant: 64) occupying 0.996020 of unit cell:	Completed after 0 iterations at t[s]:   1018.61
	Linear fluid (dielectric constant: 64) occupying 0.996020 of unit cell:	Completed after 0 iterations at t[s]:   1019.15
ElecMinimize: Iter:  23  Etot: -116.129287532888071  |grad|_K:  9.076e-08  alpha:  1.060e+00  linmin:  3.410e-06  t[s]:   1019.39
	Linear fluid (dielectric constant: 64) occupying 0.996020 of unit cell:	Completed after 0 iterations at t[s]:   1019.74
	Linear fluid (dielectric constant: 64) occupying 0.996020 of unit cell:	Completed after 0 iterations at t[s]:   1020.29
ElecMinimize: Iter:  24  Etot: -116.129287545031048  |grad|_K:  6.179e-08  alpha:  8.960e-01  linmin:  3.120e-07  t[s]:   1020.52
	Linear fluid (dielectric constant: 64) occupying 0.996020 of unit cell:	Completed after 0 iterations at t[s]:   1020.88
	Linear fluid (dielectric constant: 64) occupying 0.996020 of unit cell:	Completed after 0 iterations at t[s]:   1021.43
ElecMinimize: Iter:  25  Etot: -116.129287550148845  |grad|_K:  4.274e-08  alpha:  8.149e-01  linmin:  2.391e-06  t[s]:   1021.66
	Linear fluid (dielectric constant: 64) occupying 0.996020 of unit cell:	Completed after 0 iterations at t[s]:   1022.02
	Linear fluid (dielectric constant: 64) occupying 0.996020 of unit cell:	Completed after 0 iterations at t[s]:   1022.56
ElecMinimize: Iter:  26  Etot: -116.129287553593386  |grad|_K:  3.549e-08  alpha:  1.146e+00  linmin: -3.711e-05  t[s]:   1022.79
ElecMinimize: Converged (|Delta Etot|<1.000000e-08 for 2 iters).
Setting wave functions to eigenvectors of Hamiltonian

-------- Electronic minimization -----------
	Linear fluid (dielectric constant: 64) occupying 0.996018 of unit cell:	Completed after 14 iterations at t[s]:   1023.74
ElecMinimize: Iter:   0  Etot: -116.129265219803742  |grad|_K:  4.166e-06  alpha:  1.000e+00
	Linear fluid (dielectric constant: 64) occupying 0.996018 of unit cell:	Completed after 4 iterations at t[s]:   1024.61
	Linear fluid (dielectric constant: 64) occupying 0.996018 of unit cell:	Completed after 1 iterations at t[s]:   1025.33
ElecMinimize: Iter:   1  Etot: -116.129284022927322  |grad|_K:  1.643e-06  alpha:  6.623e-01  linmin:  3.471e-02  t[s]:   1025.57
	Linear fluid (dielectric constant: 64) occupying 0.996018 of unit cell:	Completed after 0 iterations at t[s]:   1026.02
	Linear fluid (dielectric constant: 64) occupying 0.996018 of unit cell:	Completed after 0 iterations at t[s]:   1026.66
ElecMinimize: Iter:   2  Etot: -116.129286969527186  |grad|_K:  1.110e-06  alpha:  6.752e-01  linmin:  2.431e-06  t[s]:   1026.90
	Linear fluid (dielectric constant: 64) occupying 0.996018 of unit cell:	Completed after 0 iterations at t[s]:   1027.35
	Linear fluid (dielectric constant: 64) occupying 0.996018 of unit cell:	Completed after 0 iterations at t[s]:   1027.89
ElecMinimize: Iter:   3  Etot: -116.129288246386722  |grad|_K:  6.981e-07  alpha:  6.296e-01  linmin:  1.584e-05  t[s]:   1028.13
	Linear fluid (dielectric constant: 64) occupying 0.996018 of unit cell:	Completed after 0 iterations at t[s]:   1028.48
	Linear fluid (dielectric constant: 64) occupying 0.996018 of unit cell:	Completed after 1 iterations at t[s]:   1029.10
ElecMinimize: Iter:   4  Etot: -116.129288532594344  |grad|_K:  6.140e-07  alpha:  8.789e-01  linmin:  7.157e-02  t[s]:   1029.33
	Linear fluid (dielectric constant: 64) occupying 0.996019 of unit cell:	Completed after 0 iterations at t[s]:   1029.77
	Linear fluid (dielectric constant: 64) occupying 0.996019 of unit cell:	Completed after 0 iterations at t[s]:   1030.34
ElecMinimize: Iter:   5  Etot: -116.129288780347608  |grad|_K:  3.886e-07  alpha:  6.055e-01  linmin: -1.263e-01  t[s]:   1030.57
	Linear fluid (dielectric constant: 64) occupying 0.996019 of unit cell:	Completed after 0 iterations at t[s]:   1030.93
	Linear fluid (dielectric constant: 64) occupying 0.996019 of unit cell:	Completed after 0 iterations at t[s]:   1031.47
ElecMinimize: Iter:   6  Etot: -116.129288988935301  |grad|_K:  3.640e-07  alpha:  7.180e-01  linmin: -8.682e-07  t[s]:   1031.71
	Linear fluid (dielectric constant: 64) occupying 0.996019 of unit cell:	Completed after 0 iterations at t[s]:   1032.07
	Linear fluid (dielectric constant: 64) occupying 0.996019 of unit cell:	Completed after 0 iterations at t[s]:   1032.61
ElecMinimize: Iter:   7  Etot: -116.129289160434439  |grad|_K:  2.894e-07  alpha:  7.867e-01  linmin: -7.140e-06  t[s]:   1032.84
	Linear fluid (dielectric constant: 64) occupying 0.996019 of unit cell:	Completed after 0 iterations at t[s]:   1033.20
	Linear fluid (dielectric constant: 64) occupying 0.996019 of unit cell:	Completed after 0 iterations at t[s]:   1033.74
ElecMinimize: Iter:   8  Etot: -116.129289244228431  |grad|_K:  2.009e-07  alpha:  6.081e-01  linmin: -3.973e-07  t[s]:   1033.97
	Linear fluid (dielectric constant: 64) occupying 0.996019 of unit cell:	Completed after 0 iterations at t[s]:   1034.33
	Linear fluid (dielectric constant: 64) occupying 0.996019 of unit cell:	Completed after 0 iterations at t[s]:   1034.87
ElecMinimize: Iter:   9  Etot: -116.129289292017660  |grad|_K:  1.636e-07  alpha:  7.199e-01  linmin: -1.437e-06  t[s]:   1035.11
	Linear fluid (dielectric constant: 64) occupying 0.996019 of unit cell:	Completed after 0 iterations at t[s]:   1035.50
	Linear fluid (dielectric constant: 64) occupying 0.996019 of unit cell:	Completed after 0 iterations at t[s]:   1036.07
ElecMinimize: 	Step increased Etot by 1.045703e-07, reducing alpha to 1.432585e-02.
	Linear fluid (dielectric constant: 64) occupying 0.996019 of unit cell:	Completed after 0 iterations at t[s]:   1036.66
ElecMinimize: 	Step increased Etot by 1.129435e-07, reducing alpha to 1.432585e-03.
	Linear fluid (dielectric constant: 64) occupying 0.996019 of unit cell:	Completed after 0 iterations at t[s]:   1037.25
ElecMinimize: 	Step increased Etot by 1.139104e-07, reducing alpha to 1.432585e-04.
ElecMinimize: 	Step failed to reduce Etot after 3 attempts. Quitting step.
ElecMinimize: 	Undoing step.
	Linear fluid (dielectric constant: 64) occupying 0.996019 of unit cell:	Completed after 0 iterations at t[s]:   1037.84
ElecMinimize: 	Step failed: resetting search direction.
ElecMinimize: Iter:  10  Etot: -116.129289178096428  |grad|_K:  1.736e-07  alpha:  1.433e-04
	Linear fluid (dielectric constant: 64) occupying 0.996019 of unit cell:	Completed after 0 iterations at t[s]:   1038.44
	Linear fluid (dielectric constant: 64) occupying 0.996019 of unit cell:	Completed after 0 iterations at t[s]:   1038.98
ElecMinimize: Iter:  11  Etot: -116.129289207635964  |grad|_K:  1.217e-07  alpha:  5.957e-01  linmin:  2.982e-07  t[s]:   1039.22
	Linear fluid (dielectric constant: 64) occupying 0.996019 of unit cell:	Completed after 0 iterations at t[s]:   1039.58
	Linear fluid (dielectric constant: 64) occupying 0.996019 of unit cell:	Completed after 0 iterations at t[s]:   1040.12
ElecMinimize: Iter:  12  Etot: -116.129289226640509  |grad|_K:  9.403e-08  alpha:  7.806e-01  linmin:  1.330e-05  t[s]:   1040.36
	Linear fluid (dielectric constant: 64) occupying 0.996019 of unit cell:	Completed after 0 iterations at t[s]:   1040.72
	Linear fluid (dielectric constant: 64) occupying 0.996019 of unit cell:	Completed after 0 iterations at t[s]:   1041.26
ElecMinimize: Iter:  13  Etot: -116.129289237231106  |grad|_K:  4.635e-08  alpha:  7.282e-01  linmin:  1.015e-05  t[s]:   1041.50
	Linear fluid (dielectric constant: 64) occupying 0.996019 of unit cell:	Completed after 0 iterations at t[s]:   1041.85
	Linear fluid (dielectric constant: 64) occupying 0.996018 of unit cell:	Completed after 0 iterations at t[s]:   1042.39
ElecMinimize: Iter:  14  Etot: -116.129289241423720  |grad|_K:  4.428e-08  alpha:  1.186e+00  linmin: -1.482e-05  t[s]:   1042.63
	Linear fluid (dielectric constant: 64) occupying 0.996018 of unit cell:	Completed after 0 iterations at t[s]:   1042.99
	Linear fluid (dielectric constant: 64) occupying 0.996018 of unit cell:	Completed after 0 iterations at t[s]:   1043.53
ElecMinimize: Iter:  15  Etot: -116.129289245655301  |grad|_K:  4.058e-08  alpha:  1.312e+00  linmin:  1.355e-05  t[s]:   1043.77
ElecMinimize: Converged (|Delta Etot|<1.000000e-08 for 2 iters).
Setting wave functions to eigenvectors of Hamiltonian

# Ionic positions in cartesian coordinates:
ion S   9.382212968950164  12.388638970195659  28.515772503844289 1
ion S   5.994168789904015  10.099082163306175  28.492764825459762 1
ion Na  11.185035781184526   5.975757266351908  24.197900569111308 1
ion Na   3.980901388141286  16.613041197286261  24.556239748904659 1

# Forces in Cartesian coordinates:
force S  -0.000363663683675  -0.000195847736935   0.000748332158680 1
force S   0.000384705958425   0.000202833154890  -0.000697962748049 1
force Na  -0.000345675953642   0.000415979624343   0.000413553281673 1
force Na   0.000269675925880  -0.000400477581414   0.000285015136737 1

# Energy components:
   A_diel =       -0.4194184781530542
   Eewald =       22.0614370092076015
       EH =      118.9667490577433426
     Eloc =     -121.7323852399468365
      Enl =     -140.4027885516394178
      Exc =      -22.7840061950529673
 Exc_core =        3.5354584337216473
       KE =       24.6456647184643778
-------------------------------------
     Etot =     -116.1292892456553005

IonicMinimize: Iter:  16  Etot: -116.129289245655301  |grad|_K:  4.127e-04  alpha:  3.990e+00  linmin:  3.251e-01  t[s]:   1044.04
IonicMinimize: 	Bad step direction: g.d > 0.
IonicMinimize: 	Undoing step.

#--- Lowdin population analysis ---
# oxidation-state S -0.863 -0.862
# oxidation-state Na +0.975 +0.975


-------- Electronic minimization -----------
	Linear fluid (dielectric constant: 64) occupying 0.996018 of unit cell:	Completed after 0 iterations at t[s]:   1044.44
ElecMinimize: Iter:   0  Etot: -116.129289245655315  |grad|_K:  4.058e-08  alpha:  1.000e+00
	Linear fluid (dielectric constant: 64) occupying 0.996018 of unit cell:	Completed after 0 iterations at t[s]:   1045.03
	Linear fluid (dielectric constant: 64) occupying 0.996018 of unit cell:	Completed after 0 iterations at t[s]:   1045.58
ElecMinimize: Iter:   1  Etot: -116.129289247373535  |grad|_K:  2.764e-08  alpha:  6.342e-01  linmin:  1.147e-06  t[s]:   1045.82
	Linear fluid (dielectric constant: 64) occupying 0.996018 of unit cell:	Completed after 0 iterations at t[s]:   1046.18
	Linear fluid (dielectric constant: 64) occupying 0.996018 of unit cell:	Completed after 0 iterations at t[s]:   1046.72
ElecMinimize: Iter:   2  Etot: -116.129289248741429  |grad|_K:  2.411e-08  alpha:  1.089e+00  linmin: -3.733e-05  t[s]:   1046.96
ElecMinimize: Converged (|Delta Etot|<1.000000e-08 for 2 iters).
Setting wave functions to eigenvectors of Hamiltonian
IonicMinimize: 	Step failed: resetting search direction.

# Ionic positions in cartesian coordinates:
ion S   9.382212968950164  12.388638970195659  28.515772503844289 1
ion S   5.994168789904015  10.099082163306175  28.492764825459762 1
ion Na  11.185035781184526   5.975757266351908  24.197900569111308 1
ion Na   3.980901388141286  16.613041197286261  24.556239748904659 1

# Forces in Cartesian coordinates:
force S  -0.000369404768506  -0.000199381546246   0.000746571044699 1
force S   0.000387581080709   0.000206363382878  -0.000680864901362 1
force Na  -0.000327734920162   0.000393656334071   0.000398217579988 1
force Na   0.000254481264351  -0.000377893203631   0.000271046157241 1

# Energy components:
   A_diel =       -0.4194163140269673
   Eewald =       22.0614370092076015
       EH =      118.9667028357133631
     Eloc =     -121.7323535921000968
      Enl =     -140.4027734897427422
      Exc =      -22.7839998109309008
 Exc_core =        3.5354584337216473
       KE =       24.6456556794166453
-------------------------------------
     Etot =     -116.1292892487414292

IonicMinimize: Iter:  17  Etot: -116.129289248741429  |grad|_K:  4.037e-04  alpha:  0.000e+00

#--- Lowdin population analysis ---
# oxidation-state S -0.863 -0.862
# oxidation-state Na +0.975 +0.975


-------- Electronic minimization -----------
	Linear fluid (dielectric constant: 64) occupying 0.996019 of unit cell:	Completed after 3 iterations at t[s]:   1047.79
ElecMinimize: Iter:   0  Etot: -116.129288553390751  |grad|_K:  1.031e-06  alpha:  1.000e+00
	Linear fluid (dielectric constant: 64) occupying 0.996019 of unit cell:	Completed after 3 iterations at t[s]:   1048.63
	Linear fluid (dielectric constant: 64) occupying 0.996019 of unit cell:	Completed after 0 iterations at t[s]:   1049.28
ElecMinimize: 	Step increased Etot by 3.062455e-07, reducing alpha to 4.425044e-02.
	Linear fluid (dielectric constant: 64) occupying 0.996019 of unit cell:	Completed after 0 iterations at t[s]:   1049.88
ElecMinimize: 	Step increased Etot by 7.560973e-07, reducing alpha to 4.425044e-03.
	Linear fluid (dielectric constant: 64) occupying 0.996019 of unit cell:	Completed after 1 iterations at t[s]:   1050.55
ElecMinimize: 	Step increased Etot by 1.283293e-06, reducing alpha to 4.425044e-04.
ElecMinimize: 	Step failed to reduce Etot after 3 attempts. Quitting step.
ElecMinimize: 	Undoing step.
	Linear fluid (dielectric constant: 64) occupying 0.996019 of unit cell:	Completed after 0 iterations at t[s]:   1051.18
ElecMinimize: 	Step failed along negative gradient direction.
ElecMinimize: Probably at roundoff error limit. (Stopping)
Setting wave functions to eigenvectors of Hamiltonian

-------- Electronic minimization -----------
	Linear fluid (dielectric constant: 64) occupying 0.996019 of unit cell:	Completed after 3 iterations at t[s]:   1051.97
ElecMinimize: Iter:   0  Etot: -116.129289178581999  |grad|_K:  7.202e-07  alpha:  1.000e+00
	Linear fluid (dielectric constant: 64) occupying 0.996019 of unit cell:	Completed after 4 iterations at t[s]:   1052.84
	Linear fluid (dielectric constant: 64) occupying 0.996019 of unit cell:	Completed after 0 iterations at t[s]:   1053.49
ElecMinimize: 	Step increased Etot by 4.240287e-08, reducing alpha to 3.545672e-02.
	Linear fluid (dielectric constant: 64) occupying 0.996019 of unit cell:	Completed after 0 iterations at t[s]:   1054.09
ElecMinimize: Iter:   1  Etot: -116.129289199449389  |grad|_K:  3.978e-07  alpha:  3.546e-02  linmin: -6.564e-02  t[s]:   1054.33
	Linear fluid (dielectric constant: 64) occupying 0.996019 of unit cell:	Completed after 0 iterations at t[s]:   1054.68
ElecMinimize: 	Predicted alpha/alphaT>3.000000, increasing alphaT to 1.063701e-01.
	Linear fluid (dielectric constant: 64) occupying 0.996019 of unit cell:	Completed after 0 iterations at t[s]:   1055.23
ElecMinimize: 	Predicted alpha/alphaT>3.000000, increasing alphaT to 3.191104e-01.
	Linear fluid (dielectric constant: 64) occupying 0.996019 of unit cell:	Completed after 0 iterations at t[s]:   1055.77
	Linear fluid (dielectric constant: 64) occupying 0.996019 of unit cell:	Completed after 0 iterations at t[s]:   1056.35
ElecMinimize: Iter:   2  Etot: -116.129289243738071  |grad|_K:  2.653e-07  alpha:  7.883e-01  linmin:  2.811e-02  t[s]:   1056.59
	Linear fluid (dielectric constant: 64) occupying 0.996019 of unit cell:	Completed after 0 iterations at t[s]:   1056.95
	Linear fluid (dielectric constant: 64) occupying 0.996019 of unit cell:	Completed after 0 iterations at t[s]:   1057.50
ElecMinimize: Iter:   3  Etot: -116.129289318156211  |grad|_K:  2.057e-07  alpha:  6.659e-01  linmin: -2.956e-06  t[s]:   1057.75
	Linear fluid (dielectric constant: 64) occupying 0.996019 of unit cell:	Completed after 0 iterations at t[s]:   1058.11
	Linear fluid (dielectric constant: 64) occupying 0.996019 of unit cell:	Completed after 0 iterations at t[s]:   1058.66
ElecMinimize: Iter:   4  Etot: -116.129289379776765  |grad|_K:  1.581e-07  alpha:  8.854e-01  linmin:  3.161e-06  t[s]:   1058.91
	Linear fluid (dielectric constant: 64) occupying 0.996019 of unit cell:	Completed after 0 iterations at t[s]:   1059.26
	Linear fluid (dielectric constant: 64) occupying 0.996019 of unit cell:	Completed after 0 iterations at t[s]:   1059.81
ElecMinimize: Iter:   5  Etot: -116.129289414620104  |grad|_K:  1.117e-07  alpha:  8.470e-01  linmin:  4.159e-06  t[s]:   1060.06
	Linear fluid (dielectric constant: 64) occupying 0.996019 of unit cell:	Completed after 0 iterations at t[s]:   1060.42
	Linear fluid (dielectric constant: 64) occupying 0.996019 of unit cell:	Completed after 0 iterations at t[s]:   1060.96
ElecMinimize: Iter:   6  Etot: -116.129289434851046  |grad|_K:  8.241e-08  alpha:  9.849e-01  linmin:  7.548e-08  t[s]:   1061.21
	Linear fluid (dielectric constant: 64) occupying 0.996019 of unit cell:	Completed after 0 iterations at t[s]:   1061.57
	Linear fluid (dielectric constant: 64) occupying 0.996019 of unit cell:	Completed after 0 iterations at t[s]:   1062.12
ElecMinimize: Iter:   7  Etot: -116.129289447125615  |grad|_K:  5.965e-08  alpha:  1.099e+00  linmin:  4.289e-06  t[s]:   1062.37
	Linear fluid (dielectric constant: 64) occupying 0.996019 of unit cell:	Completed after 0 iterations at t[s]:   1062.72
	Linear fluid (dielectric constant: 64) occupying 0.996019 of unit cell:	Completed after 0 iterations at t[s]:   1063.27
ElecMinimize: Iter:   8  Etot: -116.129289451391074  |grad|_K:  3.917e-08  alpha:  7.287e-01  linmin: -7.017e-06  t[s]:   1063.52
	Linear fluid (dielectric constant: 64) occupying 0.996019 of unit cell:	Completed after 0 iterations at t[s]:   1063.88
	Linear fluid (dielectric constant: 64) occupying 0.996019 of unit cell:	Completed after 0 iterations at t[s]:   1064.42
ElecMinimize: Iter:   9  Etot: -116.129289453333044  |grad|_K:  2.430e-08  alpha:  7.693e-01  linmin: -3.894e-05  t[s]:   1064.67
ElecMinimize: Converged (|Delta Etot|<1.000000e-08 for 2 iters).
Setting wave functions to eigenvectors of Hamiltonian

# Ionic positions in cartesian coordinates:
ion S   9.381646959611327  12.388312595845781  28.516668270126711 1
ion S   5.994807556638487  10.099401549749551  28.491388765028688 1
ion Na  11.184536091231074   5.976374737715275  24.198241915625154 1
ion Na   3.981328320699101  16.612430713829394  24.556378696539465 1

# Forces in Cartesian coordinates:
force S  -0.000199589211897  -0.000152881822250  -0.000406986467123 1
force S   0.000177628889371   0.000166034617962   0.000649669662333 1
force Na  -0.000691527209134   0.000835098261890   0.000590855148535 1
force Na   0.000554483832017  -0.000833068959937   0.000286652789258 1

# Energy components:
   A_diel =       -0.4193666451488538
   Eewald =       22.0686363164193544
       EH =      118.9742799901931960
     Eloc =     -121.7468482372272263
      Enl =     -140.4032384480291853
      Exc =      -22.7842121853888173
 Exc_core =        3.5354584378867315
       KE =       24.6460013179617583
-------------------------------------
     Etot =     -116.1292894533330440

IonicMinimize: Iter:  18  Etot: -116.129289453333044  |grad|_K:  4.999e-04  alpha:  1.592e+00  linmin: -2.266e-01  t[s]:   1064.95
IonicMinimize: Converged (|Delta Etot|<1.000000e-06 for 2 iters).

#--- Lowdin population analysis ---
# oxidation-state S -0.863 -0.862
# oxidation-state Na +0.975 +0.975


Dumping 'Na2S2-PC.wfns' ... done
Dumping 'Na2S2-PC.fluidState' ... done
Dumping 'Na2S2-PC.ionpos' ... done
End date and time: Sat Dec 28 21:13:37 2024  (Duration: 0-0:17:45.73)
Done!
