
*************** JDFTx 1.7.0  ***************

Start date and time: Mon Dec 23 12:47:45 2024
Executable jdftx_gpu with command-line: -i /home/akim2/JDFTx/Na2S4-glyme/Na2S4-glyme.in -o /home/akim2/JDFTx/Na2S4-glyme/Na2S4-glyme.out
Running on hosts (process indices):  exp-1-60 (0)
Divided in process groups (process indices):  0 (0)
gpuInit: Found compatible cuda device 0 'Tesla V100-SXM2-32GB'
gpuInit: Selected device 0
Resource initialization completed at t[s]:      0.38
Run totals: 1 processes, 1 threads, 1 GPUs


Input parsed successfully to the following command list (including defaults):

basis kpoint-dependent
coords-type Cartesian
core-overlap-check vector
coulomb-interaction Isolated
coulomb-truncation-embed 4.96043 13.9816 25.2655
davidson-band-ratio 1.1
dump End State
dump-name Na2S4-glyme.$VAR
elec-cutoff 20 100
elec-eigen-algo Davidson
elec-ex-corr gga-PBE
electronic-minimize  \
	dirUpdateScheme      FletcherReeves \
	linminMethod         DirUpdateRecommended \
	nIterations          100 \
	history              15 \
	knormThreshold       0 \
	energyDiffThreshold  1e-08 \
	nEnergyDiff          2 \
	alphaTstart          1 \
	alphaTmin            1e-10 \
	updateTestStepSize   yes \
	alphaTreduceFactor   0.1 \
	alphaTincreaseFactor 3 \
	nAlphaAdjustMax      3 \
	wolfeEnergy          0.0001 \
	wolfeGradient        0.9 \
	fdTest               no
exchange-regularization None
fluid LinearPCM 298.000000 1.013250
fluid-ex-corr lda-TF lda-PZ
fluid-gummel-loop 10 1.000000e-05
fluid-minimize  \
	dirUpdateScheme      PolakRibiere \
	linminMethod         DirUpdateRecommended \
	nIterations          400 \
	history              15 \
	knormThreshold       1e-11 \
	energyDiffThreshold  0 \
	nEnergyDiff          2 \
	alphaTstart          1 \
	alphaTmin            1e-10 \
	updateTestStepSize   yes \
	alphaTreduceFactor   0.1 \
	alphaTincreaseFactor 3 \
	nAlphaAdjustMax      6 \
	wolfeEnergy          0.0001 \
	wolfeGradient        0.9 \
	fdTest               no
fluid-solvent Glyme 9.62137 ScalarEOS \
	epsBulk 7.2 \
	pMol 0 \
	epsInf 1.9 \
	Pvap 0 \
	sigmaBulk 0 \
	Rvdw 0 \
	Res 0 \
	tauNuc 343133
forces-output-coords Positions
ion S   4.960431645660000  13.981560468840000  25.265472781050001 1
ion S   7.075808635770003  13.274826015330000  28.544133544019999 1
ion S   8.239466575169999   9.479152131930000  28.544855420880001 1
ion S  10.355264975069996   8.766735260310000  25.266360954149999 1
ion Na   5.293454984100000   8.983135801530000  24.325194155759998 1
ion Na  10.011364350749997  13.762072108800000  24.311516290019998 1
ion-species GBRV/$ID_pbe.uspp
ion-width Ecut
ionic-minimize  \
	dirUpdateScheme      FletcherReeves \
	linminMethod         DirUpdateRecommended \
	nIterations          200 \
	history              15 \
	knormThreshold       0.0001 \
	energyDiffThreshold  1e-06 \
	nEnergyDiff          2 \
	alphaTstart          1 \
	alphaTmin            1e-10 \
	updateTestStepSize   yes \
	alphaTreduceFactor   0.1 \
	alphaTincreaseFactor 3 \
	nAlphaAdjustMax      3 \
	wolfeEnergy          0.0001 \
	wolfeGradient        0.9 \
	fdTest               no
kpoint   0.000000000000   0.000000000000   0.000000000000  1.00000000000000
kpoint-folding 1 1 1 
latt-move-scale 1 1 1
latt-scale 1 1 1 
lattice Triclinic 28.0058 28.0058 37.7946 90 90 120
lattice-minimize  \
	dirUpdateScheme      L-BFGS \
	linminMethod         DirUpdateRecommended \
	nIterations          0 \
	history              15 \
	knormThreshold       0 \
	energyDiffThreshold  1e-06 \
	nEnergyDiff          2 \
	alphaTstart          1 \
	alphaTmin            1e-10 \
	updateTestStepSize   yes \
	alphaTreduceFactor   0.1 \
	alphaTincreaseFactor 3 \
	nAlphaAdjustMax      3 \
	wolfeEnergy          0.0001 \
	wolfeGradient        0.9 \
	fdTest               no
lcao-params -1 1e-06 0.001
pcm-variant GLSSA13
spintype no-spin
subspace-rotation-factor 1 yes
symmetries automatic
symmetry-threshold 0.0001



---------- Setting up symmetries ----------

Found 24 point-group symmetries of the bravais lattice
Found 1 space-group symmetries with basis
Applied RMS atom displacement 0 bohrs to make symmetries exact.

---------- Initializing the Grid ----------
R = 
[      28.0058     -14.0029            0  ]
[            0      24.2537            0  ]
[            0            0      37.7946  ]
unit cell volume = 25671.8
G =
[   0.224353    0.12953         -0  ]
[          0   0.259061          0  ]
[          0         -0   0.166246  ]
Minimum fftbox size, Smin = [  128  128  172  ]
Chosen fftbox size, S = [  128  128  180  ]

---------- Initializing tighter grid for wavefunction operations ----------
R = 
[      28.0058     -14.0029            0  ]
[            0      24.2537            0  ]
[            0            0      37.7946  ]
unit cell volume = 25671.8
G =
[   0.224353    0.12953         -0  ]
[          0   0.259061          0  ]
[          0         -0   0.166246  ]
Minimum fftbox size, Smin = [  116  116  156  ]
Chosen fftbox size, S = [  120  120  160  ]

---------- Exchange Correlation functional ----------
Initalized PBE GGA exchange.
Initalized PBE GGA correlation.

---------- Setting up pseudopotentials ----------
Width of ionic core gaussian charges (only for fluid interactions / plotting) set to 0.397384

Reading pseudopotential file '/home/akim2/jdftx_install/build/pseudopotentials/GBRV/s_pbe.uspp':
  Title: S.  Created by USPP 7.3.6 on 1-4-15
  Reference state energy: -11.898476.  6 valence electrons in orbitals:
    |300>  occupation: 2  eigenvalue: -0.634167
    |310>  occupation: 4  eigenvalue: -0.257568
  lMax: 2  lLocal: 3  QijEcut: 6
  6 projectors sampled on a log grid with 635 points:
    l: 0  eig: -0.634161  rCut: 1.5
    l: 0  eig: 1.500000  rCut: 1.5
    l: 1  eig: -0.257567  rCut: 1.5
    l: 1  eig: 1.500000  rCut: 1.5
    l: 2  eig: -1.000000  rCut: 1.5
    l: 2  eig: 1.500000  rCut: 1.5
  Partial core density with radius 1.15
  Transforming core density to a uniform radial grid of dG=0.02 with 1625 points.
  Transforming local potential to a uniform radial grid of dG=0.02 with 1625 points.
  Transforming nonlocal projectors to a uniform radial grid of dG=0.02 with 432 points.
  Transforming density augmentations to a uniform radial grid of dG=0.02 with 1625 points.
  Transforming atomic orbitals to a uniform radial grid of dG=0.02 with 432 points.
  Core radius for overlap checks: 1.50 bohrs.

Reading pseudopotential file '/home/akim2/jdftx_install/build/pseudopotentials/GBRV/na_pbe.uspp':
  Title: Na.  Created by USPP 7.3.6 on 23-9-15
  Reference state energy: -47.625620.  9 valence electrons in orbitals:
    |200>  occupation: 2  eigenvalue: -2.085638
    |210>  occupation: 6  eigenvalue: -1.053708
    |300>  occupation: 1  eigenvalue: -0.100838
  lMax: 2  lLocal: 0  QijEcut: 6
  5 projectors sampled on a log grid with 657 points:
    l: 0  eig: -2.085640  rCut: 1.37
    l: 0  eig: -0.100839  rCut: 1.37
    l: 1  eig: -1.053708  rCut: 1.47
    l: 1  eig: 0.500000  rCut: 1.47
    l: 2  eig: 0.750000  rCut: 2
  Transforming local potential to a uniform radial grid of dG=0.02 with 1625 points.
  Transforming nonlocal projectors to a uniform radial grid of dG=0.02 with 432 points.
  Transforming density augmentations to a uniform radial grid of dG=0.02 with 1625 points.
  Transforming atomic orbitals to a uniform radial grid of dG=0.02 with 432 points.
  Core radius for overlap checks: 2.00 bohrs.

Initialized 2 species with 6 total atoms.

Folded 1 k-points by 1x1x1 to 1 k-points.

---------- Setting up k-points, bands, fillings ----------
No reducable k-points. 
Computing the number of bands and number of electrons
Calculating initial fillings.
nElectrons:  42.000000   nBands: 21   nStates: 1

----- Setting up reduced wavefunction bases (one per k-point) -----
average nbasis = 109673.000 , ideal nbasis = 109671.883

---------- Setting up coulomb interaction ----------
Fluid mode embedding: using embedded box, but periodic Coulomb kernel.
(Fluid response is responsible for (approximate) separation between periodic images.)
Setting up double-sized grid for truncated Coulomb potentials:
R = 
[      56.0116     -28.0058            0  ]
[            0      48.5075            0  ]
[            0            0      75.5892  ]
unit cell volume = 205374
G =
[   0.112177  0.0647651         -0  ]
[          0    0.12953          0  ]
[          0         -0  0.0831228  ]
Chosen fftbox size, S = [  256  256  360  ]
Integer grid location selected as the embedding center:
   Grid: [  60  74  120  ]
   Lattice: [  0.465357  0.57647  0.668494  ]
   Cartesian: [  4.96043  13.9816  25.2655  ]
Constructing Wigner-Seitz cell: 8 faces (6 quadrilaterals, 2 hexagons)
Range-separation parameter for embedded mesh potentials due to point charges: 0.590105 bohrs.

---------- Setting up ewald sum ----------
Optimum gaussian width for ewald sums = 17.460913 bohr.
Real space sum over 1089 unit cells with max indices [  5  5  4  ]
Reciprocal space sum over 2873 terms with max indices [  6  6  8  ]

---------- Allocating electronic variables ----------
Initializing wave functions:  linear combination of atomic orbitals
S pseudo-atom occupations:   s ( 2 )  p ( 4 )
Na pseudo-atom occupations:   s ( 2 1 )  p ( 6 )
	FillingsUpdate:  mu: -0.088614534  nElectrons: 42.000000
LCAOMinimize: Iter:   0  Etot: -136.2253494586741738  |grad|_K:  1.848e-02  alpha:  1.000e+00
	FillingsUpdate:  mu: -0.093245074  nElectrons: 42.000000
LCAOMinimize: Iter:   1  Etot: -136.2630642840068163  |grad|_K:  1.041e-02  alpha:  1.874e-01  linmin: -3.574e-01  cgtest:  8.732e-01  t[s]:      3.95
LCAOMinimize: Encountered beta<0, resetting CG.
	FillingsUpdate:  mu: -0.095759784  nElectrons: 42.000000
LCAOMinimize: Iter:   2  Etot: -136.2787173242142558  |grad|_K:  8.187e-03  alpha:  5.527e-01  linmin:  1.878e-01  cgtest: -5.672e-01  t[s]:      4.27
	FillingsUpdate:  mu: -0.095843439  nElectrons: 42.000000
LCAOMinimize: Iter:   3  Etot: -136.2787239709460891  |grad|_K:  8.228e-03  alpha:  5.181e-03  linmin: -2.682e-03  cgtest:  9.991e-01  t[s]:      4.61
LCAOMinimize: None of the convergence criteria satisfied after 3 iterations.
----- createFluidSolver() ----- (Fluid-side solver setup)
   Initializing fluid molecule 'Glyme'
     Net charge: 0   dipole magnitude: 0
     Initializing spherical shell mfKernel with radius 0 Bohr
     deltaS corrections:

Correction to mu due to finite nuclear width = -0.00020291
   Cavity determined by nc: 8.36e-05 and sigma: 0.6
   Effective cavity tension: -8.03e-06 Eh/bohr^2 to account for cavitation and dispersion.


---- Citations for features of the code used in this run ----

   Software package:
      R. Sundararaman, K. Letchworth-Weaver, K.A. Schwarz, D. Gunceler, Y. Ozhabes and T.A. Arias, 'JDFTx: software for joint density-functional theory', SoftwareX 6, 278 (2017)

   gga-PBE exchange-correlation functional:
      J.P. Perdew, K. Burke and M. Ernzerhof, Phys. Rev. Lett. 77, 3865 (1996)

   Pseudopotentials:
      KF Garrity, JW Bennett, KM Rabe and D Vanderbilt, Comput. Mater. Sci. 81, 446 (2014)

   Truncated Coulomb potentials:
      R. Sundararaman and T.A. Arias, Phys. Rev. B 87, 165122 (2013)

   Linear/nonlinear dielectric/ionic fluid model with effective cavity tension:
      D. Gunceler, K. Letchworth-Weaver, R. Sundararaman, K.A. Schwarz and T.A. Arias, Modelling Simul. Mater. Sci. Eng. 21, 074005 (2013)

   Total energy minimization:
      T.A. Arias, M.C. Payne and J.D. Joannopoulos, Phys. Rev. Lett. 69, 1077 (1992)

This list may not be complete. Please suggest additional citations or
report any other bugs at https://github.com/shankar1729/jdftx/issues

Initialization completed successfully at t[s]:      4.61

Fluid solver invoked on fresh (random / LCAO) wavefunctions
Running a vacuum solve first:

-------- Initial electronic minimization -----------
ElecMinimize: Iter:   0  Etot: -136.278723970946146  |grad|_K:  2.815e-04  alpha:  1.000e+00
ElecMinimize: Iter:   1  Etot: -136.469914709118626  |grad|_K:  1.302e-04  alpha:  1.048e+00  linmin:  4.379e-03  t[s]:      5.18
ElecMinimize: Iter:   2  Etot: -136.512737076379437  |grad|_K:  7.571e-05  alpha:  1.100e+00  linmin: -1.532e-04  t[s]:      5.50
ElecMinimize: Iter:   3  Etot: -136.521286043236614  |grad|_K:  5.796e-05  alpha:  6.482e-01  linmin:  4.388e-05  t[s]:      5.84
ElecMinimize: Iter:   4  Etot: -136.525510890710393  |grad|_K:  3.894e-05  alpha:  5.461e-01  linmin:  7.118e-05  t[s]:      6.17
ElecMinimize: Iter:   5  Etot: -136.527974761661255  |grad|_K:  2.389e-05  alpha:  7.056e-01  linmin: -2.472e-04  t[s]:      6.51
ElecMinimize: Iter:   6  Etot: -136.529103002451336  |grad|_K:  1.999e-05  alpha:  8.585e-01  linmin:  1.432e-04  t[s]:      6.84
ElecMinimize: Iter:   7  Etot: -136.529780252711504  |grad|_K:  1.356e-05  alpha:  7.359e-01  linmin:  6.500e-05  t[s]:      7.17
ElecMinimize: Iter:   8  Etot: -136.530114944003628  |grad|_K:  1.037e-05  alpha:  7.902e-01  linmin: -6.851e-05  t[s]:      7.49
ElecMinimize: Iter:   9  Etot: -136.530306532820305  |grad|_K:  6.394e-06  alpha:  7.732e-01  linmin: -1.132e-04  t[s]:      7.83
ElecMinimize: Iter:  10  Etot: -136.530399413101691  |grad|_K:  4.401e-06  alpha:  9.861e-01  linmin:  7.035e-06  t[s]:      8.16
ElecMinimize: Iter:  11  Etot: -136.530435719452527  |grad|_K:  2.943e-06  alpha:  8.139e-01  linmin:  1.834e-06  t[s]:      8.50
ElecMinimize: Iter:  12  Etot: -136.530453291205617  |grad|_K:  1.956e-06  alpha:  8.811e-01  linmin: -1.594e-05  t[s]:      8.84
ElecMinimize: Iter:  13  Etot: -136.530461060036515  |grad|_K:  1.445e-06  alpha:  8.812e-01  linmin: -2.113e-05  t[s]:      9.16
ElecMinimize: Iter:  14  Etot: -136.530464209635625  |grad|_K:  1.131e-06  alpha:  6.552e-01  linmin:  7.587e-07  t[s]:      9.50
ElecMinimize: Iter:  15  Etot: -136.530465925442002  |grad|_K:  7.786e-07  alpha:  5.823e-01  linmin: -6.632e-06  t[s]:      9.83
ElecMinimize: Iter:  16  Etot: -136.530466949848119  |grad|_K:  5.263e-07  alpha:  7.338e-01  linmin:  4.218e-06  t[s]:     10.16
ElecMinimize: Iter:  17  Etot: -136.530467503316913  |grad|_K:  4.000e-07  alpha:  8.676e-01  linmin:  1.029e-06  t[s]:     10.49
ElecMinimize: Iter:  18  Etot: -136.530467818689999  |grad|_K:  2.832e-07  alpha:  8.559e-01  linmin: -1.534e-07  t[s]:     10.82
ElecMinimize: Iter:  19  Etot: -136.530467977669275  |grad|_K:  2.157e-07  alpha:  8.606e-01  linmin: -1.228e-06  t[s]:     11.15
ElecMinimize: Iter:  20  Etot: -136.530468056527752  |grad|_K:  1.582e-07  alpha:  7.359e-01  linmin:  1.292e-07  t[s]:     11.48
ElecMinimize: Iter:  21  Etot: -136.530468107326527  |grad|_K:  1.136e-07  alpha:  8.811e-01  linmin:  2.601e-06  t[s]:     11.81
ElecMinimize: Iter:  22  Etot: -136.530468132578306  |grad|_K:  8.554e-08  alpha:  8.493e-01  linmin:  2.446e-06  t[s]:     12.14
ElecMinimize: Iter:  23  Etot: -136.530468148111140  |grad|_K:  6.678e-08  alpha:  9.218e-01  linmin: -4.867e-06  t[s]:     12.47
ElecMinimize: Iter:  24  Etot: -136.530468156753273  |grad|_K:  5.501e-08  alpha:  8.414e-01  linmin: -1.947e-07  t[s]:     12.80
ElecMinimize: Iter:  25  Etot: -136.530468161678584  |grad|_K:  4.199e-08  alpha:  7.066e-01  linmin:  6.636e-06  t[s]:     13.13
ElecMinimize: Converged (|Delta Etot|<1.000000e-08 for 2 iters).
Setting wave functions to eigenvectors of Hamiltonian
Vacuum energy after initial minimize, Etot = -136.530468161678584


-------- Electronic minimization -----------
	Linear fluid (dielectric constant: 7.2) occupying 0.989653 of unit cell:	Completed after 9 iterations at t[s]:     13.84
ElecMinimize: Iter:   0  Etot: -136.559051912283394  |grad|_K:  4.609e-05  alpha:  1.000e+00
	Linear fluid (dielectric constant: 7.2) occupying 0.989904 of unit cell:	Completed after 7 iterations at t[s]:     14.86
	Linear fluid (dielectric constant: 7.2) occupying 0.989924 of unit cell:	Completed after 5 iterations at t[s]:     15.73
ElecMinimize: Iter:   1  Etot: -136.564359029705628  |grad|_K:  4.060e-05  alpha:  1.109e+00  linmin:  9.134e-02  t[s]:     15.98
	Linear fluid (dielectric constant: 7.2) occupying 0.990066 of unit cell:	Completed after 8 iterations at t[s]:     16.82
	Linear fluid (dielectric constant: 7.2) occupying 0.990048 of unit cell:	Completed after 5 iterations at t[s]:     17.78
ElecMinimize: Iter:   2  Etot: -136.567603074918821  |grad|_K:  3.395e-05  alpha:  9.539e-01  linmin:  2.437e-02  t[s]:     18.13
	Linear fluid (dielectric constant: 7.2) occupying 0.990083 of unit cell:	Completed after 7 iterations at t[s]:     18.89
	Linear fluid (dielectric constant: 7.2) occupying 0.990072 of unit cell:	Completed after 5 iterations at t[s]:     19.83
ElecMinimize: Iter:   3  Etot: -136.569204810882013  |grad|_K:  2.164e-05  alpha:  6.189e-01  linmin: -1.831e-03  t[s]:     20.15
	Linear fluid (dielectric constant: 7.2) occupying 0.990066 of unit cell:	Completed after 5 iterations at t[s]:     20.83
	Linear fluid (dielectric constant: 7.2) occupying 0.990066 of unit cell:	Completed after 1 iterations at t[s]:     21.59
ElecMinimize: Iter:   4  Etot: -136.569846416347900  |grad|_K:  1.471e-05  alpha:  5.933e-01  linmin:  1.061e-03  t[s]:     21.86
	Linear fluid (dielectric constant: 7.2) occupying 0.990073 of unit cell:	Completed after 4 iterations at t[s]:     22.50
	Linear fluid (dielectric constant: 7.2) occupying 0.990073 of unit cell:	Completed after 1 iterations at t[s]:     23.23
ElecMinimize: Iter:   5  Etot: -136.570168950252622  |grad|_K:  1.027e-05  alpha:  6.474e-01  linmin: -3.800e-03  t[s]:     23.48
	Linear fluid (dielectric constant: 7.2) occupying 0.990079 of unit cell:	Completed after 4 iterations at t[s]:     24.13
	Linear fluid (dielectric constant: 7.2) occupying 0.990079 of unit cell:	Completed after 1 iterations at t[s]:     24.85
ElecMinimize: Iter:   6  Etot: -136.570318489686969  |grad|_K:  6.776e-06  alpha:  6.131e-01  linmin: -2.103e-03  t[s]:     25.12
	Linear fluid (dielectric constant: 7.2) occupying 0.990080 of unit cell:	Completed after 3 iterations at t[s]:     25.73
	Linear fluid (dielectric constant: 7.2) occupying 0.990080 of unit cell:	Completed after 0 iterations at t[s]:     26.41
ElecMinimize: Iter:   7  Etot: -136.570389620694129  |grad|_K:  5.011e-06  alpha:  6.710e-01  linmin: -1.111e-04  t[s]:     26.67
	Linear fluid (dielectric constant: 7.2) occupying 0.990084 of unit cell:	Completed after 2 iterations at t[s]:     27.24
	Linear fluid (dielectric constant: 7.2) occupying 0.990084 of unit cell:	Completed after 0 iterations at t[s]:     27.89
ElecMinimize: Iter:   8  Etot: -136.570429085989502  |grad|_K:  3.411e-06  alpha:  6.823e-01  linmin: -9.292e-04  t[s]:     28.14
	Linear fluid (dielectric constant: 7.2) occupying 0.990086 of unit cell:	Completed after 3 iterations at t[s]:     28.65
	Linear fluid (dielectric constant: 7.2) occupying 0.990086 of unit cell:	Completed after 0 iterations at t[s]:     29.30
ElecMinimize: Iter:   9  Etot: -136.570446621075746  |grad|_K:  2.627e-06  alpha:  6.534e-01  linmin:  9.607e-04  t[s]:     29.56
	Linear fluid (dielectric constant: 7.2) occupying 0.990086 of unit cell:	Completed after 2 iterations at t[s]:     30.03
	Linear fluid (dielectric constant: 7.2) occupying 0.990086 of unit cell:	Completed after 0 iterations at t[s]:     30.67
ElecMinimize: Iter:  10  Etot: -136.570457258660412  |grad|_K:  1.868e-06  alpha:  6.699e-01  linmin: -1.782e-03  t[s]:     30.93
	Linear fluid (dielectric constant: 7.2) occupying 0.990083 of unit cell:	Completed after 1 iterations at t[s]:     31.37
	Linear fluid (dielectric constant: 7.2) occupying 0.990083 of unit cell:	Completed after 0 iterations at t[s]:     32.01
ElecMinimize: Iter:  11  Etot: -136.570463172725567  |grad|_K:  1.671e-06  alpha:  7.334e-01  linmin: -4.357e-03  t[s]:     32.27
	Linear fluid (dielectric constant: 7.2) occupying 0.990080 of unit cell:	Completed after 1 iterations at t[s]:     32.71
	Linear fluid (dielectric constant: 7.2) occupying 0.990078 of unit cell:	Completed after 1 iterations at t[s]:     33.40
ElecMinimize: Iter:  12  Etot: -136.570470133958963  |grad|_K:  2.335e-06  alpha:  1.067e+00  linmin: -4.323e-03  t[s]:     33.65
	Linear fluid (dielectric constant: 7.2) occupying 0.990066 of unit cell:	Completed after 2 iterations at t[s]:     34.16
	Linear fluid (dielectric constant: 7.2) occupying 0.990070 of unit cell:	Completed after 1 iterations at t[s]:     34.87
ElecMinimize: Iter:  13  Etot: -136.570483743380777  |grad|_K:  3.663e-06  alpha:  7.059e-01  linmin:  4.572e-04  t[s]:     35.13
	Linear fluid (dielectric constant: 7.2) occupying 0.990044 of unit cell:	Completed after 3 iterations at t[s]:     35.67
	Linear fluid (dielectric constant: 7.2) occupying 0.990067 of unit cell:	Completed after 2 iterations at t[s]:     36.43
ElecMinimize: Iter:  14  Etot: -136.570487435215057  |grad|_K:  4.154e-06  alpha:  9.111e-02  linmin: -3.119e-02  t[s]:     36.68
	Linear fluid (dielectric constant: 7.2) occupying 0.990063 of unit cell:	Completed after 1 iterations at t[s]:     37.19
	Linear fluid (dielectric constant: 7.2) occupying 0.990062 of unit cell:	Completed after 0 iterations at t[s]:     37.80
ElecMinimize: Iter:  15  Etot: -136.570492743971130  |grad|_K:  5.149e-06  alpha:  1.104e-01  linmin:  1.647e-02  t[s]:     38.05
	Linear fluid (dielectric constant: 7.2) occupying 0.990053 of unit cell:	Completed after 2 iterations at t[s]:     38.53
	Linear fluid (dielectric constant: 7.2) occupying 0.990059 of unit cell:	Completed after 1 iterations at t[s]:     39.24
ElecMinimize: Iter:  16  Etot: -136.570494744200062  |grad|_K:  5.649e-06  alpha:  3.545e-02  linmin: -6.617e-03  t[s]:     39.49
	Linear fluid (dielectric constant: 7.2) occupying 0.990056 of unit cell:	Completed after 0 iterations at t[s]:     39.93
	Linear fluid (dielectric constant: 7.2) occupying 0.990055 of unit cell:	Completed after 0 iterations at t[s]:     40.55
ElecMinimize: Iter:  17  Etot: -136.570498064841615  |grad|_K:  6.289e-06  alpha:  4.297e-02  linmin:  5.955e-03  t[s]:     40.80
	Linear fluid (dielectric constant: 7.2) occupying 0.990050 of unit cell:	Completed after 1 iterations at t[s]:     41.25
	Linear fluid (dielectric constant: 7.2) occupying 0.990052 of unit cell:	Completed after 0 iterations at t[s]:     41.89
ElecMinimize: Iter:  18  Etot: -136.570500341407666  |grad|_K:  6.712e-06  alpha:  2.615e-02  linmin: -3.099e-04  t[s]:     42.16
	Linear fluid (dielectric constant: 7.2) occupying 0.990049 of unit cell:	Completed after 1 iterations at t[s]:     42.60
	Linear fluid (dielectric constant: 7.2) occupying 0.990049 of unit cell:	Completed after 0 iterations at t[s]:     43.21
ElecMinimize: Iter:  19  Etot: -136.570502930664333  |grad|_K:  7.097e-06  alpha:  2.477e-02  linmin:  2.048e-03  t[s]:     43.46
	Linear fluid (dielectric constant: 7.2) occupying 0.990045 of unit cell:	Completed after 1 iterations at t[s]:     43.90
	Linear fluid (dielectric constant: 7.2) occupying 0.990046 of unit cell:	Completed after 0 iterations at t[s]:     44.51
ElecMinimize: Iter:  20  Etot: -136.570505230955177  |grad|_K:  7.397e-06  alpha:  2.018e-02  linmin:  1.253e-03  t[s]:     44.77
	Linear fluid (dielectric constant: 7.2) occupying 0.990043 of unit cell:	Completed after 0 iterations at t[s]:     45.17
	Linear fluid (dielectric constant: 7.2) occupying 0.990043 of unit cell:	Completed after 0 iterations at t[s]:     45.75
ElecMinimize: Iter:  21  Etot: -136.570507467949028  |grad|_K:  7.624e-06  alpha:  1.796e-02  linmin:  1.463e-03  t[s]:     46.00
	Linear fluid (dielectric constant: 7.2) occupying 0.990040 of unit cell:	Completed after 1 iterations at t[s]:     46.44
	Linear fluid (dielectric constant: 7.2) occupying 0.990041 of unit cell:	Completed after 0 iterations at t[s]:     47.05
ElecMinimize: Iter:  22  Etot: -136.570509499221089  |grad|_K:  7.791e-06  alpha:  1.544e-02  linmin:  7.377e-04  t[s]:     47.31
	Linear fluid (dielectric constant: 7.2) occupying 0.990038 of unit cell:	Completed after 0 iterations at t[s]:     47.71
	Linear fluid (dielectric constant: 7.2) occupying 0.990038 of unit cell:	Completed after 0 iterations at t[s]:     48.29
ElecMinimize: Iter:  23  Etot: -136.570511480476455  |grad|_K:  7.913e-06  alpha:  1.430e-02  linmin:  9.818e-04  t[s]:     48.55
	Linear fluid (dielectric constant: 7.2) occupying 0.990036 of unit cell:	Completed after 0 iterations at t[s]:     48.95
	Linear fluid (dielectric constant: 7.2) occupying 0.990036 of unit cell:	Completed after 0 iterations at t[s]:     49.53
ElecMinimize: Iter:  24  Etot: -136.570513317720128  |grad|_K:  8.013e-06  alpha:  1.291e-02  linmin:  6.615e-04  t[s]:     49.79
	Linear fluid (dielectric constant: 7.2) occupying 0.990034 of unit cell:	Completed after 1 iterations at t[s]:     50.23
	Linear fluid (dielectric constant: 7.2) occupying 0.990034 of unit cell:	Completed after 0 iterations at t[s]:     50.84
ElecMinimize: Iter:  25  Etot: -136.570515084259057  |grad|_K:  8.108e-06  alpha:  1.207e-02  linmin:  3.854e-04  t[s]:     51.09
	Linear fluid (dielectric constant: 7.2) occupying 0.990032 of unit cell:	Completed after 0 iterations at t[s]:     51.50
	Linear fluid (dielectric constant: 7.2) occupying 0.990032 of unit cell:	Completed after 0 iterations at t[s]:     52.08
ElecMinimize: Iter:  26  Etot: -136.570516829689836  |grad|_K:  8.204e-06  alpha:  1.160e-02  linmin:  5.478e-04  t[s]:     52.33
	Linear fluid (dielectric constant: 7.2) occupying 0.990030 of unit cell:	Completed after 0 iterations at t[s]:     52.74
	Linear fluid (dielectric constant: 7.2) occupying 0.990030 of unit cell:	Completed after 0 iterations at t[s]:     53.32
ElecMinimize: Iter:  27  Etot: -136.570518512605304  |grad|_K:  8.300e-06  alpha:  1.096e-02  linmin:  2.608e-04  t[s]:     53.57
	Linear fluid (dielectric constant: 7.2) occupying 0.990028 of unit cell:	Completed after 1 iterations at t[s]:     54.01
	Linear fluid (dielectric constant: 7.2) occupying 0.990028 of unit cell:	Completed after 0 iterations at t[s]:     54.62
ElecMinimize: Iter:  28  Etot: -136.570520186729681  |grad|_K:  8.392e-06  alpha:  1.060e-02  linmin:  2.437e-04  t[s]:     54.88
	Linear fluid (dielectric constant: 7.2) occupying 0.990026 of unit cell:	Completed after 0 iterations at t[s]:     55.28
	Linear fluid (dielectric constant: 7.2) occupying 0.990027 of unit cell:	Completed after 0 iterations at t[s]:     55.86
ElecMinimize: Iter:  29  Etot: -136.570521848139265  |grad|_K:  8.480e-06  alpha:  1.029e-02  linmin:  3.809e-04  t[s]:     56.12
	Linear fluid (dielectric constant: 7.2) occupying 0.990025 of unit cell:	Completed after 0 iterations at t[s]:     56.52
	Linear fluid (dielectric constant: 7.2) occupying 0.990025 of unit cell:	Completed after 0 iterations at t[s]:     57.10
ElecMinimize: Iter:  30  Etot: -136.570523460369657  |grad|_K:  8.566e-06  alpha:  9.802e-03  linmin:  1.197e-04  t[s]:     57.36
	Linear fluid (dielectric constant: 7.2) occupying 0.990023 of unit cell:	Completed after 1 iterations at t[s]:     57.80
	Linear fluid (dielectric constant: 7.2) occupying 0.990023 of unit cell:	Completed after 0 iterations at t[s]:     58.41
ElecMinimize: Iter:  31  Etot: -136.570525059730073  |grad|_K:  8.652e-06  alpha:  9.484e-03  linmin:  9.366e-05  t[s]:     58.67
	Linear fluid (dielectric constant: 7.2) occupying 0.990021 of unit cell:	Completed after 0 iterations at t[s]:     59.08
	Linear fluid (dielectric constant: 7.2) occupying 0.990021 of unit cell:	Completed after 0 iterations at t[s]:     59.66
ElecMinimize: Iter:  32  Etot: -136.570526660364351  |grad|_K:  8.738e-06  alpha:  9.298e-03  linmin:  4.262e-04  t[s]:     59.91
	Linear fluid (dielectric constant: 7.2) occupying 0.990020 of unit cell:	Completed after 1 iterations at t[s]:     60.35
	Linear fluid (dielectric constant: 7.2) occupying 0.990020 of unit cell:	Completed after 0 iterations at t[s]:     60.96
ElecMinimize: Iter:  33  Etot: -136.570528186226539  |grad|_K:  8.822e-06  alpha:  8.750e-03  linmin: -8.609e-05  t[s]:     61.22
	Linear fluid (dielectric constant: 7.2) occupying 0.990018 of unit cell:	Completed after 0 iterations at t[s]:     61.62
	Linear fluid (dielectric constant: 7.2) occupying 0.990018 of unit cell:	Completed after 0 iterations at t[s]:     62.20
ElecMinimize: Iter:  34  Etot: -136.570529755901902  |grad|_K:  8.915e-06  alpha:  8.742e-03  linmin:  3.517e-04  t[s]:     62.46
	Linear fluid (dielectric constant: 7.2) occupying 0.990016 of unit cell:	Completed after 1 iterations at t[s]:     62.90
	Linear fluid (dielectric constant: 7.2) occupying 0.990016 of unit cell:	Completed after 0 iterations at t[s]:     63.51
ElecMinimize: Iter:  35  Etot: -136.570531241463556  |grad|_K:  9.013e-06  alpha:  8.176e-03  linmin: -1.565e-04  t[s]:     63.76
	Linear fluid (dielectric constant: 7.2) occupying 0.990015 of unit cell:	Completed after 0 iterations at t[s]:     64.17
	Linear fluid (dielectric constant: 7.2) occupying 0.990015 of unit cell:	Completed after 0 iterations at t[s]:     64.75
ElecMinimize: Iter:  36  Etot: -136.570532784577210  |grad|_K:  9.126e-06  alpha:  8.223e-03  linmin:  3.274e-04  t[s]:     65.01
	Linear fluid (dielectric constant: 7.2) occupying 0.990013 of unit cell:	Completed after 1 iterations at t[s]:     65.44
	Linear fluid (dielectric constant: 7.2) occupying 0.990013 of unit cell:	Completed after 0 iterations at t[s]:     66.05
ElecMinimize: Iter:  37  Etot: -136.570534251938625  |grad|_K:  9.249e-06  alpha:  7.704e-03  linmin: -1.875e-04  t[s]:     66.31
	Linear fluid (dielectric constant: 7.2) occupying 0.990011 of unit cell:	Completed after 0 iterations at t[s]:     66.71
	Linear fluid (dielectric constant: 7.2) occupying 0.990011 of unit cell:	Completed after 0 iterations at t[s]:     67.29
ElecMinimize: Iter:  38  Etot: -136.570535787836036  |grad|_K:  9.384e-06  alpha:  7.767e-03  linmin:  2.758e-04  t[s]:     67.55
	Linear fluid (dielectric constant: 7.2) occupying 0.990009 of unit cell:	Completed after 1 iterations at t[s]:     67.99
	Linear fluid (dielectric constant: 7.2) occupying 0.990009 of unit cell:	Completed after 0 iterations at t[s]:     68.60
ElecMinimize: Iter:  39  Etot: -136.570537264488991  |grad|_K:  9.523e-06  alpha:  7.323e-03  linmin: -8.057e-05  t[s]:     68.85
	Linear fluid (dielectric constant: 7.2) occupying 0.990007 of unit cell:	Completed after 0 iterations at t[s]:     69.26
	Linear fluid (dielectric constant: 7.2) occupying 0.990007 of unit cell:	Completed after 0 iterations at t[s]:     69.84
ElecMinimize: Iter:  40  Etot: -136.570538790010914  |grad|_K:  9.659e-06  alpha:  7.291e-03  linmin:  2.800e-04  t[s]:     70.09
	Linear fluid (dielectric constant: 7.2) occupying 0.990005 of unit cell:	Completed after 1 iterations at t[s]:     70.53
	Linear fluid (dielectric constant: 7.2) occupying 0.990005 of unit cell:	Completed after 0 iterations at t[s]:     71.14
ElecMinimize: Iter:  41  Etot: -136.570540261641753  |grad|_K:  9.789e-06  alpha:  6.889e-03  linmin: -4.931e-06  t[s]:     71.40
	Linear fluid (dielectric constant: 7.2) occupying 0.990003 of unit cell:	Completed after 0 iterations at t[s]:     71.80
	Linear fluid (dielectric constant: 7.2) occupying 0.990003 of unit cell:	Completed after 0 iterations at t[s]:     72.38
ElecMinimize: Iter:  42  Etot: -136.570541763213726  |grad|_K:  9.904e-06  alpha:  6.802e-03  linmin:  3.349e-04  t[s]:     72.64
	Linear fluid (dielectric constant: 7.2) occupying 0.990001 of unit cell:	Completed after 0 iterations at t[s]:     73.04
	Linear fluid (dielectric constant: 7.2) occupying 0.990001 of unit cell:	Completed after 0 iterations at t[s]:     73.62
ElecMinimize: Iter:  43  Etot: -136.570543209330424  |grad|_K:  1.000e-05  alpha:  6.445e-03  linmin:  1.216e-04  t[s]:     73.88
	Linear fluid (dielectric constant: 7.2) occupying 0.989998 of unit cell:	Completed after 0 iterations at t[s]:     74.28
	Linear fluid (dielectric constant: 7.2) occupying 0.989998 of unit cell:	Completed after 0 iterations at t[s]:     74.86
ElecMinimize: Iter:  44  Etot: -136.570544638778784  |grad|_K:  1.008e-05  alpha:  6.217e-03  linmin:  8.069e-05  t[s]:     75.12
	Linear fluid (dielectric constant: 7.2) occupying 0.989996 of unit cell:	Completed after 1 iterations at t[s]:     75.56
	Linear fluid (dielectric constant: 7.2) occupying 0.989996 of unit cell:	Completed after 0 iterations at t[s]:     76.17
ElecMinimize: Iter:  45  Etot: -136.570546010725536  |grad|_K:  1.015e-05  alpha:  5.869e-03  linmin: -8.206e-05  t[s]:     76.42
	Linear fluid (dielectric constant: 7.2) occupying 0.989994 of unit cell:	Completed after 0 iterations at t[s]:     76.79
	Linear fluid (dielectric constant: 7.2) occupying 0.989994 of unit cell:	Completed after 0 iterations at t[s]:     77.34
ElecMinimize: Iter:  46  Etot: -136.570547374266653  |grad|_K:  1.018e-05  alpha:  5.739e-03  linmin:  3.273e-04  t[s]:     77.60
	Linear fluid (dielectric constant: 7.2) occupying 0.989992 of unit cell:	Completed after 0 iterations at t[s]:     78.00
	Linear fluid (dielectric constant: 7.2) occupying 0.989992 of unit cell:	Completed after 0 iterations at t[s]:     78.59
ElecMinimize: Iter:  47  Etot: -136.570548628521607  |grad|_K:  1.022e-05  alpha:  5.297e-03  linmin: -2.354e-04  t[s]:     78.84
	Linear fluid (dielectric constant: 7.2) occupying 0.989990 of unit cell:	Completed after 0 iterations at t[s]:     79.25
	Linear fluid (dielectric constant: 7.2) occupying 0.989990 of unit cell:	Completed after 0 iterations at t[s]:     79.83
ElecMinimize: Iter:  48  Etot: -136.570549902851923  |grad|_K:  1.025e-05  alpha:  5.271e-03  linmin: -4.229e-05  t[s]:     80.09
	Linear fluid (dielectric constant: 7.2) occupying 0.989987 of unit cell:	Completed after 0 iterations at t[s]:     80.49
	Linear fluid (dielectric constant: 7.2) occupying 0.989987 of unit cell:	Completed after 0 iterations at t[s]:     81.07
ElecMinimize: Iter:  49  Etot: -136.570551150547431  |grad|_K:  1.028e-05  alpha:  5.155e-03  linmin: -1.930e-04  t[s]:     81.33
	Linear fluid (dielectric constant: 7.2) occupying 0.989985 of unit cell:	Completed after 0 iterations at t[s]:     81.73
	Linear fluid (dielectric constant: 7.2) occupying 0.989985 of unit cell:	Completed after 0 iterations at t[s]:     82.31
ElecMinimize: Iter:  50  Etot: -136.570552392811408  |grad|_K:  1.031e-05  alpha:  5.079e-03  linmin: -9.517e-05  t[s]:     82.57
	Linear fluid (dielectric constant: 7.2) occupying 0.989983 of unit cell:	Completed after 0 iterations at t[s]:     82.97
	Linear fluid (dielectric constant: 7.2) occupying 0.989983 of unit cell:	Completed after 0 iterations at t[s]:     83.55
ElecMinimize: Iter:  51  Etot: -136.570553621187173  |grad|_K:  1.035e-05  alpha:  5.003e-03  linmin: -1.636e-04  t[s]:     83.81
	Linear fluid (dielectric constant: 7.2) occupying 0.989980 of unit cell:	Completed after 0 iterations at t[s]:     84.21
	Linear fluid (dielectric constant: 7.2) occupying 0.989980 of unit cell:	Completed after 0 iterations at t[s]:     84.79
ElecMinimize: Iter:  52  Etot: -136.570554847231932  |grad|_K:  1.039e-05  alpha:  4.950e-03  linmin: -1.435e-04  t[s]:     85.05
	Linear fluid (dielectric constant: 7.2) occupying 0.989978 of unit cell:	Completed after 1 iterations at t[s]:     85.49
	Linear fluid (dielectric constant: 7.2) occupying 0.989978 of unit cell:	Completed after 0 iterations at t[s]:     86.10
ElecMinimize: Iter:  53  Etot: -136.570556056640953  |grad|_K:  1.042e-05  alpha:  4.853e-03  linmin: -4.987e-04  t[s]:     86.35
	Linear fluid (dielectric constant: 7.2) occupying 0.989976 of unit cell:	Completed after 0 iterations at t[s]:     86.72
	Linear fluid (dielectric constant: 7.2) occupying 0.989976 of unit cell:	Completed after 0 iterations at t[s]:     87.27
ElecMinimize: Iter:  54  Etot: -136.570557341263452  |grad|_K:  1.045e-05  alpha:  5.073e-03  linmin: -1.005e-04  t[s]:     87.53
	Linear fluid (dielectric constant: 7.2) occupying 0.989973 of unit cell:	Completed after 1 iterations at t[s]:     87.97
	Linear fluid (dielectric constant: 7.2) occupying 0.989973 of unit cell:	Completed after 0 iterations at t[s]:     88.57
ElecMinimize: Iter:  55  Etot: -136.570558569165769  |grad|_K:  1.046e-05  alpha:  4.877e-03  linmin: -9.464e-04  t[s]:     88.83
	Linear fluid (dielectric constant: 7.2) occupying 0.989971 of unit cell:	Completed after 0 iterations at t[s]:     89.23
	Linear fluid (dielectric constant: 7.2) occupying 0.989970 of unit cell:	Completed after 0 iterations at t[s]:     89.81
ElecMinimize: Iter:  56  Etot: -136.570559904972725  |grad|_K:  1.045e-05  alpha:  5.178e-03  linmin: -1.833e-04  t[s]:     90.07
	Linear fluid (dielectric constant: 7.2) occupying 0.989968 of unit cell:	Completed after 1 iterations at t[s]:     90.51
	Linear fluid (dielectric constant: 7.2) occupying 0.989968 of unit cell:	Completed after 0 iterations at t[s]:     91.12
ElecMinimize: Iter:  57  Etot: -136.570561170431972  |grad|_K:  1.043e-05  alpha:  5.011e-03  linmin: -5.554e-04  t[s]:     91.38
	Linear fluid (dielectric constant: 7.2) occupying 0.989965 of unit cell:	Completed after 0 iterations at t[s]:     91.79
	Linear fluid (dielectric constant: 7.2) occupying 0.989965 of unit cell:	Completed after 0 iterations at t[s]:     92.37
ElecMinimize: Iter:  58  Etot: -136.570562496639411  |grad|_K:  1.039e-05  alpha:  5.219e-03  linmin: -2.285e-04  t[s]:     92.62
	Linear fluid (dielectric constant: 7.2) occupying 0.989963 of unit cell:	Completed after 1 iterations at t[s]:     93.06
	Linear fluid (dielectric constant: 7.2) occupying 0.989963 of unit cell:	Completed after 0 iterations at t[s]:     93.67
ElecMinimize: Iter:  59  Etot: -136.570563761756119  |grad|_K:  1.035e-05  alpha:  5.060e-03  linmin: -2.307e-04  t[s]:     93.94
	Linear fluid (dielectric constant: 7.2) occupying 0.989960 of unit cell:	Completed after 0 iterations at t[s]:     94.34
	Linear fluid (dielectric constant: 7.2) occupying 0.989960 of unit cell:	Completed after 0 iterations at t[s]:     94.92
ElecMinimize: Iter:  60  Etot: -136.570565028583900  |grad|_K:  1.031e-05  alpha:  5.109e-03  linmin:  2.169e-05  t[s]:     95.18
	Linear fluid (dielectric constant: 7.2) occupying 0.989958 of unit cell:	Completed after 1 iterations at t[s]:     95.61
	Linear fluid (dielectric constant: 7.2) occupying 0.989958 of unit cell:	Completed after 0 iterations at t[s]:     96.22
ElecMinimize: Iter:  61  Etot: -136.570566236839682  |grad|_K:  1.028e-05  alpha:  4.939e-03  linmin: -4.433e-04  t[s]:     96.48
	Linear fluid (dielectric constant: 7.2) occupying 0.989955 of unit cell:	Completed after 0 iterations at t[s]:     96.88
	Linear fluid (dielectric constant: 7.2) occupying 0.989955 of unit cell:	Completed after 0 iterations at t[s]:     97.46
ElecMinimize: Iter:  62  Etot: -136.570567516096759  |grad|_K:  1.023e-05  alpha:  5.201e-03  linmin:  1.132e-05  t[s]:     97.72
	Linear fluid (dielectric constant: 7.2) occupying 0.989953 of unit cell:	Completed after 1 iterations at t[s]:     98.16
	Linear fluid (dielectric constant: 7.2) occupying 0.989953 of unit cell:	Completed after 0 iterations at t[s]:     98.77
ElecMinimize: Iter:  63  Etot: -136.570568713568889  |grad|_K:  1.019e-05  alpha:  4.972e-03  linmin: -4.265e-04  t[s]:     99.02
	Linear fluid (dielectric constant: 7.2) occupying 0.989951 of unit cell:	Completed after 0 iterations at t[s]:     99.43
	Linear fluid (dielectric constant: 7.2) occupying 0.989950 of unit cell:	Completed after 0 iterations at t[s]:    100.01
ElecMinimize: Iter:  64  Etot: -136.570569967937899  |grad|_K:  1.014e-05  alpha:  5.193e-03  linmin: -7.848e-05  t[s]:    100.26
	Linear fluid (dielectric constant: 7.2) occupying 0.989948 of unit cell:	Completed after 1 iterations at t[s]:    100.70
	Linear fluid (dielectric constant: 7.2) occupying 0.989948 of unit cell:	Completed after 0 iterations at t[s]:    101.31
ElecMinimize: Iter:  65  Etot: -136.570571149838031  |grad|_K:  1.010e-05  alpha:  4.988e-03  linmin: -3.662e-04  t[s]:    101.57
	Linear fluid (dielectric constant: 7.2) occupying 0.989946 of unit cell:	Completed after 0 iterations at t[s]:    101.97
	Linear fluid (dielectric constant: 7.2) occupying 0.989946 of unit cell:	Completed after 0 iterations at t[s]:    102.55
ElecMinimize: Iter:  66  Etot: -136.570572359631257  |grad|_K:  1.005e-05  alpha:  5.109e-03  linmin: -4.987e-05  t[s]:    102.81
	Linear fluid (dielectric constant: 7.2) occupying 0.989943 of unit cell:	Completed after 1 iterations at t[s]:    103.25
	Linear fluid (dielectric constant: 7.2) occupying 0.989944 of unit cell:	Completed after 0 iterations at t[s]:    103.86
ElecMinimize: Iter:  67  Etot: -136.570573522897661  |grad|_K:  1.002e-05  alpha:  4.993e-03  linmin: -4.180e-04  t[s]:    104.11
	Linear fluid (dielectric constant: 7.2) occupying 0.989941 of unit cell:	Completed after 0 iterations at t[s]:    104.52
	Linear fluid (dielectric constant: 7.2) occupying 0.989941 of unit cell:	Completed after 0 iterations at t[s]:    105.10
ElecMinimize: Iter:  68  Etot: -136.570574728708380  |grad|_K:  9.980e-06  alpha:  5.167e-03  linmin: -9.285e-06  t[s]:    105.36
	Linear fluid (dielectric constant: 7.2) occupying 0.989939 of unit cell:	Completed after 1 iterations at t[s]:    105.80
	Linear fluid (dielectric constant: 7.2) occupying 0.989939 of unit cell:	Completed after 0 iterations at t[s]:    106.41
ElecMinimize: Iter:  69  Etot: -136.570575882089088  |grad|_K:  9.955e-06  alpha:  5.029e-03  linmin: -2.286e-04  t[s]:    106.66
	Linear fluid (dielectric constant: 7.2) occupying 0.989937 of unit cell:	Completed after 0 iterations at t[s]:    107.03
	Linear fluid (dielectric constant: 7.2) occupying 0.989937 of unit cell:	Completed after 0 iterations at t[s]:    107.62
ElecMinimize: Iter:  70  Etot: -136.570577060330095  |grad|_K:  9.931e-06  alpha:  5.190e-03  linmin:  4.679e-04  t[s]:    107.88
	Linear fluid (dielectric constant: 7.2) occupying 0.989935 of unit cell:	Completed after 0 iterations at t[s]:    108.29
	Linear fluid (dielectric constant: 7.2) occupying 0.989935 of unit cell:	Completed after 0 iterations at t[s]:    108.87
ElecMinimize: Iter:  71  Etot: -136.570578185732074  |grad|_K:  9.919e-06  alpha:  5.012e-03  linmin: -2.452e-04  t[s]:    109.12
	Linear fluid (dielectric constant: 7.2) occupying 0.989933 of unit cell:	Completed after 1 iterations at t[s]:    109.56
	Linear fluid (dielectric constant: 7.2) occupying 0.989933 of unit cell:	Completed after 0 iterations at t[s]:    110.17
ElecMinimize: Iter:  72  Etot: -136.570579346135958  |grad|_K:  9.920e-06  alpha:  5.090e-03  linmin: -4.890e-04  t[s]:    110.43
	Linear fluid (dielectric constant: 7.2) occupying 0.989931 of unit cell:	Completed after 0 iterations at t[s]:    110.80
	Linear fluid (dielectric constant: 7.2) occupying 0.989931 of unit cell:	Completed after 0 iterations at t[s]:    111.35
ElecMinimize: Iter:  73  Etot: -136.570580557460488  |grad|_K:  9.929e-06  alpha:  5.284e-03  linmin:  9.969e-05  t[s]:    111.61
	Linear fluid (dielectric constant: 7.2) occupying 0.989928 of unit cell:	Completed after 0 iterations at t[s]:    112.01
	Linear fluid (dielectric constant: 7.2) occupying 0.989929 of unit cell:	Completed after 0 iterations at t[s]:    112.59
ElecMinimize: Iter:  74  Etot: -136.570581697070736  |grad|_K:  9.965e-06  alpha:  5.039e-03  linmin: -6.380e-04  t[s]:    112.85
	Linear fluid (dielectric constant: 7.2) occupying 0.989927 of unit cell:	Completed after 0 iterations at t[s]:    113.25
	Linear fluid (dielectric constant: 7.2) occupying 0.989927 of unit cell:	Completed after 0 iterations at t[s]:    113.83
ElecMinimize: Iter:  75  Etot: -136.570582909316443  |grad|_K:  1.001e-05  alpha:  5.217e-03  linmin: -5.848e-04  t[s]:    114.09
	Linear fluid (dielectric constant: 7.2) occupying 0.989925 of unit cell:	Completed after 0 iterations at t[s]:    114.49
	Linear fluid (dielectric constant: 7.2) occupying 0.989925 of unit cell:	Completed after 0 iterations at t[s]:    115.07
ElecMinimize: Iter:  76  Etot: -136.570584147618888  |grad|_K:  1.010e-05  alpha:  5.286e-03  linmin: -3.479e-04  t[s]:    115.33
	Linear fluid (dielectric constant: 7.2) occupying 0.989923 of unit cell:	Completed after 0 iterations at t[s]:    115.73
	Linear fluid (dielectric constant: 7.2) occupying 0.989923 of unit cell:	Completed after 0 iterations at t[s]:    116.31
ElecMinimize: Iter:  77  Etot: -136.570585400636560  |grad|_K:  1.023e-05  alpha:  5.284e-03  linmin: -2.948e-04  t[s]:    116.57
	Linear fluid (dielectric constant: 7.2) occupying 0.989920 of unit cell:	Completed after 0 iterations at t[s]:    116.97
	Linear fluid (dielectric constant: 7.2) occupying 0.989920 of unit cell:	Completed after 0 iterations at t[s]:    117.55
ElecMinimize: Iter:  78  Etot: -136.570586674118715  |grad|_K:  1.038e-05  alpha:  5.251e-03  linmin: -3.192e-04  t[s]:    117.81
	Linear fluid (dielectric constant: 7.2) occupying 0.989918 of unit cell:	Completed after 1 iterations at t[s]:    118.25
	Linear fluid (dielectric constant: 7.2) occupying 0.989918 of unit cell:	Completed after 0 iterations at t[s]:    118.86
ElecMinimize: Iter:  79  Etot: -136.570587964658955  |grad|_K:  1.056e-05  alpha:  5.164e-03  linmin: -4.804e-04  t[s]:    119.12
	Linear fluid (dielectric constant: 7.2) occupying 0.989916 of unit cell:	Completed after 0 iterations at t[s]:    119.48
	Linear fluid (dielectric constant: 7.2) occupying 0.989916 of unit cell:	Completed after 0 iterations at t[s]:    120.03
ElecMinimize: Iter:  80  Etot: -136.570589326382418  |grad|_K:  1.078e-05  alpha:  5.239e-03  linmin:  7.151e-04  t[s]:    120.29
	Linear fluid (dielectric constant: 7.2) occupying 0.989914 of unit cell:	Completed after 0 iterations at t[s]:    120.69
	Linear fluid (dielectric constant: 7.2) occupying 0.989915 of unit cell:	Completed after 0 iterations at t[s]:    121.27
ElecMinimize: Iter:  81  Etot: -136.570590508507507  |grad|_K:  1.093e-05  alpha:  4.502e-03  linmin: -8.735e-05  t[s]:    121.53
	Linear fluid (dielectric constant: 7.2) occupying 0.989913 of unit cell:	Completed after 0 iterations at t[s]:    121.93
	Linear fluid (dielectric constant: 7.2) occupying 0.989913 of unit cell:	Completed after 0 iterations at t[s]:    122.51
ElecMinimize: Iter:  82  Etot: -136.570591714709479  |grad|_K:  1.105e-05  alpha:  4.373e-03  linmin:  8.849e-05  t[s]:    122.77
	Linear fluid (dielectric constant: 7.2) occupying 0.989911 of unit cell:	Completed after 0 iterations at t[s]:    123.17
	Linear fluid (dielectric constant: 7.2) occupying 0.989911 of unit cell:	Completed after 0 iterations at t[s]:    127.16
ElecMinimize: Iter:  83  Etot: -136.570592856336958  |grad|_K:  1.114e-05  alpha:  4.065e-03  linmin:  1.050e-04  t[s]:    127.42
	Linear fluid (dielectric constant: 7.2) occupying 0.989910 of unit cell:	Completed after 0 iterations at t[s]:    127.83
	Linear fluid (dielectric constant: 7.2) occupying 0.989910 of unit cell:	Completed after 0 iterations at t[s]:    128.41
ElecMinimize: Iter:  84  Etot: -136.570593956764128  |grad|_K:  1.120e-05  alpha:  3.865e-03  linmin: -7.377e-05  t[s]:    128.66
	Linear fluid (dielectric constant: 7.2) occupying 0.989908 of unit cell:	Completed after 0 iterations at t[s]:    129.07
	Linear fluid (dielectric constant: 7.2) occupying 0.989908 of unit cell:	Completed after 0 iterations at t[s]:    129.65
ElecMinimize: Iter:  85  Etot: -136.570595039777373  |grad|_K:  1.124e-05  alpha:  3.742e-03  linmin: -1.203e-05  t[s]:    129.90
	Linear fluid (dielectric constant: 7.2) occupying 0.989907 of unit cell:	Completed after 1 iterations at t[s]:    130.34
	Linear fluid (dielectric constant: 7.2) occupying 0.989907 of unit cell:	Completed after 0 iterations at t[s]:    130.95
ElecMinimize: Iter:  86  Etot: -136.570596064014978  |grad|_K:  1.126e-05  alpha:  3.522e-03  linmin: -1.988e-04  t[s]:    131.21
	Linear fluid (dielectric constant: 7.2) occupying 0.989906 of unit cell:	Completed after 0 iterations at t[s]:    131.58
	Linear fluid (dielectric constant: 7.2) occupying 0.989906 of unit cell:	Completed after 0 iterations at t[s]:    132.13
ElecMinimize: Iter:  87  Etot: -136.570597104380369  |grad|_K:  1.129e-05  alpha:  3.541e-03  linmin:  2.001e-04  t[s]:    132.38
	Linear fluid (dielectric constant: 7.2) occupying 0.989905 of unit cell:	Completed after 0 iterations at t[s]:    132.78
	Linear fluid (dielectric constant: 7.2) occupying 0.989905 of unit cell:	Completed after 0 iterations at t[s]:    133.37
ElecMinimize: Iter:  88  Etot: -136.570598046356537  |grad|_K:  1.130e-05  alpha:  3.236e-03  linmin: -4.254e-04  t[s]:    133.62
	Linear fluid (dielectric constant: 7.2) occupying 0.989904 of unit cell:	Completed after 0 iterations at t[s]:    134.02
	Linear fluid (dielectric constant: 7.2) occupying 0.989904 of unit cell:	Completed after 0 iterations at t[s]:    134.60
ElecMinimize: Iter:  89  Etot: -136.570599012395547  |grad|_K:  1.132e-05  alpha:  3.243e-03  linmin: -1.082e-04  t[s]:    134.86
	Linear fluid (dielectric constant: 7.2) occupying 0.989903 of unit cell:	Completed after 0 iterations at t[s]:    135.27
	Linear fluid (dielectric constant: 7.2) occupying 0.989903 of unit cell:	Completed after 0 iterations at t[s]:    135.85
ElecMinimize: Iter:  90  Etot: -136.570599939563664  |grad|_K:  1.133e-05  alpha:  3.136e-03  linmin: -2.526e-04  t[s]:    136.10
	Linear fluid (dielectric constant: 7.2) occupying 0.989902 of unit cell:	Completed after 0 iterations at t[s]:    136.50
	Linear fluid (dielectric constant: 7.2) occupying 0.989902 of unit cell:	Completed after 0 iterations at t[s]:    137.09
ElecMinimize: Iter:  91  Etot: -136.570600862323118  |grad|_K:  1.134e-05  alpha:  3.098e-03  linmin: -3.241e-04  t[s]:    137.34
	Linear fluid (dielectric constant: 7.2) occupying 0.989901 of unit cell:	Completed after 0 iterations at t[s]:    137.75
	Linear fluid (dielectric constant: 7.2) occupying 0.989901 of unit cell:	Completed after 0 iterations at t[s]:    138.33
ElecMinimize: Iter:  92  Etot: -136.570601784769508  |grad|_K:  1.136e-05  alpha:  3.083e-03  linmin: -2.331e-04  t[s]:    138.58
	Linear fluid (dielectric constant: 7.2) occupying 0.989900 of unit cell:	Completed after 1 iterations at t[s]:    139.02
	Linear fluid (dielectric constant: 7.2) occupying 0.989900 of unit cell:	Completed after 0 iterations at t[s]:    139.63
ElecMinimize: Iter:  93  Etot: -136.570602668859920  |grad|_K:  1.137e-05  alpha:  2.960e-03  linmin: -5.608e-04  t[s]:    139.89
	Linear fluid (dielectric constant: 7.2) occupying 0.989899 of unit cell:	Completed after 0 iterations at t[s]:    140.26
	Linear fluid (dielectric constant: 7.2) occupying 0.989899 of unit cell:	Completed after 0 iterations at t[s]:    140.81
ElecMinimize: Iter:  94  Etot: -136.570603608806096  |grad|_K:  1.138e-05  alpha:  3.106e-03  linmin: -1.607e-06  t[s]:    141.06
	Linear fluid (dielectric constant: 7.2) occupying 0.989898 of unit cell:	Completed after 1 iterations at t[s]:    141.50
	Linear fluid (dielectric constant: 7.2) occupying 0.989898 of unit cell:	Completed after 0 iterations at t[s]:    142.11
ElecMinimize: Iter:  95  Etot: -136.570604483125607  |grad|_K:  1.138e-05  alpha:  2.939e-03  linmin: -6.451e-04  t[s]:    142.37
	Linear fluid (dielectric constant: 7.2) occupying 0.989897 of unit cell:	Completed after 0 iterations at t[s]:    142.74
	Linear fluid (dielectric constant: 7.2) occupying 0.989897 of unit cell:	Completed after 0 iterations at t[s]:    143.29
ElecMinimize: Iter:  96  Etot: -136.570605441181470  |grad|_K:  1.139e-05  alpha:  3.146e-03  linmin: -1.860e-04  t[s]:    143.55
	Linear fluid (dielectric constant: 7.2) occupying 0.989897 of unit cell:	Completed after 1 iterations at t[s]:    143.99
	Linear fluid (dielectric constant: 7.2) occupying 0.989897 of unit cell:	Completed after 0 iterations at t[s]:    144.60
ElecMinimize: Iter:  97  Etot: -136.570606318774821  |grad|_K:  1.138e-05  alpha:  2.931e-03  linmin: -7.202e-04  t[s]:    144.85
	Linear fluid (dielectric constant: 7.2) occupying 0.989896 of unit cell:	Completed after 0 iterations at t[s]:    145.22
	Linear fluid (dielectric constant: 7.2) occupying 0.989896 of unit cell:	Completed after 0 iterations at t[s]:    145.77
ElecMinimize: Iter:  98  Etot: -136.570607273757275  |grad|_K:  1.137e-05  alpha:  3.131e-03  linmin: -6.965e-05  t[s]:    146.03
	Linear fluid (dielectric constant: 7.2) occupying 0.989895 of unit cell:	Completed after 1 iterations at t[s]:    146.47
	Linear fluid (dielectric constant: 7.2) occupying 0.989895 of unit cell:	Completed after 0 iterations at t[s]:    147.08
ElecMinimize: Iter:  99  Etot: -136.570608145817005  |grad|_K:  1.135e-05  alpha:  2.933e-03  linmin: -8.204e-04  t[s]:    147.33
	Linear fluid (dielectric constant: 7.2) occupying 0.989895 of unit cell:	Completed after 0 iterations at t[s]:    147.70
	Linear fluid (dielectric constant: 7.2) occupying 0.989895 of unit cell:	Completed after 0 iterations at t[s]:    148.25
ElecMinimize: Iter: 100  Etot: -136.570609110063884  |grad|_K:  1.133e-05  alpha:  3.171e-03  linmin: -1.733e-05  t[s]:    148.51
ElecMinimize: None of the convergence criteria satisfied after 100 iterations.
Setting wave functions to eigenvectors of Hamiltonian
Single-point solvation energy estimate, DeltaEtot = -0.040140948385300

# Ionic positions in cartesian coordinates:
ion S   4.960431645660000  13.981560468840000  25.265472781050001 1
ion S   7.075808635770003  13.274826015330000  28.544133544019999 1
ion S   8.239466575169999   9.479152131930000  28.544855420880001 1
ion S  10.355264975069996   8.766735260310000  25.266360954149999 1
ion Na   5.293454984100000   8.983135801530000  24.325194155759998 1
ion Na  10.011364350749997  13.762072108800000  24.311516290019998 1

# Forces in Cartesian coordinates:
force S  -0.001181583117960   0.001607421783505   0.004127437972686 1
force S  -0.001033256139754  -0.000009539613936  -0.000683210307640 1
force S   0.001237747387835  -0.000322503038532  -0.000128294643339 1
force S   0.001798445358072  -0.002526603785817   0.003992424770507 1
force Na  -0.007237148950075  -0.007332262469831  -0.006596991426139 1
force Na   0.007386339546743   0.007185158152469  -0.006530554634617 1

# Energy components:
   A_diel =       -0.0545646242335759
   Eewald =       95.1000625064078804
       EH =      208.1242727558003764
     Eloc =     -311.2846514023909208
      Enl =     -136.7031167622283192
      Exc =      -31.2334707118721191
 Exc_core =        7.0709167916623104
       KE =       32.4099423367904720
-------------------------------------
     Etot =     -136.5706091100638844

IonicMinimize: Iter:   0  Etot: -136.570609110063884  |grad|_K:  4.360e-03  alpha:  1.000e+00

#--- Lowdin population analysis ---
# oxidation-state S -0.626 -0.021 -0.023 -0.627
# oxidation-state Na +0.829 +0.829


-------- Electronic minimization -----------
	Linear fluid (dielectric constant: 7.2) occupying 0.989890 of unit cell:	Completed after 4 iterations at t[s]:    149.40
ElecMinimize: Iter:   0  Etot: -136.570862735603583  |grad|_K:  1.154e-05  alpha:  1.000e+00
	Linear fluid (dielectric constant: 7.2) occupying 0.989902 of unit cell:	Completed after 3 iterations at t[s]:    150.27
	Linear fluid (dielectric constant: 7.2) occupying 0.989897 of unit cell:	Completed after 2 iterations at t[s]:    151.02
ElecMinimize: Iter:   1  Etot: -136.571040891814505  |grad|_K:  2.519e-06  alpha:  5.701e-01  linmin:  7.256e-02  t[s]:    151.28
	Linear fluid (dielectric constant: 7.2) occupying 0.989898 of unit cell:	Completed after 1 iterations at t[s]:    151.78
	Linear fluid (dielectric constant: 7.2) occupying 0.989899 of unit cell:	Completed after 1 iterations at t[s]:    152.47
ElecMinimize: Iter:   2  Etot: -136.571056638479888  |grad|_K:  2.338e-06  alpha:  1.101e+00  linmin:  1.069e-02  t[s]:    152.73
	Linear fluid (dielectric constant: 7.2) occupying 0.989903 of unit cell:	Completed after 2 iterations at t[s]:    153.23
	Linear fluid (dielectric constant: 7.2) occupying 0.989902 of unit cell:	Completed after 1 iterations at t[s]:    153.94
ElecMinimize: Iter:   3  Etot: -136.571065957112580  |grad|_K:  1.841e-06  alpha:  7.521e-01  linmin:  2.550e-04  t[s]:    154.20
	Linear fluid (dielectric constant: 7.2) occupying 0.989900 of unit cell:	Completed after 1 iterations at t[s]:    154.67
	Linear fluid (dielectric constant: 7.2) occupying 0.989900 of unit cell:	Completed after 0 iterations at t[s]:    155.31
ElecMinimize: Iter:   4  Etot: -136.571071153983382  |grad|_K:  1.668e-06  alpha:  6.661e-01  linmin:  1.923e-03  t[s]:    155.57
	Linear fluid (dielectric constant: 7.2) occupying 0.989895 of unit cell:	Completed after 1 iterations at t[s]:    156.02
	Linear fluid (dielectric constant: 7.2) occupying 0.989895 of unit cell:	Completed after 0 iterations at t[s]:    156.63
ElecMinimize: Iter:   5  Etot: -136.571075606621520  |grad|_K:  1.050e-06  alpha:  6.974e-01  linmin: -7.055e-03  t[s]:    156.88
	Linear fluid (dielectric constant: 7.2) occupying 0.989892 of unit cell:	Completed after 1 iterations at t[s]:    157.32
	Linear fluid (dielectric constant: 7.2) occupying 0.989891 of unit cell:	Completed after 0 iterations at t[s]:    157.96
ElecMinimize: Iter:   6  Etot: -136.571078428076788  |grad|_K:  9.515e-07  alpha:  1.092e+00  linmin: -5.436e-03  t[s]:    158.22
	Linear fluid (dielectric constant: 7.2) occupying 0.989886 of unit cell:	Completed after 1 iterations at t[s]:    158.67
	Linear fluid (dielectric constant: 7.2) occupying 0.989887 of unit cell:	Completed after 0 iterations at t[s]:    159.31
ElecMinimize: Iter:   7  Etot: -136.571080212258664  |grad|_K:  8.651e-07  alpha:  8.479e-01  linmin:  1.665e-03  t[s]:    159.57
	Linear fluid (dielectric constant: 7.2) occupying 0.989885 of unit cell:	Completed after 1 iterations at t[s]:    160.02
	Linear fluid (dielectric constant: 7.2) occupying 0.989885 of unit cell:	Completed after 0 iterations at t[s]:    160.62
ElecMinimize: Iter:   8  Etot: -136.571081428266211  |grad|_K:  7.578e-07  alpha:  7.056e-01  linmin:  8.826e-03  t[s]:    160.88
	Linear fluid (dielectric constant: 7.2) occupying 0.989884 of unit cell:	Completed after 1 iterations at t[s]:    161.32
	Linear fluid (dielectric constant: 7.2) occupying 0.989884 of unit cell:	Completed after 0 iterations at t[s]:    161.93
ElecMinimize: Iter:   9  Etot: -136.571082164999069  |grad|_K:  6.049e-07  alpha:  5.733e-01  linmin:  8.460e-03  t[s]:    162.19
	Linear fluid (dielectric constant: 7.2) occupying 0.989884 of unit cell:	Completed after 0 iterations at t[s]:    162.59
	Linear fluid (dielectric constant: 7.2) occupying 0.989884 of unit cell:	Completed after 0 iterations at t[s]:    163.17
ElecMinimize: Iter:  10  Etot: -136.571082554051998  |grad|_K:  3.847e-07  alpha:  4.796e-01  linmin: -7.921e-03  t[s]:    163.43
	Linear fluid (dielectric constant: 7.2) occupying 0.989883 of unit cell:	Completed after 0 iterations at t[s]:    163.79
	Linear fluid (dielectric constant: 7.2) occupying 0.989883 of unit cell:	Completed after 0 iterations at t[s]:    164.38
ElecMinimize: Iter:  11  Etot: -136.571082885676532  |grad|_K:  3.285e-07  alpha:  1.020e+00  linmin:  1.780e-02  t[s]:    164.64
	Linear fluid (dielectric constant: 7.2) occupying 0.989882 of unit cell:	Completed after 0 iterations at t[s]:    165.05
	Linear fluid (dielectric constant: 7.2) occupying 0.989882 of unit cell:	Completed after 0 iterations at t[s]:    165.63
ElecMinimize: Iter:  12  Etot: -136.571083095489428  |grad|_K:  2.695e-07  alpha:  8.845e-01  linmin: -9.632e-03  t[s]:    165.88
	Linear fluid (dielectric constant: 7.2) occupying 0.989881 of unit cell:	Completed after 0 iterations at t[s]:    166.29
	Linear fluid (dielectric constant: 7.2) occupying 0.989881 of unit cell:	Completed after 0 iterations at t[s]:    166.87
ElecMinimize: Iter:  13  Etot: -136.571083266160741  |grad|_K:  2.408e-07  alpha:  9.906e-01  linmin: -1.795e-02  t[s]:    167.12
	Linear fluid (dielectric constant: 7.2) occupying 0.989880 of unit cell:	Completed after 0 iterations at t[s]:    167.53
	Linear fluid (dielectric constant: 7.2) occupying 0.989880 of unit cell:	Completed after 0 iterations at t[s]:    168.11
ElecMinimize: Iter:  14  Etot: -136.571083401244380  |grad|_K:  2.311e-07  alpha:  9.686e-01  linmin: -1.151e-02  t[s]:    168.37
	Linear fluid (dielectric constant: 7.2) occupying 0.989879 of unit cell:	Completed after 0 iterations at t[s]:    168.73
	Linear fluid (dielectric constant: 7.2) occupying 0.989879 of unit cell:	Completed after 0 iterations at t[s]:    169.32
ElecMinimize: Iter:  15  Etot: -136.571083529443200  |grad|_K:  2.385e-07  alpha:  1.085e+00  linmin:  1.133e-02  t[s]:    169.58
	Linear fluid (dielectric constant: 7.2) occupying 0.989876 of unit cell:	Completed after 0 iterations at t[s]:    169.99
	Linear fluid (dielectric constant: 7.2) occupying 0.989877 of unit cell:	Completed after 0 iterations at t[s]:    170.57
ElecMinimize: Iter:  16  Etot: -136.571083638431219  |grad|_K:  1.992e-07  alpha:  8.783e-01  linmin: -3.143e-03  t[s]:    170.82
	Linear fluid (dielectric constant: 7.2) occupying 0.989875 of unit cell:	Completed after 0 iterations at t[s]:    171.23
	Linear fluid (dielectric constant: 7.2) occupying 0.989876 of unit cell:	Completed after 0 iterations at t[s]:    171.81
ElecMinimize: Iter:  17  Etot: -136.571083711335064  |grad|_K:  1.573e-07  alpha:  7.948e-01  linmin: -1.038e-02  t[s]:    172.06
	Linear fluid (dielectric constant: 7.2) occupying 0.989875 of unit cell:	Completed after 0 iterations at t[s]:    172.43
	Linear fluid (dielectric constant: 7.2) occupying 0.989875 of unit cell:	Completed after 0 iterations at t[s]:    172.98
ElecMinimize: Iter:  18  Etot: -136.571083764417040  |grad|_K:  1.496e-07  alpha:  9.043e-01  linmin:  2.240e-04  t[s]:    173.24
	Linear fluid (dielectric constant: 7.2) occupying 0.989873 of unit cell:	Completed after 1 iterations at t[s]:    173.68
	Linear fluid (dielectric constant: 7.2) occupying 0.989874 of unit cell:	Completed after 0 iterations at t[s]:    174.32
ElecMinimize: Iter:  19  Etot: -136.571083765536315  |grad|_K:  1.520e-07  alpha:  3.622e-01  linmin:  3.236e-02  t[s]:    174.58
	Linear fluid (dielectric constant: 7.2) occupying 0.989874 of unit cell:	Completed after 0 iterations at t[s]:    174.96
	Linear fluid (dielectric constant: 7.2) occupying 0.989874 of unit cell:	Completed after 0 iterations at t[s]:    175.51
ElecMinimize: Iter:  20  Etot: -136.571083782592723  |grad|_K:  1.307e-07  alpha:  3.641e-01  linmin: -6.884e-05  t[s]:    175.76
	Linear fluid (dielectric constant: 7.2) occupying 0.989874 of unit cell:	Completed after 0 iterations at t[s]:    176.16
	Linear fluid (dielectric constant: 7.2) occupying 0.989874 of unit cell:	Completed after 0 iterations at t[s]:    176.75
ElecMinimize: Iter:  21  Etot: -136.571083786999168  |grad|_K:  1.154e-07  alpha:  2.032e-01  linmin: -7.691e-03  t[s]:    177.00
	Linear fluid (dielectric constant: 7.2) occupying 0.989874 of unit cell:	Completed after 0 iterations at t[s]:    177.37
	Linear fluid (dielectric constant: 7.2) occupying 0.989874 of unit cell:	Completed after 0 iterations at t[s]:    177.92
ElecMinimize: Iter:  22  Etot: -136.571083804847802  |grad|_K:  1.261e-07  alpha:  5.665e-01  linmin: -1.664e-04  t[s]:    178.18
	Linear fluid (dielectric constant: 7.2) occupying 0.989874 of unit cell:	Completed after 1 iterations at t[s]:    178.62
	Linear fluid (dielectric constant: 7.2) occupying 0.989874 of unit cell:	Completed after 0 iterations at t[s]:    179.26
ElecMinimize: 	Step increased Etot by 8.332250e-09, reducing alpha to 1.454638e-02.
	Linear fluid (dielectric constant: 7.2) occupying 0.989874 of unit cell:	Completed after 0 iterations at t[s]:    179.89
ElecMinimize: 	Step increased Etot by 2.996387e-09, reducing alpha to 1.454638e-03.
	Linear fluid (dielectric constant: 7.2) occupying 0.989874 of unit cell:	Completed after 0 iterations at t[s]:    180.51
ElecMinimize: 	Step increased Etot by 2.500769e-09, reducing alpha to 1.454638e-04.
ElecMinimize: 	Step failed to reduce Etot after 3 attempts. Quitting step.
ElecMinimize: 	Undoing step.
	Linear fluid (dielectric constant: 7.2) occupying 0.989874 of unit cell:	Completed after 0 iterations at t[s]:    181.13
ElecMinimize: 	Step failed: resetting search direction.
ElecMinimize: Iter:  23  Etot: -136.571083802352490  |grad|_K:  1.453e-07  alpha:  1.455e-04
	Linear fluid (dielectric constant: 7.2) occupying 0.989873 of unit cell:	Completed after 0 iterations at t[s]:    181.79
	Linear fluid (dielectric constant: 7.2) occupying 0.989873 of unit cell:	Completed after 0 iterations at t[s]:    182.40
ElecMinimize: Iter:  24  Etot: -136.571083808123888  |grad|_K:  5.410e-08  alpha:  3.332e-01  linmin: -1.962e-01  t[s]:    182.66
	Linear fluid (dielectric constant: 7.2) occupying 0.989873 of unit cell:	Completed after 0 iterations at t[s]:    183.03
	Linear fluid (dielectric constant: 7.2) occupying 0.989874 of unit cell:	Completed after 0 iterations at t[s]:    183.59
ElecMinimize: Iter:  25  Etot: -136.571083814819758  |grad|_K:  4.677e-08  alpha:  9.127e-01  linmin: -2.724e-04  t[s]:    183.84
ElecMinimize: Converged (|Delta Etot|<1.000000e-08 for 2 iters).
Setting wave functions to eigenvectors of Hamiltonian
IonicMinimize: 	Wrong curvature in test step, increasing alphaT to 3.000000e+00.

-------- Electronic minimization -----------
	Linear fluid (dielectric constant: 7.2) occupying 0.989874 of unit cell:	Completed after 0 iterations at t[s]:    184.25
ElecMinimize: Iter:   0  Etot: -136.571083814819701  |grad|_K:  4.677e-08  alpha:  1.000e+00
	Linear fluid (dielectric constant: 7.2) occupying 0.989874 of unit cell:	Completed after 0 iterations at t[s]:    184.87
	Linear fluid (dielectric constant: 7.2) occupying 0.989874 of unit cell:	Completed after 0 iterations at t[s]:    185.43
ElecMinimize: Iter:   1  Etot: -136.571083819284809  |grad|_K:  5.205e-08  alpha:  8.864e-01  linmin: -1.354e-05  t[s]:    185.68
	Linear fluid (dielectric constant: 7.2) occupying 0.989874 of unit cell:	Completed after 0 iterations at t[s]:    186.09
	Linear fluid (dielectric constant: 7.2) occupying 0.989874 of unit cell:	Completed after 0 iterations at t[s]:    186.67
ElecMinimize: Iter:   2  Etot: -136.571083821089161  |grad|_K:  7.849e-08  alpha:  3.601e-01  linmin:  1.970e-01  t[s]:    186.92
ElecMinimize: Converged (|Delta Etot|<1.000000e-08 for 2 iters).
Setting wave functions to eigenvectors of Hamiltonian

# Ionic positions in cartesian coordinates:
ion S   4.959088305194562  13.983400945452194  25.270570083734111 1
ion S   7.074613622282772  13.275049530544752  28.544420198423783 1
ion S   8.240542565210355   9.479062683720159  28.545696990948088 1
ion S  10.356901663080592   8.764441711352873  25.271323243631926 1
ion Na   5.286056077802449   8.976036593888859  24.319567029045285 1
ion Na  10.018588932949260  13.769490321781159  24.305955600096805 1

# Forces in Cartesian coordinates:
force S  -0.001714109918194   0.002018138999868   0.003955056421571 1
force S  -0.001131390706237   0.000907195142211   0.000199982660236 1
force S   0.001237004821204  -0.001151703803493   0.000749412521660 1
force S   0.002057998012018  -0.002475752342670   0.003852428399694 1
force Na  -0.005175111202417  -0.005097834747731  -0.004424966340276 1
force Na   0.005378297944322   0.005050858373179  -0.004383776323347 1

# Energy components:
   A_diel =       -0.0550246832181415
   Eewald =       94.9129894404256049
       EH =      207.9333840211704114
     Eloc =     -310.9096019716943715
      Enl =     -136.6999629293795522
      Exc =      -31.2323685169818859
 Exc_core =        7.0709168622048768
       KE =       32.4085839563839002
-------------------------------------
     Etot =     -136.5710838210891609

IonicMinimize: Iter:   1  Etot: -136.571083821089161  |grad|_K:  3.327e-03  alpha: -1.290e+00  linmin: -9.881e-01  t[s]:    187.23

#--- Lowdin population analysis ---
# oxidation-state S -0.624 -0.022 -0.023 -0.626
# oxidation-state Na +0.829 +0.829


-------- Electronic minimization -----------
	Linear fluid (dielectric constant: 7.2) occupying 0.989867 of unit cell:	Completed after 4 iterations at t[s]:    187.82
ElecMinimize: Iter:   0  Etot: -136.571398273715374  |grad|_K:  3.106e-06  alpha:  1.000e+00
	Linear fluid (dielectric constant: 7.2) occupying 0.989869 of unit cell:	Completed after 2 iterations at t[s]:    188.66
	Linear fluid (dielectric constant: 7.2) occupying 0.989869 of unit cell:	Completed after 2 iterations at t[s]:    189.41
ElecMinimize: Iter:   1  Etot: -136.571412503269642  |grad|_K:  1.363e-06  alpha:  6.412e-01  linmin:  1.673e-03  t[s]:    189.67
	Linear fluid (dielectric constant: 7.2) occupying 0.989866 of unit cell:	Completed after 2 iterations at t[s]:    190.20
	Linear fluid (dielectric constant: 7.2) occupying 0.989866 of unit cell:	Completed after 0 iterations at t[s]:    190.84
ElecMinimize: Iter:   2  Etot: -136.571415202966421  |grad|_K:  7.779e-07  alpha:  6.315e-01  linmin:  2.116e-03  t[s]:    191.10
	Linear fluid (dielectric constant: 7.2) occupying 0.989865 of unit cell:	Completed after 1 iterations at t[s]:    191.54
	Linear fluid (dielectric constant: 7.2) occupying 0.989865 of unit cell:	Completed after 0 iterations at t[s]:    192.14
ElecMinimize: Iter:   3  Etot: -136.571415961726188  |grad|_K:  6.486e-07  alpha:  5.454e-01  linmin:  1.253e-02  t[s]:    192.40
	Linear fluid (dielectric constant: 7.2) occupying 0.989864 of unit cell:	Completed after 1 iterations at t[s]:    192.84
	Linear fluid (dielectric constant: 7.2) occupying 0.989864 of unit cell:	Completed after 0 iterations at t[s]:    193.45
ElecMinimize: Iter:   4  Etot: -136.571416564571280  |grad|_K:  4.266e-07  alpha:  6.261e-01  linmin: -4.980e-02  t[s]:    193.70
	Linear fluid (dielectric constant: 7.2) occupying 0.989863 of unit cell:	Completed after 0 iterations at t[s]:    194.11
	Linear fluid (dielectric constant: 7.2) occupying 0.989863 of unit cell:	Completed after 0 iterations at t[s]:    194.69
ElecMinimize: Iter:   5  Etot: -136.571416864988777  |grad|_K:  3.564e-07  alpha:  6.674e-01  linmin: -5.744e-03  t[s]:    194.94
	Linear fluid (dielectric constant: 7.2) occupying 0.989862 of unit cell:	Completed after 1 iterations at t[s]:    195.38
	Linear fluid (dielectric constant: 7.2) occupying 0.989862 of unit cell:	Completed after 0 iterations at t[s]:    195.99
ElecMinimize: Iter:   6  Etot: -136.571417055724936  |grad|_K:  3.073e-07  alpha:  6.470e-01  linmin: -1.968e-02  t[s]:    196.25
	Linear fluid (dielectric constant: 7.2) occupying 0.989861 of unit cell:	Completed after 0 iterations at t[s]:    196.65
	Linear fluid (dielectric constant: 7.2) occupying 0.989861 of unit cell:	Completed after 0 iterations at t[s]:    197.23
ElecMinimize: Iter:   7  Etot: -136.571417163595953  |grad|_K:  2.478e-07  alpha:  4.538e-01  linmin:  4.607e-02  t[s]:    197.49
	Linear fluid (dielectric constant: 7.2) occupying 0.989861 of unit cell:	Completed after 0 iterations at t[s]:    197.86
	Linear fluid (dielectric constant: 7.2) occupying 0.989861 of unit cell:	Completed after 0 iterations at t[s]:    198.45
ElecMinimize: Iter:   8  Etot: -136.571417238290451  |grad|_K:  1.863e-07  alpha:  7.101e-01  linmin:  2.964e-02  t[s]:    198.70
	Linear fluid (dielectric constant: 7.2) occupying 0.989861 of unit cell:	Completed after 0 iterations at t[s]:    199.11
	Linear fluid (dielectric constant: 7.2) occupying 0.989861 of unit cell:	Completed after 0 iterations at t[s]:    199.70
ElecMinimize: Iter:   9  Etot: -136.571417288031654  |grad|_K:  1.228e-07  alpha:  6.772e-01  linmin: -5.184e-02  t[s]:    199.95
	Linear fluid (dielectric constant: 7.2) occupying 0.989861 of unit cell:	Completed after 0 iterations at t[s]:    200.32
	Linear fluid (dielectric constant: 7.2) occupying 0.989861 of unit cell:	Completed after 0 iterations at t[s]:    200.87
ElecMinimize: Iter:  10  Etot: -136.571417316578675  |grad|_K:  1.023e-07  alpha:  7.573e-01  linmin:  1.787e-06  t[s]:    201.13
	Linear fluid (dielectric constant: 7.2) occupying 0.989861 of unit cell:	Completed after 0 iterations at t[s]:    201.53
	Linear fluid (dielectric constant: 7.2) occupying 0.989861 of unit cell:	Completed after 0 iterations at t[s]:    202.11
ElecMinimize: Iter:  11  Etot: -136.571417320818171  |grad|_K:  1.090e-07  alpha:  4.167e-01  linmin: -5.760e-02  t[s]:    202.37
	Linear fluid (dielectric constant: 7.2) occupying 0.989861 of unit cell:	Completed after 0 iterations at t[s]:    202.74
	Linear fluid (dielectric constant: 7.2) occupying 0.989861 of unit cell:	Completed after 0 iterations at t[s]:    203.29
ElecMinimize: Iter:  12  Etot: -136.571417332932015  |grad|_K:  9.018e-08  alpha:  3.763e-01  linmin: -2.187e-06  t[s]:    203.54
	Linear fluid (dielectric constant: 7.2) occupying 0.989861 of unit cell:	Completed after 0 iterations at t[s]:    203.95
	Linear fluid (dielectric constant: 7.2) occupying 0.989861 of unit cell:	Completed after 0 iterations at t[s]:    204.53
ElecMinimize: 	Step increased Etot by 1.962150e-09, reducing alpha to 1.450922e-02.
	Linear fluid (dielectric constant: 7.2) occupying 0.989861 of unit cell:	Completed after 0 iterations at t[s]:    205.15
ElecMinimize: 	Step increased Etot by 2.915954e-09, reducing alpha to 1.450922e-03.
	Linear fluid (dielectric constant: 7.2) occupying 0.989861 of unit cell:	Completed after 0 iterations at t[s]:    205.77
ElecMinimize: 	Step increased Etot by 3.098847e-09, reducing alpha to 1.450922e-04.
ElecMinimize: 	Step failed to reduce Etot after 3 attempts. Quitting step.
ElecMinimize: 	Undoing step.
	Linear fluid (dielectric constant: 7.2) occupying 0.989861 of unit cell:	Completed after 0 iterations at t[s]:    206.39
ElecMinimize: 	Step failed: resetting search direction.
ElecMinimize: Iter:  13  Etot: -136.571417329831036  |grad|_K:  8.820e-08  alpha:  1.451e-04
	Linear fluid (dielectric constant: 7.2) occupying 0.989861 of unit cell:	Completed after 0 iterations at t[s]:    207.01
	Linear fluid (dielectric constant: 7.2) occupying 0.989861 of unit cell:	Completed after 0 iterations at t[s]:    207.56
ElecMinimize: Iter:  14  Etot: -136.571417338909612  |grad|_K:  6.230e-08  alpha:  5.067e-01  linmin:  4.583e-05  t[s]:    207.82
	Linear fluid (dielectric constant: 7.2) occupying 0.989861 of unit cell:	Completed after 0 iterations at t[s]:    208.22
	Linear fluid (dielectric constant: 7.2) occupying 0.989861 of unit cell:	Completed after 0 iterations at t[s]:    208.80
ElecMinimize: 	Step increased Etot by 1.040888e-09, reducing alpha to 2.563315e-02.
	Linear fluid (dielectric constant: 7.2) occupying 0.989861 of unit cell:	Completed after 0 iterations at t[s]:    209.42
ElecMinimize: 	Step increased Etot by 2.340812e-09, reducing alpha to 2.563315e-03.
	Linear fluid (dielectric constant: 7.2) occupying 0.989861 of unit cell:	Completed after 0 iterations at t[s]:    210.04
ElecMinimize: 	Step increased Etot by 2.483887e-09, reducing alpha to 2.563315e-04.
ElecMinimize: 	Step failed to reduce Etot after 3 attempts. Quitting step.
ElecMinimize: 	Undoing step.
	Linear fluid (dielectric constant: 7.2) occupying 0.989861 of unit cell:	Completed after 0 iterations at t[s]:    210.66
ElecMinimize: 	Step failed: resetting search direction.
ElecMinimize: Iter:  15  Etot: -136.571417336423906  |grad|_K:  6.378e-08  alpha:  2.563e-04
	Linear fluid (dielectric constant: 7.2) occupying 0.989861 of unit cell:	Completed after 0 iterations at t[s]:    211.28
	Linear fluid (dielectric constant: 7.2) occupying 0.989861 of unit cell:	Completed after 0 iterations at t[s]:    211.84
ElecMinimize: Iter:  16  Etot: -136.571417341447159  |grad|_K:  5.249e-08  alpha:  5.362e-01  linmin:  2.726e-07  t[s]:    212.09
	Linear fluid (dielectric constant: 7.2) occupying 0.989861 of unit cell:	Completed after 0 iterations at t[s]:    212.49
	Linear fluid (dielectric constant: 7.2) occupying 0.989861 of unit cell:	Completed after 0 iterations at t[s]:    213.07
ElecMinimize: 	Step increased Etot by 2.710294e-09, reducing alpha to 1.685371e-02.
	Linear fluid (dielectric constant: 7.2) occupying 0.989861 of unit cell:	Completed after 0 iterations at t[s]:    213.69
ElecMinimize: 	Step increased Etot by 2.220276e-09, reducing alpha to 1.685371e-03.
	Linear fluid (dielectric constant: 7.2) occupying 0.989861 of unit cell:	Completed after 0 iterations at t[s]:    214.31
ElecMinimize: 	Step increased Etot by 2.172982e-09, reducing alpha to 1.685371e-04.
ElecMinimize: 	Step failed to reduce Etot after 3 attempts. Quitting step.
ElecMinimize: 	Undoing step.
	Linear fluid (dielectric constant: 7.2) occupying 0.989861 of unit cell:	Completed after 0 iterations at t[s]:    214.93
ElecMinimize: 	Step failed: resetting search direction.
ElecMinimize: Iter:  17  Etot: -136.571417339274774  |grad|_K:  7.175e-08  alpha:  1.685e-04
	Linear fluid (dielectric constant: 7.2) occupying 0.989861 of unit cell:	Completed after 0 iterations at t[s]:    215.59
	Linear fluid (dielectric constant: 7.2) occupying 0.989861 of unit cell:	Completed after 0 iterations at t[s]:    216.17
ElecMinimize: Iter:  18  Etot: -136.571417341037034  |grad|_K:  2.901e-08  alpha:  2.937e-01  linmin: -1.485e-02  t[s]:    216.43
	Linear fluid (dielectric constant: 7.2) occupying 0.989861 of unit cell:	Completed after 0 iterations at t[s]:    216.80
ElecMinimize: 	Predicted alpha/alphaT>3.000000, increasing alphaT to 8.812155e-01.
	Linear fluid (dielectric constant: 7.2) occupying 0.989861 of unit cell:	Completed after 0 iterations at t[s]:    217.35
ElecMinimize: 	Predicted alpha/alphaT>3.000000, increasing alphaT to 2.643646e+00.
	Linear fluid (dielectric constant: 7.2) occupying 0.989861 of unit cell:	Completed after 0 iterations at t[s]:    217.90
	Linear fluid (dielectric constant: 7.2) occupying 0.989861 of unit cell:	Completed after 0 iterations at t[s]:    218.45
ElecMinimize: Iter:  19  Etot: -136.571417346872749  |grad|_K:  5.074e-08  alpha:  2.991e+00  linmin: -3.615e-05  t[s]:    218.71
ElecMinimize: Converged (|Delta Etot|<1.000000e-08 for 2 iters).
Setting wave functions to eigenvectors of Hamiltonian
IonicMinimize: 	Predicted alpha/alphaT>3.000000, increasing alphaT to 3.000000e+00.

-------- Electronic minimization -----------
	Linear fluid (dielectric constant: 7.2) occupying 0.989861 of unit cell:	Completed after 6 iterations at t[s]:    219.38
ElecMinimize: Iter:   0  Etot: -136.534049960299910  |grad|_K:  2.050e-04  alpha:  1.000e+00
	Linear fluid (dielectric constant: 7.2) occupying 0.989852 of unit cell:	Completed after 8 iterations at t[s]:    220.43
	Linear fluid (dielectric constant: 7.2) occupying 0.989858 of unit cell:	Completed after 7 iterations at t[s]:    221.36
ElecMinimize: Iter:   1  Etot: -136.570175477962522  |grad|_K:  3.531e-05  alpha:  3.748e-01  linmin: -2.194e-04  t[s]:    221.62
	Linear fluid (dielectric constant: 7.2) occupying 0.989847 of unit cell:	Completed after 5 iterations at t[s]:    222.30
	Linear fluid (dielectric constant: 7.2) occupying 0.989843 of unit cell:	Completed after 4 iterations at t[s]:    223.18
ElecMinimize: Iter:   2  Etot: -136.571636472653665  |grad|_K:  1.667e-05  alpha:  5.090e-01  linmin:  1.043e-03  t[s]:    223.46
	Linear fluid (dielectric constant: 7.2) occupying 0.989837 of unit cell:	Completed after 4 iterations at t[s]:    224.11
	Linear fluid (dielectric constant: 7.2) occupying 0.989839 of unit cell:	Completed after 2 iterations at t[s]:    224.87
ElecMinimize: Iter:   3  Etot: -136.571882705481698  |grad|_K:  7.129e-06  alpha:  3.853e-01  linmin: -7.364e-09  t[s]:    225.13
	Linear fluid (dielectric constant: 7.2) occupying 0.989839 of unit cell:	Completed after 3 iterations at t[s]:    225.74
	Linear fluid (dielectric constant: 7.2) occupying 0.989838 of unit cell:	Completed after 2 iterations at t[s]:    226.49
ElecMinimize: Iter:   4  Etot: -136.571955790719414  |grad|_K:  3.949e-06  alpha:  6.261e-01  linmin:  5.048e-03  t[s]:    226.75
[...]
ion S   8.173981193610285   9.475423190494555  28.622411695469722 1
ion S  10.352870840384874   8.729204311775492  25.412854343969098 1
ion Na   5.175176163508268   8.818343207712170  24.119941713788069 1
ion Na  10.137863049683839  13.928990416458436  24.114263046894969 1

# Forces in Cartesian coordinates:
force S  -0.000073930650866  -0.000228739483946  -0.000307252517508 1
force S   0.000447302748634  -0.000273456633189  -0.000068047912920 1
force S  -0.000096697124318  -0.000064434841502  -0.000066391013581 1
force S   0.000257247384471  -0.000070891565241  -0.000018028825295 1
force Na   0.000145787879632  -0.000086514315634  -0.000028231396449 1
force Na   0.000164662783602  -0.000329732044201  -0.000020939083821 1

# Energy components:
   A_diel =       -0.0641198406961192
   Eewald =       90.8876979188611500
       EH =      203.9551670580217433
     Eloc =     -302.8904082483337561
      Enl =     -136.6859769406472651
      Exc =      -31.2136273052962210
 Exc_core =        7.0709169789313711
       KE =       32.3665626478718025
-------------------------------------
     Etot =     -136.5737877312872968

IonicMinimize: Iter:  11  Etot: -136.573787731287297  |grad|_K:  1.374e-04  alpha:  8.760e+00  linmin: -1.559e-01  t[s]:    798.79

#--- Lowdin population analysis ---
# oxidation-state S -0.632 -0.019 -0.021 -0.634
# oxidation-state Na +0.839 +0.840


-------- Electronic minimization -----------
	Linear fluid (dielectric constant: 7.2) occupying 0.989660 of unit cell:	Completed after 3 iterations at t[s]:    799.35
ElecMinimize: Iter:   0  Etot: -136.573781815228358  |grad|_K:  1.545e-06  alpha:  1.000e+00
	Linear fluid (dielectric constant: 7.2) occupying 0.989661 of unit cell:	Completed after 1 iterations at t[s]:    803.45
	Linear fluid (dielectric constant: 7.2) occupying 0.989661 of unit cell:	Completed after 0 iterations at t[s]:    804.06
ElecMinimize: Iter:   1  Etot: -136.573787020244254  |grad|_K:  7.834e-07  alpha:  9.466e-01  linmin:  1.047e-02  t[s]:    804.32
	Linear fluid (dielectric constant: 7.2) occupying 0.989661 of unit cell:	Completed after 2 iterations at t[s]:    804.79
	Linear fluid (dielectric constant: 7.2) occupying 0.989661 of unit cell:	Completed after 0 iterations at t[s]:    805.47
ElecMinimize: Iter:   2  Etot: -136.573787973182931  |grad|_K:  5.767e-07  alpha:  6.813e-01  linmin:  7.064e-03  t[s]:    805.72
	Linear fluid (dielectric constant: 7.2) occupying 0.989661 of unit cell:	Completed after 1 iterations at t[s]:    806.17
	Linear fluid (dielectric constant: 7.2) occupying 0.989661 of unit cell:	Completed after 0 iterations at t[s]:    806.78
ElecMinimize: Iter:   3  Etot: -136.573788413603666  |grad|_K:  5.220e-07  alpha:  5.829e-01  linmin:  6.407e-03  t[s]:    807.04
	Linear fluid (dielectric constant: 7.2) occupying 0.989661 of unit cell:	Completed after 1 iterations at t[s]:    807.48
	Linear fluid (dielectric constant: 7.2) occupying 0.989661 of unit cell:	Completed after 0 iterations at t[s]:    808.08
ElecMinimize: Iter:   4  Etot: -136.573788756740981  |grad|_K:  2.998e-07  alpha:  5.556e-01  linmin: -1.420e-02  t[s]:    808.34
	Linear fluid (dielectric constant: 7.2) occupying 0.989661 of unit cell:	Completed after 0 iterations at t[s]:    808.71
	Linear fluid (dielectric constant: 7.2) occupying 0.989661 of unit cell:	Completed after 0 iterations at t[s]:    809.29
ElecMinimize: Iter:   5  Etot: -136.573788916888873  |grad|_K:  2.625e-07  alpha:  8.348e-01  linmin:  3.522e-02  t[s]:    809.55
	Linear fluid (dielectric constant: 7.2) occupying 0.989661 of unit cell:	Completed after 0 iterations at t[s]:    809.96
	Linear fluid (dielectric constant: 7.2) occupying 0.989661 of unit cell:	Completed after 0 iterations at t[s]:    810.54
ElecMinimize: Iter:   6  Etot: -136.573789007421510  |grad|_K:  1.558e-07  alpha:  6.311e-01  linmin: -1.220e-02  t[s]:    810.80
	Linear fluid (dielectric constant: 7.2) occupying 0.989661 of unit cell:	Completed after 0 iterations at t[s]:    811.16
	Linear fluid (dielectric constant: 7.2) occupying 0.989661 of unit cell:	Completed after 0 iterations at t[s]:    811.75
ElecMinimize: Iter:   7  Etot: -136.573789040583279  |grad|_K:  1.296e-07  alpha:  7.487e-01  linmin:  5.978e-02  t[s]:    812.01
	Linear fluid (dielectric constant: 7.2) occupying 0.989661 of unit cell:	Completed after 0 iterations at t[s]:    812.38
	Linear fluid (dielectric constant: 7.2) occupying 0.989661 of unit cell:	Completed after 0 iterations at t[s]:    812.93
ElecMinimize: Iter:   8  Etot: -136.573789067688978  |grad|_K:  9.389e-08  alpha:  8.019e-01  linmin:  3.670e-06  t[s]:    813.19
	Linear fluid (dielectric constant: 7.2) occupying 0.989661 of unit cell:	Completed after 0 iterations at t[s]:    813.59
	Linear fluid (dielectric constant: 7.2) occupying 0.989661 of unit cell:	Completed after 0 iterations at t[s]:    814.17
ElecMinimize: Iter:   9  Etot: -136.573789072422358  |grad|_K:  8.101e-08  alpha:  4.115e-01  linmin: -1.895e-02  t[s]:    814.43
	Linear fluid (dielectric constant: 7.2) occupying 0.989661 of unit cell:	Completed after 0 iterations at t[s]:    814.80
	Linear fluid (dielectric constant: 7.2) occupying 0.989661 of unit cell:	Completed after 0 iterations at t[s]:    815.35
ElecMinimize: Iter:  10  Etot: -136.573789081522989  |grad|_K:  8.636e-08  alpha:  5.801e-01  linmin:  6.076e-06  t[s]:    815.60
ElecMinimize: Converged (|Delta Etot|<1.000000e-08 for 2 iters).
Setting wave functions to eigenvectors of Hamiltonian

-------- Electronic minimization -----------
	Linear fluid (dielectric constant: 7.2) occupying 0.989661 of unit cell:	Completed after 2 iterations at t[s]:    816.13
ElecMinimize: Iter:   0  Etot: -136.573788542089915  |grad|_K:  3.986e-07  alpha:  1.000e+00
	Linear fluid (dielectric constant: 7.2) occupying 0.989661 of unit cell:	Completed after 0 iterations at t[s]:    816.85
	Linear fluid (dielectric constant: 7.2) occupying 0.989661 of unit cell:	Completed after 0 iterations at t[s]:    817.43
ElecMinimize: Iter:   1  Etot: -136.573788864645621  |grad|_K:  2.294e-07  alpha:  8.818e-01  linmin:  5.951e-03  t[s]:    817.69
	Linear fluid (dielectric constant: 7.2) occupying 0.989661 of unit cell:	Completed after 0 iterations at t[s]:    818.09
	Linear fluid (dielectric constant: 7.2) occupying 0.989661 of unit cell:	Completed after 0 iterations at t[s]:    818.67
ElecMinimize: Iter:   2  Etot: -136.573788930394812  |grad|_K:  1.502e-07  alpha:  5.690e-01  linmin: -1.127e-02  t[s]:    818.93
	Linear fluid (dielectric constant: 7.2) occupying 0.989661 of unit cell:	Completed after 0 iterations at t[s]:    819.30
	Linear fluid (dielectric constant: 7.2) occupying 0.989661 of unit cell:	Completed after 0 iterations at t[s]:    819.85
ElecMinimize: Iter:   3  Etot: -136.573788978611901  |grad|_K:  1.362e-07  alpha:  9.165e-01  linmin: -1.264e-05  t[s]:    820.11
	Linear fluid (dielectric constant: 7.2) occupying 0.989661 of unit cell:	Completed after 0 iterations at t[s]:    820.51
	Linear fluid (dielectric constant: 7.2) occupying 0.989661 of unit cell:	Completed after 0 iterations at t[s]:    821.13
ElecMinimize: Iter:   4  Etot: -136.573788985076646  |grad|_K:  1.124e-07  alpha:  4.999e-01  linmin: -3.363e-02  t[s]:    821.38
	Linear fluid (dielectric constant: 7.2) occupying 0.989661 of unit cell:	Completed after 0 iterations at t[s]:    821.76
	Linear fluid (dielectric constant: 7.2) occupying 0.989661 of unit cell:	Completed after 0 iterations at t[s]:    822.31
ElecMinimize: Iter:   5  Etot: -136.573789000338451  |grad|_K:  9.232e-08  alpha:  4.920e-01  linmin:  4.642e-06  t[s]:    822.57
	Linear fluid (dielectric constant: 7.2) occupying 0.989661 of unit cell:	Completed after 0 iterations at t[s]:    822.97
	Linear fluid (dielectric constant: 7.2) occupying 0.989661 of unit cell:	Completed after 0 iterations at t[s]:    823.55
ElecMinimize: Iter:   6  Etot: -136.573789004255701  |grad|_K:  7.712e-08  alpha:  2.790e-01  linmin:  3.423e-02  t[s]:    823.81
	Linear fluid (dielectric constant: 7.2) occupying 0.989661 of unit cell:	Completed after 0 iterations at t[s]:    824.17
	Linear fluid (dielectric constant: 7.2) occupying 0.989661 of unit cell:	Completed after 0 iterations at t[s]:    824.72
ElecMinimize: Iter:   7  Etot: -136.573789009608447  |grad|_K:  5.387e-08  alpha:  4.293e-01  linmin: -2.268e-05  t[s]:    824.98
ElecMinimize: Converged (|Delta Etot|<1.000000e-08 for 2 iters).
Setting wave functions to eigenvectors of Hamiltonian

# Ionic positions in cartesian coordinates:
ion S   4.956301456192829  14.003363187054422  25.388751791849216 1
ion S   7.138383544982754  13.293509501858001  28.597579101285042 1
ion S   8.170724883638469   9.475374243973295  28.622275728819588 1
ion S  10.355185146277565   8.728852938900109  25.415409929211631 1
ion Na   5.176948305994619   8.820582044935144  24.119562770462014 1
ion Na  10.138247829433771  13.925799870019024  24.113953824252491 1

# Forces in Cartesian coordinates:
force S   0.000094101150729  -0.000215597964149  -0.000228253070004 1
force S   0.000289932713151  -0.000390553391525  -0.000159944514494 1
force S   0.000046183085324   0.000070844843737  -0.000128018952859 1
force S   0.000134533140231  -0.000095873544967   0.000046073599077 1
force Na   0.000083860540007  -0.000138542569278  -0.000089821959510 1
force Na   0.000204175163446  -0.000291518754316  -0.000070622598559 1

# Energy components:
   A_diel =       -0.0640962726649725
   Eewald =       90.8994341109213906
       EH =      203.9652866880167323
     Eloc =     -302.9120727014236536
      Enl =     -136.6858016605671935
      Exc =      -31.2132939078940979
 Exc_core =        7.0709169770070117
       KE =       32.3658377569963065
-------------------------------------
     Etot =     -136.5737890096084470

IonicMinimize: Iter:  12  Etot: -136.573789009608447  |grad|_K:  1.089e-04  alpha:  6.590e+00  linmin: -2.116e-01  t[s]:    825.28

#--- Lowdin population analysis ---
# oxidation-state S -0.633 -0.018 -0.021 -0.634
# oxidation-state Na +0.839 +0.840


-------- Electronic minimization -----------
	Linear fluid (dielectric constant: 7.2) occupying 0.989661 of unit cell:	Completed after 2 iterations at t[s]:    825.80
ElecMinimize: Iter:   0  Etot: -136.573785431462227  |grad|_K:  1.207e-06  alpha:  1.000e+00
	Linear fluid (dielectric constant: 7.2) occupying 0.989662 of unit cell:	Completed after 1 iterations at t[s]:    826.56
	Linear fluid (dielectric constant: 7.2) occupying 0.989662 of unit cell:	Completed after 0 iterations at t[s]:    827.17
ElecMinimize: Iter:   1  Etot: -136.573788562668256  |grad|_K:  5.441e-07  alpha:  9.326e-01  linmin:  1.915e-02  t[s]:    827.43
	Linear fluid (dielectric constant: 7.2) occupying 0.989662 of unit cell:	Completed after 1 iterations at t[s]:    827.87
	Linear fluid (dielectric constant: 7.2) occupying 0.989662 of unit cell:	Completed after 0 iterations at t[s]:    828.48
ElecMinimize: Iter:   2  Etot: -136.573789117321041  |grad|_K:  3.930e-07  alpha:  8.268e-01  linmin: -6.680e-03  t[s]:    828.73
	Linear fluid (dielectric constant: 7.2) occupying 0.989662 of unit cell:	Completed after 0 iterations at t[s]:    829.14
	Linear fluid (dielectric constant: 7.2) occupying 0.989662 of unit cell:	Completed after 0 iterations at t[s]:    829.72
ElecMinimize: Iter:   3  Etot: -136.573789387955628  |grad|_K:  2.972e-07  alpha:  7.557e-01  linmin: -2.527e-03  t[s]:    829.97
	Linear fluid (dielectric constant: 7.2) occupying 0.989662 of unit cell:	Completed after 0 iterations at t[s]:    830.38
	Linear fluid (dielectric constant: 7.2) occupying 0.989662 of unit cell:	Completed after 0 iterations at t[s]:    830.96
ElecMinimize: Iter:   4  Etot: -136.573789531725851  |grad|_K:  1.980e-07  alpha:  7.076e-01  linmin: -2.326e-02  t[s]:    831.21
	Linear fluid (dielectric constant: 7.2) occupying 0.989662 of unit cell:	Completed after 0 iterations at t[s]:    831.62
	Linear fluid (dielectric constant: 7.2) occupying 0.989662 of unit cell:	Completed after 0 iterations at t[s]:    832.20
ElecMinimize: Iter:   5  Etot: -136.573789622089748  |grad|_K:  1.191e-07  alpha:  9.199e-01  linmin: -9.936e-02  t[s]:    832.45
	Linear fluid (dielectric constant: 7.2) occupying 0.989662 of unit cell:	Completed after 0 iterations at t[s]:    832.86
	Linear fluid (dielectric constant: 7.2) occupying 0.989662 of unit cell:	Completed after 0 iterations at t[s]:    833.44
ElecMinimize: Iter:   6  Etot: -136.573789647743752  |grad|_K:  8.641e-08  alpha:  7.587e-01  linmin: -1.156e-01  t[s]:    833.69
	Linear fluid (dielectric constant: 7.2) occupying 0.989662 of unit cell:	Completed after 0 iterations at t[s]:    834.06
	Linear fluid (dielectric constant: 7.2) occupying 0.989662 of unit cell:	Completed after 0 iterations at t[s]:    834.61
ElecMinimize: Iter:   7  Etot: -136.573789669120060  |grad|_K:  7.187e-08  alpha:  1.049e+00  linmin:  8.014e-06  t[s]:    834.87
	Linear fluid (dielectric constant: 7.2) occupying 0.989662 of unit cell:	Completed after 0 iterations at t[s]:    835.27
	Linear fluid (dielectric constant: 7.2) occupying 0.989662 of unit cell:	Completed after 0 iterations at t[s]:    835.85
ElecMinimize: Iter:   8  Etot: -136.573789671142322  |grad|_K:  6.318e-08  alpha:  5.472e-01  linmin: -6.932e-02  t[s]:    836.11
	Linear fluid (dielectric constant: 7.2) occupying 0.989662 of unit cell:	Completed after 0 iterations at t[s]:    836.47
	Linear fluid (dielectric constant: 7.2) occupying 0.989662 of unit cell:	Completed after 0 iterations at t[s]:    837.03
ElecMinimize: Iter:   9  Etot: -136.573789678457700  |grad|_K:  6.622e-08  alpha:  6.836e-01  linmin:  3.522e-06  t[s]:    837.28
ElecMinimize: Converged (|Delta Etot|<1.000000e-08 for 2 iters).
Setting wave functions to eigenvectors of Hamiltonian

-------- Electronic minimization -----------
	Linear fluid (dielectric constant: 7.2) occupying 0.989662 of unit cell:	Completed after 1 iterations at t[s]:    837.77
ElecMinimize: Iter:   0  Etot: -136.573789341901374  |grad|_K:  3.389e-07  alpha:  1.000e+00
	Linear fluid (dielectric constant: 7.2) occupying 0.989661 of unit cell:	Completed after 1 iterations at t[s]:    838.50
	Linear fluid (dielectric constant: 7.2) occupying 0.989661 of unit cell:	Completed after 0 iterations at t[s]:    839.11
ElecMinimize: Iter:   1  Etot: -136.573789579846334  |grad|_K:  1.832e-07  alpha:  9.021e-01  linmin: -6.201e-04  t[s]:    839.37
	Linear fluid (dielectric constant: 7.2) occupying 0.989661 of unit cell:	Completed after 0 iterations at t[s]:    839.77
	Linear fluid (dielectric constant: 7.2) occupying 0.989661 of unit cell:	Completed after 0 iterations at t[s]:    840.35
ElecMinimize: Iter:   2  Etot: -136.573789622569109  |grad|_K:  1.600e-07  alpha:  5.273e-01  linmin:  9.586e-02  t[s]:    840.61
	Linear fluid (dielectric constant: 7.2) occupying 0.989661 of unit cell:	Completed after 0 iterations at t[s]:    841.01
	Linear fluid (dielectric constant: 7.2) occupying 0.989661 of unit cell:	Completed after 0 iterations at t[s]:    841.59
ElecMinimize: Iter:   3  Etot: -136.573789644518001  |grad|_K:  9.535e-08  alpha:  4.700e-01  linmin: -1.979e-01  t[s]:    841.85
	Linear fluid (dielectric constant: 7.2) occupying 0.989661 of unit cell:	Completed after 0 iterations at t[s]:    842.22
	Linear fluid (dielectric constant: 7.2) occupying 0.989661 of unit cell:	Completed after 0 iterations at t[s]:    842.77
ElecMinimize: Iter:   4  Etot: -136.573789662283957  |grad|_K:  8.124e-08  alpha:  6.821e-01  linmin:  2.584e-06  t[s]:    843.03
	Linear fluid (dielectric constant: 7.2) occupying 0.989661 of unit cell:	Completed after 0 iterations at t[s]:    843.43
	Linear fluid (dielectric constant: 7.2) occupying 0.989661 of unit cell:	Completed after 0 iterations at t[s]:    844.01
ElecMinimize: 	Step increased Etot by 3.351261e-09, reducing alpha to 3.199627e-02.
	Linear fluid (dielectric constant: 7.2) occupying 0.989661 of unit cell:	Completed after 0 iterations at t[s]:    844.63
ElecMinimize: 	Step increased Etot by 7.914991e-09, reducing alpha to 3.199627e-03.
	Linear fluid (dielectric constant: 7.2) occupying 0.989661 of unit cell:	Completed after 0 iterations at t[s]:    845.25
ElecMinimize: 	Step increased Etot by 8.516707e-09, reducing alpha to 3.199627e-04.
ElecMinimize: 	Step failed to reduce Etot after 3 attempts. Quitting step.
ElecMinimize: 	Undoing step.
	Linear fluid (dielectric constant: 7.2) occupying 0.989661 of unit cell:	Completed after 0 iterations at t[s]:    845.87
ElecMinimize: 	Step failed: resetting search direction.
ElecMinimize: Iter:   5  Etot: -136.573789653760372  |grad|_K:  1.336e-07  alpha:  3.200e-04
	Linear fluid (dielectric constant: 7.2) occupying 0.989661 of unit cell:	Completed after 0 iterations at t[s]:    846.53
	Linear fluid (dielectric constant: 7.2) occupying 0.989661 of unit cell:	Completed after 0 iterations at t[s]:    847.11
ElecMinimize: Iter:   6  Etot: -136.573789667453468  |grad|_K:  6.737e-08  alpha:  3.389e-01  linmin:  2.711e-01  t[s]:    847.36
	Linear fluid (dielectric constant: 7.2) occupying 0.989661 of unit cell:	Completed after 0 iterations at t[s]:    847.73
ElecMinimize: 	Predicted alpha/alphaT>3.000000, increasing alphaT to 1.016764e+00.
	Linear fluid (dielectric constant: 7.2) occupying 0.989661 of unit cell:	Completed after 0 iterations at t[s]:    848.32
	Linear fluid (dielectric constant: 7.2) occupying 0.989661 of unit cell:	Completed after 0 iterations at t[s]:    848.90
ElecMinimize: Iter:   7  Etot: -136.573789668837634  |grad|_K:  4.974e-08  alpha:  5.325e-01  linmin: -2.647e-02  t[s]:    849.15
	Linear fluid (dielectric constant: 7.2) occupying 0.989661 of unit cell:	Completed after 0 iterations at t[s]:    849.52
	Linear fluid (dielectric constant: 7.2) occupying 0.989661 of unit cell:	Completed after 0 iterations at t[s]:    850.07
ElecMinimize: Iter:   8  Etot: -136.573789674100169  |grad|_K:  5.017e-08  alpha:  9.019e-01  linmin:  2.048e-05  t[s]:    850.33
ElecMinimize: Converged (|Delta Etot|<1.000000e-08 for 2 iters).
Setting wave functions to eigenvectors of Hamiltonian

# Ionic positions in cartesian coordinates:
ion S   4.954560607445416  14.003198537074171  25.388226460321924 1
ion S   7.140049049583290  13.293090218243186  28.596484607135952 1
ion S   8.168806572065126   9.476522333483439  28.622106285174997 1
ion S  10.356190522395567   8.729077455469122  25.417273818908317 1
ion Na   5.177470394186922   8.821770413140552  24.119464431093768 1
ion Na  10.138714020843688  13.923822829329524  24.113977543245028 1

# Forces in Cartesian coordinates:
force S   0.000216723623660  -0.000216130497874  -0.000137766182414 1
force S   0.000111036929194  -0.000247497767982  -0.000221118416048 1
force S   0.000147640921493  -0.000043789877111  -0.000085525666420 1
force S   0.000116813449065  -0.000143188671935  -0.000006734167218 1
force Na   0.000083337404089  -0.000155365007635  -0.000063504205195 1
force Na   0.000143741946790  -0.000265850185639  -0.000041261609702 1

# Energy components:
   A_diel =       -0.0640789631151487
   Eewald =       90.9159034396485310
       EH =      203.9809609500919976
     Eloc =     -302.9442345857781902
      Enl =     -136.6859688890976372
      Exc =      -31.2134769933053775
 Exc_core =        7.0709169909258440
       KE =       32.3661883765298271
-------------------------------------
     Etot =     -136.5737896741001691

IonicMinimize: Iter:  13  Etot: -136.573789674100169  |grad|_K:  6.398e-05  alpha:  4.724e+00  linmin: -1.508e-01  t[s]:    850.63
IonicMinimize: Converged (|grad|_K<1.000000e-04).

#--- Lowdin population analysis ---
# oxidation-state S -0.633 -0.018 -0.020 -0.635
# oxidation-state Na +0.839 +0.840


Dumping 'Na2S4-glyme.wfns' ... done
Dumping 'Na2S4-glyme.fluidState' ... done
Dumping 'Na2S4-glyme.ionpos' ... done
End date and time: Mon Dec 23 13:01:56 2024  (Duration: 0-0:14:11.39)
Done!
