
*************** JDFTx 1.7.0  ***************

Start date and time: Mon Dec 23 14:14:30 2024
Executable jdftx_gpu with command-line: -i /home/akim2/JDFTx/Na2S6-PC/Na2S6-PC.in -o /home/akim2/JDFTx/Na2S6-PC/Na2S6-PC.out
Running on hosts (process indices):  exp-1-60 (0)
Divided in process groups (process indices):  0 (0)
gpuInit: Found compatible cuda device 0 'Tesla V100-SXM2-32GB'
gpuInit: Selected device 0
Resource initialization completed at t[s]:      0.38
Run totals: 1 processes, 1 threads, 1 GPUs


Input parsed successfully to the following command list (including defaults):

basis kpoint-dependent
coords-type Cartesian
core-overlap-check vector
coulomb-interaction Isolated
coulomb-truncation-embed 3.92133 11.8496 23.1275
davidson-band-ratio 1.1
dump End State
dump-name Na2S6-PC.$VAR
elec-cutoff 20 100
elec-eigen-algo Davidson
elec-ex-corr gga-PBE
electronic-minimize  \
	dirUpdateScheme      FletcherReeves \
	linminMethod         DirUpdateRecommended \
	nIterations          100 \
	history              15 \
	knormThreshold       0 \
	energyDiffThreshold  1e-08 \
	nEnergyDiff          2 \
	alphaTstart          1 \
	alphaTmin            1e-10 \
	updateTestStepSize   yes \
	alphaTreduceFactor   0.1 \
	alphaTincreaseFactor 3 \
	nAlphaAdjustMax      3 \
	wolfeEnergy          0.0001 \
	wolfeGradient        0.9 \
	fdTest               no
exchange-regularization None
fluid LinearPCM 298.000000 1.013250
fluid-ex-corr lda-TF lda-PZ
fluid-gummel-loop 10 1.000000e-05
fluid-minimize  \
	dirUpdateScheme      PolakRibiere \
	linminMethod         DirUpdateRecommended \
	nIterations          400 \
	history              15 \
	knormThreshold       1e-11 \
	energyDiffThreshold  0 \
	nEnergyDiff          2 \
	alphaTstart          1 \
	alphaTmin            1e-10 \
	updateTestStepSize   yes \
	alphaTreduceFactor   0.1 \
	alphaTincreaseFactor 3 \
	nAlphaAdjustMax      6 \
	wolfeEnergy          0.0001 \
	wolfeGradient        0.9 \
	fdTest               no
fluid-solvent PC 11.6429 ScalarEOS \
	epsBulk 64 \
	pMol 2.95 \
	epsInf 2.02 \
	Pvap 1.53277e-13 \
	sigmaBulk 2.88e-05 \
	Rvdw 0 \
	Res 0 \
	tauNuc 343133
forces-output-coords Positions
ion S   3.921331479750000  11.849557634189999  23.127532414739999 1
ion S   7.567480476899996  11.351192369400000  23.945456691719997 1
ion S   8.668781105760003   7.743174344189998  23.234262475409999 1
ion S   6.502139520210000   7.687128731849999  29.705151530609999 1
ion S   7.556913106740001  11.318358310649998  29.045040495659997 1
ion S  11.194673592419999  11.852526400019999  29.882693553839999 1
ion Na   3.832890226020000   7.182347833710000  25.239470096249999 1
ion Na  11.349661688099999   7.228066071600000  27.689512600169998 1
ion-species GBRV/$ID_pbe.uspp
ion-width Ecut
ionic-minimize  \
	dirUpdateScheme      FletcherReeves \
	linminMethod         DirUpdateRecommended \
	nIterations          200 \
	history              15 \
	knormThreshold       0.0001 \
	energyDiffThreshold  1e-06 \
	nEnergyDiff          2 \
	alphaTstart          1 \
	alphaTmin            1e-10 \
	updateTestStepSize   yes \
	alphaTreduceFactor   0.1 \
	alphaTincreaseFactor 3 \
	nAlphaAdjustMax      3 \
	wolfeEnergy          0.0001 \
	wolfeGradient        0.9 \
	fdTest               no
kpoint   0.000000000000   0.000000000000   0.000000000000  1.00000000000000
kpoint-folding 1 1 1 
latt-move-scale 1 1 1
latt-scale 1 1 1 
lattice Triclinic 28.0058 28.0058 37.7946 90 90 120
lattice-minimize  \
	dirUpdateScheme      L-BFGS \
	linminMethod         DirUpdateRecommended \
	nIterations          0 \
	history              15 \
	knormThreshold       0 \
	energyDiffThreshold  1e-06 \
	nEnergyDiff          2 \
	alphaTstart          1 \
	alphaTmin            1e-10 \
	updateTestStepSize   yes \
	alphaTreduceFactor   0.1 \
	alphaTincreaseFactor 3 \
	nAlphaAdjustMax      3 \
	wolfeEnergy          0.0001 \
	wolfeGradient        0.9 \
	fdTest               no
lcao-params -1 1e-06 0.001
pcm-variant GLSSA13
spintype no-spin
subspace-rotation-factor 1 yes
symmetries automatic
symmetry-threshold 0.0001



---------- Setting up symmetries ----------

Found 24 point-group symmetries of the bravais lattice
Found 1 space-group symmetries with basis
Applied RMS atom displacement 0 bohrs to make symmetries exact.

---------- Initializing the Grid ----------
R = 
[      28.0058     -14.0029            0  ]
[            0      24.2537            0  ]
[            0            0      37.7946  ]
unit cell volume = 25671.8
G =
[   0.224353    0.12953         -0  ]
[          0   0.259061          0  ]
[          0         -0   0.166246  ]
Minimum fftbox size, Smin = [  128  128  172  ]
Chosen fftbox size, S = [  128  128  180  ]

---------- Initializing tighter grid for wavefunction operations ----------
R = 
[      28.0058     -14.0029            0  ]
[            0      24.2537            0  ]
[            0            0      37.7946  ]
unit cell volume = 25671.8
G =
[   0.224353    0.12953         -0  ]
[          0   0.259061          0  ]
[          0         -0   0.166246  ]
Minimum fftbox size, Smin = [  116  116  156  ]
Chosen fftbox size, S = [  120  120  160  ]

---------- Exchange Correlation functional ----------
Initalized PBE GGA exchange.
Initalized PBE GGA correlation.

---------- Setting up pseudopotentials ----------
Width of ionic core gaussian charges (only for fluid interactions / plotting) set to 0.397384

Reading pseudopotential file '/home/akim2/jdftx_install/build/pseudopotentials/GBRV/s_pbe.uspp':
  Title: S.  Created by USPP 7.3.6 on 1-4-15
  Reference state energy: -11.898476.  6 valence electrons in orbitals:
    |300>  occupation: 2  eigenvalue: -0.634167
    |310>  occupation: 4  eigenvalue: -0.257568
  lMax: 2  lLocal: 3  QijEcut: 6
  6 projectors sampled on a log grid with 635 points:
    l: 0  eig: -0.634161  rCut: 1.5
    l: 0  eig: 1.500000  rCut: 1.5
    l: 1  eig: -0.257567  rCut: 1.5
    l: 1  eig: 1.500000  rCut: 1.5
    l: 2  eig: -1.000000  rCut: 1.5
    l: 2  eig: 1.500000  rCut: 1.5
  Partial core density with radius 1.15
  Transforming core density to a uniform radial grid of dG=0.02 with 1625 points.
  Transforming local potential to a uniform radial grid of dG=0.02 with 1625 points.
  Transforming nonlocal projectors to a uniform radial grid of dG=0.02 with 432 points.
  Transforming density augmentations to a uniform radial grid of dG=0.02 with 1625 points.
  Transforming atomic orbitals to a uniform radial grid of dG=0.02 with 432 points.
  Core radius for overlap checks: 1.50 bohrs.

Reading pseudopotential file '/home/akim2/jdftx_install/build/pseudopotentials/GBRV/na_pbe.uspp':
  Title: Na.  Created by USPP 7.3.6 on 23-9-15
  Reference state energy: -47.625620.  9 valence electrons in orbitals:
    |200>  occupation: 2  eigenvalue: -2.085638
    |210>  occupation: 6  eigenvalue: -1.053708
    |300>  occupation: 1  eigenvalue: -0.100838
  lMax: 2  lLocal: 0  QijEcut: 6
  5 projectors sampled on a log grid with 657 points:
    l: 0  eig: -2.085640  rCut: 1.37
    l: 0  eig: -0.100839  rCut: 1.37
    l: 1  eig: -1.053708  rCut: 1.47
    l: 1  eig: 0.500000  rCut: 1.47
    l: 2  eig: 0.750000  rCut: 2
  Transforming local potential to a uniform radial grid of dG=0.02 with 1625 points.
  Transforming nonlocal projectors to a uniform radial grid of dG=0.02 with 432 points.
  Transforming density augmentations to a uniform radial grid of dG=0.02 with 1625 points.
  Transforming atomic orbitals to a uniform radial grid of dG=0.02 with 432 points.
  Core radius for overlap checks: 2.00 bohrs.

Initialized 2 species with 8 total atoms.

Folded 1 k-points by 1x1x1 to 1 k-points.

---------- Setting up k-points, bands, fillings ----------
No reducable k-points. 
Computing the number of bands and number of electrons
Calculating initial fillings.
nElectrons:  54.000000   nBands: 27   nStates: 1

----- Setting up reduced wavefunction bases (one per k-point) -----
average nbasis = 109673.000 , ideal nbasis = 109671.883

---------- Setting up coulomb interaction ----------
Fluid mode embedding: using embedded box, but periodic Coulomb kernel.
(Fluid response is responsible for (approximate) separation between periodic images.)
Setting up double-sized grid for truncated Coulomb potentials:
R = 
[      56.0116     -28.0058            0  ]
[            0      48.5075            0  ]
[            0            0      75.5892  ]
unit cell volume = 205374
G =
[   0.112177  0.0647651         -0  ]
[          0    0.12953          0  ]
[          0         -0  0.0831228  ]
Chosen fftbox size, S = [  256  256  360  ]
Integer grid location selected as the embedding center:
   Grid: [  49  63  110  ]
   Lattice: [  0.384302  0.488566  0.611927  ]
   Cartesian: [  3.92133  11.8496  23.1275  ]
Constructing Wigner-Seitz cell: 8 faces (6 quadrilaterals, 2 hexagons)
Range-separation parameter for embedded mesh potentials due to point charges: 0.590105 bohrs.

---------- Setting up ewald sum ----------
Optimum gaussian width for ewald sums = 16.643468 bohr.
Real space sum over 1089 unit cells with max indices [  5  5  4  ]
Reciprocal space sum over 3825 terms with max indices [  7  7  8  ]

---------- Allocating electronic variables ----------
Initializing wave functions:  linear combination of atomic orbitals
S pseudo-atom occupations:   s ( 2 )  p ( 4 )
Na pseudo-atom occupations:   s ( 2 1 )  p ( 6 )
	FillingsUpdate:  mu: -0.164955365  nElectrons: 54.000000
LCAOMinimize: Iter:   0  Etot: -156.5595025291391664  |grad|_K:  2.735e-02  alpha:  1.000e+00
	FillingsUpdate:  mu: -0.148280260  nElectrons: 54.000000
LCAOMinimize: Iter:   1  Etot: -156.6973850260835377  |grad|_K:  7.073e-03  alpha:  3.525e-01  linmin:  3.116e-01  cgtest: -7.197e-01  t[s]:      4.00
	FillingsUpdate:  mu: -0.152264760  nElectrons: 54.000000
LCAOMinimize: Iter:   2  Etot: -156.7002377605796539  |grad|_K:  7.228e-03  alpha:  3.169e-01  linmin:  3.447e-03  cgtest:  8.448e-01  t[s]:      4.38
	FillingsUpdate:  mu: -0.166441425  nElectrons: 54.000000
LCAOMinimize: Iter:   3  Etot: -156.7102118753117281  |grad|_K:  7.707e-04  alpha:  3.123e-01  linmin:  3.211e-02  cgtest: -2.577e-01  t[s]:      4.75
LCAOMinimize: None of the convergence criteria satisfied after 3 iterations.
----- createFluidSolver() ----- (Fluid-side solver setup)
   Initializing fluid molecule 'PC'
     Net charge: 0   dipole magnitude: 0
     Initializing spherical shell mfKernel with radius 0 Bohr
     deltaS corrections:

Correction to mu due to finite nuclear width = -0.000260884
   Cavity determined by nc: 0.00098 and sigma: 0.6
   Effective cavity tension: 9.53e-06 Eh/bohr^2 to account for cavitation and dispersion.


---- Citations for features of the code used in this run ----

   Software package:
      R. Sundararaman, K. Letchworth-Weaver, K.A. Schwarz, D. Gunceler, Y. Ozhabes and T.A. Arias, 'JDFTx: software for joint density-functional theory', SoftwareX 6, 278 (2017)

   gga-PBE exchange-correlation functional:
      J.P. Perdew, K. Burke and M. Ernzerhof, Phys. Rev. Lett. 77, 3865 (1996)

   Pseudopotentials:
      KF Garrity, JW Bennett, KM Rabe and D Vanderbilt, Comput. Mater. Sci. 81, 446 (2014)

   Truncated Coulomb potentials:
      R. Sundararaman and T.A. Arias, Phys. Rev. B 87, 165122 (2013)

   Linear/nonlinear dielectric/ionic fluid model with effective cavity tension:
      D. Gunceler, K. Letchworth-Weaver, R. Sundararaman, K.A. Schwarz and T.A. Arias, Modelling Simul. Mater. Sci. Eng. 21, 074005 (2013)

   Total energy minimization:
      T.A. Arias, M.C. Payne and J.D. Joannopoulos, Phys. Rev. Lett. 69, 1077 (1992)

This list may not be complete. Please suggest additional citations or
report any other bugs at https://github.com/shankar1729/jdftx/issues

Initialization completed successfully at t[s]:      4.76

Fluid solver invoked on fresh (random / LCAO) wavefunctions
Running a vacuum solve first:

-------- Initial electronic minimization -----------
ElecMinimize: Iter:   0  Etot: -156.710211875310648  |grad|_K:  3.157e-04  alpha:  1.000e+00
ElecMinimize: Iter:   1  Etot: -157.007413956051607  |grad|_K:  1.429e-04  alpha:  1.007e+00  linmin:  3.627e-03  t[s]:      5.40
ElecMinimize: Iter:   2  Etot: -157.077244103623286  |grad|_K:  7.385e-05  alpha:  1.156e+00  linmin: -2.853e-03  t[s]:      5.78
ElecMinimize: Iter:   3  Etot: -157.089285648685575  |grad|_K:  5.583e-05  alpha:  7.442e-01  linmin: -2.744e-05  t[s]:      6.16
ElecMinimize: Iter:   4  Etot: -157.094194392388772  |grad|_K:  3.605e-05  alpha:  5.316e-01  linmin:  5.112e-05  t[s]:      6.54
ElecMinimize: Iter:   5  Etot: -157.096660570940600  |grad|_K:  2.045e-05  alpha:  6.410e-01  linmin: -2.630e-04  t[s]:      6.91
ElecMinimize: Iter:   6  Etot: -157.097681999546552  |grad|_K:  1.521e-05  alpha:  8.243e-01  linmin:  6.061e-05  t[s]:      7.28
ElecMinimize: Iter:   7  Etot: -157.098173995199147  |grad|_K:  1.002e-05  alpha:  7.184e-01  linmin:  2.860e-05  t[s]:      7.66
ElecMinimize: Iter:   8  Etot: -157.098410805851358  |grad|_K:  7.358e-06  alpha:  7.960e-01  linmin: -9.630e-06  t[s]:      8.03
ElecMinimize: Iter:   9  Etot: -157.098533523825012  |grad|_K:  4.565e-06  alpha:  7.656e-01  linmin: -3.825e-05  t[s]:      8.40
ElecMinimize: Iter:  10  Etot: -157.098595990777426  |grad|_K:  3.165e-06  alpha:  1.012e+00  linmin: -1.378e-05  t[s]:      8.78
ElecMinimize: Iter:  11  Etot: -157.098620841849907  |grad|_K:  2.129e-06  alpha:  8.377e-01  linmin:  4.808e-06  t[s]:      9.15
ElecMinimize: Iter:  12  Etot: -157.098632273324341  |grad|_K:  1.349e-06  alpha:  8.521e-01  linmin: -1.433e-05  t[s]:      9.52
ElecMinimize: Iter:  13  Etot: -157.098636655788169  |grad|_K:  1.026e-06  alpha:  8.127e-01  linmin:  9.266e-06  t[s]:      9.90
ElecMinimize: Iter:  14  Etot: -157.098638517042673  |grad|_K:  7.591e-07  alpha:  5.968e-01  linmin: -1.801e-06  t[s]:     10.28
ElecMinimize: Iter:  15  Etot: -157.098639653620580  |grad|_K:  5.177e-07  alpha:  6.661e-01  linmin:  2.407e-06  t[s]:     10.65
ElecMinimize: Iter:  16  Etot: -157.098640282950640  |grad|_K:  3.587e-07  alpha:  7.930e-01  linmin: -5.185e-06  t[s]:     11.03
ElecMinimize: Iter:  17  Etot: -157.098640639892722  |grad|_K:  2.755e-07  alpha:  9.370e-01  linmin:  4.588e-06  t[s]:     11.40
ElecMinimize: Iter:  18  Etot: -157.098640858540080  |grad|_K:  2.081e-07  alpha:  9.729e-01  linmin:  7.542e-07  t[s]:     11.79
ElecMinimize: Iter:  19  Etot: -157.098640978898715  |grad|_K:  1.560e-07  alpha:  9.384e-01  linmin: -1.973e-07  t[s]:     12.17
ElecMinimize: Iter:  20  Etot: -157.098641034965652  |grad|_K:  1.137e-07  alpha:  7.777e-01  linmin: -6.379e-07  t[s]:     12.56
ElecMinimize: Iter:  21  Etot: -157.098641069061614  |grad|_K:  8.243e-08  alpha:  8.908e-01  linmin: -2.291e-06  t[s]:     12.93
ElecMinimize: Iter:  22  Etot: -157.098641085185562  |grad|_K:  6.132e-08  alpha:  8.015e-01  linmin: -2.574e-06  t[s]:     13.30
ElecMinimize: Iter:  23  Etot: -157.098641094660707  |grad|_K:  4.681e-08  alpha:  8.510e-01  linmin:  1.882e-05  t[s]:     13.68
ElecMinimize: Iter:  24  Etot: -157.098641099617538  |grad|_K:  3.886e-08  alpha:  7.640e-01  linmin: -3.099e-06  t[s]:     14.05
ElecMinimize: Converged (|Delta Etot|<1.000000e-08 for 2 iters).
Setting wave functions to eigenvectors of Hamiltonian
Vacuum energy after initial minimize, Etot = -157.098641099617538


-------- Electronic minimization -----------
	Linear fluid (dielectric constant: 64) occupying 0.992772 of unit cell:	Completed after 28 iterations at t[s]:     15.82
ElecMinimize: Iter:   0  Etot: -157.191852953448034  |grad|_K:  8.748e-05  alpha:  1.000e+00
	Linear fluid (dielectric constant: 64) occupying 0.992816 of unit cell:	Completed after 24 iterations at t[s]:     18.19
	Linear fluid (dielectric constant: 64) occupying 0.992815 of unit cell:	Completed after 6 iterations at t[s]:     19.21
ElecMinimize: Iter:   1  Etot: -157.213884816726022  |grad|_K:  6.450e-05  alpha:  9.715e-01  linmin:  1.173e-02  t[s]:     19.58
	Linear fluid (dielectric constant: 64) occupying 0.992803 of unit cell:	Completed after 15 iterations at t[s]:     20.94
	Linear fluid (dielectric constant: 64) occupying 0.992807 of unit cell:	Completed after 10 iterations at t[s]:     22.24
ElecMinimize: Iter:   2  Etot: -157.222540044401029  |grad|_K:  5.194e-05  alpha:  7.117e-01  linmin:  1.468e-04  t[s]:     22.60
	Linear fluid (dielectric constant: 64) occupying 0.992783 of unit cell:	Completed after 12 iterations at t[s]:     23.75
	Linear fluid (dielectric constant: 64) occupying 0.992787 of unit cell:	Completed after 6 iterations at t[s]:     24.75
ElecMinimize: Iter:   3  Etot: -157.227316525400795  |grad|_K:  3.282e-05  alpha:  5.983e-01  linmin: -2.060e-04  t[s]:     25.11
	Linear fluid (dielectric constant: 64) occupying 0.992776 of unit cell:	Completed after 12 iterations at t[s]:     26.26
	Linear fluid (dielectric constant: 64) occupying 0.992775 of unit cell:	Completed after 4 iterations at t[s]:     27.19
ElecMinimize: Iter:   4  Etot: -157.229449069120250  |grad|_K:  2.162e-05  alpha:  6.683e-01  linmin: -6.619e-04  t[s]:     27.50
	Linear fluid (dielectric constant: 64) occupying 0.992774 of unit cell:	Completed after 11 iterations at t[s]:     28.55
	Linear fluid (dielectric constant: 64) occupying 0.992774 of unit cell:	Completed after 1 iterations at t[s]:     29.37
ElecMinimize: Iter:   5  Etot: -157.230451580478473  |grad|_K:  1.486e-05  alpha:  7.238e-01  linmin: -1.530e-03  t[s]:     29.66
	Linear fluid (dielectric constant: 64) occupying 0.992774 of unit cell:	Completed after 9 iterations at t[s]:     30.51
	Linear fluid (dielectric constant: 64) occupying 0.992774 of unit cell:	Completed after 0 iterations at t[s]:     31.24
ElecMinimize: Iter:   6  Etot: -157.230907586007305  |grad|_K:  1.041e-05  alpha:  6.956e-01  linmin:  1.658e-03  t[s]:     31.51
	Linear fluid (dielectric constant: 64) occupying 0.992774 of unit cell:	Completed after 4 iterations at t[s]:     32.17
	Linear fluid (dielectric constant: 64) occupying 0.992773 of unit cell:	Completed after 0 iterations at t[s]:     32.83
ElecMinimize: Iter:   7  Etot: -157.231174094721666  |grad|_K:  6.229e-06  alpha:  8.310e-01  linmin: -9.306e-03  t[s]:     33.13
	Linear fluid (dielectric constant: 64) occupying 0.992774 of unit cell:	Completed after 4 iterations at t[s]:     33.79
	Linear fluid (dielectric constant: 64) occupying 0.992774 of unit cell:	Completed after 0 iterations at t[s]:     34.46
ElecMinimize: Iter:   8  Etot: -157.231292326632968  |grad|_K:  4.894e-06  alpha:  1.014e+00  linmin: -1.007e-02  t[s]:     34.74
	Linear fluid (dielectric constant: 64) occupying 0.992773 of unit cell:	Completed after 3 iterations at t[s]:     35.26
	Linear fluid (dielectric constant: 64) occupying 0.992773 of unit cell:	Completed after 3 iterations at t[s]:     36.07
ElecMinimize: Iter:   9  Etot: -157.231339603389671  |grad|_K:  3.884e-06  alpha:  6.497e-01  linmin:  2.928e-03  t[s]:     36.34
	Linear fluid (dielectric constant: 64) occupying 0.992773 of unit cell:	Completed after 3 iterations at t[s]:     36.95
	Linear fluid (dielectric constant: 64) occupying 0.992773 of unit cell:	Completed after 0 iterations at t[s]:     37.64
ElecMinimize: Iter:  10  Etot: -157.231374624044690  |grad|_K:  2.642e-06  alpha:  7.868e-01  linmin: -1.843e-02  t[s]:     37.93
	Linear fluid (dielectric constant: 64) occupying 0.992773 of unit cell:	Completed after 0 iterations at t[s]:     38.35
	Linear fluid (dielectric constant: 64) occupying 0.992773 of unit cell:	Completed after 0 iterations at t[s]:     38.98
ElecMinimize: Iter:  11  Etot: -157.231393711092466  |grad|_K:  2.064e-06  alpha:  9.006e-01  linmin: -2.608e-03  t[s]:     39.25
	Linear fluid (dielectric constant: 64) occupying 0.992773 of unit cell:	Completed after 2 iterations at t[s]:     39.74
	Linear fluid (dielectric constant: 64) occupying 0.992773 of unit cell:	Completed after 0 iterations at t[s]:     40.39
ElecMinimize: Iter:  12  Etot: -157.231403160351476  |grad|_K:  1.591e-06  alpha:  7.583e-01  linmin: -1.527e-02  t[s]:     40.67
	Linear fluid (dielectric constant: 64) occupying 0.992774 of unit cell:	Completed after 3 iterations at t[s]:     41.20
	Linear fluid (dielectric constant: 64) occupying 0.992774 of unit cell:	Completed after 0 iterations at t[s]:     41.86
ElecMinimize: Iter:  13  Etot: -157.231408406662638  |grad|_K:  1.365e-06  alpha:  6.852e-01  linmin: -1.367e-02  t[s]:     42.13
	Linear fluid (dielectric constant: 64) occupying 0.992773 of unit cell:	Completed after 0 iterations at t[s]:     42.52
	Linear fluid (dielectric constant: 64) occupying 0.992773 of unit cell:	Completed after 0 iterations at t[s]:     43.09
ElecMinimize: Iter:  14  Etot: -157.231413144255924  |grad|_K:  1.087e-06  alpha:  8.331e-01  linmin:  5.179e-05  t[s]:     43.37
	Linear fluid (dielectric constant: 64) occupying 0.992773 of unit cell:	Completed after 3 iterations at t[s]:     43.89
	Linear fluid (dielectric constant: 64) occupying 0.992773 of unit cell:	Completed after 0 iterations at t[s]:     44.55
ElecMinimize: Iter:  15  Etot: -157.231413380133120  |grad|_K:  1.878e-06  alpha:  3.213e-01  linmin:  4.041e-02  t[s]:     44.84
	Linear fluid (dielectric constant: 64) occupying 0.992772 of unit cell:	Completed after 0 iterations at t[s]:     45.22
	Linear fluid (dielectric constant: 64) occupying 0.992773 of unit cell:	Completed after 0 iterations at t[s]:     45.78
ElecMinimize: Iter:  16  Etot: -157.231414980488466  |grad|_K:  1.805e-06  alpha:  1.957e-01  linmin:  3.203e-09  t[s]:     46.06
	Linear fluid (dielectric constant: 64) occupying 0.992772 of unit cell:	Completed after 3 iterations at t[s]:     46.59
	Linear fluid (dielectric constant: 64) occupying 0.992773 of unit cell:	Completed after 0 iterations at t[s]:     47.25
ElecMinimize: Iter:  17  Etot: -157.231415236533451  |grad|_K:  1.018e-06  alpha:  8.936e-02  linmin:  2.651e-02  t[s]:     47.52
	Linear fluid (dielectric constant: 64) occupying 0.992773 of unit cell:	Completed after 0 iterations at t[s]:     47.90
ElecMinimize: 	Predicted alpha/alphaT>3.000000, increasing alphaT to 2.680927e-01.
	Linear fluid (dielectric constant: 64) occupying 0.992773 of unit cell:	Completed after 0 iterations at t[s]:     48.48
	Linear fluid (dielectric constant: 64) occupying 0.992772 of unit cell:	Completed after 0 iterations at t[s]:     49.04
ElecMinimize: Iter:  18  Etot: -157.231416617478885  |grad|_K:  8.142e-07  alpha:  4.833e-01  linmin: -3.582e-05  t[s]:     49.32
	Linear fluid (dielectric constant: 64) occupying 0.992773 of unit cell:	Completed after 0 iterations at t[s]:     49.70
	Linear fluid (dielectric constant: 64) occupying 0.992773 of unit cell:	Completed after 0 iterations at t[s]:     50.27
ElecMinimize: Iter:  19  Etot: -157.231417696005195  |grad|_K:  7.204e-07  alpha:  5.494e-01  linmin: -3.777e-05  t[s]:     50.55
	Linear fluid (dielectric constant: 64) occupying 0.992773 of unit cell:	Completed after 0 iterations at t[s]:     50.97
	Linear fluid (dielectric constant: 64) occupying 0.992773 of unit cell:	Completed after 0 iterations at t[s]:     51.56
ElecMinimize: Iter:  20  Etot: -157.231418152891109  |grad|_K:  5.574e-07  alpha:  3.694e-01  linmin: -6.169e-02  t[s]:     51.84
	Linear fluid (dielectric constant: 64) occupying 0.992773 of unit cell:	Completed after 0 iterations at t[s]:     52.22
	Linear fluid (dielectric constant: 64) occupying 0.992773 of unit cell:	Completed after 0 iterations at t[s]:     52.78
ElecMinimize: Iter:  21  Etot: -157.231418624102702  |grad|_K:  4.822e-07  alpha:  4.511e-01  linmin: -1.680e-06  t[s]:     53.06
	Linear fluid (dielectric constant: 64) occupying 0.992773 of unit cell:	Completed after 0 iterations at t[s]:     53.48
	Linear fluid (dielectric constant: 64) occupying 0.992773 of unit cell:	Completed after 0 iterations at t[s]:     54.07
ElecMinimize: Iter:  22  Etot: -157.231418760059199  |grad|_K:  4.038e-07  alpha:  3.125e-01  linmin: -1.376e-01  t[s]:     54.35
	Linear fluid (dielectric constant: 64) occupying 0.992773 of unit cell:	Completed after 0 iterations at t[s]:     54.73
	Linear fluid (dielectric constant: 64) occupying 0.992773 of unit cell:	Completed after 0 iterations at t[s]:     55.30
ElecMinimize: Iter:  23  Etot: -157.231419033400016  |grad|_K:  3.015e-07  alpha:  4.270e-01  linmin:  9.388e-06  t[s]:     55.59
	Linear fluid (dielectric constant: 64) occupying 0.992773 of unit cell:	Completed after 0 iterations at t[s]:     55.97
	Linear fluid (dielectric constant: 64) occupying 0.992773 of unit cell:	Completed after 0 iterations at t[s]:     56.53
ElecMinimize: Iter:  24  Etot: -157.231419183839677  |grad|_K:  2.881e-07  alpha:  5.590e-01  linmin:  1.617e-05  t[s]:     56.81
	Linear fluid (dielectric constant: 64) occupying 0.992773 of unit cell:	Completed after 0 iterations at t[s]:     57.19
	Linear fluid (dielectric constant: 64) occupying 0.992773 of unit cell:	Completed after 0 iterations at t[s]:     57.75
ElecMinimize: Iter:  25  Etot: -157.231419294319039  |grad|_K:  2.285e-07  alpha:  4.494e-01  linmin:  3.615e-06  t[s]:     58.03
	Linear fluid (dielectric constant: 64) occupying 0.992773 of unit cell:	Completed after 0 iterations at t[s]:     58.41
	Linear fluid (dielectric constant: 64) occupying 0.992773 of unit cell:	Completed after 0 iterations at t[s]:     58.97
ElecMinimize: Iter:  26  Etot: -157.231419367318949  |grad|_K:  1.981e-07  alpha:  4.720e-01  linmin:  8.683e-07  t[s]:     59.26
	Linear fluid (dielectric constant: 64) occupying 0.992773 of unit cell:	Completed after 0 iterations at t[s]:     59.64
	Linear fluid (dielectric constant: 64) occupying 0.992773 of unit cell:	Completed after 0 iterations at t[s]:     60.20
ElecMinimize: Iter:  27  Etot: -157.231419423011658  |grad|_K:  1.657e-07  alpha:  4.791e-01  linmin:  1.878e-06  t[s]:     60.48
	Linear fluid (dielectric constant: 64) occupying 0.992773 of unit cell:	Completed after 0 iterations at t[s]:     60.86
	Linear fluid (dielectric constant: 64) occupying 0.992773 of unit cell:	Completed after 0 iterations at t[s]:     61.42
ElecMinimize: Iter:  28  Etot: -157.231419460104235  |grad|_K:  1.382e-07  alpha:  4.562e-01  linmin: -1.424e-07  t[s]:     61.70
	Linear fluid (dielectric constant: 64) occupying 0.992773 of unit cell:	Completed after 0 iterations at t[s]:     62.08
	Linear fluid (dielectric constant: 64) occupying 0.992773 of unit cell:	Completed after 0 iterations at t[s]:     62.64
ElecMinimize: Iter:  29  Etot: -157.231419487898791  |grad|_K:  1.222e-07  alpha:  4.914e-01  linmin:  2.665e-06  t[s]:     62.92
	Linear fluid (dielectric constant: 64) occupying 0.992773 of unit cell:	Completed after 0 iterations at t[s]:     63.30
	Linear fluid (dielectric constant: 64) occupying 0.992773 of unit cell:	Completed after 0 iterations at t[s]:     63.86
ElecMinimize: Iter:  30  Etot: -157.231419509309660  |grad|_K:  1.064e-07  alpha:  4.844e-01  linmin:  3.126e-06  t[s]:     64.14
	Linear fluid (dielectric constant: 64) occupying 0.992773 of unit cell:	Completed after 0 iterations at t[s]:     64.52
	Linear fluid (dielectric constant: 64) occupying 0.992773 of unit cell:	Completed after 0 iterations at t[s]:     65.08
ElecMinimize: Iter:  31  Etot: -157.231419525844245  |grad|_K:  9.492e-08  alpha:  4.936e-01  linmin:  4.619e-06  t[s]:     65.36
	Linear fluid (dielectric constant: 64) occupying 0.992773 of unit cell:	Completed after 0 iterations at t[s]:     65.74
	Linear fluid (dielectric constant: 64) occupying 0.992773 of unit cell:	Completed after 0 iterations at t[s]:     66.30
ElecMinimize: Iter:  32  Etot: -157.231419539071396  |grad|_K:  8.494e-08  alpha:  4.958e-01  linmin:  2.604e-06  t[s]:     66.58
	Linear fluid (dielectric constant: 64) occupying 0.992773 of unit cell:	Completed after 0 iterations at t[s]:     66.96
	Linear fluid (dielectric constant: 64) occupying 0.992773 of unit cell:	Completed after 0 iterations at t[s]:     67.52
ElecMinimize: Iter:  33  Etot: -157.231419549956627  |grad|_K:  7.784e-08  alpha:  5.095e-01  linmin:  4.681e-07  t[s]:     67.80
	Linear fluid (dielectric constant: 64) occupying 0.992773 of unit cell:	Completed after 0 iterations at t[s]:     68.18
	Linear fluid (dielectric constant: 64) occupying 0.992773 of unit cell:	Completed after 0 iterations at t[s]:     68.74
ElecMinimize: Iter:  34  Etot: -157.231419558619763  |grad|_K:  6.565e-08  alpha:  4.828e-01  linmin:  2.258e-06  t[s]:     69.02
	Linear fluid (dielectric constant: 64) occupying 0.992773 of unit cell:	Completed after 1 iterations at t[s]:     69.47
	Linear fluid (dielectric constant: 64) occupying 0.992773 of unit cell:	Completed after 0 iterations at t[s]:     70.09
ElecMinimize: 	Step increased Etot by 3.868669e-07, reducing alpha to 7.139323e-04.
	Linear fluid (dielectric constant: 64) occupying 0.992773 of unit cell:	Completed after 0 iterations at t[s]:     70.75
ElecMinimize: 	Step increased Etot by 3.867134e-07, reducing alpha to 7.139323e-05.
	Linear fluid (dielectric constant: 64) occupying 0.992773 of unit cell:	Completed after 0 iterations at t[s]:     71.40
ElecMinimize: 	Step increased Etot by 3.866981e-07, reducing alpha to 7.139323e-06.
ElecMinimize: 	Step failed to reduce Etot after 3 attempts. Quitting step.
ElecMinimize: 	Undoing step.
	Linear fluid (dielectric constant: 64) occupying 0.992773 of unit cell:	Completed after 0 iterations at t[s]:     72.05
ElecMinimize: 	Step failed: resetting search direction.
ElecMinimize: Iter:  35  Etot: -157.231419171921715  |grad|_K:  2.188e-07  alpha:  7.139e-06
	Linear fluid (dielectric constant: 64) occupying 0.992773 of unit cell:	Completed after 0 iterations at t[s]:     72.71
ElecMinimize: 	Predicted alpha/alphaT>3.000000, increasing alphaT to 1.448462e+00.
	Linear fluid (dielectric constant: 64) occupying 0.992773 of unit cell:	Completed after 0 iterations at t[s]:     73.31
	Linear fluid (dielectric constant: 64) occupying 0.992773 of unit cell:	Completed after 0 iterations at t[s]:     73.90
ElecMinimize: Iter:  36  Etot: -157.231419195256592  |grad|_K:  1.383e-07  alpha:  7.663e-01  linmin: -2.463e-01  t[s]:     74.18
	Linear fluid (dielectric constant: 64) occupying 0.992773 of unit cell:	Completed after 0 iterations at t[s]:     74.56
	Linear fluid (dielectric constant: 64) occupying 0.992773 of unit cell:	Completed after 0 iterations at t[s]:     75.13
ElecMinimize: Iter:  37  Etot: -157.231419305590691  |grad|_K:  1.625e-07  alpha:  1.625e+00  linmin:  1.060e-03  t[s]:     75.41
	Linear fluid (dielectric constant: 64) occupying 0.992773 of unit cell:	Completed after 1 iterations at t[s]:     75.86
	Linear fluid (dielectric constant: 64) occupying 0.992773 of unit cell:	Completed after 0 iterations at t[s]:     76.48
ElecMinimize: Iter:  38  Etot: -157.231419330062408  |grad|_K:  3.216e-07  alpha:  2.623e-01  linmin:  3.523e-01  t[s]:     76.76
ElecMinimize: 	Bad step direction: g.d > 0.
ElecMinimize: 	Undoing step.
	Linear fluid (dielectric constant: 64) occupying 0.992773 of unit cell:	Completed after 0 iterations at t[s]:     77.14
ElecMinimize: 	Step failed: resetting search direction.
ElecMinimize: Iter:  39  Etot: -157.231419330062579  |grad|_K:  3.216e-07  alpha:  0.000e+00
	Linear fluid (dielectric constant: 64) occupying 0.992773 of unit cell:	Completed after 0 iterations at t[s]:     77.83
	Linear fluid (dielectric constant: 64) occupying 0.992773 of unit cell:	Completed after 0 iterations at t[s]:     78.42
ElecMinimize: 	Step increased Etot by 1.243481e-07, reducing alpha to 9.381467e-03.
	Linear fluid (dielectric constant: 64) occupying 0.992773 of unit cell:	Completed after 0 iterations at t[s]:     79.08
ElecMinimize: 	Step increased Etot by 1.589790e-07, reducing alpha to 9.381467e-04.
	Linear fluid (dielectric constant: 64) occupying 0.992773 of unit cell:	Completed after 0 iterations at t[s]:     79.74
ElecMinimize: 	Step increased Etot by 1.626008e-07, reducing alpha to 9.381467e-05.
ElecMinimize: 	Step failed to reduce Etot after 3 attempts. Quitting step.
ElecMinimize: 	Undoing step.
	Linear fluid (dielectric constant: 64) occupying 0.992773 of unit cell:	Completed after 0 iterations at t[s]:     80.39
ElecMinimize: 	Step failed along negative gradient direction.
ElecMinimize: Probably at roundoff error limit. (Stopping)
Setting wave functions to eigenvectors of Hamiltonian
Single-point solvation energy estimate, DeltaEtot = -0.132778067803969

# Ionic positions in cartesian coordinates:
ion S   3.921331479750000  11.849557634189999  23.127532414739999 1
ion S   7.567480476899996  11.351192369400000  23.945456691719997 1
ion S   8.668781105760003   7.743174344189998  23.234262475409999 1
ion S   6.502139520210000   7.687128731849999  29.705151530609999 1
ion S   7.556913106740001  11.318358310649998  29.045040495659997 1
ion S  11.194673592419999  11.852526400019999  29.882693553839999 1
ion Na   3.832890226020000   7.182347833710000  25.239470096249999 1
ion Na  11.349661688099999   7.228066071600000  27.689512600169998 1

# Forces in Cartesian coordinates:
force S  -0.002837703500254   0.011953014911213  -0.004982405967196 1
force S   0.007122742462947  -0.006293484263181  -0.001893104472322 1
force S  -0.000541211181811   0.010369965501397  -0.005800629376507 1
force S   0.000382468668354   0.010273558542921   0.005894448803901 1
force S  -0.006852702119520  -0.006437673182507   0.001832260087484 1
force S   0.002491942734964   0.011974976312671   0.005112770283466 1
force Na  -0.016746991017564  -0.016088224149474  -0.000432280674859 1
force Na   0.016866071010575  -0.015775755599695   0.000297664734667 1

# Energy components:
   A_diel =       -0.1866529788872217
   Eewald =      146.4436344602262920
       EH =      275.0663704317394149
     Eloc =     -456.2256640443626452
      Enl =     -133.3740503187162858
      Exc =      -39.6402950762489255
 Exc_core =       10.6063786150841732
       KE =       40.0788597437437204
-------------------------------------
     Etot =     -157.2314191674215067

IonicMinimize: Iter:   0  Etot: -157.231419167421507  |grad|_K:  8.879e-03  alpha:  1.000e+00

#--- Lowdin population analysis ---
# oxidation-state S -0.485 +0.363 -0.449 -0.450 +0.363 -0.486
# oxidation-state Na +0.823 +0.823


-------- Electronic minimization -----------
	Linear fluid (dielectric constant: 64) occupying 0.992772 of unit cell:	Completed after 17 iterations at t[s]:     82.07
ElecMinimize: Iter:   0  Etot: -157.211350372610269  |grad|_K:  1.313e-04  alpha:  1.000e+00
	Linear fluid (dielectric constant: 64) occupying 0.992764 of unit cell:	Completed after 20 iterations at t[s]:     84.17
	Linear fluid (dielectric constant: 64) occupying 0.992769 of unit cell:	Completed after 17 iterations at t[s]:     85.96
ElecMinimize: Iter:   1  Etot: -157.231662374179137  |grad|_K:  2.672e-05  alpha:  3.988e-01  linmin:  2.230e-04  t[s]:     86.33
	Linear fluid (dielectric constant: 64) occupying 0.992766 of unit cell:	Completed after 10 iterations at t[s]:     87.33
	Linear fluid (dielectric constant: 64) occupying 0.992765 of unit cell:	Completed after 7 iterations at t[s]:     88.41
ElecMinimize: Iter:   2  Etot: -157.232841614455253  |grad|_K:  1.377e-05  alpha:  5.581e-01  linmin:  1.294e-03  t[s]:     88.76
	Linear fluid (dielectric constant: 64) occupying 0.992764 of unit cell:	Completed after 6 iterations at t[s]:     89.49
	Linear fluid (dielectric constant: 64) occupying 0.992764 of unit cell:	Completed after 3 iterations at t[s]:     90.37
ElecMinimize: Iter:   3  Etot: -157.233089119789497  |grad|_K:  6.437e-06  alpha:  4.422e-01  linmin: -1.055e-03  t[s]:     90.65
	Linear fluid (dielectric constant: 64) occupying 0.992764 of unit cell:	Completed after 4 iterations at t[s]:     91.31
	Linear fluid (dielectric constant: 64) occupying 0.992764 of unit cell:	Completed after 4 iterations at t[s]:     92.15
ElecMinimize: Iter:   4  Etot: -157.233173964014895  |grad|_K:  4.273e-06  alpha:  6.924e-01  linmin:  2.181e-04  t[s]:     92.44
	Linear fluid (dielectric constant: 64) occupying 0.992764 of unit cell:	Completed after 3 iterations at t[s]:     93.06
	Linear fluid (dielectric constant: 64) occupying 0.992764 of unit cell:	Completed after 1 iterations at t[s]:     93.80
ElecMinimize: Iter:   5  Etot: -157.233201631995598  |grad|_K:  2.814e-06  alpha:  5.142e-01  linmin:  1.589e-02  t[s]:     94.08
	Linear fluid (dielectric constant: 64) occupying 0.992764 of unit cell:	Completed after 3 iterations at t[s]:     94.70
	Linear fluid (dielectric constant: 64) occupying 0.992764 of unit cell:	Completed after 0 iterations at t[s]:     95.36
ElecMinimize: Iter:   6  Etot: -157.233220407769011  |grad|_K:  1.552e-06  alpha:  7.798e-01  linmin: -9.223e-02  t[s]:     95.64
	Linear fluid (dielectric constant: 64) occupying 0.992764 of unit cell:	Completed after 2 iterations at t[s]:     96.23
	Linear fluid (dielectric constant: 64) occupying 0.992764 of unit cell:	Completed after 0 iterations at t[s]:     96.89
ElecMinimize: Iter:   7  Etot: -157.233226621246530  |grad|_K:  1.191e-06  alpha:  7.882e-01  linmin: -2.015e-02  t[s]:     97.17
	Linear fluid (dielectric constant: 64) occupying 0.992763 of unit cell:	Completed after 0 iterations at t[s]:     97.59
	Linear fluid (dielectric constant: 64) occupying 0.992763 of unit cell:	Completed after 0 iterations at t[s]:     98.18
ElecMinimize: Iter:   8  Etot: -157.233229474340106  |grad|_K:  7.803e-07  alpha:  6.640e-01  linmin: -1.793e-02  t[s]:     98.45
	Linear fluid (dielectric constant: 64) occupying 0.992763 of unit cell:	Completed after 0 iterations at t[s]:     98.83
	Linear fluid (dielectric constant: 64) occupying 0.992763 of unit cell:	Completed after 0 iterations at t[s]:     99.44
ElecMinimize: Iter:   9  Etot: -157.233230910653447  |grad|_K:  6.155e-07  alpha:  8.503e-01  linmin:  1.556e-02  t[s]:     99.73
	Linear fluid (dielectric constant: 64) occupying 0.992763 of unit cell:	Completed after 0 iterations at t[s]:    100.15
	Linear fluid (dielectric constant: 64) occupying 0.992763 of unit cell:	Completed after 0 iterations at t[s]:    100.74
ElecMinimize: Iter:  10  Etot: -157.233231833898401  |grad|_K:  4.102e-07  alpha:  8.484e-01  linmin: -6.558e-02  t[s]:    101.03
	Linear fluid (dielectric constant: 64) occupying 0.992763 of unit cell:	Completed after 0 iterations at t[s]:    101.41
	Linear fluid (dielectric constant: 64) occupying 0.992763 of unit cell:	Completed after 0 iterations at t[s]:    101.98
ElecMinimize: Iter:  11  Etot: -157.233232367628432  |grad|_K:  3.638e-07  alpha:  9.648e-01  linmin:  3.495e-06  t[s]:    102.26
	Linear fluid (dielectric constant: 64) occupying 0.992762 of unit cell:	Completed after 2 iterations at t[s]:    102.75
	Linear fluid (dielectric constant: 64) occupying 0.992763 of unit cell:	Completed after 0 iterations at t[s]:    103.40
ElecMinimize: 	Step increased Etot by 5.148371e-07, reducing alpha to 2.505343e-02.
	Linear fluid (dielectric constant: 64) occupying 0.992763 of unit cell:	Completed after 0 iterations at t[s]:    104.06
ElecMinimize: 	Step increased Etot by 5.584728e-07, reducing alpha to 2.505343e-03.
	Linear fluid (dielectric constant: 64) occupying 0.992763 of unit cell:	Completed after 0 iterations at t[s]:    104.71
ElecMinimize: 	Step increased Etot by 5.655303e-07, reducing alpha to 2.505343e-04.
ElecMinimize: 	Step failed to reduce Etot after 3 attempts. Quitting step.
ElecMinimize: 	Undoing step.
	Linear fluid (dielectric constant: 64) occupying 0.992763 of unit cell:	Completed after 0 iterations at t[s]:    105.36
ElecMinimize: 	Step failed: resetting search direction.
ElecMinimize: Iter:  12  Etot: -157.233231802016775  |grad|_K:  5.196e-07  alpha:  2.505e-04
	Linear fluid (dielectric constant: 64) occupying 0.992762 of unit cell:	Completed after 1 iterations at t[s]:    106.09
	Linear fluid (dielectric constant: 64) occupying 0.992762 of unit cell:	Completed after 0 iterations at t[s]:    106.71
ElecMinimize: Iter:  13  Etot: -157.233232042130453  |grad|_K:  2.795e-07  alpha:  4.929e-01  linmin: -2.607e-02  t[s]:    107.00
	Linear fluid (dielectric constant: 64) occupying 0.992763 of unit cell:	Completed after 0 iterations at t[s]:    107.37
	Linear fluid (dielectric constant: 64) occupying 0.992763 of unit cell:	Completed after 0 iterations at t[s]:    107.94
ElecMinimize: Iter:  14  Etot: -157.233232267039739  |grad|_K:  1.926e-07  alpha:  9.529e-01  linmin:  3.679e-06  t[s]:    108.21
	Linear fluid (dielectric constant: 64) occupying 0.992763 of unit cell:	Completed after 0 iterations at t[s]:    108.59
	Linear fluid (dielectric constant: 64) occupying 0.992763 of unit cell:	Completed after 0 iterations at t[s]:    109.17
ElecMinimize: Iter:  15  Etot: -157.233232362435160  |grad|_K:  1.369e-07  alpha:  8.684e-01  linmin: -2.683e-07  t[s]:    109.45
	Linear fluid (dielectric constant: 64) occupying 0.992763 of unit cell:	Completed after 0 iterations at t[s]:    109.83
	Linear fluid (dielectric constant: 64) occupying 0.992763 of unit cell:	Completed after 0 iterations at t[s]:    110.40
ElecMinimize: Iter:  16  Etot: -157.233232408182658  |grad|_K:  9.961e-08  alpha:  8.240e-01  linmin: -3.827e-06  t[s]:    110.68
	Linear fluid (dielectric constant: 64) occupying 0.992763 of unit cell:	Completed after 0 iterations at t[s]:    111.06
	Linear fluid (dielectric constant: 64) occupying 0.992763 of unit cell:	Completed after 0 iterations at t[s]:    111.62
ElecMinimize: Iter:  17  Etot: -157.233232434882410  |grad|_K:  7.321e-08  alpha:  9.087e-01  linmin: -3.519e-06  t[s]:    111.90
	Linear fluid (dielectric constant: 64) occupying 0.992763 of unit cell:	Completed after 0 iterations at t[s]:    112.28
	Linear fluid (dielectric constant: 64) occupying 0.992763 of unit cell:	Completed after 0 iterations at t[s]:    112.84
ElecMinimize: Iter:  18  Etot: -157.233232450928256  |grad|_K:  5.705e-08  alpha:  1.011e+00  linmin: -7.559e-07  t[s]:    113.12
	Linear fluid (dielectric constant: 64) occupying 0.992763 of unit cell:	Completed after 0 iterations at t[s]:    113.50
	Linear fluid (dielectric constant: 64) occupying 0.992763 of unit cell:	Completed after 0 iterations at t[s]:    114.06
ElecMinimize: Iter:  19  Etot: -157.233232460992440  |grad|_K:  5.137e-08  alpha:  1.044e+00  linmin:  4.012e-06  t[s]:    114.34
	Linear fluid (dielectric constant: 64) occupying 0.992763 of unit cell:	Completed after 0 iterations at t[s]:    114.72
	Linear fluid (dielectric constant: 64) occupying 0.992763 of unit cell:	Completed after 0 iterations at t[s]:    115.28
ElecMinimize: Iter:  20  Etot: -157.233232468932016  |grad|_K:  4.316e-08  alpha:  1.016e+00  linmin: -8.273e-06  t[s]:    115.56
	Linear fluid (dielectric constant: 64) occupying 0.992763 of unit cell:	Completed after 0 iterations at t[s]:    115.94
	Linear fluid (dielectric constant: 64) occupying 0.992763 of unit cell:	Completed after 0 iterations at t[s]:    116.51
ElecMinimize: Iter:  21  Etot: -157.233232474678488  |grad|_K:  3.628e-08  alpha:  1.042e+00  linmin:  5.651e-06  t[s]:    116.79
ElecMinimize: Converged (|Delta Etot|<1.000000e-08 for 2 iters).
Setting wave functions to eigenvectors of Hamiltonian
IonicMinimize: 	Predicted alpha/alphaT>3.000000, increasing alphaT to 3.000000e+00.

-------- Electronic minimization -----------
	Linear fluid (dielectric constant: 64) occupying 0.992761 of unit cell:	Completed after 20 iterations at t[s]:    118.06
ElecMinimize: Iter:   0  Etot: -157.148628928102028  |grad|_K:  2.636e-04  alpha:  1.000e+00
	Linear fluid (dielectric constant: 64) occupying 0.992746 of unit cell:	Completed after 23 iterations at t[s]:    120.39
	Linear fluid (dielectric constant: 64) occupying 0.992755 of unit cell:	Completed after 20 iterations at t[s]:    122.41
ElecMinimize: Iter:   1  Etot: -157.229730798839199  |grad|_K:  5.684e-05  alpha:  3.968e-01  linmin: -7.730e-04  t[s]:    122.76
	Linear fluid (dielectric constant: 64) occupying 0.992749 of unit cell:	Completed after 14 iterations at t[s]:    124.05
	Linear fluid (dielectric constant: 64) occupying 0.992747 of unit cell:	Completed after 9 iterations at t[s]:    125.26
ElecMinimize: Iter:   2  Etot: -157.234462004627346  |grad|_K:  3.102e-05  alpha:  4.949e-01  linmin:  3.336e-03  t[s]:    125.64
	Linear fluid (dielectric constant: 64) occupying 0.992745 of unit cell:	Completed after 10 iterations at t[s]:    126.62
	Linear fluid (dielectric constant: 64) occupying 0.992745 of unit cell:	Completed after 3 iterations at t[s]:    127.52
ElecMinimize: Iter:   3  Etot: -157.235725614020026  |grad|_K:  1.319e-05  alpha:  4.450e-01  linmin:  2.424e-04  t[s]:    127.79
	Linear fluid (dielectric constant: 64) occupying 0.992745 of unit cell:	Completed after 6 iterations at t[s]:    128.53
	Linear fluid (dielectric constant: 64) occupying 0.992745 of unit cell:	Completed after 5 iterations at t[s]:    129.48
ElecMinimize: Iter:   4  Etot: -157.236085475183415  |grad|_K:  8.869e-06  alpha:  6.993e-01  linmin:  1.188e-03  t[s]:    129.82
	Linear fluid (dielectric constant: 64) occupying 0.992744 of unit cell:	Completed after 4 iterations at t[s]:    130.48
	Linear fluid (dielectric constant: 64) occupying 0.992744 of unit cell:	Completed after 2 iterations at t[s]:    131.25
ElecMinimize: Iter:   5  Etot: -157.236211761289269  |grad|_K:  5.327e-06  alpha:  5.456e-01  linmin:  7.360e-04  t[s]:    131.53
	Linear fluid (dielectric constant: 64) occupying 0.992744 of unit cell:	Completed after 3 iterations at t[s]:    132.15
	Linear fluid (dielectric constant: 64) occupying 0.992744 of unit cell:	Completed after 3 iterations at t[s]:    132.95
ElecMinimize: Iter:   6  Etot: -157.236291707310528  |grad|_K:  3.082e-06  alpha:  9.502e-01  linmin: -7.224e-03  t[s]:    133.24
	Linear fluid (dielectric constant: 64) occupying 0.992744 of unit cell:	Completed after 4 iterations at t[s]:    133.91
	Linear fluid (dielectric constant: 64) occupying 0.992744 of unit cell:	Completed after 0 iterations at t[s]:    134.57
ElecMinimize: Iter:   7  Etot: -157.236316745071093  |grad|_K:  2.219e-06  alpha:  8.831e-01  linmin:  4.564e-08  t[s]:    134.85
	Linear fluid (dielectric constant: 64) occupying 0.992743 of unit cell:	Completed after 3 iterations at t[s]:    135.47
	Linear fluid (dielectric constant: 64) occupying 0.992743 of unit cell:	Completed after 0 iterations at t[s]:    136.14
ElecMinimize: Iter:   8  Etot: -157.236325287398955  |grad|_K:  2.126e-06  alpha:  5.632e-01  linmin:  4.861e-02  t[s]:    136.42
	Linear fluid (dielectric constant: 64) occupying 0.992742 of unit cell:	Completed after 2 iterations at t[s]:    136.91
	Linear fluid (dielectric constant: 64) occupying 0.992742 of unit cell:	Completed after 0 iterations at t[s]:    137.56
ElecMinimize: Iter:   9  Etot: -157.236329068970349  |grad|_K:  1.200e-06  alpha:  3.674e-01  linmin: -1.359e-02  t[s]:    137.84
	Linear fluid (dielectric constant: 64) occupying 0.992742 of unit cell:	Completed after 0 iterations at t[s]:    138.22
	Linear fluid (dielectric constant: 64) occupying 0.992742 of unit cell:	Completed after 1 iterations at t[s]:    138.86
ElecMinimize: Iter:  10  Etot: -157.236332665444650  |grad|_K:  9.336e-07  alpha:  9.488e-01  linmin:  3.354e-02  t[s]:    139.15
	Linear fluid (dielectric constant: 64) occupying 0.992741 of unit cell:	Completed after 2 iterations at t[s]:    144.89
	Linear fluid (dielectric constant: 64) occupying 0.992742 of unit cell:	Completed after 0 iterations at t[s]:    145.53
ElecMinimize: Iter:  11  Etot: -157.236334035725946  |grad|_K:  7.741e-07  alpha:  6.481e-01  linmin: -3.844e-02  t[s]:    145.82
	Linear fluid (dielectric constant: 64) occupying 0.992741 of unit cell:	Completed after 0 iterations at t[s]:    146.20
	Linear fluid (dielectric constant: 64) occupying 0.992741 of unit cell:	Completed after 0 iterations at t[s]:    146.77
ElecMinimize: Iter:  12  Etot: -157.236335355203437  |grad|_K:  6.307e-07  alpha:  6.884e-01  linmin: -5.711e-06  t[s]:    147.05
	Linear fluid (dielectric constant: 64) occupying 0.992741 of unit cell:	Completed after 3 iterations at t[s]:    147.57
	Linear fluid (dielectric constant: 64) occupying 0.992741 of unit cell:	Completed after 0 iterations at t[s]:    148.23
ElecMinimize: 	Step increased Etot by 2.259628e-07, reducing alpha to 2.483409e-02.
	Linear fluid (dielectric constant: 64) occupying 0.992741 of unit cell:	Completed after 0 iterations at t[s]:    148.89
ElecMinimize: 	Step increased Etot by 2.703410e-07, reducing alpha to 2.483409e-03.
	Linear fluid (dielectric constant: 64) occupying 0.992741 of unit cell:	Completed after 0 iterations at t[s]:    152.65
ElecMinimize: 	Step increased Etot by 2.839549e-07, reducing alpha to 2.483409e-04.
ElecMinimize: 	Step failed to reduce Etot after 3 attempts. Quitting step.
ElecMinimize: 	Undoing step.
	Linear fluid (dielectric constant: 64) occupying 0.992741 of unit cell:	Completed after 0 iterations at t[s]:    153.30
ElecMinimize: 	Step failed: resetting search direction.
ElecMinimize: Iter:  13  Etot: -157.236335071087723  |grad|_K:  1.073e-06  alpha:  2.483e-04
	Linear fluid (dielectric constant: 64) occupying 0.992741 of unit cell:	Completed after 3 iterations at t[s]:    154.10
	Linear fluid (dielectric constant: 64) occupying 0.992741 of unit cell:	Completed after 0 iterations at t[s]:    155.62
ElecMinimize: Iter:  14  Etot: -157.236336387010994  |grad|_K:  1.191e-06  alpha:  2.306e-01  linmin:  4.140e-01  t[s]:    155.89
	Linear fluid (dielectric constant: 64) occupying 0.992741 of unit cell:	Completed after 0 iterations at t[s]:    156.27
	Linear fluid (dielectric constant: 64) occupying 0.992741 of unit cell:	Completed after 0 iterations at t[s]:    156.84
ElecMinimize: Iter:  15  Etot: -157.236336676762591  |grad|_K:  1.236e-06  alpha:  2.459e-01  linmin: -2.459e-06  t[s]:    157.14
	Linear fluid (dielectric constant: 64) occupying 0.992742 of unit cell:	Completed after 3 iterations at t[s]:    157.66
	Linear fluid (dielectric constant: 64) occupying 0.992742 of unit cell:	Completed after 0 iterations at t[s]:    158.32
ElecMinimize: 	Step increased Etot by 6.979062e-07, reducing alpha to 7.222475e-03.
	Linear fluid (dielectric constant: 64) occupying 0.992741 of unit cell:	Completed after 0 iterations at t[s]:    158.98
ElecMinimize: 	Step increased Etot by 5.150364e-07, reducing alpha to 7.222475e-04.
	Linear fluid (dielectric constant: 64) occupying 0.992741 of unit cell:	Completed after 0 iterations at t[s]:    159.64
ElecMinimize: 	Step increased Etot by 5.009597e-07, reducing alpha to 7.222475e-05.
ElecMinimize: 	Step failed to reduce Etot after 3 attempts. Quitting step.
ElecMinimize: 	Undoing step.
	Linear fluid (dielectric constant: 64) occupying 0.992741 of unit cell:	Completed after 0 iterations at t[s]:    160.30
ElecMinimize: 	Step failed: resetting search direction.
ElecMinimize: Iter:  16  Etot: -157.236336175955444  |grad|_K:  4.964e-07  alpha:  7.222e-05
	Linear fluid (dielectric constant: 64) occupying 0.992741 of unit cell:	Completed after 0 iterations at t[s]:    160.96
	Linear fluid (dielectric constant: 64) occupying 0.992741 of unit cell:	Completed after 2 iterations at t[s]:    161.63
ElecMinimize: 	Step increased Etot by 1.109660e-06, reducing alpha to 6.505884e-02.
	Linear fluid (dielectric constant: 64) occupying 0.992741 of unit cell:	Completed after 0 iterations at t[s]:    162.33
ElecMinimize: 	Step increased Etot by 3.242969e-07, reducing alpha to 6.505884e-03.
	Linear fluid (dielectric constant: 64) occupying 0.992741 of unit cell:	Completed after 0 iterations at t[s]:    162.98
ElecMinimize: 	Step increased Etot by 2.880458e-07, reducing alpha to 6.505884e-04.
ElecMinimize: 	Step failed to reduce Etot after 3 attempts. Quitting step.
ElecMinimize: 	Undoing step.
	Linear fluid (dielectric constant: 64) occupying 0.992741 of unit cell:	Completed after 0 iterations at t[s]:    163.65
ElecMinimize: 	Step failed along negative gradient direction.
ElecMinimize: Probably at roundoff error limit. (Stopping)
Setting wave functions to eigenvectors of Hamiltonian
IonicMinimize: 	Predicted alpha/alphaT>3.000000, increasing alphaT to 9.000000e+00.

-------- Electronic minimization -----------
	Linear fluid (dielectric constant: 64) occupying 0.992735 of unit cell:	Completed after 24 iterations at t[s]:    165.49
ElecMinimize: Iter:   0  Etot: -156.432261154985042  |grad|_K:  8.285e-04  alpha:  1.000e+00
	Linear fluid (dielectric constant: 64) occupying 0.992713 of unit cell:	Completed after 32 iterations at t[s]:    168.44
	Linear fluid (dielectric constant: 64) occupying 0.992728 of unit cell:	Completed after 25 iterations at t[s]:    170.82
ElecMinimize: Iter:   1  Etot: -157.159846946772888  |grad|_K:  2.305e-04  alpha:  3.834e-01  linmin: -3.335e-02  t[s]:    171.18
	Linear fluid (dielectric constant: 64) occupying 0.992699 of unit cell:	Completed after 21 iterations at t[s]:    172.96
	Linear fluid (dielectric constant: 64) occupying 0.992701 of unit cell:	Completed after 9 iterations at t[s]:    174.16
ElecMinimize: Iter:   2  Etot: -157.218126886171206  |grad|_K:  1.026e-04  alpha:  3.657e-01  linmin:  7.377e-03  t[s]:    174.54
	Linear fluid (dielectric constant: 64) occupying 0.992693 of unit cell:	Completed after 14 iterations at t[s]:    175.84
	Linear fluid (dielectric constant: 64) occupying 0.992690 of unit cell:	Completed after 11 iterations at t[s]:    177.19
ElecMinimize: Iter:   3  Etot: -157.235367657865197  |grad|_K:  4.327e-05  alpha:  5.555e-01  linmin: -2.907e-03  t[s]:    177.56
	Linear fluid (dielectric constant: 64) occupying 0.992688 of unit cell:	Completed after 12 iterations at t[s]:    178.68
	Linear fluid (dielectric constant: 64) occupying 0.992688 of unit cell:	Completed after 3 iterations at t[s]:    179.59
ElecMinimize: Iter:   4  Etot: -157.238700703216892  |grad|_K:  2.920e-05  alpha:  5.999e-01  linmin: -8.993e-04  t[s]:    179.87
	Linear fluid (dielectric constant: 64) occupying 0.992686 of unit cell:	Completed after 11 iterations at t[s]:    180.91
	Linear fluid (dielectric constant: 64) occupying 0.992686 of unit cell:	Completed after 0 iterations at t[s]:    181.68
ElecMinimize: Iter:   5  Etot: -157.240163750435926  |grad|_K:  1.727e-05  alpha:  5.787e-01  linmin:  2.897e-03  t[s]:    181.97
	Linear fluid (dielectric constant: 64) occupying 0.992687 of unit cell:	Completed after 9 iterations at t[s]:    182.80
	Linear fluid (dielectric constant: 64) occupying 0.992687 of unit cell:	Completed after 3 iterations at t[s]:    183.67
ElecMinimize: Iter:   6  Etot: -157.240778872374392  |grad|_K:  1.451e-05  alpha:  6.975e-01  linmin: -6.639e-03  t[s]:    183.95
	Linear fluid (dielectric constant: 64) occupying 0.992685 of unit cell:	Completed after 6 iterations at t[s]:    184.68
	Linear fluid (dielectric constant: 64) occupying 0.992685 of unit cell:	Completed after 3 iterations at t[s]:    185.56
ElecMinimize: Iter:   7  Etot: -157.241115491694472  |grad|_K:  7.965e-06  alpha:  5.341e-01  linmin:  7.759e-04  t[s]:    185.84
	Linear fluid (dielectric constant: 64) occupying 0.992684 of unit cell:	Completed after 3 iterations at t[s]:    186.46
	Linear fluid (dielectric constant: 64) occupying 0.992683 of unit cell:	Completed after 2 iterations at t[s]:    187.23
ElecMinimize: Iter:   8  Etot: -157.241273391626663  |grad|_K:  5.410e-06  alpha:  8.438e-01  linmin:  1.248e-03  t[s]:    187.51
	Linear fluid (dielectric constant: 64) occupying 0.992680 of unit cell:	Completed after 4 iterations at t[s]:    188.17
	Linear fluid (dielectric constant: 64) occupying 0.992681 of unit cell:	Completed after 2 iterations at t[s]:    188.94
ElecMinimize: Iter:   9  Etot: -157.241331294342444  |grad|_K:  4.417e-06  alpha:  6.714e-01  linmin:  3.559e-03  t[s]:    189.22
	Linear fluid (dielectric constant: 64) occupying 0.992679 of unit cell:	Completed after 4 iterations at t[s]:    189.88
	Linear fluid (dielectric constant: 64) occupying 0.992679 of unit cell:	Completed after 0 iterations at t[s]:    190.55
ElecMinimize: Iter:  10  Etot: -157.241362596211189  |grad|_K:  3.412e-06  alpha:  5.408e-01  linmin:  2.799e-02  t[s]:    190.82
	Linear fluid (dielectric constant: 64) occupying 0.992678 of unit cell:	Completed after 2 iterations at t[s]:    191.41
	Linear fluid (dielectric constant: 64) occupying 0.992678 of unit cell:	Completed after 0 iterations at t[s]:    192.10
ElecMinimize: Iter:  11  Etot: -157.241386108233797  |grad|_K:  1.946e-06  alpha:  6.970e-01  linmin: -7.422e-02  t[s]:    192.39
	Linear fluid (dielectric constant: 64) occupying 0.992678 of unit cell:	Completed after 0 iterations at t[s]:    192.77
	Linear fluid (dielectric constant: 64) occupying 0.992678 of unit cell:	Completed after 2 iterations at t[s]:    193.44
ElecMinimize: Iter:  12  Etot: -157.241398975253958  |grad|_K:  1.740e-06  alpha:  1.119e+00  linmin:  2.579e-02  t[s]:    193.72
	Linear fluid (dielectric constant: 64) occupying 0.992678 of unit cell:	Completed after 3 iterations at t[s]:    194.29
	Linear fluid (dielectric constant: 64) occupying 0.992678 of unit cell:	Completed after 0 iterations at t[s]:    194.96
ElecMinimize: Iter:  13  Etot: -157.241405494820867  |grad|_K:  1.483e-06  alpha:  7.600e-01  linmin:  1.634e-02  t[s]:    195.23
	Linear fluid (dielectric constant: 64) occupying 0.992678 of unit cell:	Completed after 2 iterations at t[s]:    195.72
	Linear fluid (dielectric constant: 64) occupying 0.992678 of unit cell:	Completed after 0 iterations at t[s]:    196.37
ElecMinimize: Iter:  14  Etot: -157.241408162211400  |grad|_K:  1.251e-06  alpha:  4.347e-01  linmin:  4.586e-02  t[s]:    196.65
	Linear fluid (dielectric constant: 64) occupying 0.992678 of unit cell:	Completed after 2 iterations at t[s]:    197.14
	Linear fluid (dielectric constant: 64) occupying 0.992678 of unit cell:	Completed after 0 iterations at t[s]:    197.79
ElecMinimize: Iter:  15  Etot: -157.241409730050947  |grad|_K:  6.928e-07  alpha:  3.980e-01  linmin: -1.328e-01  t[s]:    198.07
	Linear fluid (dielectric constant: 64) occupying 0.992678 of unit cell:	Completed after 0 iterations at t[s]:    198.45
	Linear fluid (dielectric constant: 64) occupying 0.992677 of unit cell:	Completed after 1 iterations at t[s]:    199.09
ElecMinimize: Iter:  16  Etot: -157.241410522086369  |grad|_K:  7.861e-07  alpha:  8.058e-01  linmin:  8.513e-02  t[s]:    199.36
	Linear fluid (dielectric constant: 64) occupying 0.992677 of unit cell:	Completed after 0 iterations at t[s]:    199.80
	Linear fluid (dielectric constant: 64) occupying 0.992677 of unit cell:	Completed after 0 iterations at t[s]:    200.39
ElecMinimize: Iter:  17  Etot: -157.241411082111767  |grad|_K:  6.921e-07  alpha:  4.640e-01  linmin: -1.217e-02  t[s]:    200.68
	Linear fluid (dielectric constant: 64) occupying 0.992677 of unit cell:	Completed after 0 iterations at t[s]:    201.06
	Linear fluid (dielectric constant: 64) occupying 0.992677 of unit cell:	Completed after 0 iterations at t[s]:    201.62
ElecMinimize: Iter:  18  Etot: -157.241411730119239  |grad|_K:  5.294e-07  alpha:  4.408e-01  linmin: -3.302e-06  t[s]:    201.90
	Linear fluid (dielectric constant: 64) occupying 0.992678 of unit cell:	Completed after 1 iterations at t[s]:    202.35
	Linear fluid (dielectric constant: 64) occupying 0.992677 of unit cell:	Completed after 0 iterations at t[s]:    202.97
ElecMinimize: Iter:  19  Etot: -157.241411743571518  |grad|_K:  5.731e-07  alpha:  2.339e-01  linmin: -7.420e-02  t[s]:    203.25
	Linear fluid (dielectric constant: 64) occupying 0.992678 of unit cell:	Completed after 0 iterations at t[s]:    203.63
	Linear fluid (dielectric constant: 64) occupying 0.992678 of unit cell:	Completed after 0 iterations at t[s]:    204.19
ElecMinimize: Iter:  20  Etot: -157.241412175320647  |grad|_K:  4.511e-07  alpha:  3.506e-01  linmin: -8.308e-06  t[s]:    204.47
	Linear fluid (dielectric constant: 64) occupying 0.992678 of unit cell:	Completed after 0 iterations at t[s]:    204.85
	Linear fluid (dielectric constant: 64) occupying 0.992678 of unit cell:	Completed after 0 iterations at t[s]:    205.41
ElecMinimize: Iter:  21  Etot: -157.241412396650702  |grad|_K:  4.212e-07  alpha:  3.673e-01  linmin: -1.114e-05  t[s]:    205.69
	Linear fluid (dielectric constant: 64) occupying 0.992678 of unit cell:	Completed after 0 iterations at t[s]:    206.07
	Linear fluid (dielectric constant: 64) occupying 0.992678 of unit cell:	Completed after 0 iterations at t[s]:    206.64
ElecMinimize: Iter:  22  Etot: -157.241412592945608  |grad|_K:  3.902e-07  alpha:  3.736e-01  linmin: -4.116e-06  t[s]:    206.93
	Linear fluid (dielectric constant: 64) occupying 0.992677 of unit cell:	Completed after 0 iterations at t[s]:    207.34
	Linear fluid (dielectric constant: 64) occupying 0.992678 of unit cell:	Completed after 0 iterations at t[s]:    207.93
ElecMinimize: 	Step increased Etot by 5.803585e-08, reducing alpha to 1.652699e-02.
	Linear fluid (dielectric constant: 64) occupying 0.992678 of unit cell:	Completed after 0 iterations at t[s]:    208.58
ElecMinimize: 	Step increased Etot by 1.357227e-07, reducing alpha to 1.652699e-03.
	Linear fluid (dielectric constant: 64) occupying 0.992678 of unit cell:	Completed after 0 iterations at t[s]:    209.25
ElecMinimize: 	Step increased Etot by 1.465887e-07, reducing alpha to 1.652699e-04.
ElecMinimize: 	Step failed to reduce Etot after 3 attempts. Quitting step.
ElecMinimize: 	Undoing step.
	Linear fluid (dielectric constant: 64) occupying 0.992678 of unit cell:	Completed after 0 iterations at t[s]:    209.90
ElecMinimize: 	Step failed: resetting search direction.
ElecMinimize: Iter:  23  Etot: -157.241412446233056  |grad|_K:  4.098e-07  alpha:  1.653e-04
	Linear fluid (dielectric constant: 64) occupying 0.992678 of unit cell:	Completed after 0 iterations at t[s]:    210.57
	Linear fluid (dielectric constant: 64) occupying 0.992678 of unit cell:	Completed after 0 iterations at t[s]:    211.13
ElecMinimize: Iter:  24  Etot: -157.241412735685344  |grad|_K:  1.769e-07  alpha:  5.820e-01  linmin:  4.125e-06  t[s]:    211.41
	Linear fluid (dielectric constant: 64) occupying 0.992678 of unit cell:	Completed after 0 iterations at t[s]:    211.79
	Linear fluid (dielectric constant: 64) occupying 0.992678 of unit cell:	Completed after 0 iterations at t[s]:    212.36
ElecMinimize: Iter:  25  Etot: -157.241412839313170  |grad|_K:  1.378e-07  alpha:  1.119e+00  linmin: -1.564e-05  t[s]:    212.64
	Linear fluid (dielectric constant: 64) occupying 0.992678 of unit cell:	Completed after 0 iterations at t[s]:    213.02
	Linear fluid (dielectric constant: 64) occupying 0.992678 of unit cell:	Completed after 0 iterations at t[s]:    213.58
ElecMinimize: Iter:  26  Etot: -157.241412911235557  |grad|_K:  1.452e-07  alpha:  1.278e+00  linmin: -9.091e-06  t[s]:    213.86
	Linear fluid (dielectric constant: 64) occupying 0.992678 of unit cell:	Completed after 0 iterations at t[s]:    214.28
	Linear fluid (dielectric constant: 64) occupying 0.992678 of unit cell:	Completed after 0 iterations at t[s]:    214.87
ElecMinimize: 	Step increased Etot by 4.540880e-08, reducing alpha to 4.558680e-02.
	Linear fluid (dielectric constant: 64) occupying 0.992678 of unit cell:	Completed after 0 iterations at t[s]:    215.52
ElecMinimize: 	Step increased Etot by 7.279624e-08, reducing alpha to 4.558680e-03.
	Linear fluid (dielectric constant: 64) occupying 0.992678 of unit cell:	Completed after 0 iterations at t[s]:    216.19
ElecMinimize: 	Step increased Etot by 7.687930e-08, reducing alpha to 4.558680e-04.
ElecMinimize: 	Step failed to reduce Etot after 3 attempts. Quitting step.
ElecMinimize: 	Undoing step.
	Linear fluid (dielectric constant: 64) occupying 0.992678 of unit cell:	Completed after 0 iterations at t[s]:    216.84
ElecMinimize: 	Step failed: resetting search direction.
ElecMinimize: Iter:  27  Etot: -157.241412834309585  |grad|_K:  1.493e-07  alpha:  4.559e-04
	Linear fluid (dielectric constant: 64) occupying 0.992678 of unit cell:	Completed after 0 iterations at t[s]:    217.50
	Linear fluid (dielectric constant: 64) occupying 0.992678 of unit cell:	Completed after 0 iterations at t[s]:    218.07
ElecMinimize: Iter:  28  Etot: -157.241412868111098  |grad|_K:  9.624e-08  alpha:  5.124e-01  linmin: -1.088e-05  t[s]:    218.35
	Linear fluid (dielectric constant: 64) occupying 0.992678 of unit cell:	Completed after 0 iterations at t[s]:    218.73
	Linear fluid (dielectric constant: 64) occupying 0.992678 of unit cell:	Completed after 0 iterations at t[s]:    219.29
ElecMinimize: Iter:  29  Etot: -157.241412901163102  |grad|_K:  8.847e-08  alpha:  1.205e+00  linmin:  1.162e-04  t[s]:    219.58
	Linear fluid (dielectric constant: 64) occupying 0.992677 of unit cell:	Completed after 0 iterations at t[s]:    219.96
	Linear fluid (dielectric constant: 64) occupying 0.992677 of unit cell:	Completed after 0 iterations at t[s]:    220.52
ElecMinimize: Iter:  30  Etot: -157.241412927195654  |grad|_K:  9.218e-08  alpha:  1.123e+00  linmin:  7.818e-05  t[s]:    220.80
	Linear fluid (dielectric constant: 64) occupying 0.992677 of unit cell:	Completed after 0 iterations at t[s]:    221.18
	Linear fluid (dielectric constant: 64) occupying 0.992677 of unit cell:	Completed after 0 iterations at t[s]:    221.75
ElecMinimize: Iter:  31  Etot: -157.241412954824824  |grad|_K:  7.283e-08  alpha:  1.098e+00  linmin:  9.961e-05  t[s]:    222.03
	Linear fluid (dielectric constant: 64) occupying 0.992677 of unit cell:	Completed after 0 iterations at t[s]:    222.41
	Linear fluid (dielectric constant: 64) occupying 0.992677 of unit cell:	Completed after 0 iterations at t[s]:    222.97
ElecMinimize: Iter:  32  Etot: -157.241412968398720  |grad|_K:  5.224e-08  alpha:  8.644e-01  linmin:  1.794e-05  t[s]:    223.26
	Linear fluid (dielectric constant: 64) occupying 0.992677 of unit cell:	Completed after 0 iterations at t[s]:    223.64
	Linear fluid (dielectric constant: 64) occupying 0.992677 of unit cell:	Completed after 0 iterations at t[s]:    224.20
ElecMinimize: Iter:  33  Etot: -157.241412978557548  |grad|_K:  5.042e-08  alpha:  1.257e+00  linmin:  1.948e-05  t[s]:    224.48
	Linear fluid (dielectric constant: 64) occupying 0.992677 of unit cell:	Completed after 0 iterations at t[s]:    224.86
	Linear fluid (dielectric constant: 64) occupying 0.992677 of unit cell:	Completed after 0 iterations at t[s]:    225.43
ElecMinimize: Iter:  34  Etot: -157.241412983792657  |grad|_K:  3.358e-08  alpha:  6.955e-01  linmin: -1.694e-06  t[s]:    225.71
	Linear fluid (dielectric constant: 64) occupying 0.992677 of unit cell:	Completed after 0 iterations at t[s]:    226.09
	Linear fluid (dielectric constant: 64) occupying 0.992677 of unit cell:	Completed after 0 iterations at t[s]:    226.65
ElecMinimize: Iter:  35  Etot: -157.241412986680814  |grad|_K:  2.203e-08  alpha:  8.652e-01  linmin:  3.058e-05  t[s]:    226.94
ElecMinimize: Converged (|Delta Etot|<1.000000e-08 for 2 iters).
Setting wave functions to eigenvectors of Hamiltonian

-------- Electronic minimization -----------
	Linear fluid (dielectric constant: 64) occupying 0.992676 of unit cell:	Completed after 19 iterations at t[s]:    228.15
ElecMinimize: Iter:   0  Etot: -157.163326307289026  |grad|_K:  2.487e-04  alpha:  1.000e+00
	Linear fluid (dielectric constant: 64) occupying 0.992665 of unit cell:	Completed after 22 iterations at t[s]:    230.38
	Linear fluid (dielectric constant: 64) occupying 0.992672 of unit cell:	Completed after 20 iterations at t[s]:    232.37
ElecMinimize: Iter:   1  Etot: -157.235698446838228  |grad|_K:  5.361e-05  alpha:  3.976e-01  linmin: -6.640e-04  t[s]:    232.73
	Linear fluid (dielectric constant: 64) occupying 0.992665 of unit cell:	Completed after 12 iterations at t[s]:    233.90
	Linear fluid (dielectric constant: 64) occupying 0.992664 of unit cell:	Completed after 8 iterations at t[s]:    235.04
ElecMinimize: Iter:   2  Etot: -157.239979384359088  |grad|_K:  2.927e-05  alpha:  5.034e-01  linmin:  2.683e-03  t[s]:    235.42
	Linear fluid (dielectric constant: 64) occupying 0.992662 of unit cell:	Completed after 10 iterations at t[s]:    236.38
	Linear fluid (dielectric constant: 64) occupying 0.992662 of unit cell:	Completed after 3 iterations at t[s]:    237.29
ElecMinimize: Iter:   3  Etot: -157.241102698092647  |grad|_K:  1.258e-05  alpha:  4.441e-01  linmin: -4.319e-04  t[s]:    237.57
	Linear fluid (dielectric constant: 64) occupying 0.992662 of unit cell:	Completed after 6 iterations at t[s]:    238.30
	Linear fluid (dielectric constant: 64) occupying 0.992661 of unit cell:	Completed after 4 iterations at t[s]:    239.20
ElecMinimize: Iter:   4  Etot: -157.241429317281757  |grad|_K:  8.452e-06  alpha:  6.974e-01  linmin:  3.991e-04  t[s]:    239.52
	Linear fluid (dielectric constant: 64) occupying 0.992661 of unit cell:	Completed after 4 iterations at t[s]:    240.18
	Linear fluid (dielectric constant: 64) occupying 0.992661 of unit cell:	Completed after 2 iterations at t[s]:    240.95
ElecMinimize: Iter:   5  Etot: -157.241543685010924  |grad|_K:  5.102e-06  alpha:  5.438e-01  linmin:  6.160e-04  t[s]:    241.23
	Linear fluid (dielectric constant: 64) occupying 0.992660 of unit cell:	Completed after 3 iterations at t[s]:    241.85
	Linear fluid (dielectric constant: 64) occupying 0.992660 of unit cell:	Completed after 3 iterations at t[s]:    242.66
ElecMinimize: Iter:   6  Etot: -157.241617570325360  |grad|_K:  2.966e-06  alpha:  9.562e-01  linmin: -8.367e-03  t[s]:    242.94
	Linear fluid (dielectric constant: 64) occupying 0.992660 of unit cell:	Completed after 3 iterations at t[s]:    243.56
	Linear fluid (dielectric constant: 64) occupying 0.992660 of unit cell:	Completed after 0 iterations at t[s]:    244.22
ElecMinimize: Iter:   7  Etot: -157.241641576136971  |grad|_K:  2.013e-06  alpha:  9.126e-01  linmin: -2.250e-03  t[s]:    244.50
	Linear fluid (dielectric constant: 64) occupying 0.992658 of unit cell:	Completed after 3 iterations at t[s]:    245.12
	Linear fluid (dielectric constant: 64) occupying 0.992659 of unit cell:	Completed after 0 iterations at t[s]:    245.78
ElecMinimize: Iter:   8  Etot: -157.241649581542873  |grad|_K:  1.678e-06  alpha:  6.698e-01  linmin:  1.234e-02  t[s]:    246.06
	Linear fluid (dielectric constant: 64) occupying 0.992658 of unit cell:	Completed after 3 iterations at t[s]:    246.60
	Linear fluid (dielectric constant: 64) occupying 0.992658 of unit cell:	Completed after 0 iterations at t[s]:    247.26
ElecMinimize: Iter:   9  Etot: -157.241653269981157  |grad|_K:  1.259e-06  alpha:  4.730e-01  linmin:  1.361e-02  t[s]:    247.54
	Linear fluid (dielectric constant: 64) occupying 0.992658 of unit cell:	Completed after 0 iterations at t[s]:    247.96
	Linear fluid (dielectric constant: 64) occupying 0.992657 of unit cell:	Completed after 2 iterations at t[s]:    248.66
ElecMinimize: Iter:  10  Etot: -157.241656248857453  |grad|_K:  8.420e-07  alpha:  7.623e-01  linmin:  2.213e-02  t[s]:    248.94
	Linear fluid (dielectric constant: 64) occupying 0.992657 of unit cell:	Completed after 0 iterations at t[s]:    249.36
	Linear fluid (dielectric constant: 64) occupying 0.992657 of unit cell:	Completed after 0 iterations at t[s]:    249.93
ElecMinimize: Iter:  11  Etot: -157.241658123804655  |grad|_K:  6.360e-07  alpha:  9.283e-01  linmin: -1.051e-05  t[s]:    250.20
	Linear fluid (dielectric constant: 64) occupying 0.992657 of unit cell:	Completed after 1 iterations at t[s]:    250.66
	Linear fluid (dielectric constant: 64) occupying 0.992657 of unit cell:	Completed after 0 iterations at t[s]:    251.28
ElecMinimize: Iter:  12  Etot: -157.241658703320581  |grad|_K:  4.722e-07  alpha:  6.132e-01  linmin: -6.770e-02  t[s]:    251.55
	Linear fluid (dielectric constant: 64) occupying 0.992657 of unit cell:	Completed after 0 iterations at t[s]:    251.93
	Linear fluid (dielectric constant: 64) occupying 0.992657 of unit cell:	Completed after 0 iterations at t[s]:    252.51
ElecMinimize: Iter:  13  Etot: -157.241659309229192  |grad|_K:  3.942e-07  alpha:  8.184e-01  linmin: -1.029e-05  t[s]:    252.79
	Linear fluid (dielectric constant: 64) occupying 0.992657 of unit cell:	Completed after 0 iterations at t[s]:    253.20
	Linear fluid (dielectric constant: 64) occupying 0.992657 of unit cell:	Completed after 0 iterations at t[s]:    253.79
ElecMinimize: Iter:  14  Etot: -157.241659457233368  |grad|_K:  2.945e-07  alpha:  4.997e-01  linmin: -8.378e-02  t[s]:    254.07
	Linear fluid (dielectric constant: 64) occupying 0.992657 of unit cell:	Completed after 0 iterations at t[s]:    254.45
	Linear fluid (dielectric constant: 64) occupying 0.992657 of unit cell:	Completed after 0 iterations at t[s]:    255.01
ElecMinimize: Iter:  15  Etot: -157.241659654348609  |grad|_K:  2.441e-07  alpha:  6.504e-01  linmin:  1.109e-05  t[s]:    255.29
	Linear fluid (dielectric constant: 64) occupying 0.992657 of unit cell:	Completed after 0 iterations at t[s]:    255.68
	Linear fluid (dielectric constant: 64) occupying 0.992657 of unit cell:	Completed after 0 iterations at t[s]:    256.25
ElecMinimize: Iter:  16  Etot: -157.241659767783744  |grad|_K:  2.073e-07  alpha:  6.431e-01  linmin:  1.227e-05  t[s]:    256.53
	Linear fluid (dielectric constant: 64) occupying 0.992657 of unit cell:	Completed after 0 iterations at t[s]:    256.94
	Linear fluid (dielectric constant: 64) occupying 0.992657 of unit cell:	Completed after 0 iterations at t[s]:    257.54
ElecMinimize: 	Step increased Etot by 3.889426e-08, reducing alpha to 2.927413e-02.
	Linear fluid (dielectric constant: 64) occupying 0.992657 of unit cell:	Completed after 0 iterations at t[s]:    258.19
ElecMinimize: 	Step increased Etot by 8.526075e-08, reducing alpha to 2.927413e-03.
	Linear fluid (dielectric constant: 64) occupying 0.992657 of unit cell:	Completed after 0 iterations at t[s]:    258.84
ElecMinimize: 	Step increased Etot by 9.127700e-08, reducing alpha to 2.927413e-04.
ElecMinimize: 	Step failed to reduce Etot after 3 attempts. Quitting step.
ElecMinimize: 	Undoing step.
	Linear fluid (dielectric constant: 64) occupying 0.992657 of unit cell:	Completed after 0 iterations at t[s]:    259.49
ElecMinimize: 	Step failed: resetting search direction.
ElecMinimize: Iter:  17  Etot: -157.241659676438360  |grad|_K:  2.096e-07  alpha:  2.927e-04
	Linear fluid (dielectric constant: 64) occupying 0.992657 of unit cell:	Completed after 0 iterations at t[s]:    260.15
	Linear fluid (dielectric constant: 64) occupying 0.992657 of unit cell:	Completed after 0 iterations at t[s]:    260.71
ElecMinimize: Iter:  18  Etot: -157.241659760290901  |grad|_K:  1.296e-07  alpha:  6.448e-01  linmin:  6.662e-07  t[s]:    260.99
	Linear fluid (dielectric constant: 64) occupying 0.992657 of unit cell:	Completed after 0 iterations at t[s]:    261.38
	Linear fluid (dielectric constant: 64) occupying 0.992657 of unit cell:	Completed after 0 iterations at t[s]:    261.94
ElecMinimize: Iter:  19  Etot: -157.241659807801682  |grad|_K:  1.266e-07  alpha:  9.558e-01  linmin:  2.155e-05  t[s]:    262.22
	Linear fluid (dielectric constant: 64) occupying 0.992657 of unit cell:	Completed after 0 iterations at t[s]:    262.60
	Linear fluid (dielectric constant: 64) occupying 0.992657 of unit cell:	Completed after 0 iterations at t[s]:    263.17
ElecMinimize: Iter:  20  Etot: -157.241659854742863  |grad|_K:  9.733e-08  alpha:  9.897e-01  linmin:  2.772e-05  t[s]:    263.45
	Linear fluid (dielectric constant: 64) occupying 0.992657 of unit cell:	Completed after 0 iterations at t[s]:    263.83
	Linear fluid (dielectric constant: 64) occupying 0.992657 of unit cell:	Completed after 0 iterations at t[s]:    264.40
ElecMinimize: Iter:  21  Etot: -157.241659888817054  |grad|_K:  9.415e-08  alpha:  1.215e+00  linmin:  1.990e-05  t[s]:    264.67
	Linear fluid (dielectric constant: 64) occupying 0.992657 of unit cell:	Completed after 0 iterations at t[s]:    265.05
	Linear fluid (dielectric constant: 64) occupying 0.992657 of unit cell:	Completed after 0 iterations at t[s]:    265.63
ElecMinimize: Iter:  22  Etot: -157.241659924658251  |grad|_K:  9.022e-08  alpha:  1.366e+00  linmin:  1.047e-04  t[s]:    265.90
	Linear fluid (dielectric constant: 64) occupying 0.992657 of unit cell:	Completed after 0 iterations at t[s]:    266.28
	Linear fluid (dielectric constant: 64) occupying 0.992657 of unit cell:	Completed after 0 iterations at t[s]:    266.86
ElecMinimize: Iter:  23  Etot: -157.241659944561604  |grad|_K:  6.422e-08  alpha:  8.258e-01  linmin: -2.049e-05  t[s]:    267.14
	Linear fluid (dielectric constant: 64) occupying 0.992657 of unit cell:	Completed after 0 iterations at t[s]:    267.52
	Linear fluid (dielectric constant: 64) occupying 0.992657 of unit cell:	Completed after 1 iterations at t[s]:    268.15
ElecMinimize: 	Step increased Etot by 5.187421e-07, reducing alpha to 9.974495e-02.
	Linear fluid (dielectric constant: 64) occupying 0.992657 of unit cell:	Completed after 0 iterations at t[s]:    268.82
ElecMinimize: 	Step increased Etot by 4.507687e-07, reducing alpha to 9.974495e-03.
	Linear fluid (dielectric constant: 64) occupying 0.992657 of unit cell:	Completed after 0 iterations at t[s]:    269.47
ElecMinimize: 	Step increased Etot by 4.450527e-07, reducing alpha to 9.974495e-04.
ElecMinimize: 	Step failed to reduce Etot after 3 attempts. Quitting step.
ElecMinimize: 	Undoing step.
	Linear fluid (dielectric constant: 64) occupying 0.992657 of unit cell:	Completed after 0 iterations at t[s]:    270.14
ElecMinimize: 	Step failed: resetting search direction.
ElecMinimize: Iter:  24  Etot: -157.241659499571114  |grad|_K:  3.355e-07  alpha:  9.974e-04
	Linear fluid (dielectric constant: 64) occupying 0.992657 of unit cell:	Completed after 0 iterations at t[s]:    270.83
	Linear fluid (dielectric constant: 64) occupying 0.992657 of unit cell:	Completed after 0 iterations at t[s]:    271.42
ElecMinimize: Iter:  25  Etot: -157.241659647619031  |grad|_K:  1.959e-07  alpha:  6.304e-01  linmin: -5.040e-01  t[s]:    271.71
	Linear fluid (dielectric constant: 64) occupying 0.992657 of unit cell:	Completed after 0 iterations at t[s]:    272.09
ElecMinimize: 	Predicted alpha/alphaT>3.000000, increasing alphaT to 1.891208e+00.
	Linear fluid (dielectric constant: 64) occupying 0.992657 of unit cell:	Completed after 1 iterations at t[s]:    272.72
	Linear fluid (dielectric constant: 64) occupying 0.992657 of unit cell:	Completed after 0 iterations at t[s]:    273.34
ElecMinimize: Iter:  26  Etot: -157.241659751090708  |grad|_K:  3.111e-07  alpha:  6.311e-01  linmin:  3.208e-01  t[s]:    273.63
ElecMinimize: 	Bad step direction: g.d > 0.
ElecMinimize: 	Undoing step.
	Linear fluid (dielectric constant: 64) occupying 0.992657 of unit cell:	Completed after 0 iterations at t[s]:    274.01
ElecMinimize: 	Step failed: resetting search direction.
ElecMinimize: Iter:  27  Etot: -157.241659751090879  |grad|_K:  3.111e-07  alpha:  0.000e+00
	Linear fluid (dielectric constant: 64) occupying 0.992657 of unit cell:	Completed after 0 iterations at t[s]:    274.70
	Linear fluid (dielectric constant: 64) occupying 0.992657 of unit cell:	Completed after 0 iterations at t[s]:    275.30
ElecMinimize: 	Step increased Etot by 4.725445e-08, reducing alpha to 3.016066e-02.
	Linear fluid (dielectric constant: 64) occupying 0.992657 of unit cell:	Completed after 0 iterations at t[s]:    275.95
ElecMinimize: 	Step increased Etot by 1.113092e-07, reducing alpha to 3.016066e-03.
	Linear fluid (dielectric constant: 64) occupying 0.992657 of unit cell:	Completed after 0 iterations at t[s]:    276.60
ElecMinimize: 	Step increased Etot by 1.196448e-07, reducing alpha to 3.016066e-04.
ElecMinimize: 	Step failed to reduce Etot after 3 attempts. Quitting step.
ElecMinimize: 	Undoing step.
	Linear fluid (dielectric constant: 64) occupying 0.992657 of unit cell:	Completed after 0 iterations at t[s]:    277.25
[...]
ElecMinimize: 	Step increased Etot by 1.653916e-07, reducing alpha to 6.670482e-04.
ElecMinimize: 	Step failed to reduce Etot after 3 attempts. Quitting step.
ElecMinimize: 	Undoing step.
	Linear fluid (dielectric constant: 64) occupying 0.992342 of unit cell:	Completed after 0 iterations at t[s]:   1263.52
ElecMinimize: 	Step failed: resetting search direction.
ElecMinimize: Iter:  28  Etot: -157.269275538218011  |grad|_K:  2.659e-07  alpha:  6.670e-04
	Linear fluid (dielectric constant: 64) occupying 0.992342 of unit cell:	Completed after 0 iterations at t[s]:   1264.19
	Linear fluid (dielectric constant: 64) occupying 0.992342 of unit cell:	Completed after 0 iterations at t[s]:   1264.75
ElecMinimize: Iter:  29  Etot: -157.269275663350356  |grad|_K:  1.402e-07  alpha:  5.979e-01  linmin:  6.729e-05  t[s]:   1265.04
	Linear fluid (dielectric constant: 64) occupying 0.992342 of unit cell:	Completed after 0 iterations at t[s]:   1265.45
	Linear fluid (dielectric constant: 64) occupying 0.992342 of unit cell:	Completed after 0 iterations at t[s]:   1266.04
ElecMinimize: 	Step increased Etot by 7.257921e-08, reducing alpha to 1.652375e-02.
	Linear fluid (dielectric constant: 64) occupying 0.992342 of unit cell:	Completed after 0 iterations at t[s]:   1266.69
ElecMinimize: 	Step increased Etot by 8.129095e-08, reducing alpha to 1.652375e-03.
	Linear fluid (dielectric constant: 64) occupying 0.992342 of unit cell:	Completed after 0 iterations at t[s]:   1267.34
ElecMinimize: 	Step increased Etot by 8.224981e-08, reducing alpha to 1.652375e-04.
ElecMinimize: 	Step failed to reduce Etot after 3 attempts. Quitting step.
ElecMinimize: 	Undoing step.
	Linear fluid (dielectric constant: 64) occupying 0.992342 of unit cell:	Completed after 0 iterations at t[s]:   1268.00
ElecMinimize: 	Step failed: resetting search direction.
ElecMinimize: Iter:  30  Etot: -157.269275581089829  |grad|_K:  1.245e-07  alpha:  1.652e-04
	Linear fluid (dielectric constant: 64) occupying 0.992342 of unit cell:	Completed after 0 iterations at t[s]:   1268.66
	Linear fluid (dielectric constant: 64) occupying 0.992342 of unit cell:	Completed after 0 iterations at t[s]:   1269.22
ElecMinimize: Iter:  31  Etot: -157.269275606592885  |grad|_K:  6.994e-08  alpha:  5.556e-01  linmin: -6.821e-06  t[s]:   1269.50
	Linear fluid (dielectric constant: 64) occupying 0.992342 of unit cell:	Completed after 0 iterations at t[s]:   1269.88
ElecMinimize: 	Predicted alpha/alphaT>3.000000, increasing alphaT to 1.666816e+00.
	Linear fluid (dielectric constant: 64) occupying 0.992342 of unit cell:	Completed after 0 iterations at t[s]:   1270.45
	Linear fluid (dielectric constant: 64) occupying 0.992342 of unit cell:	Completed after 0 iterations at t[s]:   1271.01
ElecMinimize: Iter:  32  Etot: -157.269275637369446  |grad|_K:  1.061e-07  alpha:  2.125e+00  linmin:  4.195e-05  t[s]:   1271.29
	Linear fluid (dielectric constant: 64) occupying 0.992342 of unit cell:	Completed after 0 iterations at t[s]:   1271.67
	Linear fluid (dielectric constant: 64) occupying 0.992342 of unit cell:	Completed after 0 iterations at t[s]:   1272.23
ElecMinimize: Iter:  33  Etot: -157.269275659663180  |grad|_K:  6.093e-08  alpha:  6.682e-01  linmin: -1.190e-04  t[s]:   1272.51
	Linear fluid (dielectric constant: 64) occupying 0.992342 of unit cell:	Completed after 0 iterations at t[s]:   1272.89
	Linear fluid (dielectric constant: 64) occupying 0.992342 of unit cell:	Completed after 0 iterations at t[s]:   1273.46
ElecMinimize: Iter:  34  Etot: -157.269275673645069  |grad|_K:  5.159e-08  alpha:  1.272e+00  linmin:  3.930e-05  t[s]:   1273.74
	Linear fluid (dielectric constant: 64) occupying 0.992342 of unit cell:	Completed after 0 iterations at t[s]:   1274.12
	Linear fluid (dielectric constant: 64) occupying 0.992342 of unit cell:	Completed after 0 iterations at t[s]:   1274.69
ElecMinimize: Iter:  35  Etot: -157.269275681576943  |grad|_K:  3.789e-08  alpha:  1.007e+00  linmin: -7.227e-07  t[s]:   1274.97
	Linear fluid (dielectric constant: 64) occupying 0.992342 of unit cell:	Completed after 0 iterations at t[s]:   1275.35
	Linear fluid (dielectric constant: 64) occupying 0.992342 of unit cell:	Completed after 0 iterations at t[s]:   1275.91
ElecMinimize: Iter:  36  Etot: -157.269275685112206  |grad|_K:  2.631e-08  alpha:  8.315e-01  linmin: -1.758e-05  t[s]:   1276.19
ElecMinimize: Converged (|Delta Etot|<1.000000e-08 for 2 iters).
Setting wave functions to eigenvectors of Hamiltonian

# Ionic positions in cartesian coordinates:
ion S   4.077987074570843  12.343774341599474  22.963442121266525 1
ion S   7.651284851787889  11.386927077247103  23.864599174391703 1
ion S   8.636291043028002   8.048215343877677  22.898949196706823 1
ion S   6.529701925139548   7.985576700563254  30.039598284193847 1
ion S   7.473360025298322  11.351240919847518  29.123404586527094 1
ion S  11.033015841741431  12.345683495094148  30.054119301441283 1
ion Na   2.909882871862065   6.345619923159269  25.174724007687715 1
ion Na  12.282347562471895   6.405313894221552  27.750283186184976 1

# Forces in Cartesian coordinates:
force S  -0.003999565295942   0.001057877233114  -0.001416684703675 1
force S  -0.002421974479021   0.036778778183154   0.013619366391630 1
force S   0.008035312883815  -0.034028709600376  -0.010170678542163 1
force S  -0.007495206086202  -0.033980426026201   0.009678628693492 1
force S   0.002400458557046   0.036847298848369  -0.012876279930881 1
force S   0.003440669472471   0.000935284316755   0.001263721864942 1
force Na  -0.005153719838568  -0.003845001346393  -0.000656754967204 1
force Na   0.005249287897306  -0.003879898952186   0.000640794519279 1

# Energy components:
   A_diel =       -0.2918569376369587
   Eewald =      125.4854361692840570
       EH =      254.7326452042316873
     Eloc =     -414.9089948233086034
      Enl =     -133.3780860239748165
      Exc =      -39.6512605079563443
 Exc_core =       10.6063829255201636
       KE =       40.1364583087286135
-------------------------------------
     Etot =     -157.2692756851122056

IonicMinimize: Iter:   6  Etot: -157.269275685112206  |grad|_K:  1.558e-02  alpha:  1.860e+00  linmin: -1.010e-02  t[s]:   1276.52

#--- Lowdin population analysis ---
# oxidation-state S -0.568 +0.363 -0.409 -0.409 +0.361 -0.570
# oxidation-state Na +0.900 +0.900


-------- Electronic minimization -----------
	Linear fluid (dielectric constant: 64) occupying 0.992337 of unit cell:	Completed after 24 iterations at t[s]:   1278.07
ElecMinimize: Iter:   0  Etot: -156.891183982456624  |grad|_K:  5.624e-04  alpha:  1.000e+00
	Linear fluid (dielectric constant: 64) occupying 0.992341 of unit cell:	Completed after 29 iterations at t[s]:   1280.79
	Linear fluid (dielectric constant: 64) occupying 0.992340 of unit cell:	Completed after 24 iterations at t[s]:   1283.10
ElecMinimize: Iter:   1  Etot: -157.242175423337045  |grad|_K:  1.365e-04  alpha:  3.868e-01  linmin: -1.318e-02  t[s]:   1283.47
	Linear fluid (dielectric constant: 64) occupying 0.992321 of unit cell:	Completed after 19 iterations at t[s]:   1285.14
	Linear fluid (dielectric constant: 64) occupying 0.992321 of unit cell:	Completed after 0 iterations at t[s]:   1285.87
ElecMinimize: Iter:   2  Etot: -157.263438005549773  |grad|_K:  6.444e-05  alpha:  3.840e-01  linmin:  8.000e-03  t[s]:   1286.15
	Linear fluid (dielectric constant: 64) occupying 0.992318 of unit cell:	Completed after 12 iterations at t[s]:   1287.12
	Linear fluid (dielectric constant: 64) occupying 0.992318 of unit cell:	Completed after 9 iterations at t[s]:   1288.34
ElecMinimize: Iter:   3  Etot: -157.269647749201908  |grad|_K:  2.467e-05  alpha:  5.072e-01  linmin: -6.322e-03  t[s]:   1288.72
	Linear fluid (dielectric constant: 64) occupying 0.992315 of unit cell:	Completed after 12 iterations at t[s]:   1289.85
	Linear fluid (dielectric constant: 64) occupying 0.992315 of unit cell:	Completed after 3 iterations at t[s]:   1290.74
ElecMinimize: Iter:   4  Etot: -157.270679111251013  |grad|_K:  1.437e-05  alpha:  5.694e-01  linmin: -3.535e-03  t[s]:   1291.02
	Linear fluid (dielectric constant: 64) occupying 0.992313 of unit cell:	Completed after 10 iterations at t[s]:   1295.80
	Linear fluid (dielectric constant: 64) occupying 0.992313 of unit cell:	Completed after 0 iterations at t[s]:   1302.78
ElecMinimize: Iter:   5  Etot: -157.271004503878459  |grad|_K:  7.072e-06  alpha:  5.296e-01  linmin:  4.885e-03  t[s]:   1303.06
	Linear fluid (dielectric constant: 64) occupying 0.992314 of unit cell:	Completed after 4 iterations at t[s]:   1303.62
	Linear fluid (dielectric constant: 64) occupying 0.992314 of unit cell:	Completed after 4 iterations at t[s]:   1304.46
ElecMinimize: Iter:   6  Etot: -157.271129161259267  |grad|_K:  6.240e-06  alpha:  8.446e-01  linmin: -2.378e-03  t[s]:   1304.73
	Linear fluid (dielectric constant: 64) occupying 0.992313 of unit cell:	Completed after 6 iterations at t[s]:   1305.46
	Linear fluid (dielectric constant: 64) occupying 0.992314 of unit cell:	Completed after 3 iterations at t[s]:   1306.26
ElecMinimize: Iter:   7  Etot: -157.271184708550948  |grad|_K:  3.687e-06  alpha:  4.847e-01  linmin:  2.496e-03  t[s]:   1306.54
	Linear fluid (dielectric constant: 64) occupying 0.992314 of unit cell:	Completed after 1 iterations at t[s]:   1308.02
	Linear fluid (dielectric constant: 64) occupying 0.992314 of unit cell:	Completed after 2 iterations at t[s]:   1308.75
ElecMinimize: Iter:   8  Etot: -157.271215443051005  |grad|_K:  2.229e-06  alpha:  7.890e-01  linmin:  1.684e-02  t[s]:   1309.03
	Linear fluid (dielectric constant: 64) occupying 0.992314 of unit cell:	Completed after 0 iterations at t[s]:   1309.49
	Linear fluid (dielectric constant: 64) occupying 0.992314 of unit cell:	Completed after 0 iterations at t[s]:   1310.08
ElecMinimize: Iter:   9  Etot: -157.271226112746490  |grad|_K:  1.312e-06  alpha:  7.420e-01  linmin: -5.494e-03  t[s]:   1310.36
	Linear fluid (dielectric constant: 64) occupying 0.992314 of unit cell:	Completed after 0 iterations at t[s]:   1310.74
	Linear fluid (dielectric constant: 64) occupying 0.992314 of unit cell:	Completed after 0 iterations at t[s]:   1311.34
ElecMinimize: Iter:  10  Etot: -157.271230753560673  |grad|_K:  9.712e-07  alpha:  9.316e-01  linmin:  5.999e-03  t[s]:   1311.62
	Linear fluid (dielectric constant: 64) occupying 0.992313 of unit cell:	Completed after 0 iterations at t[s]:   1312.21
	Linear fluid (dielectric constant: 64) occupying 0.992313 of unit cell:	Completed after 2 iterations at t[s]:   1312.88
ElecMinimize: Iter:  11  Etot: -157.271232647821648  |grad|_K:  7.943e-07  alpha:  9.932e-01  linmin:  6.952e-02  t[s]:   1313.16
	Linear fluid (dielectric constant: 64) occupying 0.992313 of unit cell:	Completed after 0 iterations at t[s]:   1313.59
	Linear fluid (dielectric constant: 64) occupying 0.992313 of unit cell:	Completed after 0 iterations at t[s]:   1314.15
ElecMinimize: Iter:  12  Etot: -157.271233973428764  |grad|_K:  6.120e-07  alpha:  8.119e-01  linmin: -2.287e-06  t[s]:   1314.43
	Linear fluid (dielectric constant: 64) occupying 0.992313 of unit cell:	Completed after 0 iterations at t[s]:   1314.84
	Linear fluid (dielectric constant: 64) occupying 0.992313 of unit cell:	Completed after 0 iterations at t[s]:   1315.44
ElecMinimize: Iter:  13  Etot: -157.271234876571356  |grad|_K:  4.209e-07  alpha:  8.138e-01  linmin: -7.637e-02  t[s]:   1315.71
	Linear fluid (dielectric constant: 64) occupying 0.992313 of unit cell:	Completed after 0 iterations at t[s]:   1316.09
	Linear fluid (dielectric constant: 64) occupying 0.992314 of unit cell:	Completed after 0 iterations at t[s]:   1319.03
ElecMinimize: Iter:  14  Etot: -157.271235491133694  |grad|_K:  3.746e-07  alpha:  1.049e+00  linmin: -1.299e-06  t[s]:   1319.30
	Linear fluid (dielectric constant: 64) occupying 0.992314 of unit cell:	Completed after 0 iterations at t[s]:   1319.68
	Linear fluid (dielectric constant: 64) occupying 0.992314 of unit cell:	Completed after 0 iterations at t[s]:   1320.25
ElecMinimize: Iter:  15  Etot: -157.271235832169509  |grad|_K:  2.631e-07  alpha:  8.205e-01  linmin: -6.105e-06  t[s]:   1320.52
	Linear fluid (dielectric constant: 64) occupying 0.992314 of unit cell:	Completed after 1 iterations at t[s]:   1320.97
	Linear fluid (dielectric constant: 64) occupying 0.992314 of unit cell:	Completed after 0 iterations at t[s]:   1321.59
ElecMinimize: 	Step increased Etot by 2.570887e-07, reducing alpha to 2.537285e-02.
	Linear fluid (dielectric constant: 64) occupying 0.992314 of unit cell:	Completed after 0 iterations at t[s]:   1322.25
ElecMinimize: 	Step increased Etot by 3.180503e-07, reducing alpha to 2.537285e-03.
	Linear fluid (dielectric constant: 64) occupying 0.992314 of unit cell:	Completed after 0 iterations at t[s]:   1322.90
ElecMinimize: 	Step increased Etot by 3.254425e-07, reducing alpha to 2.537285e-04.
ElecMinimize: 	Step failed to reduce Etot after 3 attempts. Quitting step.
ElecMinimize: 	Undoing step.
	Linear fluid (dielectric constant: 64) occupying 0.992314 of unit cell:	Completed after 0 iterations at t[s]:   1323.55
ElecMinimize: 	Step failed: resetting search direction.
ElecMinimize: Iter:  16  Etot: -157.271235506643876  |grad|_K:  3.451e-07  alpha:  2.537e-04
	Linear fluid (dielectric constant: 64) occupying 0.992314 of unit cell:	Completed after 0 iterations at t[s]:   1324.20
	Linear fluid (dielectric constant: 64) occupying 0.992313 of unit cell:	Completed after 0 iterations at t[s]:   1324.77
ElecMinimize: Iter:  17  Etot: -157.271235829086976  |grad|_K:  3.089e-07  alpha:  9.141e-01  linmin:  1.084e-04  t[s]:   1325.04
	Linear fluid (dielectric constant: 64) occupying 0.992313 of unit cell:	Completed after 0 iterations at t[s]:   1325.46
	Linear fluid (dielectric constant: 64) occupying 0.992313 of unit cell:	Completed after 0 iterations at t[s]:   1326.05
ElecMinimize: 	Step increased Etot by 1.679837e-08, reducing alpha to 4.066965e-02.
	Linear fluid (dielectric constant: 64) occupying 0.992313 of unit cell:	Completed after 0 iterations at t[s]:   1326.70
ElecMinimize: 	Step increased Etot by 9.644384e-08, reducing alpha to 4.066965e-03.
	Linear fluid (dielectric constant: 64) occupying 0.992313 of unit cell:	Completed after 0 iterations at t[s]:   1327.35
ElecMinimize: 	Step increased Etot by 1.096433e-07, reducing alpha to 4.066965e-04.
ElecMinimize: 	Step failed to reduce Etot after 3 attempts. Quitting step.
ElecMinimize: 	Undoing step.
	Linear fluid (dielectric constant: 64) occupying 0.992313 of unit cell:	Completed after 0 iterations at t[s]:   1328.00
ElecMinimize: 	Step failed: resetting search direction.
ElecMinimize: Iter:  18  Etot: -157.271235719291354  |grad|_K:  3.065e-07  alpha:  4.067e-04
	Linear fluid (dielectric constant: 64) occupying 0.992314 of unit cell:	Completed after 0 iterations at t[s]:   1328.66
	Linear fluid (dielectric constant: 64) occupying 0.992314 of unit cell:	Completed after 0 iterations at t[s]:   1329.22
ElecMinimize: Iter:  19  Etot: -157.271235840215581  |grad|_K:  1.522e-07  alpha:  4.347e-01  linmin: -1.758e-05  t[s]:   1329.50
	Linear fluid (dielectric constant: 64) occupying 0.992314 of unit cell:	Completed after 0 iterations at t[s]:   1329.88
ElecMinimize: 	Predicted alpha/alphaT>3.000000, increasing alphaT to 1.304208e+00.
	Linear fluid (dielectric constant: 64) occupying 0.992314 of unit cell:	Completed after 0 iterations at t[s]:   1330.48
	Linear fluid (dielectric constant: 64) occupying 0.992314 of unit cell:	Completed after 0 iterations at t[s]:   1331.07
ElecMinimize: 	Step increased Etot by 2.575513e-08, reducing alpha to 5.908762e-02.
	Linear fluid (dielectric constant: 64) occupying 0.992314 of unit cell:	Completed after 0 iterations at t[s]:   1331.72
ElecMinimize: 	Step increased Etot by 6.458160e-08, reducing alpha to 5.908762e-03.
	Linear fluid (dielectric constant: 64) occupying 0.992314 of unit cell:	Completed after 0 iterations at t[s]:   1332.37
ElecMinimize: 	Step increased Etot by 7.003587e-08, reducing alpha to 5.908762e-04.
ElecMinimize: 	Step failed to reduce Etot after 3 attempts. Quitting step.
ElecMinimize: 	Undoing step.
	Linear fluid (dielectric constant: 64) occupying 0.992314 of unit cell:	Completed after 0 iterations at t[s]:   1333.02
ElecMinimize: 	Step failed: resetting search direction.
ElecMinimize: Iter:  20  Etot: -157.271235770117642  |grad|_K:  1.483e-07  alpha:  5.909e-04
	Linear fluid (dielectric constant: 64) occupying 0.992314 of unit cell:	Completed after 0 iterations at t[s]:   1333.67
	Linear fluid (dielectric constant: 64) occupying 0.992314 of unit cell:	Completed after 0 iterations at t[s]:   1334.24
ElecMinimize: Iter:  21  Etot: -157.271235818768162  |grad|_K:  1.612e-07  alpha:  7.466e-01  linmin:  2.948e-05  t[s]:   1334.51
	Linear fluid (dielectric constant: 64) occupying 0.992313 of unit cell:	Completed after 0 iterations at t[s]:   1334.89
	Linear fluid (dielectric constant: 64) occupying 0.992313 of unit cell:	Completed after 0 iterations at t[s]:   1335.45
ElecMinimize: Iter:  22  Etot: -157.271235956222455  |grad|_K:  1.188e-07  alpha:  1.786e+00  linmin:  1.786e-04  t[s]:   1335.73
	Linear fluid (dielectric constant: 64) occupying 0.992313 of unit cell:	Completed after 0 iterations at t[s]:   1336.11
	Linear fluid (dielectric constant: 64) occupying 0.992313 of unit cell:	Completed after 0 iterations at t[s]:   1336.67
ElecMinimize: Iter:  23  Etot: -157.271236000619012  |grad|_K:  1.092e-07  alpha:  1.063e+00  linmin: -9.015e-07  t[s]:   1336.95
	Linear fluid (dielectric constant: 64) occupying 0.992313 of unit cell:	Completed after 0 iterations at t[s]:   1337.32
	Linear fluid (dielectric constant: 64) occupying 0.992313 of unit cell:	Completed after 0 iterations at t[s]:   1337.89
ElecMinimize: Iter:  24  Etot: -157.271236043388996  |grad|_K:  1.066e-07  alpha:  1.211e+00  linmin:  1.009e-05  t[s]:   1338.16
	Linear fluid (dielectric constant: 64) occupying 0.992313 of unit cell:	Completed after 0 iterations at t[s]:   1338.54
	Linear fluid (dielectric constant: 64) occupying 0.992313 of unit cell:	Completed after 0 iterations at t[s]:   1339.11
ElecMinimize: Iter:  25  Etot: -157.271236076146550  |grad|_K:  6.715e-08  alpha:  9.743e-01  linmin:  2.691e-06  t[s]:   1339.38
	Linear fluid (dielectric constant: 64) occupying 0.992313 of unit cell:	Completed after 0 iterations at t[s]:   1339.76
	Linear fluid (dielectric constant: 64) occupying 0.992313 of unit cell:	Completed after 0 iterations at t[s]:   1340.32
ElecMinimize: Iter:  26  Etot: -157.271236088382722  |grad|_K:  5.336e-08  alpha:  9.164e-01  linmin: -7.163e-06  t[s]:   1340.60
	Linear fluid (dielectric constant: 64) occupying 0.992313 of unit cell:	Completed after 0 iterations at t[s]:   1340.98
	Linear fluid (dielectric constant: 64) occupying 0.992313 of unit cell:	Completed after 0 iterations at t[s]:   1341.54
ElecMinimize: Iter:  27  Etot: -157.271236097991419  |grad|_K:  3.831e-08  alpha:  1.140e+00  linmin:  3.513e-05  t[s]:   1341.82
	Linear fluid (dielectric constant: 64) occupying 0.992313 of unit cell:	Completed after 0 iterations at t[s]:   1342.20
	Linear fluid (dielectric constant: 64) occupying 0.992313 of unit cell:	Completed after 0 iterations at t[s]:   1342.76
ElecMinimize: Iter:  28  Etot: -157.271236102156109  |grad|_K:  3.130e-08  alpha:  9.584e-01  linmin:  1.367e-05  t[s]:   1343.04
ElecMinimize: Converged (|Delta Etot|<1.000000e-08 for 2 iters).
Setting wave functions to eigenvectors of Hamiltonian
IonicMinimize: 	Predicted alpha/alphaT>3.000000, increasing alphaT to 9.908532e-01.
Atom 8 lies within the margin of 5 bohrs from the truncation boundary.
Expand unit cell, or if absolutely sure, reduce coulomb-truncation-ion-margin.
End date and time: Mon Dec 23 14:36:53 2024  (Duration: 0-0:22:23.10)
Failed.
