
*************** JDFTx 1.7.0  ***************

Start date and time: Sun Aug 18 09:11:09 2024
Executable jdftx with command-line: -i Na2S2-vdw.in -o Na2S2-vdw.out
Running on hosts (process indices):  AndrewsXPS (0)
Divided in process groups (process indices):  0 (0)
Resource initialization completed at t[s]:      0.00
Run totals: 1 processes, 4 threads, 0 GPUs


Input parsed successfully to the following command list (including defaults):

basis kpoint-dependent
coords-type Cartesian
core-overlap-check vector
coulomb-interaction Isolated
coulomb-truncation-embed 9.40288 12.4301 27.2635
davidson-band-ratio 1.1
dump End State
dump-name Na2S2-vdw.$VAR
elec-cutoff 20 100
elec-eigen-algo Davidson
elec-ex-corr gga-PBE
electronic-minimize  \
	dirUpdateScheme      FletcherReeves \
	linminMethod         DirUpdateRecommended \
	nIterations          100 \
	history              15 \
	knormThreshold       0 \
	energyDiffThreshold  1e-08 \
	nEnergyDiff          2 \
	alphaTstart          1 \
	alphaTmin            1e-10 \
	updateTestStepSize   yes \
	alphaTreduceFactor   0.1 \
	alphaTincreaseFactor 3 \
	nAlphaAdjustMax      3 \
	wolfeEnergy          0.0001 \
	wolfeGradient        0.9 \
	fdTest               no
electronic-scf  \
	nIterations	50 \
	energyDiffThreshold	1e-08 \
	residualThreshold	1e-07 \
	mixFraction	0.5 \
	qMetric	0.8 \
	history	10 \
	nEigSteps	2 \
	eigDiffThreshold	1e-08 \
	mixedVariable	Density \
	qKerker	0.8 \
	qKappa	-1 \
	verbose	no \
	mixFractionMag	1.5
exchange-regularization None
fluid None
fluid-ex-corr lda-TF lda-PZ
fluid-gummel-loop 10 1.000000e-05
fluid-minimize  \
	dirUpdateScheme      PolakRibiere \
	linminMethod         DirUpdateRecommended \
	nIterations          100 \
	history              15 \
	knormThreshold       0 \
	energyDiffThreshold  0 \
	nEnergyDiff          2 \
	alphaTstart          1 \
	alphaTmin            1e-10 \
	updateTestStepSize   yes \
	alphaTreduceFactor   0.1 \
	alphaTincreaseFactor 3 \
	nAlphaAdjustMax      3 \
	wolfeEnergy          0.0001 \
	wolfeGradient        0.9 \
	fdTest               no
fluid-solvent H2O 55.338 ScalarEOS \
	epsBulk 78.4 \
	pMol 0.92466 \
	epsInf 1.77 \
	Pvap 1.06736e-10 \
	sigmaBulk 4.62e-05 \
	Rvdw 2.61727 \
	Res 1.42 \
	tauNuc 343133 \
	poleEl 15 7 1
forces-output-coords Positions
ion S   9.402875070209999  12.430078910730000  27.263527773840000 1
ion S   5.921463285810000  10.087698104369998  27.341467797959996 1
ion Na   9.852901041599997   7.943043527369999  25.470895880699999 1
ion Na   5.365079530559999  14.615699054669998  25.686786194819998 1
ion-species GBRV/$ID_pbe.uspp
ion-width 0
ionic-minimize  \
	dirUpdateScheme      FletcherReeves \
	linminMethod         DirUpdateRecommended \
	nIterations          200 \
	history              15 \
	knormThreshold       0.0001 \
	energyDiffThreshold  1e-06 \
	nEnergyDiff          2 \
	alphaTstart          1 \
	alphaTmin            1e-10 \
	updateTestStepSize   yes \
	alphaTreduceFactor   0.1 \
	alphaTincreaseFactor 3 \
	nAlphaAdjustMax      3 \
	wolfeEnergy          0.0001 \
	wolfeGradient        0.9 \
	fdTest               no
kpoint   0.000000000000   0.000000000000   0.000000000000  1.00000000000000
kpoint-folding 1 1 1 
latt-move-scale 1 1 1
latt-scale 1 1 1 
lattice Triclinic 28.0058 28.0058 37.7946 90 90 120
lattice-minimize  \
	dirUpdateScheme      L-BFGS \
	linminMethod         DirUpdateRecommended \
	nIterations          0 \
	history              15 \
	knormThreshold       0 \
	energyDiffThreshold  1e-06 \
	nEnergyDiff          2 \
	alphaTstart          1 \
	alphaTmin            1e-10 \
	updateTestStepSize   yes \
	alphaTreduceFactor   0.1 \
	alphaTincreaseFactor 3 \
	nAlphaAdjustMax      3 \
	wolfeEnergy          0.0001 \
	wolfeGradient        0.9 \
	fdTest               no
lcao-params -1 1e-06 0.001
pcm-variant GLSSA13
spintype no-spin
subspace-rotation-factor 1 yes
symmetries automatic
symmetry-threshold 0.0001
van-der-waals D3



---------- Setting up symmetries ----------

Found 24 point-group symmetries of the bravais lattice
Found 1 space-group symmetries with basis
Applied RMS atom displacement 0 bohrs to make symmetries exact.

---------- Initializing the Grid ----------
R = 
[      28.0058     -14.0029            0  ]
[            0      24.2537            0  ]
[            0            0      37.7946  ]
unit cell volume = 25671.8
G =
[   0.224353    0.12953         -0  ]
[          0   0.259061          0  ]
[          0         -0   0.166246  ]
Minimum fftbox size, Smin = [  128  128  172  ]
Chosen fftbox size, S = [  128  128  180  ]

---------- Initializing tighter grid for wavefunction operations ----------
R = 
[      28.0058     -14.0029            0  ]
[            0      24.2537            0  ]
[            0            0      37.7946  ]
unit cell volume = 25671.8
G =
[   0.224353    0.12953         -0  ]
[          0   0.259061          0  ]
[          0         -0   0.166246  ]
Minimum fftbox size, Smin = [  116  116  156  ]
Chosen fftbox size, S = [  120  120  160  ]

---------- Exchange Correlation functional ----------
Initalized PBE GGA exchange.
Initalized PBE GGA correlation.

---------- Setting up pseudopotentials ----------
Width of ionic core gaussian charges (only for fluid interactions / plotting) set to 0

Reading pseudopotential file '/home/akakimmykim/jdftx_install/build/pseudopotentials/GBRV/s_pbe.uspp':
  Title: S.  Created by USPP 7.3.6 on 1-4-15
  Reference state energy: -11.898476.  6 valence electrons in orbitals:
    |300>  occupation: 2  eigenvalue: -0.634167
    |310>  occupation: 4  eigenvalue: -0.257568
  lMax: 2  lLocal: 3  QijEcut: 6
  6 projectors sampled on a log grid with 635 points:
    l: 0  eig: -0.634161  rCut: 1.5
    l: 0  eig: 1.500000  rCut: 1.5
    l: 1  eig: -0.257567  rCut: 1.5
    l: 1  eig: 1.500000  rCut: 1.5
    l: 2  eig: -1.000000  rCut: 1.5
    l: 2  eig: 1.500000  rCut: 1.5
  Partial core density with radius 1.15
  Transforming core density to a uniform radial grid of dG=0.02 with 1625 points.
  Transforming local potential to a uniform radial grid of dG=0.02 with 1625 points.
  Transforming nonlocal projectors to a uniform radial grid of dG=0.02 with 432 points.
  Transforming density augmentations to a uniform radial grid of dG=0.02 with 1625 points.
  Transforming atomic orbitals to a uniform radial grid of dG=0.02 with 432 points.
  Core radius for overlap checks: 1.50 bohrs.

Reading pseudopotential file '/home/akakimmykim/jdftx_install/build/pseudopotentials/GBRV/na_pbe.uspp':
  Title: Na.  Created by USPP 7.3.6 on 23-9-15
  Reference state energy: -47.625620.  9 valence electrons in orbitals:
    |200>  occupation: 2  eigenvalue: -2.085638
    |210>  occupation: 6  eigenvalue: -1.053708
    |300>  occupation: 1  eigenvalue: -0.100838
  lMax: 2  lLocal: 0  QijEcut: 6
  5 projectors sampled on a log grid with 657 points:
    l: 0  eig: -2.085640  rCut: 1.37
    l: 0  eig: -0.100839  rCut: 1.37
    l: 1  eig: -1.053708  rCut: 1.47
    l: 1  eig: 0.500000  rCut: 1.47
    l: 2  eig: 0.750000  rCut: 2
  Transforming local potential to a uniform radial grid of dG=0.02 with 1625 points.
  Transforming nonlocal projectors to a uniform radial grid of dG=0.02 with 432 points.
  Transforming density augmentations to a uniform radial grid of dG=0.02 with 1625 points.
  Transforming atomic orbitals to a uniform radial grid of dG=0.02 with 432 points.
  Core radius for overlap checks: 2.00 bohrs.

Initialized 2 species with 4 total atoms.

Folded 1 k-points by 1x1x1 to 1 k-points.

---------- Setting up k-points, bands, fillings ----------
No reducable k-points. 
Computing the number of bands and number of electrons
Calculating initial fillings.
nElectrons:  30.000000   nBands: 15   nStates: 1

----- Setting up reduced wavefunction bases (one per k-point) -----
average nbasis = 109673.000 , ideal nbasis = 109671.883

---------- Setting up coulomb interaction ----------
Setting up double-sized grid for truncated Coulomb potentials:
R = 
[      56.0116     -28.0058            0  ]
[            0      48.5075            0  ]
[            0            0      75.5892  ]
unit cell volume = 205374
G =
[   0.112177  0.0647651         -0  ]
[          0    0.12953          0  ]
[          0         -0  0.0831228  ]
Chosen fftbox size, S = [  256  256  360  ]
Integer grid location selected as the embedding center:
   Grid: [  76  66  130  ]
   Lattice: [  0.591998  0.512502  0.72136  ]
   Cartesian: [  9.40288  12.4301  27.2635  ]
Constructing Wigner-Seitz cell: 8 faces (6 quadrilaterals, 2 hexagons)
Range-separation parameter for embedded mesh potentials due to point charges: 0.590105 bohrs.
Constructing Wigner-Seitz cell: 8 faces (6 quadrilaterals, 2 hexagons)
Gaussian width for range separation: 2.95095 bohrs.
FFT grid for long-range part: [ 256 256 360 ].
Planning fourier transform ... Done.
Computing truncated long-range part in real space ... Done.
Adding short-range part in reciprocal space ... Done.

Initializing DFT-D3 calculator:
	Parameters set for gga-PBE functional
	s6:  1.000  s_r6:  1.217
	s8:  0.722  s_r8:  1.000
	Per-atom parameters loaded for:
	 S:  sqrtQ[a0]:  4.041  Rcov[a0]:  1.928  CN: [ 0.00 0.99 1.99 ]
	Na:  sqrtQ[a0]:  6.586  Rcov[a0]:  2.646  CN: [ 0.00 0.97 ]

Computing DFT-D3 correction:
# coordination-number S 2.941 2.941
# coordination-number Na 2.090 2.090
# diagonal-C6 S 125.81 125.81
# diagonal-C6 Na 186.11 186.11
EvdW_6 =   -0.000068
EvdW_8 =   -0.001099

---------- Allocating electronic variables ----------
Initializing wave functions:  linear combination of atomic orbitals
S pseudo-atom occupations:   s ( 2 )  p ( 4 )
Na pseudo-atom occupations:   s ( 2 1 )  p ( 6 )
	FillingsUpdate:  mu: -0.000890198  nElectrons: 30.000000
LCAOMinimize: Iter:   0  Etot: -115.7673365401832797  |grad|_K:  1.230e-02  alpha:  1.000e+00
	FillingsUpdate:  mu: -0.003340381  nElectrons: 30.000000
LCAOMinimize: Iter:   1  Etot: -115.7714691580159752  |grad|_K:  1.213e-02  alpha:  7.333e-02  linmin: -1.090e-01  cgtest:  9.274e-01  t[s]:     39.45
LCAOMinimize: 	Wrong curvature in test step, increasing alphaT to 2.199913e-01.
	FillingsUpdate:  mu: -0.006067175  nElectrons: 30.000000
LCAOMinimize: Iter:   2  Etot: -115.7757346010153015  |grad|_K:  1.189e-02  alpha: -1.249e+00  linmin: -1.144e-01  cgtest:  9.257e-01  t[s]:     60.54
	FillingsUpdate:  mu: -0.008569451  nElectrons: 30.000000
LCAOMinimize: Iter:   3  Etot: -115.7793714515761963  |grad|_K:  1.163e-02  alpha:  6.558e-02  linmin: -1.193e-01  cgtest:  9.365e-01  t[s]:     71.08
LCAOMinimize: None of the convergence criteria satisfied after 3 iterations.


---- Citations for features of the code used in this run ----

   Software package:
      R. Sundararaman, K. Letchworth-Weaver, K.A. Schwarz, D. Gunceler, Y. Ozhabes and T.A. Arias, 'JDFTx: software for joint density-functional theory', SoftwareX 6, 278 (2017)

   gga-PBE exchange-correlation functional:
      J.P. Perdew, K. Burke and M. Ernzerhof, Phys. Rev. Lett. 77, 3865 (1996)

   Pseudopotentials:
      KF Garrity, JW Bennett, KM Rabe and D Vanderbilt, Comput. Mater. Sci. 81, 446 (2014)

   Truncated Coulomb potentials:
      R. Sundararaman and T.A. Arias, Phys. Rev. B 87, 165122 (2013)

   DFT-D3 dispersion correction:
      S. Grimme, J. Antony, S. Ehrlich and H. Krieg, J. Chem. Phys. 132, 154104 (2010)

This list may not be complete. Please suggest additional citations or
report any other bugs at https://github.com/shankar1729/jdftx/issues

Initialization completed successfully at t[s]:     71.68


Computing DFT-D3 correction:
# coordination-number S 2.941 2.941
# coordination-number Na 2.090 2.090
# diagonal-C6 S 125.81 125.81
# diagonal-C6 Na 186.11 186.11
EvdW_6 =   -0.000068
EvdW_8 =   -0.001099

-------- Electronic minimization -----------
Will mix electronic density at each iteration.
SCF: Cycle:  0   Etot: -115.780729397494852   dEtot: -1.358e-03   |Residual|: 2.532e-01   |deigs|: 1.379e-02  t[s]:     92.80
SCF: Cycle:  1   Etot: -115.880818146651748   dEtot: -1.001e-01   |Residual|: 1.089e-01   |deigs|: 3.336e-02  t[s]:    103.25
SCF: Cycle:  2   Etot: -115.921559283344692   dEtot: -4.074e-02   |Residual|: 3.881e-02   |deigs|: 2.741e-02  t[s]:    117.45
SCF: Cycle:  3   Etot: -115.920512066164790   dEtot: +1.047e-03   |Residual|: 2.217e-02   |deigs|: 8.413e-03  t[s]:    127.65
SCF: Cycle:  4   Etot: -115.921840910165884   dEtot: -1.329e-03   |Residual|: 1.140e-02   |deigs|: 4.870e-03  t[s]:    137.57
SCF: Cycle:  5   Etot: -115.922498034544617   dEtot: -6.571e-04   |Residual|: 5.368e-03   |deigs|: 3.158e-03  t[s]:    148.53
SCF: Cycle:  6   Etot: -115.922670839601523   dEtot: -1.728e-04   |Residual|: 4.017e-03   |deigs|: 2.277e-03  t[s]:    160.94
SCF: Cycle:  7   Etot: -115.922717231329727   dEtot: -4.639e-05   |Residual|: 3.930e-03   |deigs|: 1.863e-03  t[s]:    173.77
SCF: Cycle:  8   Etot: -115.922750269238350   dEtot: -3.304e-05   |Residual|: 2.329e-03   |deigs|: 1.023e-03  t[s]:    185.12
SCF: Cycle:  9   Etot: -115.922764287814829   dEtot: -1.402e-05   |Residual|: 2.559e-03   |deigs|: 1.681e-03  t[s]:    196.56
SCF: Cycle: 10   Etot: -115.922771280674127   dEtot: -6.993e-06   |Residual|: 1.498e-03   |deigs|: 1.750e-04  t[s]:    207.79
SCF: Cycle: 11   Etot: -115.922748741446640   dEtot: +2.254e-05   |Residual|: 3.713e-03   |deigs|: 6.006e-04  t[s]:    219.94
SCF: Cycle: 12   Etot: -115.922771109168252   dEtot: -2.237e-05   |Residual|: 1.402e-03   |deigs|: 7.323e-04  t[s]:    231.62
SCF: Cycle: 13   Etot: -115.922775181545930   dEtot: -4.072e-06   |Residual|: 1.281e-03   |deigs|: 4.971e-04  t[s]:    242.74
SCF: Cycle: 14   Etot: -115.922766664022731   dEtot: +8.518e-06   |Residual|: 2.066e-03   |deigs|: 2.767e-04  t[s]:    254.44
SCF: Cycle: 15   Etot: -115.922775261636289   dEtot: -8.598e-06   |Residual|: 7.204e-04   |deigs|: 8.627e-04  t[s]:    264.88
SCF: Cycle: 16   Etot: -115.922777789680197   dEtot: -2.528e-06   |Residual|: 5.786e-04   |deigs|: 2.891e-04  t[s]:    275.73
SCF: Cycle: 17   Etot: -115.922779744074575   dEtot: -1.954e-06   |Residual|: 4.565e-04   |deigs|: 1.326e-04  t[s]:    286.43
SCF: Cycle: 18   Etot: -115.922780438269939   dEtot: -6.942e-07   |Residual|: 4.818e-04   |deigs|: 2.775e-04  t[s]:    298.30
SCF: Cycle: 19   Etot: -115.922781312525785   dEtot: -8.743e-07   |Residual|: 2.017e-04   |deigs|: 2.017e-04  t[s]:    311.47
SCF: Cycle: 20   Etot: -115.922781522237727   dEtot: -2.097e-07   |Residual|: 1.531e-04   |deigs|: 7.626e-05  t[s]:    322.05
SCF: Cycle: 21   Etot: -115.922781730610495   dEtot: -2.084e-07   |Residual|: 1.173e-04   |deigs|: 8.733e-05  t[s]:    334.36
SCF: Cycle: 22   Etot: -115.922781819835393   dEtot: -8.922e-08   |Residual|: 6.736e-05   |deigs|: 1.796e-05  t[s]:    345.24
SCF: Cycle: 23   Etot: -115.922781892970789   dEtot: -7.314e-08   |Residual|: 5.955e-05   |deigs|: 1.103e-05  t[s]:    356.12
SCF: Cycle: 24   Etot: -115.922781963022459   dEtot: -7.005e-08   |Residual|: 5.256e-05   |deigs|: 3.409e-05  t[s]:    368.23
SCF: Cycle: 25   Etot: -115.922781993549194   dEtot: -3.053e-08   |Residual|: 3.140e-05   |deigs|: 1.252e-05  t[s]:    378.51
SCF: Cycle: 26   Etot: -115.922782017149103   dEtot: -2.360e-08   |Residual|: 2.328e-05   |deigs|: 8.236e-06  t[s]:    390.52
SCF: Cycle: 27   Etot: -115.922782024111683   dEtot: -6.963e-09   |Residual|: 1.251e-05   |deigs|: 2.224e-06  t[s]:    401.32
SCF: Cycle: 28   Etot: -115.922782026733429   dEtot: -2.622e-09   |Residual|: 9.682e-06   |deigs|: 1.224e-06  t[s]:    411.47
SCF: Converged (|Delta E|<1.000000e-08 for 2 iters).

Setting wave functions to eigenvectors of Hamiltonian

Computing DFT-D3 correction:
# coordination-number S 2.941 2.941
# coordination-number Na 2.090 2.090
# diagonal-C6 S 125.81 125.81
# diagonal-C6 Na 186.11 186.11
EvdW_6 =   -0.000068
EvdW_8 =   -0.001099

# Ionic positions in cartesian coordinates:
ion S   9.402875070209999  12.430078910730000  27.263527773840000 1
ion S   5.921463285810000  10.087698104369998  27.341467797959996 1
ion Na   9.852901041599997   7.943043527369999  25.470895880699999 1
ion Na   5.365079530559999  14.615699054669998  25.686786194819998 1

# Forces in Cartesian coordinates:
force S   0.000119421142685   0.000138074374836   0.000097096581932 1
force S  -0.000187491095182  -0.000134081335738   0.000155657423106 1
force Na   0.000103257266593  -0.000166319851143  -0.000099182383233 1
force Na  -0.000070349824587   0.000146279512960  -0.000073444709100 1

# Energy components:
   Eewald =       63.1521654524979112
       EH =      160.0191325703167706
     Eloc =     -204.4371696521274941
      Enl =     -140.0947867930722452
     EvdW =       -0.0011664941892986
      Exc =      -22.7800147433195654
 Exc_core =        3.5354580038101910
       KE =       24.6835996293502937
-------------------------------------
     Etot =     -115.9227820267334295

IonicMinimize: Iter:   0  Etot: -115.922782026733429  |grad|_K:  1.285e-04  alpha:  1.000e+00

#--- Lowdin population analysis ---
# oxidation-state S -0.704 -0.704
# oxidation-state Na +0.810 +0.810


Computing DFT-D3 correction:
# coordination-number S 2.941 2.941
# coordination-number Na 2.090 2.090
# diagonal-C6 S 125.81 125.81
# diagonal-C6 Na 186.11 186.11
EvdW_6 =   -0.000068
EvdW_8 =   -0.001099

-------- Electronic minimization -----------
Will mix electronic density at each iteration.
SCF: Cycle:  0   Etot: -115.922782211876523   dEtot: -1.366e-08   |Residual|: 3.282e-05   |deigs|: 8.560e-10  t[s]:    441.32
SCF: Cycle:  1   Etot: -115.922782214904416   dEtot: -3.028e-09   |Residual|: 1.652e-05   |deigs|: 3.908e-06  t[s]:    453.30
SCF: Cycle:  2   Etot: -115.922782215895467   dEtot: -9.911e-10   |Residual|: 6.870e-06   |deigs|: 2.599e-06  t[s]:    465.14
SCF: Converged (|Delta E|<1.000000e-08 for 2 iters).

Setting wave functions to eigenvectors of Hamiltonian
IonicMinimize: 	Predicted alpha/alphaT>3.000000, increasing alphaT to 3.000000e+00.

Computing DFT-D3 correction:
# coordination-number S 2.940 2.941
# coordination-number Na 2.090 2.090
# diagonal-C6 S 125.81 125.81
# diagonal-C6 Na 186.11 186.11
EvdW_6 =   -0.000068
EvdW_8 =   -0.001099

-------- Electronic minimization -----------
Will mix electronic density at each iteration.
SCF: Cycle:  0   Etot: -115.922782487354780   dEtot: -3.929e-08   |Residual|: 6.476e-05   |deigs|: 2.575e-09  t[s]:    489.40
SCF: Cycle:  1   Etot: -115.922782495844032   dEtot: -8.489e-09   |Residual|: 3.113e-05   |deigs|: 6.702e-06  t[s]:    501.66
SCF: Cycle:  2   Etot: -115.922782497603905   dEtot: -1.760e-09   |Residual|: 1.386e-05   |deigs|: 3.073e-06  t[s]:    518.06
SCF: Converged (|Delta E|<1.000000e-08 for 2 iters).

Setting wave functions to eigenvectors of Hamiltonian

Computing DFT-D3 correction:
# coordination-number S 2.940 2.940
# coordination-number Na 2.089 2.089
# diagonal-C6 S 125.81 125.81
# diagonal-C6 Na 186.11 186.11
EvdW_6 =   -0.000068
EvdW_8 =   -0.001100

-------- Electronic minimization -----------
Will mix electronic density at each iteration.
SCF: Cycle:  0   Etot: -115.922782669957797   dEtot: -1.735e-07   |Residual|: 1.371e-04   |deigs|: 1.159e-08  t[s]:    545.58
SCF: Cycle:  1   Etot: -115.922782708566302   dEtot: -3.861e-08   |Residual|: 6.562e-05   |deigs|: 1.477e-05  t[s]:    557.56
SCF: Cycle:  2   Etot: -115.922782716404342   dEtot: -7.838e-09   |Residual|: 3.016e-05   |deigs|: 7.059e-06  t[s]:    568.58
SCF: Cycle:  3   Etot: -115.922782719079152   dEtot: -2.675e-09   |Residual|: 1.149e-05   |deigs|: 4.658e-06  t[s]:    581.74
SCF: Converged (|Delta E|<1.000000e-08 for 2 iters).

Setting wave functions to eigenvectors of Hamiltonian

Computing DFT-D3 correction:
# coordination-number S 2.940 2.940
# coordination-number Na 2.089 2.089
# diagonal-C6 S 125.81 125.81
# diagonal-C6 Na 186.11 186.11
EvdW_6 =   -0.000068
EvdW_8 =   -0.001100

# Ionic positions in cartesian coordinates:
ion S   9.403802175461236  12.431106342622314  27.264085033367984 1
ion S   5.920171094449758  10.086757565709984  27.342448513643671 1
ion Na   9.853711265114331   7.941869870511458  25.470033837937120 1
ion Na   5.364634393154669  14.616785818296238  25.686110262371219 1

# Forces in Cartesian coordinates:
force S  -0.000155228407506  -0.000079657321596   0.000029245280201 1
force S   0.000117544459419   0.000064786153701   0.000066015102087 1
force Na   0.000026415522659  -0.000050630746815  -0.000059846505272 1
force Na  -0.000017294060993   0.000052232158539  -0.000055751942333 1

# Energy components:
   Eewald =       63.1223085164826756
       EH =      159.9889743698089433
     Eloc =     -204.3764717569816582
      Enl =     -140.0945554843899004
     EvdW =       -0.0011682172766761
      Exc =      -22.7793346595867590
 Exc_core =        3.5354580044871144
       KE =       24.6820065083770928
-------------------------------------
     Etot =     -115.9227827190791515

IonicMinimize: Iter:   1  Etot: -115.922782719079152  |grad|_K:  7.433e-05  alpha:  7.231e+00  linmin:  1.480e-01  t[s]:    595.86
IonicMinimize: Converged (|grad|_K<1.000000e-04).

#--- Lowdin population analysis ---
# oxidation-state S -0.704 -0.704
# oxidation-state Na +0.810 +0.810


Dumping 'Na2S2-vdw.wfns' ... done
Dumping 'Na2S2-vdw.ionpos' ... done
End date and time: Sun Aug 18 09:21:06 2024  (Duration: 0-0:09:56.67)
Done!
