
*************** JDFTx 1.7.0  ***************

Start date and time: Tue Sep 24 21:17:37 2024
Executable jdftx with command-line: -i Na2S-PC-vdw.in -o Na2S-PC-vdw.out
Running on hosts (process indices):  DESKTOP-H9SOOLG (0)
Divided in process groups (process indices):  0 (0)
Resource initialization completed at t[s]:      0.00
Run totals: 1 processes, 4 threads, 0 GPUs


Input parsed successfully to the following command list (including defaults):

basis kpoint-dependent
coords-type Cartesian
core-overlap-check vector
coulomb-interaction Isolated
coulomb-truncation-embed 7.56227 10.1817 26.4562
davidson-band-ratio 1.1
dump End State
dump-name Na2S-PC-vdw.$VAR
elec-cutoff 20 100
elec-eigen-algo Davidson
elec-ex-corr gga-PBE
electronic-minimize  \
	dirUpdateScheme      FletcherReeves \
	linminMethod         DirUpdateRecommended \
	nIterations          100 \
	history              15 \
	knormThreshold       0 \
	energyDiffThreshold  1e-08 \
	nEnergyDiff          2 \
	alphaTstart          1 \
	alphaTmin            1e-10 \
	updateTestStepSize   yes \
	alphaTreduceFactor   0.1 \
	alphaTincreaseFactor 3 \
	nAlphaAdjustMax      3 \
	wolfeEnergy          0.0001 \
	wolfeGradient        0.9 \
	fdTest               no
exchange-regularization None
fluid LinearPCM 298.000000 1.013250
fluid-ex-corr lda-TF lda-PZ
fluid-gummel-loop 10 1.000000e-05
fluid-minimize  \
	dirUpdateScheme      PolakRibiere \
	linminMethod         DirUpdateRecommended \
	nIterations          400 \
	history              15 \
	knormThreshold       1e-11 \
	energyDiffThreshold  0 \
	nEnergyDiff          2 \
	alphaTstart          1 \
	alphaTmin            1e-10 \
	updateTestStepSize   yes \
	alphaTreduceFactor   0.1 \
	alphaTincreaseFactor 3 \
	nAlphaAdjustMax      6 \
	wolfeEnergy          0.0001 \
	wolfeGradient        0.9 \
	fdTest               no
fluid-solvent PC 11.6429 ScalarEOS \
	epsBulk 64 \
	pMol 2.95 \
	epsInf 2.02 \
	Pvap 1.53277e-13 \
	sigmaBulk 2.88e-05 \
	Rvdw 0 \
	Res 0 \
	tauNuc 343133
forces-output-coords Positions
ion S   7.562274270750001  10.181668708079998  15.466219999999998 1
ion Na   3.653322412229999  12.652545485250002  15.456219999999998 1
ion Na  11.469323171159999  12.655897866269999  15.446219999999997 1
ion-species GBRV/$ID_pbe.uspp
ion-width Ecut
ionic-minimize  \
	dirUpdateScheme      FletcherReeves \
	linminMethod         DirUpdateRecommended \
	nIterations          200 \
	history              15 \
	knormThreshold       0.0001 \
	energyDiffThreshold  1e-06 \
	nEnergyDiff          2 \
	alphaTstart          1 \
	alphaTmin            1e-10 \
	updateTestStepSize   yes \
	alphaTreduceFactor   0.1 \
	alphaTincreaseFactor 3 \
	nAlphaAdjustMax      3 \
	wolfeEnergy          0.0001 \
	wolfeGradient        0.9 \
	fdTest               no
kpoint   0.000000000000   0.000000000000   0.000000000000  1.00000000000000
kpoint-folding 1 1 1 
latt-move-scale 1 1 1
latt-scale 1 1 1 
lattice Triclinic 28.0058 28.0058 37.7946 90 90 120
lattice-minimize  \
	dirUpdateScheme      L-BFGS \
	linminMethod         DirUpdateRecommended \
	nIterations          0 \
	history              15 \
	knormThreshold       0 \
	energyDiffThreshold  1e-06 \
	nEnergyDiff          2 \
	alphaTstart          1 \
	alphaTmin            1e-10 \
	updateTestStepSize   yes \
	alphaTreduceFactor   0.1 \
	alphaTincreaseFactor 3 \
	nAlphaAdjustMax      3 \
	wolfeEnergy          0.0001 \
	wolfeGradient        0.9 \
	fdTest               no
lcao-params -1 1e-06 0.001
pcm-variant GLSSA13
spintype no-spin
subspace-rotation-factor 1 yes
symmetries automatic
symmetry-threshold 0.0001
van-der-waals D3



---------- Setting up symmetries ----------

Found 24 point-group symmetries of the bravais lattice
Found 1 space-group symmetries with basis
Applied RMS atom displacement 0 bohrs to make symmetries exact.

---------- Initializing the Grid ----------
R = 
[      28.0058     -14.0029            0  ]
[            0      24.2537            0  ]
[            0            0      37.7946  ]
unit cell volume = 25671.8
G =
[   0.224353    0.12953         -0  ]
[          0   0.259061          0  ]
[          0         -0   0.166246  ]
Minimum fftbox size, Smin = [  128  128  172  ]
Chosen fftbox size, S = [  128  128  180  ]

---------- Initializing tighter grid for wavefunction operations ----------
R = 
[      28.0058     -14.0029            0  ]
[            0      24.2537            0  ]
[            0            0      37.7946  ]
unit cell volume = 25671.8
G =
[   0.224353    0.12953         -0  ]
[          0   0.259061          0  ]
[          0         -0   0.166246  ]
Minimum fftbox size, Smin = [  116  116  156  ]
Chosen fftbox size, S = [  120  120  160  ]

---------- Exchange Correlation functional ----------
Initalized PBE GGA exchange.
Initalized PBE GGA correlation.

---------- Setting up pseudopotentials ----------
Width of ionic core gaussian charges (only for fluid interactions / plotting) set to 0.397384

Reading pseudopotential file '/home/danielkim/jdftx_install/build/pseudopotentials/GBRV/s_pbe.uspp':
  Title: S.  Created by USPP 7.3.6 on 1-4-15
  Reference state energy: -11.898476.  6 valence electrons in orbitals:
    |300>  occupation: 2  eigenvalue: -0.634167
    |310>  occupation: 4  eigenvalue: -0.257568
  lMax: 2  lLocal: 3  QijEcut: 6
  6 projectors sampled on a log grid with 635 points:
    l: 0  eig: -0.634161  rCut: 1.5
    l: 0  eig: 1.500000  rCut: 1.5
    l: 1  eig: -0.257567  rCut: 1.5
    l: 1  eig: 1.500000  rCut: 1.5
    l: 2  eig: -1.000000  rCut: 1.5
    l: 2  eig: 1.500000  rCut: 1.5
  Partial core density with radius 1.15
  Transforming core density to a uniform radial grid of dG=0.02 with 1625 points.
  Transforming local potential to a uniform radial grid of dG=0.02 with 1625 points.
  Transforming nonlocal projectors to a uniform radial grid of dG=0.02 with 432 points.
  Transforming density augmentations to a uniform radial grid of dG=0.02 with 1625 points.
  Transforming atomic orbitals to a uniform radial grid of dG=0.02 with 432 points.
  Core radius for overlap checks: 1.50 bohrs.

Reading pseudopotential file '/home/danielkim/jdftx_install/build/pseudopotentials/GBRV/na_pbe.uspp':
  Title: Na.  Created by USPP 7.3.6 on 23-9-15
  Reference state energy: -47.625620.  9 valence electrons in orbitals:
    |200>  occupation: 2  eigenvalue: -2.085638
    |210>  occupation: 6  eigenvalue: -1.053708
    |300>  occupation: 1  eigenvalue: -0.100838
  lMax: 2  lLocal: 0  QijEcut: 6
  5 projectors sampled on a log grid with 657 points:
    l: 0  eig: -2.085640  rCut: 1.37
    l: 0  eig: -0.100839  rCut: 1.37
    l: 1  eig: -1.053708  rCut: 1.47
    l: 1  eig: 0.500000  rCut: 1.47
    l: 2  eig: 0.750000  rCut: 2
  Transforming local potential to a uniform radial grid of dG=0.02 with 1625 points.
  Transforming nonlocal projectors to a uniform radial grid of dG=0.02 with 432 points.
  Transforming density augmentations to a uniform radial grid of dG=0.02 with 1625 points.
  Transforming atomic orbitals to a uniform radial grid of dG=0.02 with 432 points.
  Core radius for overlap checks: 2.00 bohrs.

Initialized 2 species with 3 total atoms.

Folded 1 k-points by 1x1x1 to 1 k-points.

---------- Setting up k-points, bands, fillings ----------
No reducable k-points. 
Computing the number of bands and number of electrons
Calculating initial fillings.
nElectrons:  24.000000   nBands: 12   nStates: 1

----- Setting up reduced wavefunction bases (one per k-point) -----
average nbasis = 109673.000 , ideal nbasis = 109671.883

---------- Setting up coulomb interaction ----------
Fluid mode embedding: using embedded box, but periodic Coulomb kernel.
(Fluid response is responsible for (approximate) separation between periodic images.)
Setting up double-sized grid for truncated Coulomb potentials:
R = 
[      56.0116     -28.0058            0  ]
[            0      48.5075            0  ]
[            0            0      75.5892  ]
unit cell volume = 205374
G =
[   0.112177  0.0647651         -0  ]
[          0    0.12953          0  ]
[          0         -0  0.0831228  ]
Chosen fftbox size, S = [  256  256  360  ]
Integer grid location selected as the embedding center:
   Grid: [  61  54  126  ]
   Lattice: [  0.479924  0.419798  0.7  ]
   Cartesian: [  7.56227  10.1817  26.4562  ]
Constructing Wigner-Seitz cell: 8 faces (6 quadrilaterals, 2 hexagons)
Range-separation parameter for embedded mesh potentials due to point charges: 0.590105 bohrs.

Initializing DFT-D3 calculator:
	Parameters set for gga-PBE functional
	s6:  1.000  s_r6:  1.217
	s8:  0.722  s_r8:  1.000
	Per-atom parameters loaded for:
	 S:  sqrtQ[a0]:  4.041  Rcov[a0]:  1.928  CN: [ 0.00 0.99 1.99 ]
	Na:  sqrtQ[a0]:  6.586  Rcov[a0]:  2.646  CN: [ 0.00 0.97 ]

---------- Setting up ewald sum ----------
Optimum gaussian width for ewald sums = 19.599212 bohr.
Real space sum over 1089 unit cells with max indices [  5  5  4  ]
Reciprocal space sum over 2535 terms with max indices [  6  6  7  ]

Computing DFT-D3 correction:
# coordination-number S 1.988
# coordination-number Na 1.168 1.168
# diagonal-C6 S 125.91
# diagonal-C6 Na 189.31 189.31
EvdW_6 =   -0.000046
EvdW_8 =   -0.000792

---------- Allocating electronic variables ----------
Initializing wave functions:  linear combination of atomic orbitals
S pseudo-atom occupations:   s ( 2 )  p ( 4 )
Na pseudo-atom occupations:   s ( 2 1 )  p ( 6 )
	FillingsUpdate:  mu: +0.165974995  nElectrons: 24.000000
LCAOMinimize: Iter:   0  Etot: -105.3827375552331489  |grad|_K:  2.992e-02  alpha:  1.000e+00
	FillingsUpdate:  mu: +0.152297032  nElectrons: 24.000000
LCAOMinimize: Iter:   1  Etot: -105.4048796419947962  |grad|_K:  3.288e-02  alpha:  9.345e-02  linmin: -2.185e-01  cgtest:  7.953e-01  t[s]:     26.67
LCAOMinimize: 	Wrong curvature in test step, increasing alphaT to 2.803354e-01.
	FillingsUpdate:  mu: +0.122932388  nElectrons: 24.000000
LCAOMinimize: Iter:   2  Etot: -105.4439239432550863  |grad|_K:  3.618e-02  alpha: -1.918e-01  linmin: -2.670e-01  cgtest:  7.193e-01  t[s]:     32.49
	FillingsUpdate:  mu: -0.025988997  nElectrons: 24.000000
LCAOMinimize: Iter:   3  Etot: -105.5459390362655938  |grad|_K:  1.563e-02  alpha:  1.614e-01  linmin: -3.996e-01  cgtest:  4.681e-01  t[s]:     38.16
LCAOMinimize: Encountered beta<0, resetting CG.
LCAOMinimize: None of the convergence criteria satisfied after 3 iterations.
----- createFluidSolver() ----- (Fluid-side solver setup)
   Initializing fluid molecule 'PC'
     Net charge: 0   dipole magnitude: 0
     Initializing spherical shell mfKernel with radius 0 Bohr
     deltaS corrections:

Correction to mu due to finite nuclear width = -0.000115948
   Cavity determined by nc: 0.00098 and sigma: 0.6
   Effective cavity tension: 9.53e-06 Eh/bohr^2 to account for cavitation and dispersion.


---- Citations for features of the code used in this run ----

   Software package:
      R. Sundararaman, K. Letchworth-Weaver, K.A. Schwarz, D. Gunceler, Y. Ozhabes and T.A. Arias, 'JDFTx: software for joint density-functional theory', SoftwareX 6, 278 (2017)

   gga-PBE exchange-correlation functional:
      J.P. Perdew, K. Burke and M. Ernzerhof, Phys. Rev. Lett. 77, 3865 (1996)

   Pseudopotentials:
      KF Garrity, JW Bennett, KM Rabe and D Vanderbilt, Comput. Mater. Sci. 81, 446 (2014)

   Truncated Coulomb potentials:
      R. Sundararaman and T.A. Arias, Phys. Rev. B 87, 165122 (2013)

   DFT-D3 dispersion correction:
      S. Grimme, J. Antony, S. Ehrlich and H. Krieg, J. Chem. Phys. 132, 154104 (2010)

   Linear/nonlinear dielectric/ionic fluid model with effective cavity tension:
      D. Gunceler, K. Letchworth-Weaver, R. Sundararaman, K.A. Schwarz and T.A. Arias, Modelling Simul. Mater. Sci. Eng. 21, 074005 (2013)

   Total energy minimization:
      T.A. Arias, M.C. Payne and J.D. Joannopoulos, Phys. Rev. Lett. 69, 1077 (1992)

This list may not be complete. Please suggest additional citations or
report any other bugs at https://github.com/shankar1729/jdftx/issues

Initialization completed successfully at t[s]:     38.41


Computing DFT-D3 correction:
# coordination-number S 1.988
# coordination-number Na 1.168 1.168
# diagonal-C6 S 125.91
# diagonal-C6 Na 189.31 189.31
EvdW_6 =   -0.000046
EvdW_8 =   -0.000792
Fluid solver invoked on fresh (random / LCAO) wavefunctions
Running a vacuum solve first:

-------- Initial electronic minimization -----------
ElecMinimize: Iter:   0  Etot: -105.545939036266859  |grad|_K:  2.065e-04  alpha:  1.000e+00
ElecMinimize: Iter:   1  Etot: -105.591327045719325  |grad|_K:  9.091e-05  alpha:  8.074e-01  linmin:  3.676e-03  t[s]:     49.35
ElecMinimize: Iter:   2  Etot: -105.599128045988493  |grad|_K:  7.682e-05  alpha:  7.186e-01  linmin:  6.536e-04  t[s]:     55.62
ElecMinimize: Iter:   3  Etot: -105.605436546989296  |grad|_K:  6.457e-05  alpha:  8.130e-01  linmin: -6.712e-05  t[s]:     62.05
ElecMinimize: Iter:   4  Etot: -105.608793326378688  |grad|_K:  5.911e-05  alpha:  6.123e-01  linmin: -2.410e-04  t[s]:     68.26
ElecMinimize: Iter:   5  Etot: -105.612265394938106  |grad|_K:  4.366e-05  alpha:  7.539e-01  linmin: -1.674e-03  t[s]:     74.44
ElecMinimize: Iter:   6  Etot: -105.613851121167883  |grad|_K:  3.329e-05  alpha:  6.301e-01  linmin: -4.531e-04  t[s]:     80.61
ElecMinimize: Iter:   7  Etot: -105.614758419851924  |grad|_K:  2.271e-05  alpha:  6.216e-01  linmin: -5.640e-04  t[s]:     86.83
ElecMinimize: Iter:   8  Etot: -105.615337187383318  |grad|_K:  1.430e-05  alpha:  8.510e-01  linmin: -1.307e-03  t[s]:     93.13
ElecMinimize: Iter:   9  Etot: -105.615607929882430  |grad|_K:  1.069e-05  alpha:  1.003e+00  linmin: -5.308e-04  t[s]:     99.49
ElecMinimize: Iter:  10  Etot: -105.615722399481911  |grad|_K:  9.382e-06  alpha:  7.610e-01  linmin: -3.704e-05  t[s]:    105.69
ElecMinimize: Iter:  11  Etot: -105.615779631630318  |grad|_K:  6.876e-06  alpha:  4.940e-01  linmin: -4.695e-06  t[s]:    111.80
ElecMinimize: Iter:  12  Etot: -105.615827338492537  |grad|_K:  4.643e-06  alpha:  7.669e-01  linmin:  1.666e-04  t[s]:    118.04
ElecMinimize: Iter:  13  Etot: -105.615849387111595  |grad|_K:  3.633e-06  alpha:  7.773e-01  linmin:  6.474e-05  t[s]:    124.63
ElecMinimize: Iter:  14  Etot: -105.615862327885068  |grad|_K:  2.558e-06  alpha:  7.450e-01  linmin: -2.024e-05  t[s]:    131.07
ElecMinimize: Iter:  15  Etot: -105.615868781309629  |grad|_K:  2.079e-06  alpha:  7.491e-01  linmin:  3.621e-06  t[s]:    137.35
ElecMinimize: Iter:  16  Etot: -105.615872636977983  |grad|_K:  1.540e-06  alpha:  6.775e-01  linmin:  4.153e-07  t[s]:    143.52
ElecMinimize: Iter:  17  Etot: -105.615875056874799  |grad|_K:  1.247e-06  alpha:  7.749e-01  linmin:  1.402e-05  t[s]:    149.90
ElecMinimize: Iter:  18  Etot: -105.615876345392209  |grad|_K:  1.061e-06  alpha:  6.299e-01  linmin: -2.199e-06  t[s]:    156.08
ElecMinimize: Iter:  19  Etot: -105.615877199738776  |grad|_K:  7.725e-07  alpha:  5.762e-01  linmin: -2.306e-06  t[s]:    162.17
ElecMinimize: Iter:  20  Etot: -105.615877863989084  |grad|_K:  5.571e-07  alpha:  8.457e-01  linmin: -2.854e-05  t[s]:    168.39
ElecMinimize: Iter:  21  Etot: -105.615878224010814  |grad|_K:  4.482e-07  alpha:  8.815e-01  linmin: -8.088e-06  t[s]:    174.56
ElecMinimize: Iter:  22  Etot: -105.615878450413987  |grad|_K:  3.433e-07  alpha:  8.565e-01  linmin: -2.598e-05  t[s]:    180.79
ElecMinimize: Iter:  23  Etot: -105.615878570974289  |grad|_K:  3.067e-07  alpha:  7.774e-01  linmin:  6.826e-08  t[s]:    187.04
ElecMinimize: Iter:  24  Etot: -105.615878650404213  |grad|_K:  2.316e-07  alpha:  6.416e-01  linmin:  4.906e-07  t[s]:    193.23
ElecMinimize: Iter:  25  Etot: -105.615878702386496  |grad|_K:  2.104e-07  alpha:  7.364e-01  linmin: -1.942e-06  t[s]:    199.43
ElecMinimize: Iter:  26  Etot: -105.615878736162756  |grad|_K:  1.577e-07  alpha:  5.798e-01  linmin: -8.629e-06  t[s]:    205.65
ElecMinimize: Iter:  27  Etot: -105.615878761086151  |grad|_K:  1.152e-07  alpha:  7.613e-01  linmin:  9.877e-05  t[s]:    212.06
ElecMinimize: Iter:  28  Etot: -105.615878774869202  |grad|_K:  8.314e-08  alpha:  7.900e-01  linmin:  2.493e-05  t[s]:    218.24
ElecMinimize: Iter:  29  Etot: -105.615878782704527  |grad|_K:  5.952e-08  alpha:  8.613e-01  linmin:  1.748e-04  t[s]:    224.42
ElecMinimize: Iter:  30  Etot: -105.615878786476031  |grad|_K:  4.649e-08  alpha:  8.096e-01  linmin: -1.800e-04  t[s]:    230.63
ElecMinimize: Converged (|Delta Etot|<1.000000e-08 for 2 iters).
Setting wave functions to eigenvectors of Hamiltonian
Vacuum energy after initial minimize, Etot = -105.615878786476031


-------- Electronic minimization -----------
	Linear fluid (dielectric constant: 64) occupying 0.996943 of unit cell:	Completed after 24 iterations at t[s]:    280.33
ElecMinimize: Iter:   0  Etot: -105.740066969120093  |grad|_K:  1.469e-04  alpha:  1.000e+00
	Linear fluid (dielectric constant: 64) occupying 0.997102 of unit cell:	Completed after 20 iterations at t[s]:    319.66
	Linear fluid (dielectric constant: 64) occupying 0.997089 of unit cell:	Completed after 10 iterations at t[s]:    342.46
ElecMinimize: Iter:   1  Etot: -105.766527510857642  |grad|_K:  1.219e-04  alpha:  9.303e-01  linmin:  5.176e-03  t[s]:    346.83
	Linear fluid (dielectric constant: 64) occupying 0.997205 of unit cell:	Completed after 20 iterations at t[s]:    381.31
	Linear fluid (dielectric constant: 64) occupying 0.997179 of unit cell:	Completed after 12 iterations at t[s]:    407.24
ElecMinimize: Iter:   2  Etot: -105.779692410406483  |grad|_K:  1.019e-04  alpha:  6.780e-01  linmin:  1.005e-04  t[s]:    411.59
	Linear fluid (dielectric constant: 64) occupying 0.997206 of unit cell:	Completed after 14 iterations at t[s]:    438.03
	Linear fluid (dielectric constant: 64) occupying 0.997203 of unit cell:	Completed after 9 iterations at t[s]:    459.49
ElecMinimize: Iter:   3  Etot: -105.787159382491936  |grad|_K:  6.818e-05  alpha:  5.467e-01  linmin: -1.786e-04  t[s]:    464.01
	Linear fluid (dielectric constant: 64) occupying 0.997198 of unit cell:	Completed after 13 iterations at t[s]:    488.85
	Linear fluid (dielectric constant: 64) occupying 0.997198 of unit cell:	Completed after 4 iterations at t[s]:    503.38
ElecMinimize: Iter:   4  Etot: -105.790835819543247  |grad|_K:  5.086e-05  alpha:  6.010e-01  linmin:  8.355e-04  t[s]:    507.86
	Linear fluid (dielectric constant: 64) occupying 0.997191 of unit cell:	Completed after 11 iterations at t[s]:    529.94
	Linear fluid (dielectric constant: 64) occupying 0.997188 of unit cell:	Completed after 7 iterations at t[s]:    548.57
ElecMinimize: Iter:   5  Etot: -105.793552818596922  |grad|_K:  4.057e-05  alpha:  8.003e-01  linmin:  1.222e-03  t[s]:    552.99
	Linear fluid (dielectric constant: 64) occupying 0.997170 of unit cell:	Completed after 11 iterations at t[s]:    574.70
	Linear fluid (dielectric constant: 64) occupying 0.997174 of unit cell:	Completed after 4 iterations at t[s]:    589.68
ElecMinimize: Iter:   6  Etot: -105.794925823712745  |grad|_K:  3.190e-05  alpha:  6.359e-01  linmin: -1.946e-04  t[s]:    593.98
	Linear fluid (dielectric constant: 64) occupying 0.997160 of unit cell:	Completed after 6 iterations at t[s]:    609.06
	Linear fluid (dielectric constant: 64) occupying 0.997157 of unit cell:	Completed after 3 iterations at t[s]:    622.36
ElecMinimize: Iter:   7  Etot: -105.795950820892401  |grad|_K:  2.124e-05  alpha:  7.652e-01  linmin: -1.002e-04  t[s]:    626.74
	Linear fluid (dielectric constant: 64) occupying 0.997154 of unit cell:	Completed after 5 iterations at t[s]:    640.45
	Linear fluid (dielectric constant: 64) occupying 0.997153 of unit cell:	Completed after 3 iterations at t[s]:    653.55
ElecMinimize: Iter:   8  Etot: -105.796566159012812  |grad|_K:  1.731e-05  alpha:  1.038e+00  linmin:  1.208e-03  t[s]:    658.00
	Linear fluid (dielectric constant: 64) occupying 0.997149 of unit cell:	Completed after 9 iterations at t[s]:    677.12
	Linear fluid (dielectric constant: 64) occupying 0.997151 of unit cell:	Completed after 4 iterations at t[s]:    691.36
ElecMinimize: Iter:   9  Etot: -105.796799732933692  |grad|_K:  1.531e-05  alpha:  5.935e-01  linmin:  1.032e-03  t[s]:    695.75
	Linear fluid (dielectric constant: 64) occupying 0.997150 of unit cell:	Completed after 5 iterations at t[s]:    709.45
	Linear fluid (dielectric constant: 64) occupying 0.997150 of unit cell:	Completed after 0 iterations at t[s]:    717.08
ElecMinimize: Iter:  10  Etot: -105.796979663922215  |grad|_K:  1.070e-05  alpha:  5.845e-01  linmin:  2.434e-04  t[s]:    721.38
	Linear fluid (dielectric constant: 64) occupying 0.997150 of unit cell:	Completed after 4 iterations at t[s]:    733.77
	Linear fluid (dielectric constant: 64) occupying 0.997150 of unit cell:	Completed after 0 iterations at t[s]:    741.57
ElecMinimize: Iter:  11  Etot: -105.797091323099266  |grad|_K:  7.311e-06  alpha:  7.357e-01  linmin: -1.762e-02  t[s]:    745.93
	Linear fluid (dielectric constant: 64) occupying 0.997151 of unit cell:	Completed after 3 iterations at t[s]:    756.69
	Linear fluid (dielectric constant: 64) occupying 0.997151 of unit cell:	Completed after 0 iterations at t[s]:    764.58
ElecMinimize: Iter:  12  Etot: -105.797152351155972  |grad|_K:  5.756e-06  alpha:  8.420e-01  linmin: -7.444e-03  t[s]:    769.08
	Linear fluid (dielectric constant: 64) occupying 0.997151 of unit cell:	Completed after 3 iterations at t[s]:    779.64
	Linear fluid (dielectric constant: 64) occupying 0.997151 of unit cell:	Completed after 0 iterations at t[s]:    787.26
ElecMinimize: Iter:  13  Etot: -105.797182224424574  |grad|_K:  4.749e-06  alpha:  6.729e-01  linmin:  7.783e-03  t[s]:    791.75
	Linear fluid (dielectric constant: 64) occupying 0.997151 of unit cell:	Completed after 2 iterations at t[s]:    801.20
	Linear fluid (dielectric constant: 64) occupying 0.997151 of unit cell:	Completed after 0 iterations at t[s]:    808.66
ElecMinimize: Iter:  14  Etot: -105.797198633386856  |grad|_K:  3.929e-06  alpha:  5.650e-01  linmin:  2.673e-03  t[s]:    813.09
	Linear fluid (dielectric constant: 64) occupying 0.997151 of unit cell:	Completed after 3 iterations at t[s]:    823.69
	Linear fluid (dielectric constant: 64) occupying 0.997151 of unit cell:	Completed after 0 iterations at t[s]:    831.42
ElecMinimize: Iter:  15  Etot: -105.797208861710459  |grad|_K:  2.759e-06  alpha:  5.100e-01  linmin: -9.892e-03  t[s]:    835.80
	Linear fluid (dielectric constant: 64) occupying 0.997151 of unit cell:	Completed after 0 iterations at t[s]:    840.99
	Linear fluid (dielectric constant: 64) occupying 0.997151 of unit cell:	Completed after 0 iterations at t[s]:    848.62
ElecMinimize: Iter:  16  Etot: -105.797215459037758  |grad|_K:  2.038e-06  alpha:  6.462e-01  linmin: -3.241e-05  t[s]:    852.93
	Linear fluid (dielectric constant: 64) occupying 0.997151 of unit cell:	Completed after 2 iterations at t[s]:    862.34
	Linear fluid (dielectric constant: 64) occupying 0.997151 of unit cell:	Completed after 0 iterations at t[s]:    869.93
ElecMinimize: Iter:  17  Etot: -105.797217557402888  |grad|_K:  2.052e-06  alpha:  4.459e-01  linmin: -3.081e-02  t[s]:    874.37
	Linear fluid (dielectric constant: 64) occupying 0.997151 of unit cell:	Completed after 2 iterations at t[s]:    883.74
	Linear fluid (dielectric constant: 64) occupying 0.997151 of unit cell:	Completed after 0 iterations at t[s]:    891.49
ElecMinimize: Iter:  18  Etot: -105.797219464060504  |grad|_K:  1.352e-06  alpha:  3.261e-01  linmin: -3.854e-03  t[s]:    895.71
	Linear fluid (dielectric constant: 64) occupying 0.997151 of unit cell:	Completed after 0 iterations at t[s]:    901.04
	Linear fluid (dielectric constant: 64) occupying 0.997151 of unit cell:	Completed after 0 iterations at t[s]:    908.64
ElecMinimize: Iter:  19  Etot: -105.797220700843724  |grad|_K:  9.692e-07  alpha:  5.098e-01  linmin: -9.206e-06  t[s]:    912.96
	Linear fluid (dielectric constant: 64) occupying 0.997151 of unit cell:	Completed after 0 iterations at t[s]:    918.48
	Linear fluid (dielectric constant: 64) occupying 0.997151 of unit cell:	Completed after 0 iterations at t[s]:    926.08
ElecMinimize: Iter:  20  Etot: -105.797221472120185  |grad|_K:  7.866e-07  alpha:  6.238e-01  linmin: -1.787e-05  t[s]:    930.37
	Linear fluid (dielectric constant: 64) occupying 0.997151 of unit cell:	Completed after 0 iterations at t[s]:    935.69
	Linear fluid (dielectric constant: 64) occupying 0.997151 of unit cell:	Completed after 0 iterations at t[s]:    943.31
ElecMinimize: Iter:  21  Etot: -105.797221867815054  |grad|_K:  5.660e-07  alpha:  4.860e-01  linmin: -5.086e-06  t[s]:    947.70
	Linear fluid (dielectric constant: 64) occupying 0.997151 of unit cell:	Completed after 0 iterations at t[s]:    952.89
	Linear fluid (dielectric constant: 64) occupying 0.997151 of unit cell:	Completed after 0 iterations at t[s]:    960.56
ElecMinimize: Iter:  22  Etot: -105.797222115028532  |grad|_K:  4.195e-07  alpha:  5.863e-01  linmin: -1.768e-05  t[s]:    964.93
	Linear fluid (dielectric constant: 64) occupying 0.997151 of unit cell:	Completed after 0 iterations at t[s]:    970.12
	Linear fluid (dielectric constant: 64) occupying 0.997151 of unit cell:	Completed after 0 iterations at t[s]:    977.85
ElecMinimize: Iter:  23  Etot: -105.797222234091521  |grad|_K:  3.240e-07  alpha:  5.141e-01  linmin:  1.535e-06  t[s]:    982.07
	Linear fluid (dielectric constant: 64) occupying 0.997150 of unit cell:	Completed after 0 iterations at t[s]:    987.45
	Linear fluid (dielectric constant: 64) occupying 0.997150 of unit cell:	Completed after 0 iterations at t[s]:    995.14
ElecMinimize: Iter:  24  Etot: -105.797222309439988  |grad|_K:  2.244e-07  alpha:  5.454e-01  linmin:  1.914e-05  t[s]:    999.50
	Linear fluid (dielectric constant: 64) occupying 0.997150 of unit cell:	Completed after 0 iterations at t[s]:   1004.81
	Linear fluid (dielectric constant: 64) occupying 0.997150 of unit cell:	Completed after 0 iterations at t[s]:   1012.49
ElecMinimize: Iter:  25  Etot: -105.797222345224100  |grad|_K:  1.794e-07  alpha:  5.398e-01  linmin:  1.226e-05  t[s]:   1016.86
	Linear fluid (dielectric constant: 64) occupying 0.997150 of unit cell:	Completed after 0 iterations at t[s]:   1022.02
	Linear fluid (dielectric constant: 64) occupying 0.997150 of unit cell:	Completed after 0 iterations at t[s]:   1029.69
ElecMinimize: Iter:  26  Etot: -105.797222368659334  |grad|_K:  1.323e-07  alpha:  5.533e-01  linmin:  1.087e-05  t[s]:   1034.13
	Linear fluid (dielectric constant: 64) occupying 0.997150 of unit cell:	Completed after 0 iterations at t[s]:   1039.46
	Linear fluid (dielectric constant: 64) occupying 0.997150 of unit cell:	Completed after 0 iterations at t[s]:   1047.16
ElecMinimize: Iter:  27  Etot: -105.797222381072174  |grad|_K:  1.008e-07  alpha:  5.387e-01  linmin: -6.351e-05  t[s]:   1051.49
	Linear fluid (dielectric constant: 64) occupying 0.997150 of unit cell:	Completed after 0 iterations at t[s]:   1056.76
	Linear fluid (dielectric constant: 64) occupying 0.997150 of unit cell:	Completed after 0 iterations at t[s]:   1064.48
ElecMinimize: Iter:  28  Etot: -105.797222388822888  |grad|_K:  8.211e-08  alpha:  5.802e-01  linmin:  8.645e-05  t[s]:   1068.82
	Linear fluid (dielectric constant: 64) occupying 0.997150 of unit cell:	Completed after 0 iterations at t[s]:   1074.31
	Linear fluid (dielectric constant: 64) occupying 0.997150 of unit cell:	Completed after 0 iterations at t[s]:   1081.80
ElecMinimize: Iter:  29  Etot: -105.797222393637256  |grad|_K:  6.224e-08  alpha:  5.431e-01  linmin:  7.727e-04  t[s]:   1086.09
ElecMinimize: Converged (|Delta Etot|<1.000000e-08 for 2 iters).
Setting wave functions to eigenvectors of Hamiltonian
Single-point solvation energy estimate, DeltaEtot = -0.181343607161224

Computing DFT-D3 correction:
# coordination-number S 1.988
# coordination-number Na 1.168 1.168
# diagonal-C6 S 125.91
# diagonal-C6 Na 189.31 189.31
EvdW_6 =   -0.000046
EvdW_8 =   -0.000792

# Ionic positions in cartesian coordinates:
ion S   7.562274270750001  10.181668708079998  15.466219999999998 1
ion Na   3.653322412229999  12.652545485250002  15.456219999999998 1
ion Na  11.469323171159999  12.655897866269999  15.446219999999997 1

# Forces in Cartesian coordinates:
force S  -0.000002209323734  -0.030002132030732   0.000205468671633 1
force Na  -0.023438356451411   0.014481655609815  -0.000110550021078 1
force Na   0.023414880144425   0.014522427955710  -0.000170537176986 1

# Energy components:
   A_diel =       -0.2411458615149134
   Eewald =       20.5608567156906368
       EH =      108.8865986759475106
     Eloc =      -96.9276336841980708
      Enl =     -142.1455028633104973
     EvdW =       -0.0008378160883175
      Exc =      -18.6200843211754972
 Exc_core =        1.7677292023609432
       KE =       20.9227975586509558
-------------------------------------
     Etot =     -105.7972223936372558

IonicMinimize: Iter:   0  Etot: -105.797222393637256  |grad|_K:  1.639e-02  alpha:  1.000e+00

#--- Lowdin population analysis ---
# oxidation-state S -1.534
# oxidation-state Na +0.867 +0.867


Computing DFT-D3 correction:
# coordination-number S 1.985
# coordination-number Na 1.155 1.155
# diagonal-C6 S 125.91
# diagonal-C6 Na 189.66 189.66
EvdW_6 =   -0.000048
EvdW_8 =   -0.000806

-------- Electronic minimization -----------
	Linear fluid (dielectric constant: 64) occupying 0.997150 of unit cell:	Completed after 15 iterations at t[s]:   1120.63
ElecMinimize: Iter:   0  Etot: -105.769080977942778  |grad|_K:  2.516e-04  alpha:  1.000e+00
	Linear fluid (dielectric constant: 64) occupying 0.997142 of unit cell:	Completed after 18 iterations at t[s]:   1156.90
	Linear fluid (dielectric constant: 64) occupying 0.997147 of unit cell:	Completed after 16 iterations at t[s]:   1188.19
ElecMinimize: Iter:   1  Etot: -105.797410611223683  |grad|_K:  4.998e-05  alpha:  3.413e-01  linmin: -1.784e-03  t[s]:   1192.58
	Linear fluid (dielectric constant: 64) occupying 0.997144 of unit cell:	Completed after 11 iterations at t[s]:   1214.26
	Linear fluid (dielectric constant: 64) occupying 0.997142 of unit cell:	Completed after 5 iterations at t[s]:   1229.98
ElecMinimize: Iter:   2  Etot: -105.799007902856658  |grad|_K:  2.558e-05  alpha:  4.848e-01  linmin: -5.498e-03  t[s]:   1234.36
	Linear fluid (dielectric constant: 64) occupying 0.997141 of unit cell:	Completed after 7 iterations at t[s]:   1250.58
	Linear fluid (dielectric constant: 64) occupying 0.997141 of unit cell:	Completed after 3 iterations at t[s]:   1263.56
ElecMinimize: Iter:   3  Etot: -105.799334969794486  |grad|_K:  1.165e-05  alpha:  3.799e-01  linmin: -2.616e-03  t[s]:   1267.98
	Linear fluid (dielectric constant: 64) occupying 0.997141 of unit cell:	Completed after 5 iterations at t[s]:   1281.50
	Linear fluid (dielectric constant: 64) occupying 0.997141 of unit cell:	Completed after 4 iterations at t[s]:   1296.04
ElecMinimize: Iter:   4  Etot: -105.799437832541997  |grad|_K:  6.673e-06  alpha:  5.772e-01  linmin:  5.604e-03  t[s]:   1300.35
	Linear fluid (dielectric constant: 64) occupying 0.997141 of unit cell:	Completed after 4 iterations at t[s]:   1312.48
	Linear fluid (dielectric constant: 64) occupying 0.997141 of unit cell:	Completed after 0 iterations at t[s]:   1321.61
ElecMinimize: Iter:   5  Etot: -105.799463864753946  |grad|_K:  4.498e-06  alpha:  4.471e-01  linmin:  2.212e-02  t[s]:   1325.99
	Linear fluid (dielectric constant: 64) occupying 0.997141 of unit cell:	Completed after 3 iterations at t[s]:   1336.81
	Linear fluid (dielectric constant: 64) occupying 0.997141 of unit cell:	Completed after 0 iterations at t[s]:   1345.96
ElecMinimize: Iter:   6  Etot: -105.799480946255642  |grad|_K:  2.649e-06  alpha:  6.286e-01  linmin: -1.146e-01  t[s]:   1350.37
	Linear fluid (dielectric constant: 64) occupying 0.997141 of unit cell:	Completed after 3 iterations at t[s]:   1361.17
	Linear fluid (dielectric constant: 64) occupying 0.997141 of unit cell:	Completed after 0 iterations at t[s]:   1368.89
ElecMinimize: Iter:   7  Etot: -105.799487272012556  |grad|_K:  2.129e-06  alpha:  6.054e-01  linmin: -1.919e-02  t[s]:   1373.24
	Linear fluid (dielectric constant: 64) occupying 0.997141 of unit cell:	Completed after 0 iterations at t[s]:   1380.00
	Linear fluid (dielectric constant: 64) occupying 0.997141 of unit cell:	Completed after 0 iterations at t[s]:   1387.56
ElecMinimize: Iter:   8  Etot: -105.799491232060902  |grad|_K:  1.386e-06  alpha:  6.389e-01  linmin: -1.603e-02  t[s]:   1391.71
	Linear fluid (dielectric constant: 64) occupying 0.997141 of unit cell:	Completed after 3 iterations at t[s]:   1402.26
	Linear fluid (dielectric constant: 64) occupying 0.997141 of unit cell:	Completed after 0 iterations at t[s]:   1410.06
ElecMinimize: Iter:   9  Etot: -105.799491830695260  |grad|_K:  1.331e-06  alpha:  3.864e-01  linmin: -5.822e-02  t[s]:   1414.36
	Linear fluid (dielectric constant: 64) occupying 0.997141 of unit cell:	Completed after 0 iterations at t[s]:   1419.74
	Linear fluid (dielectric constant: 64) occupying 0.997141 of unit cell:	Completed after 0 iterations at t[s]:   1427.51
ElecMinimize: Iter:  10  Etot: -105.799492955312218  |grad|_K:  1.079e-06  alpha:  4.232e-01  linmin:  1.271e-07  t[s]:   1431.82
	Linear fluid (dielectric constant: 64) occupying 0.997140 of unit cell:	Completed after 2 iterations at t[s]:   1441.40
	Linear fluid (dielectric constant: 64) occupying 0.997141 of unit cell:	Completed after 0 iterations at t[s]:   1449.07
ElecMinimize: 	Step increased Etot by 1.889159e-07, reducing alpha to 1.302767e-02.
	Linear fluid (dielectric constant: 64) occupying 0.997141 of unit cell:	Completed after 0 iterations at t[s]:   1458.39
ElecMinimize: 	Step increased Etot by 1.104185e-07, reducing alpha to 1.302767e-03.
	Linear fluid (dielectric constant: 64) occupying 0.997141 of unit cell:	Completed after 0 iterations at t[s]:   1468.07
ElecMinimize: 	Step increased Etot by 1.079004e-07, reducing alpha to 1.302767e-04.
ElecMinimize: 	Step failed to reduce Etot after 3 attempts. Quitting step.
ElecMinimize: 	Undoing step.
	Linear fluid (dielectric constant: 64) occupying 0.997141 of unit cell:	Completed after 0 iterations at t[s]:   1477.42
ElecMinimize: 	Step failed: resetting search direction.
ElecMinimize: Iter:  11  Etot: -105.799492847431239  |grad|_K:  1.510e-06  alpha:  1.303e-04
	Linear fluid (dielectric constant: 64) occupying 0.997140 of unit cell:	Completed after 2 iterations at t[s]:   1491.13
	Linear fluid (dielectric constant: 64) occupying 0.997141 of unit cell:	Completed after 0 iterations at t[s]:   1498.92
ElecMinimize: Iter:  12  Etot: -105.799493084344846  |grad|_K:  1.036e-06  alpha:  1.849e-01  linmin:  1.540e-01  t[s]:   1503.14
	Linear fluid (dielectric constant: 64) occupying 0.997141 of unit cell:	Completed after 0 iterations at t[s]:   1508.48
	Linear fluid (dielectric constant: 64) occupying 0.997140 of unit cell:	Completed after 0 iterations at t[s]:   1516.22
ElecMinimize: Iter:  13  Etot: -105.799493601728159  |grad|_K:  9.619e-07  alpha:  4.380e-01  linmin:  1.842e-05  t[s]:   1520.55
	Linear fluid (dielectric constant: 64) occupying 0.997140 of unit cell:	Completed after 1 iterations at t[s]:   1528.88
	Linear fluid (dielectric constant: 64) occupying 0.997140 of unit cell:	Completed after 0 iterations at t[s]:   1536.54
ElecMinimize: 	Step increased Etot by 1.544140e-07, reducing alpha to 1.718903e-02.
	Linear fluid (dielectric constant: 64) occupying 0.997140 of unit cell:	Completed after 0 iterations at t[s]:   1545.99
ElecMinimize: 	Step increased Etot by 2.374556e-07, reducing alpha to 1.718903e-03.
	Linear fluid (dielectric constant: 64) occupying 0.997140 of unit cell:	Completed after 0 iterations at t[s]:   1555.72
ElecMinimize: 	Step increased Etot by 2.523625e-07, reducing alpha to 1.718903e-04.
ElecMinimize: 	Step failed to reduce Etot after 3 attempts. Quitting step.
ElecMinimize: 	Undoing step.
	Linear fluid (dielectric constant: 64) occupying 0.997140 of unit cell:	Completed after 0 iterations at t[s]:   1565.17
ElecMinimize: 	Step failed: resetting search direction.
ElecMinimize: Iter:  14  Etot: -105.799493349190385  |grad|_K:  8.040e-07  alpha:  1.719e-04
	Linear fluid (dielectric constant: 64) occupying 0.997140 of unit cell:	Completed after 0 iterations at t[s]:   1574.83
	Linear fluid (dielectric constant: 64) occupying 0.997140 of unit cell:	Completed after 0 iterations at t[s]:   1582.51
ElecMinimize: Iter:  15  Etot: -105.799493661692139  |grad|_K:  4.297e-07  alpha:  3.673e-01  linmin:  3.055e-05  t[s]:   1586.81
	Linear fluid (dielectric constant: 64) occupying 0.997140 of unit cell:	Completed after 0 iterations at t[s]:   1593.50
	Linear fluid (dielectric constant: 64) occupying 0.997140 of unit cell:	Completed after 0 iterations at t[s]:   1601.12
ElecMinimize: 	Step increased Etot by 7.185125e-08, reducing alpha to 1.760208e-02.
	Linear fluid (dielectric constant: 64) occupying 0.997140 of unit cell:	Completed after 0 iterations at t[s]:   1610.59
ElecMinimize: 	Step increased Etot by 1.335071e-07, reducing alpha to 1.760208e-03.
	Linear fluid (dielectric constant: 64) occupying 0.997140 of unit cell:	Completed after 0 iterations at t[s]:   1620.31
ElecMinimize: 	Step increased Etot by 1.400974e-07, reducing alpha to 1.760208e-04.
ElecMinimize: 	Step failed to reduce Etot after 3 attempts. Quitting step.
ElecMinimize: 	Undoing step.
	Linear fluid (dielectric constant: 64) occupying 0.997140 of unit cell:	Completed after 0 iterations at t[s]:   1629.72
ElecMinimize: 	Step failed: resetting search direction.
ElecMinimize: Iter:  16  Etot: -105.799493521519921  |grad|_K:  4.120e-07  alpha:  1.760e-04
	Linear fluid (dielectric constant: 64) occupying 0.997140 of unit cell:	Completed after 0 iterations at t[s]:   1639.24
	Linear fluid (dielectric constant: 64) occupying 0.997140 of unit cell:	Completed after 0 iterations at t[s]:   1646.85
ElecMinimize: Iter:  17  Etot: -105.799493671733799  |grad|_K:  4.636e-07  alpha:  6.726e-01  linmin:  6.193e-05  t[s]:   1651.22
	Linear fluid (dielectric constant: 64) occupying 0.997140 of unit cell:	Completed after 0 iterations at t[s]:   1656.51
	Linear fluid (dielectric constant: 64) occupying 0.997140 of unit cell:	Completed after 0 iterations at t[s]:   1664.25
ElecMinimize: Iter:  18  Etot: -105.799494121139119  |grad|_K:  2.591e-07  alpha:  1.589e+00  linmin:  4.161e-06  t[s]:   1668.47
	Linear fluid (dielectric constant: 64) occupying 0.997140 of unit cell:	Completed after 0 iterations at t[s]:   1673.83
	Linear fluid (dielectric constant: 64) occupying 0.997140 of unit cell:	Completed after 0 iterations at t[s]:   1681.79
ElecMinimize: Iter:  19  Etot: -105.799494220231139  |grad|_K:  2.734e-07  alpha:  1.121e+00  linmin: -1.173e-05  t[s]:   1686.14
	Linear fluid (dielectric constant: 64) occupying 0.997140 of unit cell:	Completed after 0 iterations at t[s]:   1691.32
	Linear fluid (dielectric constant: 64) occupying 0.997140 of unit cell:	Completed after 0 iterations at t[s]:   1698.87
ElecMinimize: Iter:  20  Etot: -105.799494360810812  |grad|_K:  3.147e-07  alpha:  1.429e+00  linmin:  2.893e-05  t[s]:   1703.21
	Linear fluid (dielectric constant: 64) occupying 0.997139 of unit cell:	Completed after 1 iterations at t[s]:   1711.15
	Linear fluid (dielectric constant: 64) occupying 0.997139 of unit cell:	Completed after 0 iterations at t[s]:   1720.02
ElecMinimize: 	Step increased Etot by 1.677652e-07, reducing alpha to 4.074510e-02.
	Linear fluid (dielectric constant: 64) occupying 0.997140 of unit cell:	Completed after 0 iterations at t[s]:   1729.57
ElecMinimize: 	Step increased Etot by 1.606902e-07, reducing alpha to 4.074510e-03.
	Linear fluid (dielectric constant: 64) occupying 0.997140 of unit cell:	Completed after 0 iterations at t[s]:   1739.09
ElecMinimize: 	Step increased Etot by 1.616946e-07, reducing alpha to 4.074510e-04.
ElecMinimize: 	Step failed to reduce Etot after 3 attempts. Quitting step.
ElecMinimize: 	Undoing step.
	Linear fluid (dielectric constant: 64) occupying 0.997140 of unit cell:	Completed after 0 iterations at t[s]:   1748.60
ElecMinimize: 	Step failed: resetting search direction.
ElecMinimize: Iter:  21  Etot: -105.799494199098177  |grad|_K:  3.516e-07  alpha:  4.075e-04
	Linear fluid (dielectric constant: 64) occupying 0.997140 of unit cell:	Completed after 0 iterations at t[s]:   1758.15
	Linear fluid (dielectric constant: 64) occupying 0.997140 of unit cell:	Completed after 0 iterations at t[s]:   1765.74
ElecMinimize: Iter:  22  Etot: -105.799494300154649  |grad|_K:  2.514e-07  alpha:  6.210e-01  linmin: -1.842e-06  t[s]:   1770.17
	Linear fluid (dielectric constant: 64) occupying 0.997140 of unit cell:	Completed after 0 iterations at t[s]:   1775.41
	Linear fluid (dielectric constant: 64) occupying 0.997140 of unit cell:	Completed after 0 iterations at t[s]:   1783.01
ElecMinimize: Iter:  23  Etot: -105.799494377891790  |grad|_K:  1.778e-07  alpha:  9.343e-01  linmin:  6.110e-05  t[s]:   1787.28
	Linear fluid (dielectric constant: 64) occupying 0.997140 of unit cell:	Completed after 0 iterations at t[s]:   1792.52
	Linear fluid (dielectric constant: 64) occupying 0.997140 of unit cell:	Completed after 0 iterations at t[s]:   1800.29
ElecMinimize: Iter:  24  Etot: -105.799494412878786  |grad|_K:  1.386e-07  alpha:  8.412e-01  linmin:  1.150e-05  t[s]:   1804.76
	Linear fluid (dielectric constant: 64) occupying 0.997140 of unit cell:	Completed after 0 iterations at t[s]:   1810.05
	Linear fluid (dielectric constant: 64) occupying 0.997140 of unit cell:	Completed after 0 iterations at t[s]:   1817.70
ElecMinimize: Iter:  25  Etot: -105.799494428906996  |grad|_K:  1.122e-07  alpha:  6.335e-01  linmin:  1.911e-05  t[s]:   1822.02
	Linear fluid (dielectric constant: 64) occupying 0.997140 of unit cell:	Completed after 0 iterations at t[s]:   1827.29
	Linear fluid (dielectric constant: 64) occupying 0.997140 of unit cell:	Completed after 0 iterations at t[s]:   1835.09
ElecMinimize: Iter:  26  Etot: -105.799494446236523  |grad|_K:  9.324e-08  alpha:  1.046e+00  linmin:  1.837e-04  t[s]:   1839.50
	Linear fluid (dielectric constant: 64) occupying 0.997141 of unit cell:	Completed after 0 iterations at t[s]:   1844.65
	Linear fluid (dielectric constant: 64) occupying 0.997141 of unit cell:	Completed after 0 iterations at t[s]:   1852.45
ElecMinimize: Iter:  27  Etot: -105.799494457996474  |grad|_K:  9.689e-08  alpha:  1.028e+00  linmin: -1.859e-04  t[s]:   1856.73
	Linear fluid (dielectric constant: 64) occupying 0.997141 of unit cell:	Completed after 0 iterations at t[s]:   1862.25
	Linear fluid (dielectric constant: 64) occupying 0.997141 of unit cell:	Completed after 0 iterations at t[s]:   1869.92
ElecMinimize: Iter:  28  Etot: -105.799494471078106  |grad|_K:  7.862e-08  alpha:  1.058e+00  linmin:  1.464e-05  t[s]:   1874.30
	Linear fluid (dielectric constant: 64) occupying 0.997141 of unit cell:	Completed after 1 iterations at t[s]:   1882.25
	Linear fluid (dielectric constant: 64) occupying 0.997141 of unit cell:	Completed after 0 iterations at t[s]:   1889.86
ElecMinimize: 	Step increased Etot by 3.473990e-07, reducing alpha to 2.106921e-03.
	Linear fluid (dielectric constant: 64) occupying 0.997141 of unit cell:	Completed after 0 iterations at t[s]:   1899.28
ElecMinimize: 	Step increased Etot by 3.463102e-07, reducing alpha to 2.106921e-04.
	Linear fluid (dielectric constant: 64) occupying 0.997141 of unit cell:	Completed after 0 iterations at t[s]:   1908.54
ElecMinimize: 	Step increased Etot by 3.461981e-07, reducing alpha to 2.106921e-05.
ElecMinimize: 	Step failed to reduce Etot after 3 attempts. Quitting step.
ElecMinimize: 	Undoing step.
	Linear fluid (dielectric constant: 64) occupying 0.997141 of unit cell:	Completed after 0 iterations at t[s]:   1918.01
ElecMinimize: 	Step failed: resetting search direction.
ElecMinimize: Iter:  29  Etot: -105.799494124881392  |grad|_K:  3.342e-07  alpha:  2.107e-05
	Linear fluid (dielectric constant: 64) occupying 0.997141 of unit cell:	Completed after 0 iterations at t[s]:   1927.55
	Linear fluid (dielectric constant: 64) occupying 0.997141 of unit cell:	Completed after 0 iterations at t[s]:   1936.55
ElecMinimize: Iter:  30  Etot: -105.799494158832786  |grad|_K:  4.913e-07  alpha:  1.825e+00  linmin:  1.978e-01  t[s]:   1940.83
	Linear fluid (dielectric constant: 64) occupying 0.997139 of unit cell:	Completed after 3 iterations at t[s]:   1951.53
	Linear fluid (dielectric constant: 64) occupying 0.997140 of unit cell:	Completed after 1 iterations at t[s]:   1961.76
ElecMinimize: Iter:  31  Etot: -105.799494409551684  |grad|_K:  6.635e-07  alpha:  2.262e-01  linmin:  3.089e-01  t[s]:   1966.19
	Linear fluid (dielectric constant: 64) occupying 0.997140 of unit cell:	Completed after 0 iterations at t[s]:   1971.56
	Linear fluid (dielectric constant: 64) occupying 0.997140 of unit cell:	Completed after 0 iterations at t[s]:   1979.16
ElecMinimize: Iter:  32  Etot: -105.799494412296227  |grad|_K:  6.327e-07  alpha:  4.149e-02  linmin: -1.220e-06  t[s]:   1983.52
	Linear fluid (dielectric constant: 64) occupying 0.997140 of unit cell:	Completed after 0 iterations at t[s]:   1988.72
ElecMinimize: 	Predicted alpha/alphaT>3.000000, increasing alphaT to 1.244677e-01.
	Linear fluid (dielectric constant: 64) occupying 0.997140 of unit cell:	Completed after 0 iterations at t[s]:   1996.28
	Linear fluid (dielectric constant: 64) occupying 0.997140 of unit cell:	Completed after 0 iterations at t[s]:   2003.90
ElecMinimize: Iter:  33  Etot: -105.799494510848248  |grad|_K:  5.284e-07  alpha:  1.871e-01  linmin: -8.699e-06  t[s]:   2008.14
	Linear fluid (dielectric constant: 64) occupying 0.997140 of unit cell:	Completed after 0 iterations at t[s]:   2013.54
	Linear fluid (dielectric constant: 64) occupying 0.997140 of unit cell:	Completed after 0 iterations at t[s]:   2021.24
ElecMinimize: Iter:  34  Etot: -105.799494600591999  |grad|_K:  5.442e-07  alpha:  2.442e-01  linmin: -3.792e-05  t[s]:   2025.59
	Linear fluid (dielectric constant: 64) occupying 0.997140 of unit cell:	Completed after 1 iterations at t[s]:   2033.48
	Linear fluid (dielectric constant: 64) occupying 0.997140 of unit cell:	Completed after 0 iterations at t[s]:   2041.14
ElecMinimize: 	Step increased Etot by 2.419421e-07, reducing alpha to 4.717826e-03.
	Linear fluid (dielectric constant: 64) occupying 0.997140 of unit cell:	Completed after 0 iterations at t[s]:   2050.60
ElecMinimize: 	Step increased Etot by 2.448277e-07, reducing alpha to 4.717826e-04.
	Linear fluid (dielectric constant: 64) occupying 0.997140 of unit cell:	Completed after 0 iterations at t[s]:   2059.93
ElecMinimize: 	Step increased Etot by 2.454229e-07, reducing alpha to 4.717826e-05.
ElecMinimize: 	Step failed to reduce Etot after 3 attempts. Quitting step.
ElecMinimize: 	Undoing step.
	Linear fluid (dielectric constant: 64) occupying 0.997140 of unit cell:	Completed after 0 iterations at t[s]:   2069.42
ElecMinimize: 	Step failed: resetting search direction.
ElecMinimize: Iter:  35  Etot: -105.799494355160775  |grad|_K:  4.982e-07  alpha:  4.718e-05
	Linear fluid (dielectric constant: 64) occupying 0.997140 of unit cell:	Completed after 0 iterations at t[s]:   2079.00
	Linear fluid (dielectric constant: 64) occupying 0.997140 of unit cell:	Completed after 0 iterations at t[s]:   2086.63
ElecMinimize: Iter:  36  Etot: -105.799494532923120  |grad|_K:  3.373e-07  alpha:  5.442e-01  linmin: -9.774e-05  t[s]:   2090.85
	Linear fluid (dielectric constant: 64) occupying 0.997140 of unit cell:	Completed after 0 iterations at t[s]:   2096.23
	Linear fluid (dielectric constant: 64) occupying 0.997140 of unit cell:	Completed after 0 iterations at t[s]:   2105.21
ElecMinimize: 	Step increased Etot by 7.722934e-08, reducing alpha to 1.140161e-01.
	Linear fluid (dielectric constant: 64) occupying 0.997140 of unit cell:	Completed after 0 iterations at t[s]:   2114.92
ElecMinimize: 	Step increased Etot by 9.400486e-08, reducing alpha to 1.140161e-02.
	Linear fluid (dielectric constant: 64) occupying 0.997140 of unit cell:	Completed after 0 iterations at t[s]:   2124.60
ElecMinimize: 	Step increased Etot by 1.108921e-07, reducing alpha to 1.140161e-03.
ElecMinimize: 	Step failed to reduce Etot after 3 attempts. Quitting step.
ElecMinimize: 	Undoing step.
	Linear fluid (dielectric constant: 64) occupying 0.997140 of unit cell:	Completed after 0 iterations at t[s]:   2134.07
ElecMinimize: 	Step failed: resetting search direction.
ElecMinimize: Iter:  37  Etot: -105.799494421831000  |grad|_K:  2.970e-07  alpha:  1.140e-03
	Linear fluid (dielectric constant: 64) occupying 0.997140 of unit cell:	Completed after 0 iterations at t[s]:   2143.61
	Linear fluid (dielectric constant: 64) occupying 0.997140 of unit cell:	Completed after 0 iterations at t[s]:   2151.13
ElecMinimize: Iter:  38  Etot: -105.799494472721705  |grad|_K:  1.900e-07  alpha:  4.385e-01  linmin:  2.354e-05  t[s]:   2155.55
	Linear fluid (dielectric constant: 64) occupying 0.997140 of unit cell:	Completed after 0 iterations at t[s]:   2160.80
ElecMinimize: 	Predicted alpha/alphaT>3.000000, increasing alphaT to 1.315534e+00.
	Linear fluid (dielectric constant: 64) occupying 0.997140 of unit cell:	Completed after 0 iterations at t[s]:   2169.97
	Linear fluid (dielectric constant: 64) occupying 0.997140 of unit cell:	Completed after 0 iterations at t[s]:   2177.51
ElecMinimize: 	Step increased Etot by 3.946504e-08, reducing alpha to 5.285289e-02.
	Linear fluid (dielectric constant: 64) occupying 0.997140 of unit cell:	Completed after 0 iterations at t[s]:   2186.96
ElecMinimize: 	Step increased Etot by 6.383590e-08, reducing alpha to 5.285289e-03.
	Linear fluid (dielectric constant: 64) occupying 0.997140 of unit cell:	Completed after 0 iterations at t[s]:   2196.41
ElecMinimize: 	Step increased Etot by 6.705841e-08, reducing alpha to 5.285289e-04.
ElecMinimize: 	Step failed to reduce Etot after 3 attempts. Quitting step.
ElecMinimize: 	Undoing step.
	Linear fluid (dielectric constant: 64) occupying 0.997140 of unit cell:	Completed after 0 iterations at t[s]:   2205.86
ElecMinimize: 	Step failed: resetting search direction.
ElecMinimize: Iter:  39  Etot: -105.799494405628238  |grad|_K:  1.691e-07  alpha:  5.285e-04
	Linear fluid (dielectric constant: 64) occupying 0.997140 of unit cell:	Completed after 0 iterations at t[s]:   2215.41
	Linear fluid (dielectric constant: 64) occupying 0.997140 of unit cell:	Completed after 0 iterations at t[s]:   2223.12
ElecMinimize: Iter:  40  Etot: -105.799494424360660  |grad|_K:  1.413e-07  alpha:  4.980e-01  linmin: -4.675e-05  t[s]:   2227.57
	Linear fluid (dielectric constant: 64) occupying 0.997140 of unit cell:	Completed after 0 iterations at t[s]:   2232.94
ElecMinimize: 	Predicted alpha/alphaT>3.000000, increasing alphaT to 1.494076e+00.
	Linear fluid (dielectric constant: 64) occupying 0.997140 of unit cell:	Completed after 0 iterations at t[s]:   2240.51
	Linear fluid (dielectric constant: 64) occupying 0.997140 of unit cell:	Completed after 0 iterations at t[s]:   2248.17
ElecMinimize: Iter:  41  Etot: -105.799494470948105  |grad|_K:  1.330e-07  alpha:  1.774e+00  linmin:  5.892e-05  t[s]:   2252.63
	Linear fluid (dielectric constant: 64) occupying 0.997141 of unit cell:	Completed after 0 iterations at t[s]:   2258.03
	Linear fluid (dielectric constant: 64) occupying 0.997141 of unit cell:	Completed after 0 iterations at t[s]:   2265.84
ElecMinimize: Iter:  42  Etot: -105.799494485107843  |grad|_K:  9.462e-08  alpha:  6.077e-01  linmin:  5.146e-05  t[s]:   2270.18
	Linear fluid (dielectric constant: 64) occupying 0.997141 of unit cell:	Completed after 0 iterations at t[s]:   2275.44
	Linear fluid (dielectric constant: 64) occupying 0.997141 of unit cell:	Completed after 0 iterations at t[s]:   2283.31
ElecMinimize: Iter:  43  Etot: -105.799494501741393  |grad|_K:  1.075e-07  alpha:  1.411e+00  linmin: -5.475e-04  t[s]:   2287.82
	Linear fluid (dielectric constant: 64) occupying 0.997141 of unit cell:	Completed after 0 iterations at t[s]:   2293.19
	Linear fluid (dielectric constant: 64) occupying 0.997141 of unit cell:	Completed after 0 iterations at t[s]:   2300.84
ElecMinimize: Iter:  44  Etot: -105.799494519134015  |grad|_K:  1.190e-07  alpha:  1.142e+00  linmin:  2.723e-05  t[s]:   2305.21
	Linear fluid (dielectric constant: 64) occupying 0.997142 of unit cell:	Completed after 2 iterations at t[s]:   2314.63
	Linear fluid (dielectric constant: 64) occupying 0.997141 of unit cell:	Completed after 0 iterations at t[s]:   2322.29
ElecMinimize: 	Step increased Etot by 8.312709e-07, reducing alpha to 1.900010e-03.
	Linear fluid (dielectric constant: 64) occupying 0.997141 of unit cell:	Completed after 0 iterations at t[s]:   2331.55
ElecMinimize: 	Step increased Etot by 8.255662e-07, reducing alpha to 1.900010e-04.
	Linear fluid (dielectric constant: 64) occupying 0.997141 of unit cell:	Completed after 0 iterations at t[s]:   2340.90
ElecMinimize: 	Step increased Etot by 8.249980e-07, reducing alpha to 1.900010e-05.
ElecMinimize: 	Step failed to reduce Etot after 3 attempts. Quitting step.
ElecMinimize: 	Undoing step.
	Linear fluid (dielectric constant: 64) occupying 0.997141 of unit cell:	Completed after 0 iterations at t[s]:   2350.37
ElecMinimize: 	Step failed: resetting search direction.
ElecMinimize: Iter:  45  Etot: -105.799493694144786  |grad|_K:  8.622e-07  alpha:  1.900e-05
	Linear fluid (dielectric constant: 64) occupying 0.997140 of unit cell:	Completed after 3 iterations at t[s]:   2365.45
	Linear fluid (dielectric constant: 64) occupying 0.997141 of unit cell:	Completed after 0 iterations at t[s]:   2373.05
ElecMinimize: Iter:  46  Etot: -105.799494367156285  |grad|_K:  3.664e-07  alpha:  6.884e-01  linmin:  3.737e-01  t[s]:   2377.50
	Linear fluid (dielectric constant: 64) occupying 0.997141 of unit cell:	Completed after 0 iterations at t[s]:   2383.10
	Linear fluid (dielectric constant: 64) occupying 0.997141 of unit cell:	Completed after 0 iterations at t[s]:   2390.72
ElecMinimize: Iter:  47  Etot: -105.799494450564993  |grad|_K:  2.434e-07  alpha:  6.227e-01  linmin:  2.354e-05  t[s]:   2395.06
	Linear fluid (dielectric constant: 64) occupying 0.997140 of unit cell:	Completed after 0 iterations at t[s]:   2400.29
	Linear fluid (dielectric constant: 64) occupying 0.997140 of unit cell:	Completed after 0 iterations at t[s]:   2408.04
ElecMinimize: Iter:  48  Etot: -105.799494500581005  |grad|_K:  1.600e-07  alpha:  6.417e-01  linmin: -2.987e-05  t[s]:   2412.51
	Linear fluid (dielectric constant: 64) occupying 0.997140 of unit cell:	Completed after 0 iterations at t[s]:   2417.73
	Linear fluid (dielectric constant: 64) occupying 0.997140 of unit cell:	Completed after 0 iterations at t[s]:   2425.23
ElecMinimize: Iter:  49  Etot: -105.799494525370278  |grad|_K:  1.126e-07  alpha:  7.358e-01  linmin:  6.762e-05  t[s]:   2429.57
	Linear fluid (dielectric constant: 64) occupying 0.997141 of unit cell:	Completed after 0 iterations at t[s]:   2434.76
	Linear fluid (dielectric constant: 64) occupying 0.997141 of unit cell:	Completed after 0 iterations at t[s]:   2442.58
ElecMinimize: Iter:  50  Etot: -105.799494539964272  |grad|_K:  9.300e-08  alpha:  8.741e-01  linmin: -3.025e-05  t[s]:   2446.95
	Linear fluid (dielectric constant: 64) occupying 0.997141 of unit cell:	Completed after 0 iterations at t[s]:   2452.21
	Linear fluid (dielectric constant: 64) occupying 0.997141 of unit cell:	Completed after 2 iterations at t[s]:   2464.02
ElecMinimize: 	Step increased Etot by 5.856367e-07, reducing alpha to 1.102948e-01.
	Linear fluid (dielectric constant: 64) occupying 0.997141 of unit cell:	Completed after 0 iterations at t[s]:   2473.88
ElecMinimize: 	Step increased Etot by 4.864284e-07, reducing alpha to 1.102948e-02.
	Linear fluid (dielectric constant: 64) occupying 0.997141 of unit cell:	Completed after 0 iterations at t[s]:   2483.46
ElecMinimize: 	Step increased Etot by 4.776227e-07, reducing alpha to 1.102948e-03.
ElecMinimize: 	Step failed to reduce Etot after 3 attempts. Quitting step.
ElecMinimize: 	Undoing step.
	Linear fluid (dielectric constant: 64) occupying 0.997141 of unit cell:	Completed after 0 iterations at t[s]:   2492.87
ElecMinimize: 	Step failed: resetting search direction.
ElecMinimize: Iter:  51  Etot: -105.799494062434491  |grad|_K:  5.131e-07  alpha:  1.103e-03
	Linear fluid (dielectric constant: 64) occupying 0.997140 of unit cell:	Completed after 0 iterations at t[s]:   2502.61
	Linear fluid (dielectric constant: 64) occupying 0.997140 of unit cell:	Completed after 1 iterations at t[s]:   2513.10
ElecMinimize: Iter:  52  Etot: -105.799494089642124  |grad|_K:  7.327e-07  alpha:  1.775e+00  linmin:  3.322e-01  t[s]:   2517.55
	Linear fluid (dielectric constant: 64) occupying 0.997138 of unit cell:	Completed after 2 iterations at t[s]:   2526.95
	Linear fluid (dielectric constant: 64) occupying 0.997140 of unit cell:	Completed after 3 iterations at t[s]:   2540.18
ElecMinimize: 	Step increased Etot by 2.786005e-07, reducing alpha to 9.707313e-03.
	Linear fluid (dielectric constant: 64) occupying 0.997140 of unit cell:	Completed after 0 iterations at t[s]:   2549.64
ElecMinimize: 	Step increased Etot by 2.114653e-07, reducing alpha to 9.707313e-04.
	Linear fluid (dielectric constant: 64) occupying 0.997140 of unit cell:	Completed after 0 iterations at t[s]:   2558.93
ElecMinimize: 	Step increased Etot by 2.052501e-07, reducing alpha to 9.707313e-05.
ElecMinimize: 	Step failed to reduce Etot after 3 attempts. Quitting step.
ElecMinimize: 	Undoing step.
	Linear fluid (dielectric constant: 64) occupying 0.997140 of unit cell:	Completed after 0 iterations at t[s]:   2568.65
ElecMinimize: 	Step failed: resetting search direction.
ElecMinimize: Iter:  53  Etot: -105.799493884455217  |grad|_K:  9.757e-07  alpha:  9.707e-05
	Linear fluid (dielectric constant: 64) occupying 0.997140 of unit cell:	Completed after 4 iterations at t[s]:   2584.87
	Linear fluid (dielectric constant: 64) occupying 0.997140 of unit cell:	Completed after 2 iterations at t[s]:   2596.78
ElecMinimize: Iter:  54  Etot: -105.799494615863523  |grad|_K:  6.126e-07  alpha:  4.431e-01  linmin:  2.563e-01  t[s]:   2601.08
	Linear fluid (dielectric constant: 64) occupying 0.997140 of unit cell:	Completed after 1 iterations at t[s]:   2609.02
	Linear fluid (dielectric constant: 64) occupying 0.997140 of unit cell:	Completed after 0 iterations at t[s]:   2616.60
ElecMinimize: 	Step increased Etot by 1.531377e-07, reducing alpha to 1.388317e-02.
	Linear fluid (dielectric constant: 64) occupying 0.997140 of unit cell:	Completed after 0 iterations at t[s]:   2626.25
ElecMinimize: 	Step increased Etot by 1.760980e-07, reducing alpha to 1.388317e-03.
	Linear fluid (dielectric constant: 64) occupying 0.997140 of unit cell:	Completed after 0 iterations at t[s]:   2635.63
ElecMinimize: 	Step increased Etot by 1.796375e-07, reducing alpha to 1.388317e-04.
ElecMinimize: 	Step failed to reduce Etot after 3 attempts. Quitting step.
ElecMinimize: 	Undoing step.
	Linear fluid (dielectric constant: 64) occupying 0.997140 of unit cell:	Completed after 0 iterations at t[s]:   2644.91
ElecMinimize: 	Step failed: resetting search direction.
ElecMinimize: Iter:  55  Etot: -105.799494436189306  |grad|_K:  4.022e-07  alpha:  1.388e-04
	Linear fluid (dielectric constant: 64) occupying 0.997140 of unit cell:	Completed after 0 iterations at t[s]:   2654.54
	Linear fluid (dielectric constant: 64) occupying 0.997140 of unit cell:	Completed after 0 iterations at t[s]:   2662.40
ElecMinimize: Iter:  56  Etot: -105.799494523194923  |grad|_K:  1.699e-07  alpha:  4.086e-01  linmin: -1.123e-05  t[s]:   2666.63
	Linear fluid (dielectric constant: 64) occupying 0.997140 of unit cell:	Completed after 0 iterations at t[s]:   2672.01
	Linear fluid (dielectric constant: 64) occupying 0.997140 of unit cell:	Completed after 0 iterations at t[s]:   2679.69
ElecMinimize: Iter:  57  Etot: -105.799494554292011  |grad|_K:  1.763e-07  alpha:  8.187e-01  linmin:  9.199e-05  t[s]:   2684.04
	Linear fluid (dielectric constant: 64) occupying 0.997139 of unit cell:	Completed after 0 iterations at t[s]:   2689.63
	Linear fluid (dielectric constant: 64) occupying 0.997139 of unit cell:	Completed after 0 iterations at t[s]:   2698.56
ElecMinimize: 	Step increased Etot by 1.127929e-07, reducing alpha to 1.109610e-01.
	Linear fluid (dielectric constant: 64) occupying 0.997140 of unit cell:	Completed after 0 iterations at t[s]:   2708.06
ElecMinimize: 	Step increased Etot by 1.089313e-07, reducing alpha to 1.109610e-02.
	Linear fluid (dielectric constant: 64) occupying 0.997140 of unit cell:	Completed after 0 iterations at t[s]:   2717.73
ElecMinimize: 	Step increased Etot by 1.125911e-07, reducing alpha to 1.109610e-03.
ElecMinimize: 	Step failed to reduce Etot after 3 attempts. Quitting step.
ElecMinimize: 	Undoing step.
	Linear fluid (dielectric constant: 64) occupying 0.997140 of unit cell:	Completed after 0 iterations at t[s]:   2727.28
ElecMinimize: 	Step failed: resetting search direction.
ElecMinimize: Iter:  58  Etot: -105.799494441661324  |grad|_K:  2.183e-07  alpha:  1.110e-03
	Linear fluid (dielectric constant: 64) occupying 0.997140 of unit cell:	Completed after 0 iterations at t[s]:   2737.01
	Linear fluid (dielectric constant: 64) occupying 0.997140 of unit cell:	Completed after 0 iterations at t[s]:   2744.71
ElecMinimize: Iter:  59  Etot: -105.799494470345479  |grad|_K:  1.269e-07  alpha:  4.575e-01  linmin: -7.122e-06  t[s]:   2749.07
	Linear fluid (dielectric constant: 64) occupying 0.997140 of unit cell:	Completed after 0 iterations at t[s]:   2754.24
	Linear fluid (dielectric constant: 64) occupying 0.997140 of unit cell:	Completed after 0 iterations at t[s]:   2761.72
ElecMinimize: Iter:  60  Etot: -105.799494486405791  |grad|_K:  1.123e-07  alpha:  7.575e-01  linmin: -2.859e-04  t[s]:   2766.03
	Linear fluid (dielectric constant: 64) occupying 0.997140 of unit cell:	Completed after 0 iterations at t[s]:   2772.77
	Linear fluid (dielectric constant: 64) occupying 0.997140 of unit cell:	Completed after 0 iterations at t[s]:   2780.41
ElecMinimize: 	Step increased Etot by 7.282827e-08, reducing alpha to 9.369769e-03.
	Linear fluid (dielectric constant: 64) occupying 0.997140 of unit cell:	Completed after 0 iterations at t[s]:   2789.64
ElecMinimize: 	Step increased Etot by 7.334761e-08, reducing alpha to 9.369769e-04.
	Linear fluid (dielectric constant: 64) occupying 0.997140 of unit cell:	Completed after 0 iterations at t[s]:   2799.02
ElecMinimize: 	Step increased Etot by 7.341194e-08, reducing alpha to 9.369769e-05.
ElecMinimize: 	Step failed to reduce Etot after 3 attempts. Quitting step.
ElecMinimize: 	Undoing step.
	Linear fluid (dielectric constant: 64) occupying 0.997140 of unit cell:	Completed after 0 iterations at t[s]:   2808.60
ElecMinimize: 	Step failed: resetting search direction.
ElecMinimize: Iter:  61  Etot: -105.799494412995330  |grad|_K:  1.133e-07  alpha:  9.370e-05
	Linear fluid (dielectric constant: 64) occupying 0.997140 of unit cell:	Completed after 0 iterations at t[s]:   2818.39
	Linear fluid (dielectric constant: 64) occupying 0.997140 of unit cell:	Completed after 0 iterations at t[s]:   2825.92
ElecMinimize: Iter:  62  Etot: -105.799494421437700  |grad|_K:  7.443e-08  alpha:  4.999e-01  linmin: -1.830e-04  t[s]:   2830.26
	Linear fluid (dielectric constant: 64) occupying 0.997139 of unit cell:	Completed after 0 iterations at t[s]:   2835.71
	Linear fluid (dielectric constant: 64) occupying 0.997139 of unit cell:	Completed after 0 iterations at t[s]:   2843.32
ElecMinimize: Iter:  63  Etot: -105.799494426915032  |grad|_K:  6.734e-08  alpha:  7.537e-01  linmin:  2.326e-03  t[s]:   2847.79
ElecMinimize: Converged (|Delta Etot|<1.000000e-08 for 2 iters).
Setting wave functions to eigenvectors of Hamiltonian
IonicMinimize: 	Predicted alpha/alphaT>3.000000, increasing alphaT to 3.000000e+00.

Computing DFT-D3 correction:
# coordination-number S 1.978
# coordination-number Na 1.129 1.129
# diagonal-C6 S 125.92
# diagonal-C6 Na 190.42 190.42
EvdW_6 =   -0.000053
EvdW_8 =   -0.000834

-------- Electronic minimization -----------
	Linear fluid (dielectric constant: 64) occupying 0.997138 of unit cell:	Completed after 18 iterations at t[s]:   2879.53
ElecMinimize: Iter:   0  Etot: -105.681595416597190  |grad|_K:  5.062e-04  alpha:  1.000e+00
	Linear fluid (dielectric constant: 64) occupying 0.997127 of unit cell:	Completed after 24 iterations at t[s]:   2923.61
	Linear fluid (dielectric constant: 64) occupying 0.997134 of unit cell:	Completed after 19 iterations at t[s]:   2958.88
ElecMinimize: Iter:   1  Etot: -105.794570869360768  |grad|_K:  1.083e-04  alpha:  3.397e-01  linmin: -9.264e-03  t[s]:   2963.17
	Linear fluid (dielectric constant: 64) occupying 0.997126 of unit cell:	Completed after 14 iterations at t[s]:   2988.98
	Linear fluid (dielectric constant: 64) occupying 0.997124 of unit cell:	Completed after 9 iterations at t[s]:   3010.03
ElecMinimize: Iter:   2  Etot: -105.801023099946491  |grad|_K:  5.876e-05  alpha:  4.167e-01  linmin: -2.712e-04  t[s]:   3014.37
	Linear fluid (dielectric constant: 64) occupying 0.997122 of unit cell:	Completed after 10 iterations at t[s]:   3035.18
	Linear fluid (dielectric constant: 64) occupying 0.997122 of unit cell:	Completed after 3 iterations at t[s]:   3048.51
ElecMinimize: Iter:   3  Etot: -105.802806851153122  |grad|_K:  2.393e-05  alpha:  3.926e-01  linmin: -1.323e-04  t[s]:   3052.87
	Linear fluid (dielectric constant: 64) occupying 0.997121 of unit cell:	Completed after 9 iterations at t[s]:   3071.84
	Linear fluid (dielectric constant: 64) occupying 0.997121 of unit cell:	Completed after 5 iterations at t[s]:   3087.96
ElecMinimize: Iter:   4  Etot: -105.803251411282972  |grad|_K:  1.391e-05  alpha:  5.891e-01  linmin: -3.742e-03  t[s]:   3092.31
	Linear fluid (dielectric constant: 64) occupying 0.997121 of unit cell:	Completed after 5 iterations at t[s]:   3105.63
	Linear fluid (dielectric constant: 64) occupying 0.997121 of unit cell:	Completed after 3 iterations at t[s]:   3119.17
ElecMinimize: Iter:   5  Etot: -105.803369426372228  |grad|_K:  8.319e-06  alpha:  4.647e-01  linmin: -2.259e-03  t[s]:   3123.55
	Linear fluid (dielectric constant: 64) occupying 0.997121 of unit cell:	Completed after 4 iterations at t[s]:   3135.59
	Linear fluid (dielectric constant: 64) occupying 0.997121 of unit cell:	Completed after 3 iterations at t[s]:   3148.84
ElecMinimize: Iter:   6  Etot: -105.803445517261125  |grad|_K:  4.872e-06  alpha:  8.321e-01  linmin: -5.606e-03  t[s]:   3153.18
	Linear fluid (dielectric constant: 64) occupying 0.997121 of unit cell:	Completed after 4 iterations at t[s]:   3165.19
	Linear fluid (dielectric constant: 64) occupying 0.997121 of unit cell:	Completed after 0 iterations at t[s]:   3172.87
ElecMinimize: Iter:   7  Etot: -105.803472318397851  |grad|_K:  3.363e-06  alpha:  8.519e-01  linmin: -7.237e-03  t[s]:   3177.52
	Linear fluid (dielectric constant: 64) occupying 0.997121 of unit cell:	Completed after 4 iterations at t[s]:   3189.29
	Linear fluid (dielectric constant: 64) occupying 0.997121 of unit cell:	Completed after 0 iterations at t[s]:   3197.00
ElecMinimize: Iter:   8  Etot: -105.803481303200726  |grad|_K:  3.205e-06  alpha:  5.757e-01  linmin:  4.509e-02  t[s]:   3201.36
	Linear fluid (dielectric constant: 64) occupying 0.997120 of unit cell:	Completed after 3 iterations at t[s]:   3212.29
	Linear fluid (dielectric constant: 64) occupying 0.997120 of unit cell:	Completed after 0 iterations at t[s]:   3219.85
ElecMinimize: Iter:   9  Etot: -105.803485050080411  |grad|_K:  2.241e-06  alpha:  3.212e-01  linmin:  7.077e-02  t[s]:   3224.14
	Linear fluid (dielectric constant: 64) occupying 0.997120 of unit cell:	Completed after 2 iterations at t[s]:   3233.44
	Linear fluid (dielectric constant: 64) occupying 0.997120 of unit cell:	Completed after 0 iterations at t[s]:   3241.10
ElecMinimize: Iter:  10  Etot: -105.803486919641315  |grad|_K:  1.307e-06  alpha:  3.223e-01  linmin: -3.140e-01  t[s]:   3245.39
	Linear fluid (dielectric constant: 64) occupying 0.997120 of unit cell:	Completed after 0 iterations at t[s]:   3250.74
	Linear fluid (dielectric constant: 64) occupying 0.997120 of unit cell:	Completed after 0 iterations at t[s]:   3259.82
ElecMinimize: Iter:  11  Etot: -105.803489247941599  |grad|_K:  1.344e-06  alpha:  7.992e-01  linmin:  8.199e-03  t[s]:   3264.11
	Linear fluid (dielectric constant: 64) occupying 0.997119 of unit cell:	Completed after 1 iterations at t[s]:   3272.41
	Linear fluid (dielectric constant: 64) occupying 0.997119 of unit cell:	Completed after 0 iterations at t[s]:   3279.97
ElecMinimize: Iter:  12  Etot: -105.803490649268809  |grad|_K:  1.113e-06  alpha:  6.285e-01  linmin: -1.868e-02  t[s]:   3284.14
	Linear fluid (dielectric constant: 64) occupying 0.997119 of unit cell:	Completed after 0 iterations at t[s]:   3289.40
	Linear fluid (dielectric constant: 64) occupying 0.997119 of unit cell:	Completed after 0 iterations at t[s]:   3297.06
ElecMinimize: Iter:  13  Etot: -105.803491661162056  |grad|_K:  9.661e-07  alpha:  5.908e-01  linmin: -2.790e-06  t[s]:   3301.54
	Linear fluid (dielectric constant: 64) occupying 0.997118 of unit cell:	Completed after 0 iterations at t[s]:   3306.86
	Linear fluid (dielectric constant: 64) occupying 0.997118 of unit cell:	Completed after 0 iterations at t[s]:   3314.39
ElecMinimize: Iter:  14  Etot: -105.803492402911502  |grad|_K:  7.713e-07  alpha:  6.039e-01  linmin:  1.773e-06  t[s]:   3318.78
	Linear fluid (dielectric constant: 64) occupying 0.997118 of unit cell:	Completed after 0 iterations at t[s]:   3324.06
	Linear fluid (dielectric constant: 64) occupying 0.997118 of unit cell:	Completed after 0 iterations at t[s]:   3331.81
ElecMinimize: Iter:  15  Etot: -105.803492918448583  |grad|_K:  7.537e-07  alpha:  6.584e-01  linmin:  3.244e-06  t[s]:   3336.07
	Linear fluid (dielectric constant: 64) occupying 0.997118 of unit cell:	Completed after 3 iterations at t[s]:   3346.60
	Linear fluid (dielectric constant: 64) occupying 0.997118 of unit cell:	Completed after 0 iterations at t[s]:   3354.34
ElecMinimize: 	Step increased Etot by 4.572960e-07, reducing alpha to 1.858670e-02.
	Linear fluid (dielectric constant: 64) occupying 0.997118 of unit cell:	Completed after 0 iterations at t[s]:   3364.02
ElecMinimize: 	Step increased Etot by 4.686922e-07, reducing alpha to 1.858670e-03.
	Linear fluid (dielectric constant: 64) occupying 0.997118 of unit cell:	Completed after 0 iterations at t[s]:   3373.45
ElecMinimize: 	Step increased Etot by 4.732366e-07, reducing alpha to 1.858670e-04.
ElecMinimize: 	Step failed to reduce Etot after 3 attempts. Quitting step.
ElecMinimize: 	Undoing step.
	Linear fluid (dielectric constant: 64) occupying 0.997118 of unit cell:	Completed after 0 iterations at t[s]:   3382.97
ElecMinimize: 	Step failed: resetting search direction.
ElecMinimize: Iter:  16  Etot: -105.803492445161908  |grad|_K:  8.274e-07  alpha:  1.859e-04
	Linear fluid (dielectric constant: 64) occupying 0.997118 of unit cell:	Completed after 0 iterations at t[s]:   3392.79
	Linear fluid (dielectric constant: 64) occupying 0.997118 of unit cell:	Completed after 0 iterations at t[s]:   3400.36
ElecMinimize: Iter:  17  Etot: -105.803493006887422  |grad|_K:  6.066e-07  alpha:  6.235e-01  linmin:  2.394e-06  t[s]:   3404.78
	Linear fluid (dielectric constant: 64) occupying 0.997118 of unit cell:	Completed after 1 iterations at t[s]:   3412.58
	Linear fluid (dielectric constant: 64) occupying 0.997118 of unit cell:	Completed after 0 iterations at t[s]:   3420.27
ElecMinimize: 	Step increased Etot by 1.232257e-07, reducing alpha to 2.812251e-02.
	Linear fluid (dielectric constant: 64) occupying 0.997118 of unit cell:	Completed after 0 iterations at t[s]:   3429.76
ElecMinimize: 	Step increased Etot by 2.264982e-07, reducing alpha to 2.812251e-03.
	Linear fluid (dielectric constant: 64) occupying 0.997118 of unit cell:	Completed after 0 iterations at t[s]:   3439.08
ElecMinimize: 	Step increased Etot by 2.396558e-07, reducing alpha to 2.812251e-04.
ElecMinimize: 	Step failed to reduce Etot after 3 attempts. Quitting step.
ElecMinimize: 	Undoing step.
	Linear fluid (dielectric constant: 64) occupying 0.997118 of unit cell:	Completed after 0 iterations at t[s]:   3448.52
ElecMinimize: 	Step failed: resetting search direction.
ElecMinimize: Iter:  18  Etot: -105.803492767079476  |grad|_K:  5.545e-07  alpha:  2.812e-04
	Linear fluid (dielectric constant: 64) occupying 0.997118 of unit cell:	Completed after 0 iterations at t[s]:   3458.22
	Linear fluid (dielectric constant: 64) occupying 0.997118 of unit cell:	Completed after 0 iterations at t[s]:   3465.90
ElecMinimize: Iter:  19  Etot: -105.803492956604558  |grad|_K:  3.167e-07  alpha:  4.684e-01  linmin:  7.552e-06  t[s]:   3470.21
	Linear fluid (dielectric constant: 64) occupying 0.997118 of unit cell:	Completed after 0 iterations at t[s]:   3475.55
ElecMinimize: 	Predicted alpha/alphaT>3.000000, increasing alphaT to 1.405316e+00.
	Linear fluid (dielectric constant: 64) occupying 0.997119 of unit cell:	Completed after 0 iterations at t[s]:   3484.71
	Linear fluid (dielectric constant: 64) occupying 0.997119 of unit cell:	Completed after 0 iterations at t[s]:   3492.19
ElecMinimize: Iter:  20  Etot: -105.803492991059528  |grad|_K:  2.500e-07  alpha:  8.148e-01  linmin: -2.063e-01  t[s]:   3496.54
	Linear fluid (dielectric constant: 64) occupying 0.997119 of unit cell:	Completed after 0 iterations at t[s]:   3501.69
	Linear fluid (dielectric constant: 64) occupying 0.997119 of unit cell:	Completed after 0 iterations at t[s]:   3509.41
ElecMinimize: Iter:  21  Etot: -105.803493079045637  |grad|_K:  2.491e-07  alpha:  8.418e-01  linmin:  1.877e-05  t[s]:   3513.90
	Linear fluid (dielectric constant: 64) occupying 0.997119 of unit cell:	Completed after 0 iterations at t[s]:   3519.17
	Linear fluid (dielectric constant: 64) occupying 0.997119 of unit cell:	Completed after 0 iterations at t[s]:   3526.80
ElecMinimize: Iter:  22  Etot: -105.803493144047152  |grad|_K:  1.674e-07  alpha:  7.960e-01  linmin:  9.272e-06  t[s]:   3531.12
	Linear fluid (dielectric constant: 64) occupying 0.997119 of unit cell:	Completed after 0 iterations at t[s]:   3536.46
	Linear fluid (dielectric constant: 64) occupying 0.997119 of unit cell:	Completed after 0 iterations at t[s]:   3544.44
ElecMinimize: Iter:  23  Etot: -105.803493171311544  |grad|_K:  1.422e-07  alpha:  7.395e-01  linmin:  1.167e-04  t[s]:   3548.86
	Linear fluid (dielectric constant: 64) occupying 0.997119 of unit cell:	Completed after 0 iterations at t[s]:   3554.22
	Linear fluid (dielectric constant: 64) occupying 0.997119 of unit cell:	Completed after 0 iterations at t[s]:   3561.75
ElecMinimize: Iter:  24  Etot: -105.803493191593702  |grad|_K:  1.240e-07  alpha:  7.625e-01  linmin: -1.436e-04  t[s]:   3566.01
	Linear fluid (dielectric constant: 64) occupying 0.997120 of unit cell:	Completed after 0 iterations at t[s]:   3572.73
	Linear fluid (dielectric constant: 64) occupying 0.997119 of unit cell:	Completed after 0 iterations at t[s]:   3580.46
ElecMinimize: 	Step increased Etot by 1.093324e-07, reducing alpha to 8.648356e-03.
	Linear fluid (dielectric constant: 64) occupying 0.997119 of unit cell:	Completed after 0 iterations at t[s]:   3589.78
ElecMinimize: 	Step increased Etot by 1.110715e-07, reducing alpha to 8.648356e-04.
	Linear fluid (dielectric constant: 64) occupying 0.997119 of unit cell:	Completed after 0 iterations at t[s]:   3599.14
ElecMinimize: 	Step increased Etot by 1.112595e-07, reducing alpha to 8.648356e-05.
ElecMinimize: 	Step failed to reduce Etot after 3 attempts. Quitting step.
ElecMinimize: 	Undoing step.
	Linear fluid (dielectric constant: 64) occupying 0.997119 of unit cell:	Completed after 0 iterations at t[s]:   3608.55
ElecMinimize: 	Step failed: resetting search direction.
ElecMinimize: Iter:  25  Etot: -105.803493080333624  |grad|_K:  1.558e-07  alpha:  8.648e-05
	Linear fluid (dielectric constant: 64) occupying 0.997119 of unit cell:	Completed after 0 iterations at t[s]:   3618.09
	Linear fluid (dielectric constant: 64) occupying 0.997119 of unit cell:	Completed after 0 iterations at t[s]:   3625.77
ElecMinimize: Iter:  26  Etot: -105.803493113506477  |grad|_K:  1.573e-07  alpha:  1.038e+00  linmin:  6.523e-05  t[s]:   3630.06
	Linear fluid (dielectric constant: 64) occupying 0.997120 of unit cell:	Completed after 0 iterations at t[s]:   3635.54
	Linear fluid (dielectric constant: 64) occupying 0.997120 of unit cell:	Completed after 0 iterations at t[s]:   3643.18
ElecMinimize: Iter:  27  Etot: -105.803493138816947  |grad|_K:  1.006e-07  alpha:  7.772e-01  linmin:  1.262e-05  t[s]:   3647.55
	Linear fluid (dielectric constant: 64) occupying 0.997120 of unit cell:	Completed after 0 iterations at t[s]:   3652.79
	Linear fluid (dielectric constant: 64) occupying 0.997120 of unit cell:	Completed after 0 iterations at t[s]:   3660.47
ElecMinimize: Iter:  28  Etot: -105.803493146346369  |grad|_K:  5.179e-08  alpha:  5.657e-01  linmin: -1.954e-04  t[s]:   3664.82
	Linear fluid (dielectric constant: 64) occupying 0.997120 of unit cell:	Completed after 0 iterations at t[s]:   3670.25
	Linear fluid (dielectric constant: 64) occupying 0.997120 of unit cell:	Completed after 0 iterations at t[s]:   3677.81
ElecMinimize: Iter:  29  Etot: -105.803493148625705  |grad|_K:  4.065e-08  alpha:  6.468e-01  linmin:  4.501e-04  t[s]:   3682.13
ElecMinimize: Converged (|Delta Etot|<1.000000e-08 for 2 iters).
Setting wave functions to eigenvectors of Hamiltonian
IonicMinimize: 	Predicted alpha/alphaT>3.000000, increasing alphaT to 9.000000e+00.

Computing DFT-D3 correction:
# coordination-number S 1.937
# coordination-number Na 1.060 1.060
# diagonal-C6 S 125.96
# diagonal-C6 Na 193.51 193.51
EvdW_6 =   -0.000071
EvdW_8 =   -0.000917

-------- Electronic minimization -----------
	Linear fluid (dielectric constant: 64) occupying 0.997109 of unit cell:	Completed after 24 iterations at t[s]:   3722.65
ElecMinimize: Iter:   0  Etot: -104.676314616778825  |grad|_K:  1.630e-03  alpha:  1.000e+00
	Linear fluid (dielectric constant: 64) occupying 0.997114 of unit cell:	Completed after 39 iterations at t[s]:   3788.05
	Linear fluid (dielectric constant: 64) occupying 0.997111 of unit cell:	Completed after 29 iterations at t[s]:   3837.06
ElecMinimize: Iter:   1  Etot: -105.685907102646851  |grad|_K:  4.578e-04  alpha:  3.345e-01  linmin: -1.808e-01  t[s]:   3841.45
	Linear fluid (dielectric constant: 64) occupying 0.997079 of unit cell:	Completed after 21 iterations at t[s]:   3877.41
	Linear fluid (dielectric constant: 64) occupying 0.997080 of unit cell:	Completed after 9 iterations at t[s]:   3899.09
ElecMinimize: Iter:   2  Etot: -105.780703788964786  |grad|_K:  1.928e-04  alpha:  3.221e-01  linmin:  1.055e-02  t[s]:   3903.48
	Linear fluid (dielectric constant: 64) occupying 0.997070 of unit cell:	Completed after 17 iterations at t[s]:   3933.94
	Linear fluid (dielectric constant: 64) occupying 0.997065 of unit cell:	Completed after 13 iterations at t[s]:   3960.91
ElecMinimize: Iter:   3  Etot: -105.805076505062999  |grad|_K:  8.153e-05  alpha:  5.014e-01  linmin: -2.783e-03  t[s]:   3965.15
	Linear fluid (dielectric constant: 64) occupying 0.997063 of unit cell:	Completed after 12 iterations at t[s]:   3988.40
	Linear fluid (dielectric constant: 64) occupying 0.997063 of unit cell:	Completed after 2 iterations at t[s]:   4000.29
ElecMinimize: Iter:   4  Etot: -105.809339828079146  |grad|_K:  4.970e-05  alpha:  4.863e-01  linmin:  8.349e-04  t[s]:   4004.72
[...]
ElecMinimize: Iter:  13  Etot: -105.838344525121371  |grad|_K:  5.044e-07  alpha:  3.920e-01  linmin:  5.213e-05  t[s]:  94230.16
	Linear fluid (dielectric constant: 64) occupying 0.996768 of unit cell:	Completed after 2 iterations at t[s]:  94239.68
	Linear fluid (dielectric constant: 64) occupying 0.996769 of unit cell:	Completed after 0 iterations at t[s]:  94247.35
ElecMinimize: 	Step increased Etot by 4.185840e-07, reducing alpha to 6.991640e-03.
	Linear fluid (dielectric constant: 64) occupying 0.996769 of unit cell:	Completed after 0 iterations at t[s]:  94256.90
ElecMinimize: 	Step increased Etot by 4.153829e-07, reducing alpha to 6.991640e-04.
	Linear fluid (dielectric constant: 64) occupying 0.996769 of unit cell:	Completed after 0 iterations at t[s]:  94266.53
ElecMinimize: 	Step increased Etot by 4.151946e-07, reducing alpha to 6.991640e-05.
ElecMinimize: 	Step failed to reduce Etot after 3 attempts. Quitting step.
ElecMinimize: 	Undoing step.
	Linear fluid (dielectric constant: 64) occupying 0.996769 of unit cell:	Completed after 0 iterations at t[s]:  94276.44
ElecMinimize: 	Step failed: resetting search direction.
ElecMinimize: Iter:  14  Etot: -105.838344109926339  |grad|_K:  8.010e-07  alpha:  6.992e-05
	Linear fluid (dielectric constant: 64) occupying 0.996769 of unit cell:	Completed after 0 iterations at t[s]:  94286.05
	Linear fluid (dielectric constant: 64) occupying 0.996769 of unit cell:	Completed after 0 iterations at t[s]:  94293.58
ElecMinimize: Iter:  15  Etot: -105.838344533325426  |grad|_K:  5.069e-07  alpha:  5.015e-01  linmin: -1.184e-04  t[s]:  94298.14
	Linear fluid (dielectric constant: 64) occupying 0.996769 of unit cell:	Completed after 1 iterations at t[s]:  94306.08
	Linear fluid (dielectric constant: 64) occupying 0.996769 of unit cell:	Completed after 0 iterations at t[s]:  94313.65
ElecMinimize: 	Step increased Etot by 1.804713e-07, reducing alpha to 1.702807e-02.
	Linear fluid (dielectric constant: 64) occupying 0.996769 of unit cell:	Completed after 0 iterations at t[s]:  94323.10
ElecMinimize: 	Step increased Etot by 2.111377e-07, reducing alpha to 1.702807e-03.
	Linear fluid (dielectric constant: 64) occupying 0.996769 of unit cell:	Completed after 0 iterations at t[s]:  94332.70
ElecMinimize: 	Step increased Etot by 2.149480e-07, reducing alpha to 1.702807e-04.
ElecMinimize: 	Step failed to reduce Etot after 3 attempts. Quitting step.
ElecMinimize: 	Undoing step.
	Linear fluid (dielectric constant: 64) occupying 0.996769 of unit cell:	Completed after 0 iterations at t[s]:  94342.07
ElecMinimize: 	Step failed: resetting search direction.
ElecMinimize: Iter:  16  Etot: -105.838344318332418  |grad|_K:  5.309e-07  alpha:  1.703e-04
	Linear fluid (dielectric constant: 64) occupying 0.996769 of unit cell:	Completed after 0 iterations at t[s]:  94351.74
	Linear fluid (dielectric constant: 64) occupying 0.996769 of unit cell:	Completed after 0 iterations at t[s]:  94359.60
ElecMinimize: Iter:  17  Etot: -105.838344480297550  |grad|_K:  3.061e-07  alpha:  4.367e-01  linmin:  4.729e-05  t[s]:  94363.92
	Linear fluid (dielectric constant: 64) occupying 0.996769 of unit cell:	Completed after 0 iterations at t[s]:  94369.29
	Linear fluid (dielectric constant: 64) occupying 0.996768 of unit cell:	Completed after 0 iterations at t[s]:  94376.95
ElecMinimize: Iter:  18  Etot: -105.838344625058625  |grad|_K:  3.568e-07  alpha:  1.174e+00  linmin:  9.987e-05  t[s]:  94381.39
	Linear fluid (dielectric constant: 64) occupying 0.996768 of unit cell:	Completed after 0 iterations at t[s]:  94388.17
	Linear fluid (dielectric constant: 64) occupying 0.996768 of unit cell:	Completed after 0 iterations at t[s]:  94395.80
ElecMinimize: 	Step increased Etot by 1.765147e-08, reducing alpha to 4.975719e-02.
	Linear fluid (dielectric constant: 64) occupying 0.996768 of unit cell:	Completed after 0 iterations at t[s]:  94405.12
ElecMinimize: 	Step increased Etot by 9.597841e-08, reducing alpha to 4.975719e-03.
	Linear fluid (dielectric constant: 64) occupying 0.996768 of unit cell:	Completed after 0 iterations at t[s]:  94414.57
ElecMinimize: 	Step increased Etot by 1.087828e-07, reducing alpha to 4.975719e-04.
ElecMinimize: 	Step failed to reduce Etot after 3 attempts. Quitting step.
ElecMinimize: 	Undoing step.
	Linear fluid (dielectric constant: 64) occupying 0.996768 of unit cell:	Completed after 0 iterations at t[s]:  94423.93
ElecMinimize: 	Step failed: resetting search direction.
ElecMinimize: Iter:  19  Etot: -105.838344516126398  |grad|_K:  4.038e-07  alpha:  4.976e-04
	Linear fluid (dielectric constant: 64) occupying 0.996769 of unit cell:	Completed after 0 iterations at t[s]:  94433.50
	Linear fluid (dielectric constant: 64) occupying 0.996769 of unit cell:	Completed after 0 iterations at t[s]:  94441.10
ElecMinimize: Iter:  20  Etot: -105.838344617036924  |grad|_K:  2.487e-07  alpha:  4.704e-01  linmin:  3.918e-05  t[s]:  94445.41
	Linear fluid (dielectric constant: 64) occupying 0.996769 of unit cell:	Completed after 0 iterations at t[s]:  94450.89
	Linear fluid (dielectric constant: 64) occupying 0.996769 of unit cell:	Completed after 0 iterations at t[s]:  94458.57
ElecMinimize: Iter:  21  Etot: -105.838344702300930  |grad|_K:  2.923e-07  alpha:  1.048e+00  linmin: -1.801e-04  t[s]:  94462.87
	Linear fluid (dielectric constant: 64) occupying 0.996769 of unit cell:	Completed after 0 iterations at t[s]:  94469.61
	Linear fluid (dielectric constant: 64) occupying 0.996769 of unit cell:	Completed after 0 iterations at t[s]:  94477.23
ElecMinimize: 	Step increased Etot by 1.696822e-08, reducing alpha to 4.626030e-02.
	Linear fluid (dielectric constant: 64) occupying 0.996769 of unit cell:	Completed after 0 iterations at t[s]:  94486.80
ElecMinimize: 	Step increased Etot by 4.360433e-08, reducing alpha to 4.626030e-03.
	Linear fluid (dielectric constant: 64) occupying 0.996769 of unit cell:	Completed after 0 iterations at t[s]:  94496.06
ElecMinimize: 	Step increased Etot by 4.795520e-08, reducing alpha to 4.626030e-04.
ElecMinimize: 	Step failed to reduce Etot after 3 attempts. Quitting step.
ElecMinimize: 	Undoing step.
	Linear fluid (dielectric constant: 64) occupying 0.996769 of unit cell:	Completed after 0 iterations at t[s]:  94505.56
ElecMinimize: 	Step failed: resetting search direction.
ElecMinimize: Iter:  22  Etot: -105.838344654294815  |grad|_K:  3.440e-07  alpha:  4.626e-04
	Linear fluid (dielectric constant: 64) occupying 0.996768 of unit cell:	Completed after 0 iterations at t[s]:  94515.18
	Linear fluid (dielectric constant: 64) occupying 0.996769 of unit cell:	Completed after 0 iterations at t[s]:  94522.80
ElecMinimize: Iter:  23  Etot: -105.838344733193935  |grad|_K:  2.128e-07  alpha:  5.065e-01  linmin: -8.355e-06  t[s]:  94527.15
	Linear fluid (dielectric constant: 64) occupying 0.996768 of unit cell:	Completed after 0 iterations at t[s]:  94532.38
	Linear fluid (dielectric constant: 64) occupying 0.996768 of unit cell:	Completed after 0 iterations at t[s]:  94540.14
ElecMinimize: Iter:  24  Etot: -105.838344781687539  |grad|_K:  2.059e-07  alpha:  8.137e-01  linmin:  3.093e-04  t[s]:  94544.52
	Linear fluid (dielectric constant: 64) occupying 0.996768 of unit cell:	Completed after 0 iterations at t[s]:  94550.96
	Linear fluid (dielectric constant: 64) occupying 0.996768 of unit cell:	Completed after 0 iterations at t[s]:  94558.51
ElecMinimize: 	Step increased Etot by 5.861114e-08, reducing alpha to 2.578903e-02.
	Linear fluid (dielectric constant: 64) occupying 0.996768 of unit cell:	Completed after 0 iterations at t[s]:  94568.08
ElecMinimize: 	Step increased Etot by 6.938215e-08, reducing alpha to 2.578903e-03.
	Linear fluid (dielectric constant: 64) occupying 0.996768 of unit cell:	Completed after 0 iterations at t[s]:  94577.60
ElecMinimize: 	Step increased Etot by 7.072201e-08, reducing alpha to 2.578903e-04.
ElecMinimize: 	Step failed to reduce Etot after 3 attempts. Quitting step.
ElecMinimize: 	Undoing step.
	Linear fluid (dielectric constant: 64) occupying 0.996768 of unit cell:	Completed after 0 iterations at t[s]:  94586.93
ElecMinimize: 	Step failed: resetting search direction.
ElecMinimize: Iter:  25  Etot: -105.838344710952256  |grad|_K:  2.373e-07  alpha:  2.579e-04
	Linear fluid (dielectric constant: 64) occupying 0.996769 of unit cell:	Completed after 0 iterations at t[s]:  94596.60
	Linear fluid (dielectric constant: 64) occupying 0.996768 of unit cell:	Completed after 0 iterations at t[s]:  94604.24
ElecMinimize: Iter:  26  Etot: -105.838344751637138  |grad|_K:  1.680e-07  alpha:  5.487e-01  linmin: -3.429e-05  t[s]:  94608.58
	Linear fluid (dielectric constant: 64) occupying 0.996769 of unit cell:	Completed after 0 iterations at t[s]:  94613.72
	Linear fluid (dielectric constant: 64) occupying 0.996769 of unit cell:	Completed after 0 iterations at t[s]:  94621.36
ElecMinimize: Iter:  27  Etot: -105.838344786848126  |grad|_K:  1.974e-07  alpha:  9.474e-01  linmin: -1.394e-04  t[s]:  94625.63
	Linear fluid (dielectric constant: 64) occupying 0.996769 of unit cell:	Completed after 0 iterations at t[s]:  94630.97
	Linear fluid (dielectric constant: 64) occupying 0.996769 of unit cell:	Completed after 0 iterations at t[s]:  94640.05
ElecMinimize: 	Step increased Etot by 6.733669e-08, reducing alpha to 2.121428e-01.
	Linear fluid (dielectric constant: 64) occupying 0.996769 of unit cell:	Completed after 0 iterations at t[s]:  94649.54
ElecMinimize: Iter:  28  Etot: -105.838344812807975  |grad|_K:  2.749e-07  alpha:  2.121e-01  linmin:  6.576e-03  t[s]:  94653.76
	Linear fluid (dielectric constant: 64) occupying 0.996769 of unit cell:	Completed after 0 iterations at t[s]:  94659.16
	Linear fluid (dielectric constant: 64) occupying 0.996769 of unit cell:	Completed after 0 iterations at t[s]:  94666.91
ElecMinimize: Iter:  29  Etot: -105.838344847639945  |grad|_K:  2.307e-07  alpha:  3.597e-01  linmin:  7.227e-05  t[s]:  94671.20
	Linear fluid (dielectric constant: 64) occupying 0.996769 of unit cell:	Completed after 0 iterations at t[s]:  94676.48
	Linear fluid (dielectric constant: 64) occupying 0.996768 of unit cell:	Completed after 0 iterations at t[s]:  94684.12
ElecMinimize: Iter:  30  Etot: -105.838344896567492  |grad|_K:  2.970e-07  alpha:  6.986e-01  linmin: -8.251e-05  t[s]:  94688.50
	Linear fluid (dielectric constant: 64) occupying 0.996768 of unit cell:	Completed after 0 iterations at t[s]:  94695.41
	Linear fluid (dielectric constant: 64) occupying 0.996768 of unit cell:	Completed after 0 iterations at t[s]:  94703.00
ElecMinimize: 	Step increased Etot by 6.688620e-08, reducing alpha to 1.912177e-02.
	Linear fluid (dielectric constant: 64) occupying 0.996768 of unit cell:	Completed after 0 iterations at t[s]:  94712.18
ElecMinimize: 	Step increased Etot by 6.651942e-08, reducing alpha to 1.912177e-03.
	Linear fluid (dielectric constant: 64) occupying 0.996768 of unit cell:	Completed after 0 iterations at t[s]:  94721.71
ElecMinimize: 	Step increased Etot by 6.710337e-08, reducing alpha to 1.912177e-04.
ElecMinimize: 	Step failed to reduce Etot after 3 attempts. Quitting step.
ElecMinimize: 	Undoing step.
	Linear fluid (dielectric constant: 64) occupying 0.996768 of unit cell:	Completed after 0 iterations at t[s]:  94731.44
ElecMinimize: 	Step failed: resetting search direction.
ElecMinimize: Iter:  31  Etot: -105.838344829454300  |grad|_K:  2.987e-07  alpha:  1.912e-04
	Linear fluid (dielectric constant: 64) occupying 0.996769 of unit cell:	Completed after 0 iterations at t[s]:  94740.98
	Linear fluid (dielectric constant: 64) occupying 0.996769 of unit cell:	Completed after 0 iterations at t[s]:  94748.63
ElecMinimize: Iter:  32  Etot: -105.838344882949599  |grad|_K:  9.181e-08  alpha:  4.557e-01  linmin: -1.784e-05  t[s]:  94753.09
	Linear fluid (dielectric constant: 64) occupying 0.996769 of unit cell:	Completed after 0 iterations at t[s]:  94758.66
	Linear fluid (dielectric constant: 64) occupying 0.996769 of unit cell:	Completed after 0 iterations at t[s]:  94766.29
ElecMinimize: Iter:  33  Etot: -105.838344887144956  |grad|_K:  3.854e-08  alpha:  3.778e-01  linmin:  1.224e-03  t[s]:  94770.63
	Linear fluid (dielectric constant: 64) occupying 0.996769 of unit cell:	Completed after 0 iterations at t[s]:  94775.82
ElecMinimize: 	Predicted alpha/alphaT>3.000000, increasing alphaT to 1.133481e+00.
	Linear fluid (dielectric constant: 64) occupying 0.996769 of unit cell:	Completed after 0 iterations at t[s]:  94783.53
	Linear fluid (dielectric constant: 64) occupying 0.996769 of unit cell:	Completed after 0 iterations at t[s]:  94791.20
ElecMinimize: Iter:  34  Etot: -105.838344889964588  |grad|_K:  5.572e-08  alpha:  1.440e+00  linmin: -1.051e-03  t[s]:  94795.59
ElecMinimize: Converged (|Delta Etot|<1.000000e-08 for 2 iters).
Setting wave functions to eigenvectors of Hamiltonian

Computing DFT-D3 correction:
# coordination-number S 0.110
# coordination-number Na 0.154 0.154
# diagonal-C6 S 133.87
# diagonal-C6 Na 1453.03 1453.40
EvdW_6 =   -0.000990
EvdW_8 =   -0.007753

-------- Electronic minimization -----------
	Linear fluid (dielectric constant: 64) occupying 0.996769 of unit cell:	Completed after 3 iterations at t[s]:  94806.89
ElecMinimize: Iter:   0  Etot: -105.838345293118039  |grad|_K:  5.457e-07  alpha:  1.000e+00
	Linear fluid (dielectric constant: 64) occupying 0.996768 of unit cell:	Completed after 0 iterations at t[s]:  94818.36
	Linear fluid (dielectric constant: 64) occupying 0.996768 of unit cell:	Completed after 0 iterations at t[s]:  94826.01
ElecMinimize: Iter:   1  Etot: -105.838345578797430  |grad|_K:  2.888e-07  alpha:  8.018e-01  linmin: -1.751e-01  t[s]:  94830.36
	Linear fluid (dielectric constant: 64) occupying 0.996768 of unit cell:	Completed after 0 iterations at t[s]:  94835.73
	Linear fluid (dielectric constant: 64) occupying 0.996768 of unit cell:	Completed after 0 iterations at t[s]:  94843.51
ElecMinimize: Iter:   2  Etot: -105.838345696913422  |grad|_K:  2.503e-07  alpha:  9.446e-01  linmin:  2.234e-05  t[s]:  94847.90
	Linear fluid (dielectric constant: 64) occupying 0.996768 of unit cell:	Completed after 1 iterations at t[s]:  94855.91
	Linear fluid (dielectric constant: 64) occupying 0.996768 of unit cell:	Completed after 0 iterations at t[s]:  94865.02
ElecMinimize: 	Step increased Etot by 4.090048e-07, reducing alpha to 1.221216e-02.
	Linear fluid (dielectric constant: 64) occupying 0.996768 of unit cell:	Completed after 0 iterations at t[s]:  94874.73
ElecMinimize: 	Step increased Etot by 3.991960e-07, reducing alpha to 1.221216e-03.
	Linear fluid (dielectric constant: 64) occupying 0.996768 of unit cell:	Completed after 0 iterations at t[s]:  94884.25
ElecMinimize: 	Step increased Etot by 3.983600e-07, reducing alpha to 1.221216e-04.
ElecMinimize: 	Step failed to reduce Etot after 3 attempts. Quitting step.
ElecMinimize: 	Undoing step.
	Linear fluid (dielectric constant: 64) occupying 0.996768 of unit cell:	Completed after 0 iterations at t[s]:  94893.55
ElecMinimize: 	Step failed: resetting search direction.
ElecMinimize: Iter:   3  Etot: -105.838345298562487  |grad|_K:  3.578e-07  alpha:  1.221e-04
	Linear fluid (dielectric constant: 64) occupying 0.996768 of unit cell:	Completed after 0 iterations at t[s]:  94903.17
	Linear fluid (dielectric constant: 64) occupying 0.996768 of unit cell:	Completed after 0 iterations at t[s]:  94910.79
ElecMinimize: Iter:   4  Etot: -105.838345437687281  |grad|_K:  3.097e-07  alpha:  8.259e-01  linmin: -1.348e-04  t[s]:  94915.11
	Linear fluid (dielectric constant: 64) occupying 0.996769 of unit cell:	Completed after 0 iterations at t[s]:  94921.78
	Linear fluid (dielectric constant: 64) occupying 0.996769 of unit cell:	Completed after 0 iterations at t[s]:  94929.30
ElecMinimize: 	Step increased Etot by 4.813987e-08, reducing alpha to 2.797361e-02.
	Linear fluid (dielectric constant: 64) occupying 0.996768 of unit cell:	Completed after 0 iterations at t[s]:  94939.04
ElecMinimize: 	Step increased Etot by 6.861839e-08, reducing alpha to 2.797361e-03.
	Linear fluid (dielectric constant: 64) occupying 0.996768 of unit cell:	Completed after 0 iterations at t[s]:  94948.31
ElecMinimize: 	Step increased Etot by 7.220066e-08, reducing alpha to 2.797361e-04.
ElecMinimize: 	Step failed to reduce Etot after 3 attempts. Quitting step.
ElecMinimize: 	Undoing step.
	Linear fluid (dielectric constant: 64) occupying 0.996768 of unit cell:	Completed after 0 iterations at t[s]:  94957.66
ElecMinimize: 	Step failed: resetting search direction.
ElecMinimize: Iter:   5  Etot: -105.838345365445250  |grad|_K:  2.814e-07  alpha:  2.797e-04
	Linear fluid (dielectric constant: 64) occupying 0.996768 of unit cell:	Completed after 0 iterations at t[s]:  94967.19
	Linear fluid (dielectric constant: 64) occupying 0.996768 of unit cell:	Completed after 0 iterations at t[s]:  94974.90
ElecMinimize: Iter:   6  Etot: -105.838345398564812  |grad|_K:  9.477e-08  alpha:  3.177e-01  linmin:  4.282e-05  t[s]:  94979.14
	Linear fluid (dielectric constant: 64) occupying 0.996768 of unit cell:	Completed after 0 iterations at t[s]:  94984.45
	Linear fluid (dielectric constant: 64) occupying 0.996768 of unit cell:	Completed after 0 iterations at t[s]:  94992.06
ElecMinimize: Iter:   7  Etot: -105.838345409303699  |grad|_K:  7.811e-08  alpha:  9.059e-01  linmin: -1.770e-03  t[s]:  94996.39
	Linear fluid (dielectric constant: 64) occupying 0.996768 of unit cell:	Completed after 0 iterations at t[s]:  95001.70
	Linear fluid (dielectric constant: 64) occupying 0.996768 of unit cell:	Completed after 0 iterations at t[s]:  95009.24
ElecMinimize: Iter:   8  Etot: -105.838345416924881  |grad|_K:  5.076e-08  alpha:  9.463e-01  linmin: -8.069e-04  t[s]:  95013.66
	Linear fluid (dielectric constant: 64) occupying 0.996768 of unit cell:	Completed after 0 iterations at t[s]:  95019.00
	Linear fluid (dielectric constant: 64) occupying 0.996768 of unit cell:	Completed after 0 iterations at t[s]:  95026.57
ElecMinimize: Iter:   9  Etot: -105.838345419390407  |grad|_K:  2.743e-08  alpha:  7.248e-01  linmin: -5.668e-05  t[s]:  95031.18
ElecMinimize: Converged (|Delta Etot|<1.000000e-08 for 2 iters).
Setting wave functions to eigenvectors of Hamiltonian

Computing DFT-D3 correction:
# coordination-number S 0.110
# coordination-number Na 0.154 0.154
# diagonal-C6 S 133.87
# diagonal-C6 Na 1453.03 1453.40
EvdW_6 =   -0.000990
EvdW_8 =   -0.007753

# Ionic positions in cartesian coordinates:
ion S   7.558921681833155   7.709204405663646  15.562996521705008 1
ion Na   3.471486892751626  13.890273844859124  15.377530516724613 1
ion Na  11.654511279555225  13.890633809077221  15.428132961570386 1

# Forces in Cartesian coordinates:
force S  -0.000000303160781   0.000531403099684   0.000003483742169 1
force Na   0.000071822980554   0.000290745905799   0.000023634694475 1
force Na  -0.000090023771069   0.000351488451244   0.000032002120344 1

# Energy components:
   A_diel =       -0.4758340859432704
   Eewald =       11.3729955916992012
       EH =       98.4281064913702153
     Eloc =      -76.9936964059326669
      Enl =     -142.1468230962310599
     EvdW =       -0.0087427303976969
      Exc =      -18.5574520593066552
 Exc_core =        1.7677289271785472
       KE =       20.7753719481729604
-------------------------------------
     Etot =     -105.8383454193904072

IonicMinimize: Iter:  29  Etot: -105.838345419390407  |grad|_K:  7.063e-05  alpha:  3.221e+01  linmin:  2.536e-01  t[s]:  95037.60
IonicMinimize: Converged (|grad|_K<1.000000e-04).

#--- Lowdin population analysis ---
# oxidation-state S -1.666
# oxidation-state Na +0.955 +0.955


Dumping 'Na2S-PC-vdw.wfns' ... done
Dumping 'Na2S-PC-vdw.fluidState' ... done
Dumping 'Na2S-PC-vdw.ionpos' ... done
End date and time: Wed Sep 25 23:41:35 2024  (Duration: 1-2:23:58.07)
Done!
