CRYSTAL
PRIMVEC
 14.820031   0.000000   0.000000
 -7.410015  12.834505   0.000000
  0.000000   0.000000  20.000041
PRIMCOORD
4 1
16   4.964385   6.555134  14.892414
16   3.171878   5.348200  14.934702
11   5.746681   3.395027  12.985419
11   2.279354   8.555105  13.154663
