
*************** JDFTx 1.7.0  ***************

Start date and time: Fri Sep 27 16:14:31 2024
Executable jdftx_gpu with command-line: -i /home/akim2/JDFTx/Na2S8-vdw/Na2S8-vdw.in -o /home/akim2/JDFTx/Na2S8-vdw/Na2S8-vdw.out
Running on hosts (process indices):  exp-4-58 (0)
Divided in process groups (process indices):  0 (0)
gpuInit: Found compatible cuda device 0 'Tesla V100-SXM2-32GB'
gpuInit: Selected device 0
Resource initialization completed at t[s]:      0.38
Run totals: 1 processes, 1 threads, 1 GPUs


Input parsed successfully to the following command list (including defaults):

basis kpoint-dependent
coords-type Cartesian
core-overlap-check vector
coulomb-interaction Isolated
coulomb-truncation-embed 5.2244 10.9463 20.5025
davidson-band-ratio 1.1
dump End State
dump-name Na2S8-vdw.$VAR
elec-cutoff 20 100
elec-eigen-algo Davidson
elec-ex-corr gga-PBE
electronic-minimize  \
	dirUpdateScheme      FletcherReeves \
	linminMethod         DirUpdateRecommended \
	nIterations          100 \
	history              15 \
	knormThreshold       0 \
	energyDiffThreshold  1e-08 \
	nEnergyDiff          2 \
	alphaTstart          1 \
	alphaTmin            1e-10 \
	updateTestStepSize   yes \
	alphaTreduceFactor   0.1 \
	alphaTincreaseFactor 3 \
	nAlphaAdjustMax      3 \
	wolfeEnergy          0.0001 \
	wolfeGradient        0.9 \
	fdTest               no
electronic-scf  \
	nIterations	50 \
	energyDiffThreshold	1e-08 \
	residualThreshold	1e-07 \
	mixFraction	0.5 \
	qMetric	0.8 \
	history	10 \
	nEigSteps	2 \
	eigDiffThreshold	1e-08 \
	mixedVariable	Density \
	qKerker	0.8 \
	qKappa	-1 \
	verbose	no \
	mixFractionMag	1.5
exchange-regularization None
fluid None
fluid-ex-corr lda-TF lda-PZ
fluid-gummel-loop 10 1.000000e-05
fluid-minimize  \
	dirUpdateScheme      PolakRibiere \
	linminMethod         DirUpdateRecommended \
	nIterations          100 \
	history              15 \
	knormThreshold       0 \
	energyDiffThreshold  0 \
	nEnergyDiff          2 \
	alphaTstart          1 \
	alphaTmin            1e-10 \
	updateTestStepSize   yes \
	alphaTreduceFactor   0.1 \
	alphaTincreaseFactor 3 \
	nAlphaAdjustMax      3 \
	wolfeEnergy          0.0001 \
	wolfeGradient        0.9 \
	fdTest               no
fluid-solvent H2O 55.338 ScalarEOS \
	epsBulk 78.4 \
	pMol 0.92466 \
	epsInf 1.77 \
	Pvap 1.06736e-10 \
	sigmaBulk 4.62e-05 \
	Rvdw 2.61727 \
	Res 1.42 \
	tauNuc 343133 \
	poleEl 15 7 1
forces-output-coords Positions
ion S   5.169234478189731  10.967621438538947  20.522239084148630 1
ion S   4.411321126437112   8.294617710479709  23.990395583349599 1
ion S   4.507744139949803  10.271406038119808  27.165350716703916 1
ion S   8.627189124613848   8.749737905301158  28.655273642525785 1
ion S  10.048262854141093  10.423634902019437  31.727575858261918 1
ion S  11.908540218035403  13.694916865039547  31.161392138925237 1
ion S   6.522639758027863  14.242358774549276  21.793066377255567 1
ion S  10.407724490682956  14.154445545985332  22.318264821497522 1
ion Na   8.900432668605006  14.750844397164466  27.184733137980480 1
ion Na   9.953760823437186   9.172923831562310  23.384025797121346 1
ion-species GBRV/$ID_pbe.uspp
ion-width 0
ionic-minimize  \
	dirUpdateScheme      FletcherReeves \
	linminMethod         DirUpdateRecommended \
	nIterations          200 \
	history              15 \
	knormThreshold       0.0001 \
	energyDiffThreshold  1e-06 \
	nEnergyDiff          2 \
	alphaTstart          1 \
	alphaTmin            1e-10 \
	updateTestStepSize   yes \
	alphaTreduceFactor   0.1 \
	alphaTincreaseFactor 3 \
	nAlphaAdjustMax      3 \
	wolfeEnergy          0.0001 \
	wolfeGradient        0.9 \
	fdTest               no
kpoint   0.000000000000   0.000000000000   0.000000000000  1.00000000000000
kpoint-folding 1 1 1 
latt-move-scale 1 1 1
latt-scale 1 1 1 
lattice Triclinic 28.0058 28.0058 37.7946 90 90 120
lattice-minimize  \
	dirUpdateScheme      L-BFGS \
	linminMethod         DirUpdateRecommended \
	nIterations          0 \
	history              15 \
	knormThreshold       0 \
	energyDiffThreshold  1e-06 \
	nEnergyDiff          2 \
	alphaTstart          1 \
	alphaTmin            1e-10 \
	updateTestStepSize   yes \
	alphaTreduceFactor   0.1 \
	alphaTincreaseFactor 3 \
	nAlphaAdjustMax      3 \
	wolfeEnergy          0.0001 \
	wolfeGradient        0.9 \
	fdTest               no
lcao-params -1 1e-06 0.001
pcm-variant GLSSA13
spintype no-spin
subspace-rotation-factor 1 yes
symmetries automatic
symmetry-threshold 0.0001
van-der-waals D3



---------- Setting up symmetries ----------

Found 24 point-group symmetries of the bravais lattice
Found 1 space-group symmetries with basis
Applied RMS atom displacement 0 bohrs to make symmetries exact.

---------- Initializing the Grid ----------
R = 
[      28.0058     -14.0029            0  ]
[            0      24.2537            0  ]
[            0            0      37.7946  ]
unit cell volume = 25671.8
G =
[   0.224353    0.12953         -0  ]
[          0   0.259061          0  ]
[          0         -0   0.166246  ]
Minimum fftbox size, Smin = [  128  128  172  ]
Chosen fftbox size, S = [  128  128  180  ]

---------- Initializing tighter grid for wavefunction operations ----------
R = 
[      28.0058     -14.0029            0  ]
[            0      24.2537            0  ]
[            0            0      37.7946  ]
unit cell volume = 25671.8
G =
[   0.224353    0.12953         -0  ]
[          0   0.259061          0  ]
[          0         -0   0.166246  ]
Minimum fftbox size, Smin = [  116  116  156  ]
Chosen fftbox size, S = [  120  120  160  ]

---------- Exchange Correlation functional ----------
Initalized PBE GGA exchange.
Initalized PBE GGA correlation.

---------- Setting up pseudopotentials ----------
Width of ionic core gaussian charges (only for fluid interactions / plotting) set to 0

Reading pseudopotential file '/home/akim2/jdftx_install/build/pseudopotentials/GBRV/s_pbe.uspp':
  Title: S.  Created by USPP 7.3.6 on 1-4-15
  Reference state energy: -11.898476.  6 valence electrons in orbitals:
    |300>  occupation: 2  eigenvalue: -0.634167
    |310>  occupation: 4  eigenvalue: -0.257568
  lMax: 2  lLocal: 3  QijEcut: 6
  6 projectors sampled on a log grid with 635 points:
    l: 0  eig: -0.634161  rCut: 1.5
    l: 0  eig: 1.500000  rCut: 1.5
    l: 1  eig: -0.257567  rCut: 1.5
    l: 1  eig: 1.500000  rCut: 1.5
    l: 2  eig: -1.000000  rCut: 1.5
    l: 2  eig: 1.500000  rCut: 1.5
  Partial core density with radius 1.15
  Transforming core density to a uniform radial grid of dG=0.02 with 1625 points.
  Transforming local potential to a uniform radial grid of dG=0.02 with 1625 points.
  Transforming nonlocal projectors to a uniform radial grid of dG=0.02 with 432 points.
  Transforming density augmentations to a uniform radial grid of dG=0.02 with 1625 points.
  Transforming atomic orbitals to a uniform radial grid of dG=0.02 with 432 points.
  Core radius for overlap checks: 1.50 bohrs.

Reading pseudopotential file '/home/akim2/jdftx_install/build/pseudopotentials/GBRV/na_pbe.uspp':
  Title: Na.  Created by USPP 7.3.6 on 23-9-15
  Reference state energy: -47.625620.  9 valence electrons in orbitals:
    |200>  occupation: 2  eigenvalue: -2.085638
    |210>  occupation: 6  eigenvalue: -1.053708
    |300>  occupation: 1  eigenvalue: -0.100838
  lMax: 2  lLocal: 0  QijEcut: 6
  5 projectors sampled on a log grid with 657 points:
    l: 0  eig: -2.085640  rCut: 1.37
    l: 0  eig: -0.100839  rCut: 1.37
    l: 1  eig: -1.053708  rCut: 1.47
    l: 1  eig: 0.500000  rCut: 1.47
    l: 2  eig: 0.750000  rCut: 2
  Transforming local potential to a uniform radial grid of dG=0.02 with 1625 points.
  Transforming nonlocal projectors to a uniform radial grid of dG=0.02 with 432 points.
  Transforming density augmentations to a uniform radial grid of dG=0.02 with 1625 points.
  Transforming atomic orbitals to a uniform radial grid of dG=0.02 with 432 points.
  Core radius for overlap checks: 2.00 bohrs.

Initialized 2 species with 10 total atoms.

Folded 1 k-points by 1x1x1 to 1 k-points.

---------- Setting up k-points, bands, fillings ----------
No reducable k-points. 
Computing the number of bands and number of electrons
Calculating initial fillings.
nElectrons:  66.000000   nBands: 33   nStates: 1

----- Setting up reduced wavefunction bases (one per k-point) -----
average nbasis = 109673.000 , ideal nbasis = 109671.883

---------- Setting up coulomb interaction ----------
Setting up double-sized grid for truncated Coulomb potentials:
R = 
[      56.0116     -28.0058            0  ]
[            0      48.5075            0  ]
[            0            0      75.5892  ]
unit cell volume = 205374
G =
[   0.112177  0.0647651         -0  ]
[          0    0.12953          0  ]
[          0         -0  0.0831228  ]
Chosen fftbox size, S = [  256  256  360  ]
Integer grid location selected as the embedding center:
   Grid: [  53  58  98  ]
   Lattice: [  0.41221  0.451325  0.542471  ]
   Cartesian: [  5.2244  10.9463  20.5025  ]
Constructing Wigner-Seitz cell: 8 faces (6 quadrilaterals, 2 hexagons)
Range-separation parameter for embedded mesh potentials due to point charges: 0.590105 bohrs.
Constructing Wigner-Seitz cell: 8 faces (6 quadrilaterals, 2 hexagons)
Gaussian width for range separation: 2.95095 bohrs.
FFT grid for long-range part: [ 256 256 360 ].
Planning fourier transform ... Done.
Computing truncated long-range part in real space ... Done.
Adding short-range part in reciprocal space ... Done.

Initializing DFT-D3 calculator:
	Parameters set for gga-PBE functional
	s6:  1.000  s_r6:  1.217
	s8:  0.722  s_r8:  1.000
	Per-atom parameters loaded for:
	 S:  sqrtQ[a0]:  4.041  Rcov[a0]:  1.928  CN: [ 0.00 0.99 1.99 ]
	Na:  sqrtQ[a0]:  6.586  Rcov[a0]:  2.646  CN: [ 0.00 0.97 ]

Computing DFT-D3 correction:
# coordination-number S 2.657 2.792 2.473 3.251 2.348 2.000 3.012 2.951
# coordination-number Na 4.347 4.456
# diagonal-C6 S 125.81 125.81 125.81 125.81 125.82 125.90 125.81 125.81
# diagonal-C6 Na 186.11 186.11
EvdW_6 =   -0.002897
EvdW_8 =   -0.011005

---------- Allocating electronic variables ----------
Initializing wave functions:  linear combination of atomic orbitals
S pseudo-atom occupations:   s ( 2 )  p ( 4 )
Na pseudo-atom occupations:   s ( 2 1 )  p ( 6 )
	FillingsUpdate:  mu: -0.158793994  nElectrons: 66.000000
LCAOMinimize: Iter:   0  Etot: -177.0415877374658749  |grad|_K:  1.727e-02  alpha:  1.000e+00
	FillingsUpdate:  mu: -0.157798931  nElectrons: 66.000000
LCAOMinimize: Iter:   1  Etot: -177.0701155432687699  |grad|_K:  1.533e-02  alpha:  5.325e-02  linmin: -3.226e-01  cgtest:  9.430e-01  t[s]:      5.80
LCAOMinimize: Encountered beta<0, resetting CG.
LCAOMinimize: 	Predicted alpha/alphaT>3.000000, increasing alphaT to 1.597425e-01.
LCAOMinimize: 	Predicted alpha/alphaT>3.000000, increasing alphaT to 4.792274e-01.
	FillingsUpdate:  mu: -0.167231799  nElectrons: 66.000000
LCAOMinimize: Iter:   2  Etot: -177.1078909924855509  |grad|_K:  1.178e-02  alpha:  9.340e-02  linmin: -3.476e-01  cgtest:  8.960e-01  t[s]:      6.52
LCAOMinimize: Encountered beta<0, resetting CG.
LCAOMinimize: 	Predicted alpha/alphaT>3.000000, increasing alphaT to 2.802062e-01.
	FillingsUpdate:  mu: -0.171755257  nElectrons: 66.000000
LCAOMinimize: Iter:   3  Etot: -177.1437346694598318  |grad|_K:  9.216e-03  alpha:  2.662e-01  linmin:  9.694e-02  cgtest: -1.195e-01  t[s]:      7.08
LCAOMinimize: None of the convergence criteria satisfied after 3 iterations.


---- Citations for features of the code used in this run ----

   Software package:
      R. Sundararaman, K. Letchworth-Weaver, K.A. Schwarz, D. Gunceler, Y. Ozhabes and T.A. Arias, 'JDFTx: software for joint density-functional theory', SoftwareX 6, 278 (2017)

   gga-PBE exchange-correlation functional:
      J.P. Perdew, K. Burke and M. Ernzerhof, Phys. Rev. Lett. 77, 3865 (1996)

   Pseudopotentials:
      KF Garrity, JW Bennett, KM Rabe and D Vanderbilt, Comput. Mater. Sci. 81, 446 (2014)

   Truncated Coulomb potentials:
      R. Sundararaman and T.A. Arias, Phys. Rev. B 87, 165122 (2013)

   DFT-D3 dispersion correction:
      S. Grimme, J. Antony, S. Ehrlich and H. Krieg, J. Chem. Phys. 132, 154104 (2010)

This list may not be complete. Please suggest additional citations or
report any other bugs at https://github.com/shankar1729/jdftx/issues

Initialization completed successfully at t[s]:      7.09


Computing DFT-D3 correction:
# coordination-number S 2.657 2.792 2.473 3.251 2.348 2.000 3.012 2.951
# coordination-number Na 4.347 4.456
# diagonal-C6 S 125.81 125.81 125.81 125.81 125.82 125.90 125.81 125.81
# diagonal-C6 Na 186.11 186.11
EvdW_6 =   -0.002897
EvdW_8 =   -0.011005

-------- Electronic minimization -----------
Will mix electronic density at each iteration.
SCF: Cycle:  0   Etot: -177.401054965780759   dEtot: -2.573e-01   |Residual|: 3.327e-01   |deigs|: 1.376e-02  t[s]:      7.79
SCF: Cycle:  1   Etot: -177.556751347374160   dEtot: -1.557e-01   |Residual|: 1.785e-01   |deigs|: 1.712e-02  t[s]:      8.32
SCF: Cycle:  2   Etot: -177.652623151146798   dEtot: -9.587e-02   |Residual|: 8.162e-02   |deigs|: 1.861e-02  t[s]:      8.82
SCF: Cycle:  3   Etot: -177.658366054580597   dEtot: -5.743e-03   |Residual|: 4.120e-02   |deigs|: 5.181e-03  t[s]:      9.31
SCF: Cycle:  4   Etot: -177.665028949088935   dEtot: -6.663e-03   |Residual|: 2.909e-02   |deigs|: 8.276e-03  t[s]:      9.82
SCF: Cycle:  5   Etot: -177.667952691080330   dEtot: -2.924e-03   |Residual|: 1.431e-02   |deigs|: 2.064e-03  t[s]:     10.31
SCF: Cycle:  6   Etot: -177.668380695742712   dEtot: -4.280e-04   |Residual|: 1.029e-02   |deigs|: 5.108e-03  t[s]:     10.81
SCF: Cycle:  7   Etot: -177.668698440075985   dEtot: -3.177e-04   |Residual|: 8.956e-03   |deigs|: 1.827e-03  t[s]:     11.33
SCF: Cycle:  8   Etot: -177.669312489634621   dEtot: -6.140e-04   |Residual|: 7.729e-03   |deigs|: 4.630e-03  t[s]:     11.83
SCF: Cycle:  9   Etot: -177.669398196566306   dEtot: -8.571e-05   |Residual|: 5.309e-03   |deigs|: 1.267e-03  t[s]:     12.30
SCF: Cycle: 10   Etot: -177.669390577744849   dEtot: +7.619e-06   |Residual|: 5.543e-03   |deigs|: 1.081e-03  t[s]:     12.79
SCF: Cycle: 11   Etot: -177.669451346985170   dEtot: -6.077e-05   |Residual|: 2.561e-03   |deigs|: 1.293e-03  t[s]:     13.27
SCF: Cycle: 12   Etot: -177.669410656997456   dEtot: +4.069e-05   |Residual|: 5.605e-03   |deigs|: 1.207e-03  t[s]:     13.75
SCF: Cycle: 13   Etot: -177.669488487911650   dEtot: -7.783e-05   |Residual|: 1.831e-03   |deigs|: 3.294e-04  t[s]:     14.22
SCF: Cycle: 14   Etot: -177.669514980379944   dEtot: -2.649e-05   |Residual|: 1.170e-03   |deigs|: 3.574e-04  t[s]:     14.66
SCF: Cycle: 15   Etot: -177.669525003969198   dEtot: -1.002e-05   |Residual|: 1.079e-03   |deigs|: 3.677e-04  t[s]:     15.10
SCF: Cycle: 16   Etot: -177.669529987521628   dEtot: -4.984e-06   |Residual|: 7.676e-04   |deigs|: 3.135e-04  t[s]:     15.53
SCF: Cycle: 17   Etot: -177.669532206250381   dEtot: -2.219e-06   |Residual|: 6.369e-04   |deigs|: 4.185e-04  t[s]:     15.98
SCF: Cycle: 18   Etot: -177.669533352123437   dEtot: -1.146e-06   |Residual|: 5.528e-04   |deigs|: 3.335e-04  t[s]:     16.40
SCF: Cycle: 19   Etot: -177.669533926344229   dEtot: -5.742e-07   |Residual|: 5.816e-04   |deigs|: 2.678e-04  t[s]:     16.86
SCF: Cycle: 20   Etot: -177.669534312618907   dEtot: -3.863e-07   |Residual|: 3.950e-04   |deigs|: 5.678e-05  t[s]:     17.29
SCF: Cycle: 21   Etot: -177.669534083885225   dEtot: +2.287e-07   |Residual|: 5.572e-04   |deigs|: 5.524e-05  t[s]:     17.73
SCF: Cycle: 22   Etot: -177.669535209377898   dEtot: -1.125e-06   |Residual|: 2.597e-04   |deigs|: 8.152e-05  t[s]:     18.23
SCF: Cycle: 23   Etot: -177.669535518324210   dEtot: -3.089e-07   |Residual|: 2.225e-04   |deigs|: 6.615e-05  t[s]:     18.66
SCF: Cycle: 24   Etot: -177.669536086565813   dEtot: -5.682e-07   |Residual|: 1.787e-04   |deigs|: 1.592e-05  t[s]:     19.08
SCF: Cycle: 25   Etot: -177.669536497037427   dEtot: -4.105e-07   |Residual|: 1.273e-04   |deigs|: 3.979e-05  t[s]:     19.51
SCF: Cycle: 26   Etot: -177.669536674763719   dEtot: -1.777e-07   |Residual|: 1.064e-04   |deigs|: 3.058e-05  t[s]:     19.95
SCF: Cycle: 27   Etot: -177.669536777975907   dEtot: -1.032e-07   |Residual|: 8.128e-05   |deigs|: 1.841e-05  t[s]:     20.39
SCF: Cycle: 28   Etot: -177.669536827681043   dEtot: -4.971e-08   |Residual|: 4.680e-05   |deigs|: 9.006e-06  t[s]:     20.82
SCF: Cycle: 29   Etot: -177.669536883942953   dEtot: -5.626e-08   |Residual|: 3.370e-05   |deigs|: 8.286e-06  t[s]:     21.33
SCF: Cycle: 30   Etot: -177.669536905627922   dEtot: -2.168e-08   |Residual|: 2.746e-05   |deigs|: 6.181e-06  t[s]:     21.77
SCF: Cycle: 31   Etot: -177.669536933534857   dEtot: -2.791e-08   |Residual|: 2.328e-05   |deigs|: 4.690e-06  t[s]:     22.27
SCF: Cycle: 32   Etot: -177.669536943668277   dEtot: -1.013e-08   |Residual|: 1.986e-05   |deigs|: 1.501e-06  t[s]:     22.71
SCF: Cycle: 33   Etot: -177.669536960509021   dEtot: -1.684e-08   |Residual|: 3.030e-05   |deigs|: 5.854e-06  t[s]:     23.23
SCF: Cycle: 34   Etot: -177.669536967041893   dEtot: -6.533e-09   |Residual|: 1.735e-05   |deigs|: 1.837e-06  t[s]:     23.65
SCF: Cycle: 35   Etot: -177.669536973639623   dEtot: -6.598e-09   |Residual|: 2.185e-05   |deigs|: 1.069e-06  t[s]:     24.17
SCF: Converged (|Delta E|<1.000000e-08 for 2 iters).

Setting wave functions to eigenvectors of Hamiltonian

Computing DFT-D3 correction:
# coordination-number S 2.657 2.792 2.473 3.251 2.348 2.000 3.012 2.951
# coordination-number Na 4.347 4.456
# diagonal-C6 S 125.81 125.81 125.81 125.81 125.82 125.90 125.81 125.81
# diagonal-C6 Na 186.11 186.11
EvdW_6 =   -0.002897
EvdW_8 =   -0.011005

# Ionic positions in cartesian coordinates:
ion S   5.169234478189731  10.967621438538947  20.522239084148630 1
ion S   4.411321126437112   8.294617710479709  23.990395583349599 1
ion S   4.507744139949803  10.271406038119808  27.165350716703916 1
ion S   8.627189124613848   8.749737905301158  28.655273642525785 1
ion S  10.048262854141093  10.423634902019437  31.727575858261918 1
ion S  11.908540218035403  13.694916865039547  31.161392138925237 1
ion S   6.522639758027863  14.242358774549276  21.793066377255567 1
ion S  10.407724490682956  14.154445545985332  22.318264821497522 1
ion Na   8.900432668605006  14.750844397164466  27.184733137980480 1
ion Na   9.953760823437186   9.172923831562310  23.384025797121346 1

# Forces in Cartesian coordinates:
force S  -0.000073526356419   0.000098354936877   0.000125001713138 1
force S  -0.000338980948713  -0.000323093333791  -0.000122615960075 1
force S   0.000372693776922  -0.000084261119480  -0.000288983816944 1
force S  -0.000206184425028  -0.000020221330948   0.000401699493991 1
force S   0.000439779122826   0.000686301272376  -0.000088332288571 1
force S  -0.000624414993740  -0.000784975963662  -0.000347659003199 1
force S   0.000733150049964  -0.000093009511666   0.000302247312046 1
force S  -0.000421859291567   0.000548943840926  -0.000217238150378 1
force Na   0.000129903019267   0.000093305163271  -0.000044953786134 1
force Na  -0.000040864577280  -0.000126765074363   0.000163137209749 1

# Energy components:
   Eewald =      300.9073072725619795
       EH =      446.3818626466843966
     Eloc =     -809.1173797835567711
      Enl =     -129.5707996616363289
     EvdW =       -0.0139020960341984
      Exc =      -47.9570948692343322
 Exc_core =       14.1418398070570106
       KE =       47.5586297105185807
-------------------------------------
     Etot =     -177.6695369736396231

IonicMinimize: Iter:   0  Etot: -177.669536973639623  |grad|_K:  3.527e-04  alpha:  1.000e+00

#--- Lowdin population analysis ---
# oxidation-state S -0.051 -0.013 -0.043 -0.138 +0.262 -0.428 +0.171 -0.531
# oxidation-state Na +0.736 +0.735


Computing DFT-D3 correction:
# coordination-number S 2.657 2.792 2.473 3.251 2.348 2.000 3.012 2.951
# coordination-number Na 4.347 4.456
# diagonal-C6 S 125.81 125.81 125.81 125.81 125.82 125.90 125.81 125.81
# diagonal-C6 Na 186.11 186.11
EvdW_6 =   -0.002897
EvdW_8 =   -0.011004

-------- Electronic minimization -----------
Will mix electronic density at each iteration.
SCF: Cycle:  0   Etot: -177.669540046427045   dEtot: -3.919e-07   |Residual|: 2.970e-04   |deigs|: 1.466e-08  t[s]:     25.14
SCF: Cycle:  1   Etot: -177.669540242263082   dEtot: -1.958e-07   |Residual|: 1.505e-04   |deigs|: 7.100e-06  t[s]:     25.57
SCF: Cycle:  2   Etot: -177.669540316119964   dEtot: -7.386e-08   |Residual|: 4.708e-05   |deigs|: 6.414e-06  t[s]:     26.01
SCF: Cycle:  3   Etot: -177.669540328063192   dEtot: -1.194e-08   |Residual|: 3.422e-05   |deigs|: 8.863e-07  t[s]:     26.44
SCF: Cycle:  4   Etot: -177.669540333984372   dEtot: -5.921e-09   |Residual|: 1.550e-05   |deigs|: 2.099e-06  t[s]:     26.86
SCF: Cycle:  5   Etot: -177.669540337672970   dEtot: -3.689e-09   |Residual|: 9.164e-06   |deigs|: 5.376e-07  t[s]:     27.27
SCF: Converged (|Delta E|<1.000000e-08 for 2 iters).

Setting wave functions to eigenvectors of Hamiltonian
IonicMinimize: 	Predicted alpha/alphaT>3.000000, increasing alphaT to 3.000000e+00.

Computing DFT-D3 correction:
# coordination-number S 2.657 2.792 2.474 3.251 2.348 2.000 3.014 2.951
# coordination-number Na 4.348 4.456
# diagonal-C6 S 125.81 125.81 125.81 125.81 125.82 125.90 125.81 125.81
# diagonal-C6 Na 186.11 186.11
EvdW_6 =   -0.002897
EvdW_8 =   -0.011003

-------- Electronic minimization -----------
Will mix electronic density at each iteration.
SCF: Cycle:  0   Etot: -177.669543590057685   dEtot: -1.699e-06   |Residual|: 5.765e-04   |deigs|: 5.635e-08  t[s]:     27.94
SCF: Cycle:  1   Etot: -177.669544300339055   dEtot: -7.103e-07   |Residual|: 2.889e-04   |deigs|: 1.295e-05  t[s]:     28.39
SCF: Cycle:  2   Etot: -177.669544524482944   dEtot: -2.241e-07   |Residual|: 8.111e-05   |deigs|: 9.682e-06  t[s]:     28.82
SCF: Cycle:  3   Etot: -177.669544563511892   dEtot: -3.903e-08   |Residual|: 5.820e-05   |deigs|: 1.155e-06  t[s]:     29.23
SCF: Cycle:  4   Etot: -177.669544578960569   dEtot: -1.545e-08   |Residual|: 1.993e-05   |deigs|: 2.290e-06  t[s]:     29.67
SCF: Cycle:  5   Etot: -177.669544587456812   dEtot: -8.496e-09   |Residual|: 1.364e-05   |deigs|: 8.319e-07  t[s]:     30.09
SCF: Cycle:  6   Etot: -177.669544591708643   dEtot: -4.252e-09   |Residual|: 1.179e-05   |deigs|: 5.632e-07  t[s]:     30.50
SCF: Converged (|Delta E|<1.000000e-08 for 2 iters).

Setting wave functions to eigenvectors of Hamiltonian

Computing DFT-D3 correction:
# coordination-number S 2.657 2.791 2.474 3.251 2.349 2.001 3.015 2.951
# coordination-number Na 4.349 4.456
# diagonal-C6 S 125.81 125.81 125.81 125.81 125.82 125.90 125.81 125.81
# diagonal-C6 Na 186.11 186.11
EvdW_6 =   -0.002897
EvdW_8 =   -0.011002

-------- Electronic minimization -----------
Will mix electronic density at each iteration.
SCF: Cycle:  0   Etot: -177.669544858497602   dEtot: -1.211e-06   |Residual|: 4.983e-04   |deigs|: 4.149e-08  t[s]:     31.20
SCF: Cycle:  1   Etot: -177.669545405453562   dEtot: -5.470e-07   |Residual|: 2.472e-04   |deigs|: 1.123e-05  t[s]:     31.63
SCF: Cycle:  2   Etot: -177.669545578227996   dEtot: -1.728e-07   |Residual|: 7.326e-05   |deigs|: 8.410e-06  t[s]:     32.04
SCF: Cycle:  3   Etot: -177.669545607558746   dEtot: -2.933e-08   |Residual|: 5.179e-05   |deigs|: 1.121e-06  t[s]:     32.47
SCF: Cycle:  4   Etot: -177.669545619505186   dEtot: -1.195e-08   |Residual|: 1.706e-05   |deigs|: 2.094e-06  t[s]:     32.89
SCF: Cycle:  5   Etot: -177.669545626082083   dEtot: -6.577e-09   |Residual|: 1.193e-05   |deigs|: 6.810e-07  t[s]:     33.32
SCF: Cycle:  6   Etot: -177.669545629422714   dEtot: -3.341e-09   |Residual|: 9.595e-06   |deigs|: 5.260e-07  t[s]:     33.73
SCF: Converged (|Delta E|<1.000000e-08 for 2 iters).

Setting wave functions to eigenvectors of Hamiltonian

Computing DFT-D3 correction:
# coordination-number S 2.657 2.791 2.474 3.251 2.349 2.001 3.015 2.951
# coordination-number Na 4.349 4.456
# diagonal-C6 S 125.81 125.81 125.81 125.81 125.82 125.90 125.81 125.81
# diagonal-C6 Na 186.11 186.11
EvdW_6 =   -0.002897
EvdW_8 =   -0.011002

# Ionic positions in cartesian coordinates:
ion S   5.168903677620030  10.968085510958623  20.522880881392883 1
ion S   4.409744685514118   8.293104145337216  23.989875439625802 1
ion S   4.509507218411311  10.271013188355571  27.164049895146611 1
ion S   8.626235828716332   8.749645560960932  28.657213838560285 1
ion S  10.050340729243525  10.426857900833047  31.727216589979438 1
ion S  11.905624383577649  13.691235924914835  31.159815985232573 1
ion S   6.526094270325268  14.241924873130070  21.794539895919804 1
ion S  10.405759144797413  14.157023997805195  22.317300665042435 1
ion Na   8.901056456302966  14.751284773622718  27.184577422451159 1
ion Na   9.953583287611391   9.172331532841779  23.384846544419020 1

# Forces in Cartesian coordinates:
force S   0.000040423245156   0.000122374710975   0.000087875909799 1
force S  -0.000250865980286  -0.000254557005821  -0.000100861728403 1
force S   0.000235911381442  -0.000058181921744  -0.000213007238833 1
force S  -0.000052493298717  -0.000089315921922   0.000312057392718 1
force S  -0.000311822035789  -0.000520328978793   0.000213401360269 1
force S   0.000164438719790   0.000443929873617  -0.000501865965005 1
force S  -0.000132877425155  -0.000067968194928   0.000208770161545 1
force S   0.000352412612136   0.000405116897188  -0.000124009584403 1
force Na   0.000074451493185   0.000100878172364  -0.000068779596406 1
force Na  -0.000057139821232  -0.000102722984180   0.000185849574126 1

# Energy components:
   Eewald =      300.9502607042630871
       EH =      446.4227742662135938
     Eloc =     -809.2057399360917316
      Enl =     -129.5699664729644951
     EvdW =       -0.0138998643739066
      Exc =      -47.9593004274933747
 Exc_core =       14.1418398682641691
       KE =       47.5644862327598830
-------------------------------------
     Etot =     -177.6695456294227142

IonicMinimize: Iter:   1  Etot: -177.669545629422714  |grad|_K:  2.382e-04  alpha:  4.692e+00  linmin:  6.228e-02  t[s]:     34.09

#--- Lowdin population analysis ---
# oxidation-state S -0.052 -0.013 -0.043 -0.139 +0.263 -0.427 +0.171 -0.530
# oxidation-state Na +0.736 +0.735


Computing DFT-D3 correction:
# coordination-number S 2.656 2.790 2.476 3.250 2.348 2.001 3.016 2.950
# coordination-number Na 4.349 4.456
# diagonal-C6 S 125.81 125.81 125.81 125.81 125.82 125.90 125.81 125.81
# diagonal-C6 Na 186.11 186.11
EvdW_6 =   -0.002898
EvdW_8 =   -0.011004

-------- Electronic minimization -----------
Will mix electronic density at each iteration.
SCF: Cycle:  0   Etot: -177.669550727291806   dEtot: -3.346e-06   |Residual|: 5.682e-04   |deigs|: 7.827e-08  t[s]:     34.71
SCF: Cycle:  1   Etot: -177.669551532596586   dEtot: -8.053e-07   |Residual|: 3.098e-04   |deigs|: 9.063e-06  t[s]:     35.13
SCF: Cycle:  2   Etot: -177.669551774498416   dEtot: -2.419e-07   |Residual|: 8.993e-05   |deigs|: 5.713e-06  t[s]:     35.55
SCF: Cycle:  3   Etot: -177.669551849059587   dEtot: -7.456e-08   |Residual|: 6.006e-05   |deigs|: 1.656e-06  t[s]:     35.98
SCF: Cycle:  4   Etot: -177.669551884774592   dEtot: -3.572e-08   |Residual|: 2.773e-05   |deigs|: 3.626e-06  t[s]:     36.40
SCF: Cycle:  5   Etot: -177.669551903860452   dEtot: -1.909e-08   |Residual|: 1.675e-05   |deigs|: 1.851e-06  t[s]:     36.82
SCF: Cycle:  6   Etot: -177.669551915131819   dEtot: -1.127e-08   |Residual|: 1.313e-05   |deigs|: 2.544e-06  t[s]:     37.24
SCF: Cycle:  7   Etot: -177.669551922605933   dEtot: -7.474e-09   |Residual|: 1.269e-05   |deigs|: 3.783e-06  t[s]:     37.66
SCF: Cycle:  8   Etot: -177.669551927083688   dEtot: -4.478e-09   |Residual|: 1.557e-05   |deigs|: 1.181e-06  t[s]:     38.08
SCF: Converged (|Delta E|<1.000000e-08 for 2 iters).

Setting wave functions to eigenvectors of Hamiltonian

Computing DFT-D3 correction:
# coordination-number S 2.655 2.787 2.480 3.247 2.346 2.002 3.019 2.948
# coordination-number Na 4.348 4.454
# diagonal-C6 S 125.81 125.81 125.81 125.81 125.82 125.90 125.81 125.81
# diagonal-C6 Na 186.11 186.11
EvdW_6 =   -0.002898
EvdW_8 =   -0.011006

-------- Electronic minimization -----------
Will mix electronic density at each iteration.
SCF: Cycle:  0   Etot: -177.669552401201429   dEtot: -1.119e-05   |Residual|: 1.042e-03   |deigs|: 2.623e-07  t[s]:     38.76
SCF: Cycle:  1   Etot: -177.669555135704542   dEtot: -2.735e-06   |Residual|: 5.657e-04   |deigs|: 1.693e-05  t[s]:     39.17
SCF: Cycle:  2   Etot: -177.669555950747878   dEtot: -8.150e-07   |Residual|: 1.687e-04   |deigs|: 1.044e-05  t[s]:     39.58
SCF: Cycle:  3   Etot: -177.669556201510915   dEtot: -2.508e-07   |Residual|: 1.108e-04   |deigs|: 2.835e-06  t[s]:     40.01
SCF: Cycle:  4   Etot: -177.669556320787336   dEtot: -1.193e-07   |Residual|: 5.223e-05   |deigs|: 6.260e-06  t[s]:     40.44
SCF: Cycle:  5   Etot: -177.669556383808072   dEtot: -6.302e-08   |Residual|: 3.027e-05   |deigs|: 3.322e-06  t[s]:     40.88
SCF: Cycle:  6   Etot: -177.669556420190190   dEtot: -3.638e-08   |Residual|: 2.666e-05   |deigs|: 3.913e-06  t[s]:     41.31
SCF: Cycle:  7   Etot: -177.669556445245092   dEtot: -2.505e-08   |Residual|: 2.429e-05   |deigs|: 7.217e-06  t[s]:     41.74
SCF: Cycle:  8   Etot: -177.669556459806756   dEtot: -1.456e-08   |Residual|: 2.515e-05   |deigs|: 2.138e-06  t[s]:     42.17
SCF: Cycle:  9   Etot: -177.669556477973970   dEtot: -1.817e-08   |Residual|: 1.881e-05   |deigs|: 6.410e-06  t[s]:     42.65
SCF: Cycle: 10   Etot: -177.669556483622671   dEtot: -5.649e-09   |Residual|: 2.194e-05   |deigs|: 7.383e-07  t[s]:     43.09
SCF: Cycle: 11   Etot: -177.669556487655825   dEtot: -4.033e-09   |Residual|: 1.178e-05   |deigs|: 1.455e-06  t[s]:     43.52
SCF: Converged (|Delta E|<1.000000e-08 for 2 iters).

Setting wave functions to eigenvectors of Hamiltonian

Computing DFT-D3 correction:
# coordination-number S 2.655 2.787 2.480 3.247 2.346 2.002 3.019 2.948
# coordination-number Na 4.348 4.454
# diagonal-C6 S 125.81 125.81 125.81 125.81 125.82 125.90 125.81 125.81
# diagonal-C6 Na 186.11 186.11
EvdW_6 =   -0.002898
EvdW_8 =   -0.011006

# Ionic positions in cartesian coordinates:
ion S   5.168930595017442  10.970333868476100  20.524874017422423 1
ion S   4.404303679694284   8.287805570999117  23.987868396615333 1
ion S   4.514824853613773  10.269762939833878  27.159549665629907 1
ion S   8.624228399722142   8.748369735238711  28.663853012478679 1
ion S  10.048800877357984  10.424139268816955  31.729584135251212 1
ion S  11.903964366569344  13.692406403854447  31.151130535334776 1
ion S   6.528701425032951  14.240491949631521  21.799208012304561 1
ion S  10.407816672429188  14.165746518473416  22.314414455414834 1
ion Na   8.902764817193496  14.753217540021049  27.183465454707051 1
ion Na   9.952513995489390   9.170233613414796  23.388369472611238 1

# Forces in Cartesian coordinates:
force S   0.000112176117040  -0.000128468861384  -0.000162881622121 1
force S  -0.000016213065873  -0.000004298518447   0.000106621748902 1
force S  -0.000064615068900  -0.000065358631468  -0.000021884851369 1
force S  -0.000123807686513  -0.000670178309413  -0.000352883550404 1
force S   0.000120842189707   0.000601731101724   0.000380693440203 1
force S  -0.000046549625981  -0.000246358507889  -0.000127918133255 1
force S  -0.000383237731234   0.000225196891487   0.000308933996785 1
force S   0.000448896598745   0.000000738495223  -0.000049173024971 1
force Na   0.000008856591960   0.000156996899527  -0.000151443809290 1
force Na  -0.000048510388708   0.000120439130090   0.000161563328520 1

# Energy components:
   Eewald =      300.9287956080652293
       EH =      446.3976042979742829
     Eloc =     -809.1593834095230022
      Enl =     -129.5696719775750410
     EvdW =       -0.0139044493477324
      Exc =      -47.9592978747591374
 Exc_core =       14.1418397971432412
       KE =       47.5644615203662653
-------------------------------------
     Etot =     -177.6695564876558251

IonicMinimize: Iter:   2  Etot: -177.669556487655825  |grad|_K:  2.485e-04  alpha:  1.326e+01  linmin:  3.235e-03  t[s]:     43.86

#--- Lowdin population analysis ---
# oxidation-state S -0.052 -0.014 -0.043 -0.137 +0.263 -0.429 +0.172 -0.529
# oxidation-state Na +0.736 +0.735


Computing DFT-D3 correction:
# coordination-number S 2.653 2.783 2.484 3.239 2.342 2.003 3.025 2.945
# coordination-number Na 4.340 4.454
# diagonal-C6 S 125.81 125.81 125.81 125.81 125.82 125.90 125.81 125.81
# diagonal-C6 Na 186.11 186.11
EvdW_6 =   -0.002901
EvdW_8 =   -0.011013

-------- Electronic minimization -----------
Will mix electronic density at each iteration.
SCF: Cycle:  0   Etot: -177.669538093823661   dEtot: -6.651e-05   |Residual|: 3.016e-03   |deigs|: 1.913e-06  t[s]:     44.56
SCF: Cycle:  1   Etot: -177.669548397553996   dEtot: -1.030e-05   |Residual|: 1.652e-03   |deigs|: 6.206e-05  t[s]:     44.98
SCF: Cycle:  2   Etot: -177.669554276156276   dEtot: -5.879e-06   |Residual|: 5.649e-04   |deigs|: 6.419e-05  t[s]:     45.41
SCF: Cycle:  3   Etot: -177.669555409133096   dEtot: -1.133e-06   |Residual|: 3.081e-04   |deigs|: 2.369e-05  t[s]:     45.83
SCF: Cycle:  4   Etot: -177.669555538271311   dEtot: -1.291e-07   |Residual|: 3.040e-04   |deigs|: 2.107e-05  t[s]:     46.24
SCF: Cycle:  5   Etot: -177.669555844134720   dEtot: -3.059e-07   |Residual|: 1.270e-04   |deigs|: 1.129e-05  t[s]:     46.71
SCF: Cycle:  6   Etot: -177.669555909776250   dEtot: -6.564e-08   |Residual|: 1.329e-04   |deigs|: 2.769e-07  t[s]:     47.12
SCF: Cycle:  7   Etot: -177.669555925686780   dEtot: -1.591e-08   |Residual|: 1.731e-04   |deigs|: 2.512e-06  t[s]:     47.54
SCF: Cycle:  8   Etot: -177.669555949424932   dEtot: -2.374e-08   |Residual|: 1.253e-04   |deigs|: 1.093e-05  t[s]:     48.01
SCF: Cycle:  9   Etot: -177.669555949893521   dEtot: -4.686e-10   |Residual|: 1.573e-04   |deigs|: 6.064e-06  t[s]:     48.44
SCF: Cycle: 10   Etot: -177.669555957005144   dEtot: -7.112e-09   |Residual|: 1.999e-04   |deigs|: 6.854e-06  t[s]:     48.93
SCF: Converged (|Delta E|<1.000000e-08 for 2 iters).

Setting wave functions to eigenvectors of Hamiltonian

Computing DFT-D3 correction:
# coordination-number S 2.654 2.785 2.482 3.243 2.344 2.003 3.022 2.947
# coordination-number Na 4.344 4.454
# diagonal-C6 S 125.81 125.81 125.81 125.81 125.82 125.90 125.81 125.81
# diagonal-C6 Na 186.11 186.11
EvdW_6 =   -0.002900
EvdW_8 =   -0.011009

-------- Electronic minimization -----------
Will mix electronic density at each iteration.
SCF: Cycle:  0   Etot: -177.669554751734978   dEtot: -1.513e-05   |Residual|: 1.685e-03   |deigs|: 5.489e-07  t[s]:     49.67
SCF: Cycle:  1   Etot: -177.669559135691884   dEtot: -4.384e-06   |Residual|: 9.203e-04   |deigs|: 4.068e-05  t[s]:     50.10
SCF: Cycle:  2   Etot: -177.669561743389579   dEtot: -2.608e-06   |Residual|: 3.969e-04   |deigs|: 4.418e-05  t[s]:     50.55
SCF: Cycle:  3   Etot: -177.669562210958048   dEtot: -4.676e-07   |Residual|: 2.160e-04   |deigs|: 1.611e-05  t[s]:     50.99
SCF: Cycle:  4   Etot: -177.669562219499454   dEtot: -8.541e-09   |Residual|: 2.147e-04   |deigs|: 1.823e-05  t[s]:     51.41
SCF: Cycle:  5   Etot: -177.669562380412373   dEtot: -1.609e-07   |Residual|: 8.651e-05   |deigs|: 7.876e-06  t[s]:     51.91
SCF: Cycle:  6   Etot: -177.669562421535147   dEtot: -4.112e-08   |Residual|: 4.745e-05   |deigs|: 4.519e-06  t[s]:     52.33
SCF: Cycle:  7   Etot: -177.669562443163102   dEtot: -2.163e-08   |Residual|: 5.408e-05   |deigs|: 1.026e-05  t[s]:     52.75
SCF: Cycle:  8   Etot: -177.669562453615157   dEtot: -1.045e-08   |Residual|: 4.010e-05   |deigs|: 2.288e-06  t[s]:     53.17
SCF: Cycle:  9   Etot: -177.669562465318705   dEtot: -1.170e-08   |Residual|: 2.321e-05   |deigs|: 6.033e-06  t[s]:     53.61
SCF: Cycle: 10   Etot: -177.669562469616636   dEtot: -4.298e-09   |Residual|: 1.810e-05   |deigs|: 1.351e-06  t[s]:     54.03
SCF: Cycle: 11   Etot: -177.669562474859617   dEtot: -5.243e-09   |Residual|: 2.027e-05   |deigs|: 2.652e-06  t[s]:     54.47
SCF: Converged (|Delta E|<1.000000e-08 for 2 iters).

Setting wave functions to eigenvectors of Hamiltonian

Computing DFT-D3 correction:
# coordination-number S 2.654 2.785 2.482 3.243 2.344 2.003 3.022 2.947
# coordination-number Na 4.344 4.454
# diagonal-C6 S 125.81 125.81 125.81 125.81 125.82 125.90 125.81 125.81
# diagonal-C6 Na 186.11 186.11
EvdW_6 =   -0.002900
EvdW_8 =   -0.011009

# Ionic positions in cartesian coordinates:
ion S   5.169667812353019  10.970704013055045  20.524819225668214 1
ion S   4.401295106099389   8.284961476582941  23.987431759568885 1
ion S   4.517233005039522  10.268679027248584  27.156951035297777 1
ion S   8.622350563101598   8.743347228153556  28.665040020770974 1
ion S  10.048759758590521  10.426602260159925  31.733256304919042 1
ion S  11.902772951945828  13.691437348968769  31.145614452604825 1
ion S   6.527598080736466  14.241196287832246  21.803639950236580 1
ion S  10.411820683069930  14.170403759575965  22.312498482364770 1
ion Na   8.903727201924973  14.755272104697392  27.181830885968896 1
ion Na   9.951624519258747   9.169903902485565  23.391235040370042 1

# Forces in Cartesian coordinates:
force S   0.000212330114905   0.000065788910766  -0.000080569891672 1
force S   0.000025979261784   0.000090467295031  -0.000036694021401 1
force S  -0.000047014855341  -0.000102022932059   0.000080263169587 1
force S   0.000189704900208  -0.000291828453962   0.000316278818031 1
force S  -0.000393436221795   0.000028743677153  -0.000452121347507 1
force S   0.000197379641798  -0.000017263930344  -0.000062806652247 1
force S   0.000123022407561  -0.000045247099281   0.000213598553888 1
force S  -0.000199199262797  -0.000138252842835  -0.000072400056367 1
force Na  -0.000010684768617   0.000159530037326  -0.000231129627708 1
force Na  -0.000020450475772   0.000252466876551   0.000120813919512 1

# Energy components:
   Eewald =      300.8818590644513620
       EH =      446.3522985296295360
     Eloc =     -809.0639744415801715
      Enl =     -129.5701136703129066
     EvdW =       -0.0139088167475803
      Exc =      -47.9575806394446218
 Exc_core =       14.1418396886566828
       KE =       47.5600178104880555
-------------------------------------
     Etot =     -177.6695624748596174

IonicMinimize: Iter:   3  Etot: -177.669562474859617  |grad|_K:  1.816e-04  alpha:  6.489e+00  linmin: -1.059e-02  t[s]:     54.81

#--- Lowdin population analysis ---
# oxidation-state S -0.053 -0.013 -0.042 -0.138 +0.262 -0.429 +0.171 -0.529
# oxidation-state Na +0.736 +0.735


Computing DFT-D3 correction:
# coordination-number S 2.654 2.784 2.481 3.237 2.344 2.003 3.027 2.947
# coordination-number Na 4.342 4.458
# diagonal-C6 S 125.81 125.81 125.81 125.81 125.82 125.90 125.81 125.81
# diagonal-C6 Na 186.11 186.11
EvdW_6 =   -0.002900
EvdW_8 =   -0.011011

-------- Electronic minimization -----------
Will mix electronic density at each iteration.
SCF: Cycle:  0   Etot: -177.669566177099881   dEtot: -6.055e-06   |Residual|: 6.703e-04   |deigs|: 1.452e-07  t[s]:     55.42
SCF: Cycle:  1   Etot: -177.669567523780017   dEtot: -1.347e-06   |Residual|: 3.721e-04   |deigs|: 1.054e-05  t[s]:     55.84
SCF: Cycle:  2   Etot: -177.669567967416555   dEtot: -4.436e-07   |Residual|: 9.792e-05   |deigs|: 1.446e-05  t[s]:     56.26
SCF: Cycle:  3   Etot: -177.669568096135521   dEtot: -1.287e-07   |Residual|: 7.079e-05   |deigs|: 4.318e-06  t[s]:     56.69
SCF: Cycle:  4   Etot: -177.669568160219598   dEtot: -6.408e-08   |Residual|: 2.523e-05   |deigs|: 7.042e-06  t[s]:     57.11
SCF: Cycle:  5   Etot: -177.669568193700002   dEtot: -3.348e-08   |Residual|: 1.864e-05   |deigs|: 2.958e-06  t[s]:     57.55
SCF: Cycle:  6   Etot: -177.669568213011303   dEtot: -1.931e-08   |Residual|: 1.065e-05   |deigs|: 3.153e-06  t[s]:     57.97
SCF: Cycle:  7   Etot: -177.669568224515615   dEtot: -1.150e-08   |Residual|: 9.753e-06   |deigs|: 3.207e-06  t[s]:     58.39
SCF: Cycle:  8   Etot: -177.669568231685986   dEtot: -7.170e-09   |Residual|: 8.536e-06   |deigs|: 3.382e-07  t[s]:     58.82
SCF: Cycle:  9   Etot: -177.669568236795186   dEtot: -5.109e-09   |Residual|: 6.693e-06   |deigs|: 1.840e-06  t[s]:     59.24
SCF: Converged (|Delta E|<1.000000e-08 for 2 iters).

Setting wave functions to eigenvectors of Hamiltonian
IonicMinimize: 	Predicted alpha/alphaT>3.000000, increasing alphaT to 1.946846e+01.

Computing DFT-D3 correction:
# coordination-number S 2.654 2.781 2.480 3.225 2.343 2.003 3.036 2.946
# coordination-number Na 4.339 4.464
# diagonal-C6 S 125.81 125.81 125.81 125.81 125.82 125.90 125.81 125.81
# diagonal-C6 Na 186.11 186.11
EvdW_6 =   -0.002902
EvdW_8 =   -0.011015

-------- Electronic minimization -----------
Will mix electronic density at each iteration.
SCF: Cycle:  0   Etot: -177.669569473694310   dEtot: -2.703e-05   |Residual|: 1.527e-03   |deigs|: 6.758e-07  t[s]:     59.97
SCF: Cycle:  1   Etot: -177.669572957545142   dEtot: -3.484e-06   |Residual|: 8.578e-04   |deigs|: 2.438e-05  t[s]:     60.39
SCF: Cycle:  2   Etot: -177.669574662716741   dEtot: -1.705e-06   |Residual|: 2.493e-04   |deigs|: 3.598e-05  t[s]:     60.81
SCF: Cycle:  3   Etot: -177.669575028729724   dEtot: -3.660e-07   |Residual|: 1.481e-04   |deigs|: 7.928e-06  t[s]:     61.24
SCF: Cycle:  4   Etot: -177.669575161049124   dEtot: -1.323e-07   |Residual|: 1.154e-04   |deigs|: 1.440e-05  t[s]:     61.66
SCF: Cycle:  5   Etot: -177.669575254466594   dEtot: -9.342e-08   |Residual|: 5.308e-05   |deigs|: 4.076e-06  t[s]:     62.09
SCF: Cycle:  6   Etot: -177.669575301641999   dEtot: -4.718e-08   |Residual|: 3.744e-05   |deigs|: 4.365e-06  t[s]:     62.52
SCF: Cycle:  7   Etot: -177.669575326276458   dEtot: -2.463e-08   |Residual|: 2.405e-05   |deigs|: 6.062e-06  t[s]:     62.96
SCF: Cycle:  8   Etot: -177.669575341283974   dEtot: -1.501e-08   |Residual|: 1.894e-05   |deigs|: 1.125e-06  t[s]:     63.38
SCF: Cycle:  9   Etot: -177.669575352842827   dEtot: -1.156e-08   |Residual|: 1.495e-05   |deigs|: 3.471e-06  t[s]:     63.81
SCF: Cycle: 10   Etot: -177.669575359822261   dEtot: -6.979e-09   |Residual|: 1.633e-05   |deigs|: 1.453e-06  t[s]:     64.26
SCF: Cycle: 11   Etot: -177.669575364794127   dEtot: -4.972e-09   |Residual|: 9.606e-06   |deigs|: 1.456e-06  t[s]:     64.70
SCF: Converged (|Delta E|<1.000000e-08 for 2 iters).

Setting wave functions to eigenvectors of Hamiltonian

Computing DFT-D3 correction:
# coordination-number S 2.654 2.779 2.479 3.216 2.343 2.002 3.042 2.946
# coordination-number Na 4.337 4.469
# diagonal-C6 S 125.81 125.81 125.81 125.81 125.82 125.90 125.81 125.81
# diagonal-C6 Na 186.11 186.11
EvdW_6 =   -0.002903
EvdW_8 =   -0.011018

-------- Electronic minimization -----------
Will mix electronic density at each iteration.
SCF: Cycle:  0   Etot: -177.669572653235008   dEtot: -1.248e-05   |Residual|: 9.457e-04   |deigs|: 2.949e-07  t[s]:     65.38
SCF: Cycle:  1   Etot: -177.669575392609033   dEtot: -2.739e-06   |Residual|: 5.251e-04   |deigs|: 1.432e-05  t[s]:     65.81
SCF: Cycle:  2   Etot: -177.669576286324371   dEtot: -8.937e-07   |Residual|: 1.396e-04   |deigs|: 1.962e-05  t[s]:     66.24
SCF: Cycle:  3   Etot: -177.669576562944087   dEtot: -2.766e-07   |Residual|: 9.816e-05   |deigs|: 5.999e-06  t[s]:     66.66
SCF: Cycle:  4   Etot: -177.669576701648992   dEtot: -1.387e-07   |Residual|: 3.602e-05   |deigs|: 9.186e-06  t[s]:     67.08
SCF: Cycle:  5   Etot: -177.669576775431182   dEtot: -7.378e-08   |Residual|: 2.511e-05   |deigs|: 4.067e-06  t[s]:     67.52
SCF: Cycle:  6   Etot: -177.669576818525684   dEtot: -4.309e-08   |Residual|: 1.551e-05   |deigs|: 3.709e-06  t[s]:     67.96
SCF: Cycle:  7   Etot: -177.669576844639693   dEtot: -2.611e-08   |Residual|: 1.273e-05   |deigs|: 4.314e-06  t[s]:     68.40
SCF: Cycle:  8   Etot: -177.669576861420438   dEtot: -1.678e-08   |Residual|: 1.197e-05   |deigs|: 3.404e-07  t[s]:     68.84
SCF: Cycle:  9   Etot: -177.669576873121258   dEtot: -1.170e-08   |Residual|: 8.087e-06   |deigs|: 2.031e-06  t[s]:     69.28
SCF: Cycle: 10   Etot: -177.669576880952917   dEtot: -7.832e-09   |Residual|: 7.296e-06   |deigs|: 9.851e-07  t[s]:     69.71
SCF: Cycle: 11   Etot: -177.669576886365405   dEtot: -5.412e-09   |Residual|: 4.494e-06   |deigs|: 8.158e-07  t[s]:     70.13
SCF: Converged (|Delta E|<1.000000e-08 for 2 iters).

Setting wave functions to eigenvectors of Hamiltonian

Computing DFT-D3 correction:
# coordination-number S 2.654 2.779 2.479 3.216 2.343 2.002 3.042 2.946
# coordination-number Na 4.337 4.469
# diagonal-C6 S 125.81 125.81 125.81 125.81 125.82 125.90 125.81 125.81
# diagonal-C6 Na 186.11 186.11
EvdW_6 =   -0.002903
EvdW_8 =   -0.011018

# Ionic positions in cartesian coordinates:
ion S   5.177286535736894  10.973461861493316  20.522963545786677 1
ion S   4.394706989968665   8.280830702749768  23.985933839396132 1
ion S   4.521351670517729  10.263179544148938  27.153702385244618 1
ion S   8.623138170015809   8.723085940316439  28.677519012904849 1
ion S  10.037138170206287  10.433242856887803  31.729537288370093 1
ion S  11.905403512340278  13.688644046258583  31.131360150907085 1
ion S   6.528300911647850  14.241554576191232  21.820839514689816 1
ion S  10.415340008713457  14.177433957901913  22.306478200562633 1
ion Na   8.905472081553643  14.764704122804739  27.171916274714413 1
ion Na   9.948711631419368   9.176369800007251  23.402066945193681 1

# Forces in Cartesian coordinates:
force S   0.000110118442796   0.000317855464147   0.000370273568727 1
force S   0.000099510298264   0.000049557107953  -0.000372210501381 1
force S   0.000193838785988  -0.000108639868602   0.000276643082314 1
force S  -0.000289021259633  -0.000190385194128  -0.000533058499197 1
force S   0.000014660873312   0.000178941063143   0.000635826945364 1
force S   0.000093455491447  -0.000098463265643  -0.000286366294568 1
force S   0.000051865754242  -0.000390297137600  -0.000265258654883 1
force S  -0.000227770157294  -0.000200151917415   0.000156034041863 1
force Na  -0.000023037425473   0.000193237734747  -0.000084574433340 1
force Na  -0.000020251968654   0.000260961926165   0.000135462859822 1

# Energy components:
   Eewald =      300.8955362886428588
       EH =      446.3629407079442331
     Eloc =     -809.0885659825753464
      Enl =     -129.5699414296619807
     EvdW =       -0.0139203547469999
      Exc =      -47.9573553195671636
 Exc_core =       14.1418394531555993
       KE =       47.5598897504433893
-------------------------------------
     Etot =     -177.6695768863654052

IonicMinimize: Iter:   4  Etot: -177.669576886365405  |grad|_K:  2.544e-04  alpha:  2.872e+01  linmin:  8.559e-03  t[s]:     70.49

#--- Lowdin population analysis ---
# oxidation-state S -0.054 -0.014 -0.042 -0.136 +0.263 -0.429 +0.171 -0.529
# oxidation-state Na +0.736 +0.735


Computing DFT-D3 correction:
# coordination-number S 2.664 2.775 2.483 3.174 2.331 2.002 3.087 2.951
# coordination-number Na 4.311 4.522
# diagonal-C6 S 125.81 125.81 125.81 125.81 125.82 125.90 125.81 125.81
# diagonal-C6 Na 186.11 186.11
EvdW_6 =   -0.002907
EvdW_8 =   -0.011021

-------- Electronic minimization -----------
Will mix electronic density at each iteration.
SCF: Cycle:  0   Etot: -177.661446057244092   dEtot: -4.631e-02   |Residual|: 1.054e-01   |deigs|: 1.766e-03  t[s]:     71.21
SCF: Cycle:  1   Etot: -177.665731625700715   dEtot: -4.286e-03   |Residual|: 5.447e-02   |deigs|: 1.797e-03  t[s]:     71.73
SCF: Cycle:  2   Etot: -177.669246459549242   dEtot: -3.515e-03   |Residual|: 1.532e-02   |deigs|: 1.715e-03  t[s]:     72.24
SCF: Cycle:  3   Etot: -177.669396588772230   dEtot: -1.501e-04   |Residual|: 8.500e-03   |deigs|: 2.393e-04  t[s]:     72.74
SCF: Cycle:  4   Etot: -177.669402725424959   dEtot: -6.137e-06   |Residual|: 4.206e-03   |deigs|: 3.642e-04  t[s]:     73.20
SCF: Cycle:  5   Etot: -177.669437937755760   dEtot: -3.521e-05   |Residual|: 2.832e-03   |deigs|: 9.538e-05  t[s]:     73.62
SCF: Cycle:  6   Etot: -177.669468508898632   dEtot: -3.057e-05   |Residual|: 3.432e-03   |deigs|: 3.446e-04  t[s]:     74.11
SCF: Cycle:  7   Etot: -177.669485692747713   dEtot: -1.718e-05   |Residual|: 2.065e-03   |deigs|: 5.946e-05  t[s]:     74.54
SCF: Cycle:  8   Etot: -177.669452011542603   dEtot: +3.368e-05   |Residual|: 3.442e-03   |deigs|: 1.686e-04  t[s]:     75.02
SCF: Cycle:  9   Etot: -177.669463849306567   dEtot: -1.184e-05   |Residual|: 2.974e-03   |deigs|: 6.356e-05  t[s]:     75.44
SCF: Cycle: 10   Etot: -177.669496220734402   dEtot: -3.237e-05   |Residual|: 1.403e-03   |deigs|: 1.229e-04  t[s]:     75.88
SCF: Cycle: 11   Etot: -177.669506293896234   dEtot: -1.007e-05   |Residual|: 7.228e-04   |deigs|: 7.731e-05  t[s]:     76.30
SCF: Cycle: 12   Etot: -177.669508681570591   dEtot: -2.388e-06   |Residual|: 6.062e-04   |deigs|: 4.488e-05  t[s]:     76.72
SCF: Cycle: 13   Etot: -177.669509969396586   dEtot: -1.288e-06   |Residual|: 5.809e-04   |deigs|: 7.892e-05  t[s]:     77.15
SCF: Cycle: 14   Etot: -177.669510601509728   dEtot: -6.321e-07   |Residual|: 2.940e-04   |deigs|: 2.610e-05  t[s]:     77.58
SCF: Cycle: 15   Etot: -177.669510280785772   dEtot: +3.207e-07   |Residual|: 6.406e-04   |deigs|: 6.167e-05  t[s]:     78.05
SCF: Cycle: 16   Etot: -177.669510517198006   dEtot: -2.364e-07   |Residual|: 4.487e-04   |deigs|: 2.122e-05  t[s]:     78.48
SCF: Cycle: 17   Etot: -177.669510463607537   dEtot: +5.359e-08   |Residual|: 5.658e-04   |deigs|: 5.743e-05  t[s]:     78.96
SCF: Cycle: 18   Etot: -177.669511089430415   dEtot: -6.258e-07   |Residual|: 2.694e-04   |deigs|: 1.725e-05  t[s]:     79.44
SCF: Cycle: 19   Etot: -177.669511401609157   dEtot: -3.122e-07   |Residual|: 1.674e-04   |deigs|: 1.803e-05  t[s]:     79.85
SCF: Cycle: 20   Etot: -177.669511374803761   dEtot: +2.681e-08   |Residual|: 3.698e-04   |deigs|: 6.377e-05  t[s]:     80.30
SCF: Cycle: 21   Etot: -177.669511630705614   dEtot: -2.559e-07   |Residual|: 1.894e-04   |deigs|: 2.820e-05  t[s]:     80.78
SCF: Cycle: 22   Etot: -177.669511645713385   dEtot: -1.501e-08   |Residual|: 2.350e-04   |deigs|: 3.493e-05  t[s]:     81.19
SCF: Cycle: 23   Etot: -177.669511787094478   dEtot: -1.414e-07   |Residual|: 1.225e-04   |deigs|: 3.666e-05  t[s]:     81.67
SCF: Cycle: 24   Etot: -177.669511829703652   dEtot: -4.261e-08   |Residual|: 9.083e-05   |deigs|: 2.431e-05  t[s]:     82.10
SCF: Cycle: 25   Etot: -177.669511881054689   dEtot: -5.135e-08   |Residual|: 6.249e-05   |deigs|: 2.159e-05  t[s]:     82.51
SCF: Cycle: 26   Etot: -177.669511907441631   dEtot: -2.639e-08   |Residual|: 5.517e-05   |deigs|: 1.467e-05  t[s]:     82.93
SCF: Cycle: 27   Etot: -177.669511926685061   dEtot: -1.924e-08   |Residual|: 3.259e-05   |deigs|: 8.123e-06  t[s]:     83.36
SCF: Cycle: 28   Etot: -177.669511940808178   dEtot: -1.412e-08   |Residual|: 2.006e-05   |deigs|: 5.625e-06  t[s]:     83.78
SCF: Cycle: 29   Etot: -177.669511946807972   dEtot: -6.000e-09   |Residual|: 1.573e-05   |deigs|: 6.746e-06  t[s]:     84.21
SCF: Cycle: 30   Etot: -177.669511950795766   dEtot: -3.988e-09   |Residual|: 1.356e-05   |deigs|: 5.451e-06  t[s]:     84.64
SCF: Converged (|Delta E|<1.000000e-08 for 2 iters).

Setting wave functions to eigenvectors of Hamiltonian

Computing DFT-D3 correction:
# coordination-number S 2.657 2.778 2.480 3.206 2.340 2.002 3.053 2.947
# coordination-number Na 4.331 4.481
# diagonal-C6 S 125.81 125.81 125.81 125.81 125.82 125.90 125.81 125.81
# diagonal-C6 Na 186.11 186.11
EvdW_6 =   -0.002904
EvdW_8 =   -0.011019

-------- Electronic minimization -----------
Will mix electronic density at each iteration.
SCF: Cycle:  0   Etot: -177.669505775231016   dEtot: -3.641e-04   |Residual|: 6.226e-03   |deigs|: 9.665e-06  t[s]:     85.39
SCF: Cycle:  1   Etot: -177.669547723050528   dEtot: -4.195e-05   |Residual|: 3.547e-03   |deigs|: 1.025e-04  t[s]:     85.84
SCF: Cycle:  2   Etot: -177.669574365142211   dEtot: -2.664e-05   |Residual|: 1.078e-03   |deigs|: 1.456e-04  t[s]:     86.25
SCF: Cycle:  3   Etot: -177.669579041608387   dEtot: -4.676e-06   |Residual|: 5.880e-04   |deigs|: 3.451e-05  t[s]:     86.67
SCF: Cycle:  4   Etot: -177.669580532924755   dEtot: -1.491e-06   |Residual|: 4.840e-04   |deigs|: 4.783e-05  t[s]:     87.09
SCF: Cycle:  5   Etot: -177.669581691976418   dEtot: -1.159e-06   |Residual|: 2.328e-04   |deigs|: 1.270e-05  t[s]:     87.51
SCF: Cycle:  6   Etot: -177.669582294240627   dEtot: -6.023e-07   |Residual|: 2.014e-04   |deigs|: 1.519e-05  t[s]:     87.93
SCF: Cycle:  7   Etot: -177.669582617975095   dEtot: -3.237e-07   |Residual|: 1.418e-04   |deigs|: 1.529e-05  t[s]:     88.36
SCF: Cycle:  8   Etot: -177.669582826300768   dEtot: -2.083e-07   |Residual|: 9.743e-05   |deigs|: 7.096e-06  t[s]:     88.79
SCF: Cycle:  9   Etot: -177.669582994147788   dEtot: -1.678e-07   |Residual|: 1.195e-04   |deigs|: 1.683e-05  t[s]:     89.21
SCF: Cycle: 10   Etot: -177.669583086412729   dEtot: -9.226e-08   |Residual|: 9.554e-05   |deigs|: 2.929e-06  t[s]:     89.63
SCF: Cycle: 11   Etot: -177.669583175069022   dEtot: -8.866e-08   |Residual|: 4.423e-05   |deigs|: 4.266e-06  t[s]:     90.06
SCF: Cycle: 12   Etot: -177.669583231360519   dEtot: -5.629e-08   |Residual|: 7.351e-05   |deigs|: 4.635e-06  t[s]:     90.48
SCF: Cycle: 13   Etot: -177.669583273257558   dEtot: -4.190e-08   |Residual|: 2.872e-05   |deigs|: 3.127e-06  t[s]:     90.91
SCF: Cycle: 14   Etot: -177.669583285266128   dEtot: -1.201e-08   |Residual|: 8.079e-05   |deigs|: 2.440e-06  t[s]:     91.33
SCF: Cycle: 15   Etot: -177.669583321344589   dEtot: -3.608e-08   |Residual|: 4.189e-05   |deigs|: 2.914e-06  t[s]:     91.80
SCF: Cycle: 16   Etot: -177.669583331822366   dEtot: -1.048e-08   |Residual|: 2.727e-05   |deigs|: 1.079e-06  t[s]:     92.21
SCF: Cycle: 17   Etot: -177.669583338201647   dEtot: -6.379e-09   |Residual|: 3.643e-05   |deigs|: 2.780e-06  t[s]:     92.67
SCF: Cycle: 18   Etot: -177.669583341702037   dEtot: -3.500e-09   |Residual|: 3.586e-05   |deigs|: 5.791e-07  t[s]:     93.10
SCF: Converged (|Delta E|<1.000000e-08 for 2 iters).

Setting wave functions to eigenvectors of Hamiltonian

Computing DFT-D3 correction:
# coordination-number S 2.657 2.778 2.480 3.206 2.340 2.002 3.053 2.947
# coordination-number Na 4.331 4.481
# diagonal-C6 S 125.81 125.81 125.81 125.81 125.82 125.90 125.81 125.81
# diagonal-C6 Na 186.11 186.11
EvdW_6 =   -0.002904
EvdW_8 =   -0.011019

# Ionic positions in cartesian coordinates:
ion S   5.181426771086250  10.976779340907706  20.524541743288960 1
ion S   4.392401976786756   8.279294223430826  23.982794873753839 1
ion S   4.524471192673507  10.259989565936767  27.154040362854875 1
ion S   8.621590697318107   8.712734331236661  28.679595739094644 1
ion S  10.032016887192704  10.437390193517270  31.732023822417919 1
ion S  11.907195758955377  13.686735366845685  31.123060493361095 1
ion S   6.528954835342418  14.239143037655605  21.826793975682822 1
ion S  10.415420827074540  14.179265701481633  22.304780026317129 1
ion Na   8.906101569301224  14.770198078160680  27.166889788495190 1
ion Na   9.947269166389107   9.180977569587148  23.407796332503530 1

# Forces in Cartesian coordinates:
force S  -0.000241977214096  -0.000288011804343   0.000048327579478 1
force S   0.000104486778741   0.000241075401143  -0.000000145878499 1
force S   0.000368801597282  -0.000401353598372  -0.000131172020995 1
force S  -0.000151224600379   0.000308145710136   0.000140970479214 1
force S  -0.000256602098997  -0.000152792434106  -0.000096127668812 1
force S   0.000078062153176  -0.000122144719780  -0.000287358941297 1
force S   0.000042920344317   0.000322052644248  -0.000154114176686 1
force S   0.000031984371949  -0.000187840206605   0.000189654681720 1
force Na  -0.000047121607550   0.000202563323743   0.000016366210164 1
force Na   0.000009420668942   0.000187829418741   0.000131088279854 1

# Energy components:
   Eewald =      300.9343086040525463
       EH =      446.4008876371735823
     Eloc =     -809.1647265645240168
      Enl =     -129.5702390280629572
     EvdW =       -0.0139224136727570
      Exc =      -47.9572562032793002
 Exc_core =       14.1418393298385059
       KE =       47.5595252967722928
-------------------------------------
     Etot =     -177.6695833417020367

IonicMinimize: Iter:   5  Etot: -177.669583341702037  |grad|_K:  1.967e-04  alpha:  6.569e+00  linmin: -3.023e-02  t[s]:     93.46

#--- Lowdin population analysis ---
# oxidation-state S -0.053 -0.014 -0.042 -0.137 +0.261 -0.429 +0.172 -0.529
# oxidation-state Na +0.736 +0.735


Computing DFT-D3 correction:
# coordination-number S 2.658 2.779 2.483 3.203 2.338 2.002 3.057 2.948
# coordination-number Na 4.326 4.489
# diagonal-C6 S 125.81 125.81 125.81 125.81 125.82 125.90 125.81 125.81
# diagonal-C6 Na 186.11 186.11
EvdW_6 =   -0.002904
EvdW_8 =   -0.011021

-------- Electronic minimization -----------
Will mix electronic density at each iteration.
SCF: Cycle:  0   Etot: -177.669585431394808   dEtot: -1.147e-05   |Residual|: 9.833e-04   |deigs|: 2.982e-07  t[s]:     94.09
SCF: Cycle:  1   Etot: -177.669588375540741   dEtot: -2.944e-06   |Residual|: 5.458e-04   |deigs|: 1.440e-05  t[s]:     94.53
SCF: Cycle:  2   Etot: -177.669589306203051   dEtot: -9.307e-07   |Residual|: 1.680e-04   |deigs|: 1.482e-05  t[s]:     94.96
SCF: Cycle:  3   Etot: -177.669589581381018   dEtot: -2.752e-07   |Residual|: 1.177e-04   |deigs|: 5.737e-06  t[s]:     95.36
SCF: Cycle:  4   Etot: -177.669589726488539   dEtot: -1.451e-07   |Residual|: 5.942e-05   |deigs|: 9.521e-06  t[s]:     95.77
SCF: Cycle:  5   Etot: -177.669589805625179   dEtot: -7.914e-08   |Residual|: 3.786e-05   |deigs|: 6.856e-06  t[s]:     96.19
SCF: Cycle:  6   Etot: -177.669589858575733   dEtot: -5.295e-08   |Residual|: 5.818e-05   |deigs|: 3.707e-06  t[s]:     96.64
SCF: Cycle:  7   Etot: -177.669589893907357   dEtot: -3.533e-08   |Residual|: 3.921e-05   |deigs|: 5.722e-06  t[s]:     97.06
SCF: Cycle:  8   Etot: -177.669589911196823   dEtot: -1.729e-08   |Residual|: 2.371e-05   |deigs|: 3.238e-06  t[s]:     97.48
SCF: Cycle:  9   Etot: -177.669589926214144   dEtot: -1.502e-08   |Residual|: 2.003e-05   |deigs|: 6.012e-06  t[s]:     97.91
SCF: Cycle: 10   Etot: -177.669589933418479   dEtot: -7.204e-09   |Residual|: 1.423e-05   |deigs|: 8.454e-07  t[s]:     98.35
SCF: Cycle: 11   Etot: -177.669589940030818   dEtot: -6.612e-09   |Residual|: 1.107e-05   |deigs|: 1.378e-06  t[s]:     98.77
SCF: Converged (|Delta E|<1.000000e-08 for 2 iters).

Setting wave functions to eigenvectors of Hamiltonian

Computing DFT-D3 correction:
# coordination-number S 2.661 2.780 2.489 3.197 2.335 2.003 3.066 2.950
# coordination-number Na 4.318 4.504
# diagonal-C6 S 125.81 125.81 125.81 125.81 125.82 125.90 125.81 125.81
# diagonal-C6 Na 186.11 186.11
EvdW_6 =   -0.002906
EvdW_8 =   -0.011024

-------- Electronic minimization -----------
Will mix electronic density at each iteration.
SCF: Cycle:  0   Etot: -177.669585953342335   dEtot: -4.145e-05   |Residual|: 1.945e-03   |deigs|: 1.105e-06  t[s]:     99.50
SCF: Cycle:  1   Etot: -177.669591204646338   dEtot: -5.251e-06   |Residual|: 1.120e-03   |deigs|: 2.955e-05  t[s]:     99.93
SCF: Cycle:  2   Etot: -177.669594029987110   dEtot: -2.825e-06   |Residual|: 3.679e-04   |deigs|: 3.760e-05  t[s]:    100.34
SCF: Cycle:  3   Etot: -177.669594688323826   dEtot: -6.583e-07   |Residual|: 2.448e-04   |deigs|: 1.193e-05  t[s]:    100.75
SCF: Cycle:  4   Etot: -177.669594979663259   dEtot: -2.913e-07   |Residual|: 2.034e-04   |deigs|: 1.392e-05  t[s]:    101.18
SCF: Cycle:  5   Etot: -177.669595110367510   dEtot: -1.307e-07   |Residual|: 1.606e-04   |deigs|: 7.734e-06  t[s]:    101.64
SCF: Cycle:  6   Etot: -177.669595104550950   dEtot: +5.817e-09   |Residual|: 2.155e-04   |deigs|: 1.107e-06  t[s]:    102.10
SCF: Cycle:  7   Etot: -177.669595090434797   dEtot: +1.412e-08   |Residual|: 2.398e-04   |deigs|: 4.732e-06  t[s]:    102.59
SCF: Cycle:  8   Etot: -177.669595176828977   dEtot: -8.639e-08   |Residual|: 2.302e-04   |deigs|: 1.024e-05  t[s]:    103.06
SCF: Cycle:  9   Etot: -177.669595267999853   dEtot: -9.117e-08   |Residual|: 1.893e-04   |deigs|: 8.706e-06  t[s]:    103.49
SCF: Cycle: 10   Etot: -177.669595323933720   dEtot: -5.593e-08   |Residual|: 1.502e-04   |deigs|: 5.282e-06  t[s]:    103.91
SCF: Cycle: 11   Etot: -177.669595452599793   dEtot: -1.287e-07   |Residual|: 7.699e-05   |deigs|: 1.196e-05  t[s]:    104.38
SCF: Cycle: 12   Etot: -177.669595465487589   dEtot: -1.289e-08   |Residual|: 7.462e-05   |deigs|: 1.254e-06  t[s]:    104.81
SCF: Cycle: 13   Etot: -177.669595469961990   dEtot: -4.474e-09   |Residual|: 7.032e-05   |deigs|: 1.322e-06  t[s]:    105.23
SCF: Cycle: 14   Etot: -177.669595484170117   dEtot: -1.421e-08   |Residual|: 5.154e-05   |deigs|: 2.984e-06  t[s]:    105.66
SCF: Cycle: 15   Etot: -177.669595493096097   dEtot: -8.926e-09   |Residual|: 5.682e-05   |deigs|: 2.296e-06  t[s]:    106.10
SCF: Cycle: 16   Etot: -177.669595497017099   dEtot: -3.921e-09   |Residual|: 3.037e-05   |deigs|: 1.849e-06  t[s]:    106.54
SCF: Converged (|Delta E|<1.000000e-08 for 2 iters).

Setting wave functions to eigenvectors of Hamiltonian

Computing DFT-D3 correction:
# coordination-number S 2.661 2.780 2.489 3.197 2.335 2.003 3.066 2.950
# coordination-number Na 4.318 4.504
# diagonal-C6 S 125.81 125.81 125.81 125.81 125.82 125.90 125.81 125.81
# diagonal-C6 Na 186.11 186.11
EvdW_6 =   -0.002906
EvdW_8 =   -0.011024

# Ionic positions in cartesian coordinates:
ion S   5.183997746166740  10.976834374194492  20.528301621874188 1
ion S   4.390593332924164   8.280939740860921  23.977842900679509 1
ion S   4.536483230664301  10.247179152182133  27.152469685555975 1
ion S   8.616377390696256   8.700973856317651  28.685871874477868 1
ion S  10.018951724336748  10.441287524062901  31.734657564433061 1
ion S  11.911704789193966  13.681141451766067  31.104308235804385 1
ion S   6.530934154917530  14.240812665547836  21.834125616232196 1
ion S  10.416249706057737  14.178681352631783  22.305679252045572 1
ion Na   8.906398807471671  14.782808518646199  27.159106497041503 1
ion Na   9.945158799690869   9.191848772550003  23.419953909625747 1

# Forces in Cartesian coordinates:
force S  -0.000230803939850   0.000064437226665  -0.000070095654615 1
force S   0.000059945619453  -0.000437875055525  -0.000461843762059 1
force S   0.000117256134780   0.000236145162124   0.000701712637123 1
force S  -0.000015532987228   0.000067859811813   0.000231073446338 1
force S   0.000019832865835   0.000377419404989  -0.000439153516185 1
force S  -0.000213092018870  -0.000572295101093  -0.000092505751725 1
force S  -0.000265000588428   0.000083459229591  -0.000336865769475 1
force S   0.000385535413352   0.000015728086291   0.000147212413276 1
force Na  -0.000054851537023   0.000236631976637   0.000273871000286 1
force Na   0.000132984712770  -0.000040316229860   0.000170951509355 1

# Energy components:
   Eewald =      301.0871163010097575
       EH =      446.5487371667813363
     Eloc =     -809.4671495035885300
      Enl =     -129.5705658230428696
     EvdW =       -0.0139300570190115
      Exc =      -47.9590936789401425
 Exc_core =       14.1418391050741725
       KE =       47.5634509927082121
-------------------------------------
     Etot =     -177.6695954970170988

IonicMinimize: Iter:   6  Etot: -177.669595497017099  |grad|_K:  2.799e-04  alpha:  1.823e+01  linmin: -3.830e-02  t[s]:    106.88

#--- Lowdin population analysis ---
# oxidation-state S -0.053 -0.013 -0.039 -0.135 +0.259 -0.431 +0.171 -0.528
# oxidation-state Na +0.736 +0.735


Computing DFT-D3 correction:
# coordination-number S 2.663 2.782 2.507 3.178 2.330 2.005 3.080 2.953
# coordination-number Na 4.288 4.536
# diagonal-C6 S 125.81 125.81 125.81 125.81 125.82 125.90 125.81 125.81
# diagonal-C6 Na 186.11 186.11
EvdW_6 =   -0.002912
EvdW_8 =   -0.011054

-------- Electronic minimization -----------
Will mix electronic density at each iteration.
SCF: Cycle:  0   Etot: -177.660786148546578   dEtot: -4.530e-02   |Residual|: 1.056e-01   |deigs|: 1.814e-03  t[s]:    107.58
SCF: Cycle:  1   Etot: -177.665431138459184   dEtot: -4.645e-03   |Residual|: 5.441e-02   |deigs|: 1.732e-03  t[s]:    108.10
SCF: Cycle:  2   Etot: -177.669301516920996   dEtot: -3.870e-03   |Residual|: 1.675e-02   |deigs|: 1.638e-03  t[s]:    108.59
SCF: Cycle:  3   Etot: -177.669471830012981   dEtot: -1.703e-04   |Residual|: 9.487e-03   |deigs|: 2.897e-04  t[s]:    109.07
SCF: Cycle:  4   Etot: -177.669440042799806   dEtot: +3.179e-05   |Residual|: 4.778e-03   |deigs|: 5.614e-04  t[s]:    109.55
SCF: Cycle:  5   Etot: -177.669486496424668   dEtot: -4.645e-05   |Residual|: 3.251e-03   |deigs|: 1.381e-04  t[s]:    109.97
SCF: Cycle:  6   Etot: -177.669539335337248   dEtot: -5.284e-05   |Residual|: 3.529e-03   |deigs|: 4.943e-04  t[s]:    110.44
SCF: Cycle:  7   Etot: -177.669561635779559   dEtot: -2.230e-05   |Residual|: 1.804e-03   |deigs|: 1.004e-04  t[s]:    110.87
SCF: Cycle:  8   Etot: -177.669524268287233   dEtot: +3.737e-05   |Residual|: 3.499e-03   |deigs|: 2.805e-04  t[s]:    111.35
SCF: Cycle:  9   Etot: -177.669546572417460   dEtot: -2.230e-05   |Residual|: 2.563e-03   |deigs|: 1.057e-04  t[s]:    111.77
SCF: Cycle: 10   Etot: -177.669579958872475   dEtot: -3.339e-05   |Residual|: 6.175e-04   |deigs|: 1.628e-04  t[s]:    112.19
SCF: Cycle: 11   Etot: -177.669584005600626   dEtot: -4.047e-06   |Residual|: 5.444e-04   |deigs|: 8.990e-05  t[s]:    112.62
SCF: Cycle: 12   Etot: -177.669585492629608   dEtot: -1.487e-06   |Residual|: 4.739e-04   |deigs|: 1.194e-04  t[s]:    113.06
SCF: Cycle: 13   Etot: -177.669586244065385   dEtot: -7.514e-07   |Residual|: 3.680e-04   |deigs|: 7.653e-05  t[s]:    113.48
SCF: Cycle: 14   Etot: -177.669586916145533   dEtot: -6.721e-07   |Residual|: 2.734e-04   |deigs|: 9.785e-05  t[s]:    113.90
SCF: Cycle: 15   Etot: -177.669587076986517   dEtot: -1.608e-07   |Residual|: 2.542e-04   |deigs|: 5.548e-05  t[s]:    114.32
SCF: Cycle: 16   Etot: -177.669587485363820   dEtot: -4.084e-07   |Residual|: 2.162e-04   |deigs|: 7.905e-05  t[s]:    114.80
SCF: Cycle: 17   Etot: -177.669587674560546   dEtot: -1.892e-07   |Residual|: 1.683e-04   |deigs|: 4.399e-05  t[s]:    115.21
SCF: Cycle: 18   Etot: -177.669587611061417   dEtot: +6.350e-08   |Residual|: 2.544e-04   |deigs|: 5.900e-05  t[s]:    115.67
SCF: Cycle: 19   Etot: -177.669587750313639   dEtot: -1.393e-07   |Residual|: 1.690e-04   |deigs|: 1.809e-05  t[s]:    116.14
SCF: Cycle: 20   Etot: -177.669587805344548   dEtot: -5.503e-08   |Residual|: 2.178e-04   |deigs|: 2.856e-05  t[s]:    116.57
SCF: Cycle: 21   Etot: -177.669587918816234   dEtot: -1.135e-07   |Residual|: 1.083e-04   |deigs|: 1.699e-05  t[s]:    117.00
SCF: Cycle: 22   Etot: -177.669587889486479   dEtot: +2.933e-08   |Residual|: 1.705e-04   |deigs|: 3.197e-05  t[s]:    117.42
SCF: Cycle: 23   Etot: -177.669588010539087   dEtot: -1.211e-07   |Residual|: 6.226e-05   |deigs|: 1.220e-05  t[s]:    117.89
SCF: Cycle: 24   Etot: -177.669587952964008   dEtot: +5.758e-08   |Residual|: 1.767e-04   |deigs|: 7.572e-06  t[s]:    118.31
SCF: Cycle: 25   Etot: -177.669588034278348   dEtot: -8.131e-08   |Residual|: 5.487e-05   |deigs|: 1.156e-05  t[s]:    118.73
SCF: Cycle: 26   Etot: -177.669588051493633   dEtot: -1.722e-08   |Residual|: 6.413e-05   |deigs|: 7.041e-06  t[s]:    119.15
SCF: Cycle: 27   Etot: -177.669588072480536   dEtot: -2.099e-08   |Residual|: 3.566e-05   |deigs|: 3.315e-06  t[s]:    119.59
SCF: Cycle: 28   Etot: -177.669588087227055   dEtot: -1.475e-08   |Residual|: 1.693e-05   |deigs|: 2.723e-06  t[s]:    120.00
SCF: Cycle: 29   Etot: -177.669588091760062   dEtot: -4.533e-09   |Residual|: 1.915e-05   |deigs|: 1.412e-06  t[s]:    120.43
SCF: Cycle: 30   Etot: -177.669588094937438   dEtot: -3.177e-09   |Residual|: 1.080e-05   |deigs|: 9.097e-07  t[s]:    120.86
SCF: Converged (|Delta E|<1.000000e-08 for 2 iters).

Setting wave functions to eigenvectors of Hamiltonian

Computing DFT-D3 correction:
# coordination-number S 2.662 2.781 2.497 3.188 2.333 2.004 3.072 2.952
# coordination-number Na 4.305 4.518
# diagonal-C6 S 125.81 125.81 125.81 125.81 125.82 125.90 125.81 125.81
# diagonal-C6 Na 186.11 186.11
EvdW_6 =   -0.002908
EvdW_8 =   -0.011038

-------- Electronic minimization -----------
Will mix electronic density at each iteration.
SCF: Cycle:  0   Etot: -177.669578627146677   dEtot: -1.620e-04   |Residual|: 3.684e-03   |deigs|: 4.116e-06  t[s]:    121.60
SCF: Cycle:  1   Etot: -177.669592582169884   dEtot: -1.396e-05   |Residual|: 2.156e-03   |deigs|: 7.480e-05  t[s]:    122.02
SCF: Cycle:  2   Etot: -177.669601688119826   dEtot: -9.106e-06   |Residual|: 7.019e-04   |deigs|: 1.084e-04  t[s]:    122.44
SCF: Cycle:  3   Etot: -177.669603716087977   dEtot: -2.028e-06   |Residual|: 3.911e-04   |deigs|: 2.445e-05  t[s]:    122.86
SCF: Cycle:  4   Etot: -177.669604524706642   dEtot: -8.086e-07   |Residual|: 4.016e-04   |deigs|: 3.271e-05  t[s]:    123.27
SCF: Cycle:  5   Etot: -177.669605182976966   dEtot: -6.583e-07   |Residual|: 2.063e-04   |deigs|: 1.297e-05  t[s]:    123.71
SCF: Cycle:  6   Etot: -177.669605533188559   dEtot: -3.502e-07   |Residual|: 1.515e-04   |deigs|: 1.693e-05  t[s]:    124.14
SCF: Cycle:  7   Etot: -177.669605720119648   dEtot: -1.869e-07   |Residual|: 1.279e-04   |deigs|: 1.786e-05  t[s]:    124.56
SCF: Cycle:  8   Etot: -177.669605803900595   dEtot: -8.378e-08   |Residual|: 1.243e-04   |deigs|: 1.748e-06  t[s]:    124.98
SCF: Cycle:  9   Etot: -177.669605967386190   dEtot: -1.635e-07   |Residual|: 9.017e-05   |deigs|: 6.280e-06  t[s]:    125.45
SCF: Cycle: 10   Etot: -177.669606000350001   dEtot: -3.296e-08   |Residual|: 8.125e-05   |deigs|: 1.906e-06  t[s]:    125.88
SCF: Cycle: 11   Etot: -177.669606023187129   dEtot: -2.284e-08   |Residual|: 3.945e-05   |deigs|: 1.318e-06  t[s]:    126.31
SCF: Cycle: 12   Etot: -177.669606040490180   dEtot: -1.730e-08   |Residual|: 5.368e-05   |deigs|: 2.901e-06  t[s]:    126.73
SCF: Cycle: 13   Etot: -177.669606053344211   dEtot: -1.285e-08   |Residual|: 3.030e-05   |deigs|: 1.565e-06  t[s]:    127.16
SCF: Cycle: 14   Etot: -177.669606063738513   dEtot: -1.039e-08   |Residual|: 3.489e-05   |deigs|: 2.037e-06  t[s]:    127.59
SCF: Cycle: 15   Etot: -177.669606069313033   dEtot: -5.575e-09   |Residual|: 2.536e-05   |deigs|: 9.893e-07  t[s]:    128.02
SCF: Cycle: 16   Etot: -177.669606073817420   dEtot: -4.504e-09   |Residual|: 1.430e-05   |deigs|: 1.248e-06  t[s]:    128.44
SCF: Converged (|Delta E|<1.000000e-08 for 2 iters).

Setting wave functions to eigenvectors of Hamiltonian

Computing DFT-D3 correction:
# coordination-number S 2.662 2.781 2.497 3.188 2.333 2.004 3.072 2.952
# coordination-number Na 4.305 4.518
# diagonal-C6 S 125.81 125.81 125.81 125.81 125.82 125.90 125.81 125.81
# diagonal-C6 Na 186.11 186.11
EvdW_6 =   -0.002908
EvdW_8 =   -0.011038

# Ionic positions in cartesian coordinates:
ion S   5.184479444451982  10.977366542032932  20.530945100367063 1
ion S   4.389531794878489   8.278901252930964  23.969760225609363 1
ion S   4.547985301322258  10.237792292940128  27.156533288951781 1
ion S   8.611736586392988   8.691178909373809  28.693097322282952 1
ion S  10.007709327020294  10.447656925521200  31.733401457412569 1
ion S  11.914024626208555  13.671698038477677  31.087047085420199 1
ion S   6.530627483743288  14.242909857858670  21.837793646635223 1
ion S  10.420069141403919  14.178268789725079  22.307530963695935 1
ion Na   8.906276669833602  14.795702220305580  27.154349207695773 1
ion Na   9.944409306864603   9.201032579593946  23.431858859699140 1

# Forces in Cartesian coordinates:
force S  -0.000241067267537   0.000338886495649  -0.000170091367805 1
force S   0.000200763310758   0.000143302062215   0.000588821177429 1
force S  -0.000194376023925  -0.000221912706443  -0.000299935941927 1
force S   0.000013961416728  -0.000411766393297  -0.000170349124767 1
force S  -0.000212893658472   0.000001701871857   0.000036714664760 1
force S   0.000254332221902   0.000113383733779  -0.000185552397082 1
force S   0.000185449201233  -0.000189415984003  -0.000428700944032 1
force S  -0.000072411555931   0.000176868139579   0.000010334130467 1
force Na  -0.000090742188375   0.000278468912035   0.000314599921956 1
force Na   0.000202326353439  -0.000215719716904   0.000171375702255 1

# Energy components:
   Eewald =      301.1775111388408845
       EH =      446.6378661457636099
     Eloc =     -809.6463928184283532
      Enl =     -129.5711540980591963
     EvdW =       -0.0139459451012969
      Exc =      -47.9598205534345894
 Exc_core =       14.1418388182678036
       KE =       47.5644912383337370
-------------------------------------
     Etot =     -177.6696060738174197

IonicMinimize: Iter:   7  Etot: -177.669606073817420  |grad|_K:  2.404e-04  alpha:  7.892e+00  linmin: -8.862e-03  t[s]:    128.80

#--- Lowdin population analysis ---
# oxidation-state S -0.052 -0.013 -0.039 -0.132 +0.258 -0.432 +0.169 -0.529
# oxidation-state Na +0.737 +0.735


Computing DFT-D3 correction:
# coordination-number S 2.658 2.781 2.500 3.180 2.331 2.005 3.073 2.952
# coordination-number Na 4.286 4.521
# diagonal-C6 S 125.81 125.81 125.81 125.81 125.82 125.90 125.81 125.81
# diagonal-C6 Na 186.11 186.11
EvdW_6 =   -0.002912
EvdW_8 =   -0.011058

-------- Electronic minimization -----------
Will mix electronic density at each iteration.
SCF: Cycle:  0   Etot: -177.669608714048849   dEtot: -5.271e-05   |Residual|: 2.032e-03   |deigs|: 1.394e-06  t[s]:    129.50
SCF: Cycle:  1   Etot: -177.669613603673895   dEtot: -4.890e-06   |Residual|: 1.180e-03   |deigs|: 2.105e-05  t[s]:    129.91
SCF: Cycle:  2   Etot: -177.669616141191568   dEtot: -2.538e-06   |Residual|: 3.177e-04   |deigs|: 2.934e-05  t[s]:    130.33
SCF: Cycle:  3   Etot: -177.669616786027149   dEtot: -6.448e-07   |Residual|: 2.203e-04   |deigs|: 9.098e-06  t[s]:    130.75
SCF: Cycle:  4   Etot: -177.669617137698793   dEtot: -3.517e-07   |Residual|: 1.882e-04   |deigs|: 1.944e-05  t[s]:    131.16
SCF: Cycle:  5   Etot: -177.669617342196517   dEtot: -2.045e-07   |Residual|: 9.000e-05   |deigs|: 4.368e-06  t[s]:    131.57
SCF: Cycle:  6   Etot: -177.669617451537192   dEtot: -1.093e-07   |Residual|: 8.513e-05   |deigs|: 1.092e-05  t[s]:    131.98
SCF: Cycle:  7   Etot: -177.669617524754784   dEtot: -7.322e-08   |Residual|: 7.430e-05   |deigs|: 1.108e-05  t[s]:    132.42
SCF: Cycle:  8   Etot: -177.669617574306812   dEtot: -4.955e-08   |Residual|: 3.596e-05   |deigs|: 1.567e-06  t[s]:    132.85
SCF: Cycle:  9   Etot: -177.669617610305238   dEtot: -3.600e-08   |Residual|: 5.016e-05   |deigs|: 7.243e-06  t[s]:    133.27
SCF: Cycle: 10   Etot: -177.669617633763949   dEtot: -2.346e-08   |Residual|: 4.423e-05   |deigs|: 1.725e-06  t[s]:    133.70
SCF: Cycle: 11   Etot: -177.669617653535255   dEtot: -1.977e-08   |Residual|: 2.044e-05   |deigs|: 1.463e-06  t[s]:    134.13
SCF: Cycle: 12   Etot: -177.669617665126168   dEtot: -1.159e-08   |Residual|: 3.766e-05   |deigs|: 1.679e-06  t[s]:    134.55
SCF: Cycle: 13   Etot: -177.669617673445146   dEtot: -8.319e-09   |Residual|: 1.914e-05   |deigs|: 1.142e-06  t[s]:    134.97
SCF: Cycle: 14   Etot: -177.669617678791724   dEtot: -5.347e-09   |Residual|: 3.356e-05   |deigs|: 2.037e-06  t[s]:    135.40
SCF: Converged (|Delta E|<1.000000e-08 for 2 iters).

Setting wave functions to eigenvectors of Hamiltonian

Computing DFT-D3 correction:
# coordination-number S 2.650 2.780 2.505 3.164 2.329 2.006 3.074 2.952
# coordination-number Na 4.249 4.528
# diagonal-C6 S 125.81 125.81 125.81 125.81 125.82 125.90 125.81 125.81
# diagonal-C6 Na 186.11 186.11
EvdW_6 =   -0.002917
EvdW_8 =   -0.011096

-------- Electronic minimization -----------
Will mix electronic density at each iteration.
SCF: Cycle:  0   Etot: -177.666037805315085   dEtot: -1.994e-02   |Residual|: 6.906e-02   |deigs|: 7.915e-04  t[s]:    136.16
SCF: Cycle:  1   Etot: -177.667914468633455   dEtot: -1.877e-03   |Residual|: 3.566e-02   |deigs|: 6.938e-04  t[s]:    136.67
SCF: Cycle:  2   Etot: -177.669495043896291   dEtot: -1.581e-03   |Residual|: 1.072e-02   |deigs|: 6.670e-04  t[s]:    137.17
SCF: Cycle:  3   Etot: -177.669567855291575   dEtot: -7.281e-05   |Residual|: 6.281e-03   |deigs|: 1.296e-04  t[s]:    137.64
SCF: Cycle:  4   Etot: -177.669524282393638   dEtot: +4.357e-05   |Residual|: 4.150e-03   |deigs|: 2.877e-04  t[s]:    138.11
SCF: Cycle:  5   Etot: -177.669547301762492   dEtot: -2.302e-05   |Residual|: 3.234e-03   |deigs|: 4.664e-05  t[s]:    138.54
SCF: Cycle:  6   Etot: -177.669599109715534   dEtot: -5.181e-05   |Residual|: 2.458e-03   |deigs|: 2.046e-04  t[s]:    139.02
SCF: Cycle:  7   Etot: -177.669609399160720   dEtot: -1.029e-05   |Residual|: 1.591e-03   |deigs|: 5.883e-05  t[s]:    139.46
SCF: Cycle:  8   Etot: -177.669599142786467   dEtot: +1.026e-05   |Residual|: 2.245e-03   |deigs|: 1.740e-04  t[s]:    139.92
SCF: Cycle:  9   Etot: -177.669608050239788   dEtot: -8.907e-06   |Residual|: 1.743e-03   |deigs|: 5.504e-05  t[s]:    140.35
SCF: Cycle: 10   Etot: -177.669622883963058   dEtot: -1.483e-05   |Residual|: 4.594e-04   |deigs|: 7.951e-05  t[s]:    140.78
SCF: Cycle: 11   Etot: -177.669624829071012   dEtot: -1.945e-06   |Residual|: 3.830e-04   |deigs|: 2.160e-05  t[s]:    141.20
SCF: Cycle: 12   Etot: -177.669626594465626   dEtot: -1.765e-06   |Residual|: 2.552e-04   |deigs|: 4.138e-05  t[s]:    141.62
SCF: Cycle: 13   Etot: -177.669627379933559   dEtot: -7.855e-07   |Residual|: 1.997e-04   |deigs|: 3.662e-05  t[s]:    142.05
SCF: Cycle: 14   Etot: -177.669627641093683   dEtot: -2.612e-07   |Residual|: 1.432e-04   |deigs|: 2.839e-05  t[s]:    142.47
SCF: Cycle: 15   Etot: -177.669627837102382   dEtot: -1.960e-07   |Residual|: 1.565e-04   |deigs|: 3.076e-05  t[s]:    142.93
SCF: Cycle: 16   Etot: -177.669628014953759   dEtot: -1.779e-07   |Residual|: 1.285e-04   |deigs|: 3.051e-05  t[s]:    143.36
SCF: Cycle: 17   Etot: -177.669628005465114   dEtot: +9.489e-09   |Residual|: 1.764e-04   |deigs|: 2.408e-05  t[s]:    143.79
SCF: Cycle: 18   Etot: -177.669628073815318   dEtot: -6.835e-08   |Residual|: 1.638e-04   |deigs|: 2.354e-05  t[s]:    144.28
SCF: Cycle: 19   Etot: -177.669628133574889   dEtot: -5.976e-08   |Residual|: 7.036e-05   |deigs|: 1.371e-05  t[s]:    144.70
SCF: Cycle: 20   Etot: -177.669628073669230   dEtot: +5.991e-08   |Residual|: 1.696e-04   |deigs|: 2.720e-05  t[s]:    145.18
SCF: Cycle: 21   Etot: -177.669628177498879   dEtot: -1.038e-07   |Residual|: 8.405e-05   |deigs|: 1.569e-05  t[s]:    145.61
SCF: Cycle: 22   Etot: -177.669628236679756   dEtot: -5.918e-08   |Residual|: 5.344e-05   |deigs|: 1.282e-05  t[s]:    146.03
SCF: Cycle: 23   Etot: -177.669628266063768   dEtot: -2.938e-08   |Residual|: 3.731e-05   |deigs|: 1.258e-05  t[s]:    146.45
SCF: Cycle: 24   Etot: -177.669628277851643   dEtot: -1.179e-08   |Residual|: 3.939e-05   |deigs|: 9.605e-06  t[s]:    146.87
SCF: Cycle: 25   Etot: -177.669628284785574   dEtot: -6.934e-09   |Residual|: 2.468e-05   |deigs|: 6.799e-06  t[s]:    147.29
SCF: Cycle: 26   Etot: -177.669628289451850   dEtot: -4.666e-09   |Residual|: 1.998e-05   |deigs|: 5.552e-06  t[s]:    147.76
SCF: Converged (|Delta E|<1.000000e-08 for 2 iters).

Setting wave functions to eigenvectors of Hamiltonian

Computing DFT-D3 correction:
# coordination-number S 2.650 2.780 2.505 3.164 2.329 2.006 3.074 2.952
# coordination-number Na 4.249 4.528
# diagonal-C6 S 125.81 125.81 125.81 125.81 125.82 125.90 125.81 125.81
# diagonal-C6 Na 186.11 186.11
EvdW_6 =   -0.002917
EvdW_8 =   -0.011096

# Ionic positions in cartesian coordinates:
ion S   5.179884481864841  10.986238858256042  20.533014998701969 1
ion S   4.391753564804702   8.277786142858480  23.966240805568852 1
ion S   4.568066496683767  10.212569261189790  27.158670424975153 1
ion S   8.602011622464801   8.660732124284012  28.704976230909040 1
[...]

#--- Lowdin population analysis ---
# oxidation-state S +0.063 -0.002 +0.034 +0.055 +0.092 -0.548 +0.054 -0.522
# oxidation-state Na +0.778 +0.714


Computing DFT-D3 correction:
# coordination-number S 2.157 2.898 2.139 2.386 2.355 2.943 3.108 2.889
# coordination-number Na 3.812 4.423
# diagonal-C6 S 125.84 125.81 125.84 125.82 125.82 125.81 125.81 125.81
# diagonal-C6 Na 186.11 186.11
EvdW_6 =   -0.003182
EvdW_8 =   -0.010910

-------- Electronic minimization -----------
Will mix electronic density at each iteration.
SCF: Cycle:  0   Etot: -177.682850315584204   dEtot: -4.440e-06   |Residual|: 7.042e-04   |deigs|: 1.154e-07  t[s]:   1733.16
SCF: Cycle:  1   Etot: -177.682851501755778   dEtot: -1.186e-06   |Residual|: 3.738e-04   |deigs|: 1.688e-05  t[s]:   1733.57
SCF: Cycle:  2   Etot: -177.682851915748387   dEtot: -4.140e-07   |Residual|: 1.056e-04   |deigs|: 1.809e-05  t[s]:   1733.97
SCF: Cycle:  3   Etot: -177.682851997506646   dEtot: -8.176e-08   |Residual|: 7.874e-05   |deigs|: 3.856e-06  t[s]:   1734.38
SCF: Cycle:  4   Etot: -177.682852039189868   dEtot: -4.168e-08   |Residual|: 3.062e-05   |deigs|: 6.954e-06  t[s]:   1734.79
SCF: Cycle:  5   Etot: -177.682852059386818   dEtot: -2.020e-08   |Residual|: 2.118e-05   |deigs|: 2.239e-06  t[s]:   1735.20
SCF: Cycle:  6   Etot: -177.682852070045840   dEtot: -1.066e-08   |Residual|: 1.181e-05   |deigs|: 2.865e-06  t[s]:   1735.61
SCF: Cycle:  7   Etot: -177.682852075980037   dEtot: -5.934e-09   |Residual|: 1.050e-05   |deigs|: 1.544e-06  t[s]:   1736.03
SCF: Cycle:  8   Etot: -177.682852079825039   dEtot: -3.845e-09   |Residual|: 9.663e-06   |deigs|: 1.048e-06  t[s]:   1736.45
SCF: Converged (|Delta E|<1.000000e-08 for 2 iters).

Setting wave functions to eigenvectors of Hamiltonian

Computing DFT-D3 correction:
# coordination-number S 2.157 2.898 2.139 2.386 2.355 2.943 3.108 2.889
# coordination-number Na 3.811 4.423
# diagonal-C6 S 125.84 125.81 125.84 125.82 125.82 125.81 125.81 125.81
# diagonal-C6 Na 186.11 186.11
EvdW_6 =   -0.003181
EvdW_8 =   -0.010911

-------- Electronic minimization -----------
Will mix electronic density at each iteration.
SCF: Cycle:  0   Etot: -177.682852058203906   dEtot: -6.635e-08   |Residual|: 7.759e-05   |deigs|: 1.568e-09  t[s]:   1737.11
SCF: Cycle:  1   Etot: -177.682852075725634   dEtot: -1.752e-08   |Residual|: 4.094e-05   |deigs|: 1.649e-06  t[s]:   1737.52
SCF: Cycle:  2   Etot: -177.682852081878650   dEtot: -6.153e-09   |Residual|: 1.070e-05   |deigs|: 1.346e-06  t[s]:   1737.93
SCF: Cycle:  3   Etot: -177.682852084046999   dEtot: -2.168e-09   |Residual|: 7.928e-06   |deigs|: 2.045e-07  t[s]:   1738.34
SCF: Converged (|Delta E|<1.000000e-08 for 2 iters).

Setting wave functions to eigenvectors of Hamiltonian

Computing DFT-D3 correction:
# coordination-number S 2.157 2.898 2.139 2.386 2.355 2.943 3.108 2.889
# coordination-number Na 3.811 4.423
# diagonal-C6 S 125.84 125.81 125.84 125.82 125.82 125.81 125.81 125.81
# diagonal-C6 Na 186.11 186.11
EvdW_6 =   -0.003181
EvdW_8 =   -0.010911

# Ionic positions in cartesian coordinates:
ion S   4.707376270482478  11.438020348143702  21.397797308243437 1
ion S   5.762903716835567   8.207992270084315  23.443254844443690 1
ion S   4.302693340493223   8.327632148410864  27.133835611057584 1
ion S   7.306360271513636   7.920330007703157  29.698288811448137 1
ion S   8.655067802856859  11.261624015626811  31.157181445543731 1
ion S  11.958569977680675  12.321383122665720  29.333328901593298 1
ion S   6.607807517320195  14.627564912787347  22.528231229520610 1
ion S  10.429135165777470  14.456335973024997  21.767033937525646 1
ion Na   9.931941872409562  16.089523218344222  26.668111253771038 1
ion Na  10.794993746750384  10.072101391968928  24.775253814622857 1

# Forces in Cartesian coordinates:
force S  -0.000047102399746  -0.000283808921811  -0.000028317747112 1
force S   0.000000002413054  -0.000211869401265  -0.000444880525722 1
force S   0.000248850328485  -0.000098435574244   0.000649754458588 1
force S   0.000211124165196   0.000550259689895  -0.000167691244554 1
force S  -0.000138508350936  -0.000184693051597  -0.000490949497033 1
force S  -0.000111268941771  -0.000237788482349   0.000162847405475 1
force S   0.000430521264918   0.000795180811620  -0.000295293940712 1
force S  -0.000521568784838  -0.000453804855317   0.000323897499558 1
force Na   0.000039165327866  -0.000100654879248   0.000164276370499 1
force Na  -0.000123363119706   0.000250549839494   0.000081412489365 1

# Energy components:
   Eewald =      300.3386042569098322
       EH =      446.0453635461246336
     Eloc =     -808.2212987499482324
      Enl =     -129.5828428879475211
     EvdW =       -0.0140919330440474
      Exc =      -47.9888904804446952
 Exc_core =       14.1418373105793069
       KE =       47.5984668537237141
-------------------------------------
     Etot =     -177.6828520840469992

IonicMinimize: Iter: 172  Etot: -177.682852084046999  |grad|_K:  3.264e-04  alpha:  7.654e-01  linmin:  1.217e-02  t[s]:   1738.70

#--- Lowdin population analysis ---
# oxidation-state S +0.063 -0.002 +0.033 +0.055 +0.092 -0.548 +0.053 -0.522
# oxidation-state Na +0.778 +0.714


Computing DFT-D3 correction:
# coordination-number S 2.158 2.899 2.140 2.385 2.355 2.942 3.106 2.888
# coordination-number Na 3.809 4.423
# diagonal-C6 S 125.84 125.81 125.84 125.82 125.82 125.81 125.81 125.81
# diagonal-C6 Na 186.11 186.11
EvdW_6 =   -0.003181
EvdW_8 =   -0.010913

-------- Electronic minimization -----------
Will mix electronic density at each iteration.
SCF: Cycle:  0   Etot: -177.682851207546491   dEtot: -4.491e-06   |Residual|: 7.272e-04   |deigs|: 1.182e-07  t[s]:   1739.30
SCF: Cycle:  1   Etot: -177.682852527661083   dEtot: -1.320e-06   |Residual|: 3.760e-04   |deigs|: 1.534e-05  t[s]:   1739.72
SCF: Cycle:  2   Etot: -177.682852969241821   dEtot: -4.416e-07   |Residual|: 1.084e-04   |deigs|: 1.482e-05  t[s]:   1740.13
SCF: Cycle:  3   Etot: -177.682853061681044   dEtot: -9.244e-08   |Residual|: 8.225e-05   |deigs|: 2.737e-06  t[s]:   1740.54
SCF: Cycle:  4   Etot: -177.682853103880518   dEtot: -4.220e-08   |Residual|: 2.987e-05   |deigs|: 4.860e-06  t[s]:   1740.95
SCF: Cycle:  5   Etot: -177.682853126455313   dEtot: -2.257e-08   |Residual|: 1.848e-05   |deigs|: 1.890e-06  t[s]:   1741.36
SCF: Cycle:  6   Etot: -177.682853138237846   dEtot: -1.178e-08   |Residual|: 1.035e-05   |deigs|: 1.915e-06  t[s]:   1741.78
SCF: Cycle:  7   Etot: -177.682853144917829   dEtot: -6.680e-09   |Residual|: 8.632e-06   |deigs|: 1.214e-06  t[s]:   1742.19
SCF: Cycle:  8   Etot: -177.682853149228094   dEtot: -4.310e-09   |Residual|: 7.248e-06   |deigs|: 7.128e-07  t[s]:   1742.61
SCF: Converged (|Delta E|<1.000000e-08 for 2 iters).

Setting wave functions to eigenvectors of Hamiltonian

Computing DFT-D3 correction:
# coordination-number S 2.158 2.899 2.140 2.385 2.355 2.943 3.106 2.888
# coordination-number Na 3.809 4.423
# diagonal-C6 S 125.84 125.81 125.84 125.82 125.82 125.81 125.81 125.81
# diagonal-C6 Na 186.11 186.11
EvdW_6 =   -0.003181
EvdW_8 =   -0.010913

-------- Electronic minimization -----------
Will mix electronic density at each iteration.
SCF: Cycle:  0   Etot: -177.682853156233449   dEtot: -1.790e-08   |Residual|: 4.431e-05   |deigs|: 5.018e-10  t[s]:   1743.26
SCF: Cycle:  1   Etot: -177.682853160945200   dEtot: -4.712e-09   |Residual|: 2.633e-05   |deigs|: 1.079e-06  t[s]:   1743.68
SCF: Cycle:  2   Etot: -177.682853163388245   dEtot: -2.443e-09   |Residual|: 9.576e-06   |deigs|: 1.761e-06  t[s]:   1744.09
SCF: Converged (|Delta E|<1.000000e-08 for 2 iters).

Setting wave functions to eigenvectors of Hamiltonian

Computing DFT-D3 correction:
# coordination-number S 2.158 2.899 2.140 2.385 2.355 2.943 3.106 2.888
# coordination-number Na 3.809 4.423
# diagonal-C6 S 125.84 125.81 125.84 125.82 125.82 125.81 125.81 125.81
# diagonal-C6 Na 186.11 186.11
EvdW_6 =   -0.003181
EvdW_8 =   -0.010913

# Ionic positions in cartesian coordinates:
ion S   4.708217807458203  11.436845061660822  21.397450808225383 1
ion S   5.762926238279698   8.209681893735336  23.443439827623418 1
ion S   4.303805920498276   8.328161765590425  27.136131373810215 1
ion S   7.305774778823054   7.919130903847419  29.698930877339386 1
ion S   8.655025297435724  11.258504609631165  31.157998937366781 1
ion S  11.959281131293038  12.321810947532761  29.334918822247701 1
ion S   6.607945194942101  14.628746248581301  22.524796216593888 1
ion S  10.428969517791758  14.457487320047131  21.765147124978718 1
ion Na   9.931764642128732  16.090023858287793  26.668603510627474 1
ion Na  10.793139153469467  10.072114799845908  24.774899658957072 1

# Forces in Cartesian coordinates:
force S  -0.000139700292803  -0.000145064688760  -0.000085163881944 1
force S   0.000087233433605  -0.000351751783257  -0.000351765554291 1
force S   0.000057227946635  -0.000044645868315   0.000507654371912 1
force S   0.000358395049554   0.000368915631353  -0.000170433584460 1
force S   0.000014025468321   0.000086803061122  -0.000424856487808 1
force S  -0.000259243448362  -0.000314346345360   0.000131847610923 1
force S   0.000382275781592   0.000802694270247  -0.000258401196109 1
force S  -0.000440153412040  -0.000464867602801   0.000380339288950 1
force Na   0.000043092248267  -0.000141193333225   0.000131947490391 1
force Na  -0.000074414602529   0.000308598780358   0.000111538443458 1

# Energy components:
   Eewald =      300.3154007966326731
       EH =      446.0204563391076817
     Eloc =     -808.1739200105807868
      Enl =     -129.5825332914212709
     EvdW =       -0.0140935084582630
      Exc =      -47.9891330002472642
 Exc_core =       14.1418373133185735
       KE =       47.5991321982604845
-------------------------------------
     Etot =     -177.6828531633882449

IonicMinimize: Iter: 173  Etot: -177.682853163388245  |grad|_K:  3.052e-04  alpha:  7.170e-01  linmin:  5.184e-03  t[s]:   1744.44

#--- Lowdin population analysis ---
# oxidation-state S +0.064 -0.002 +0.033 +0.056 +0.091 -0.548 +0.053 -0.522
# oxidation-state Na +0.778 +0.714


Computing DFT-D3 correction:
# coordination-number S 2.158 2.900 2.140 2.385 2.354 2.942 3.105 2.887
# coordination-number Na 3.807 4.424
# diagonal-C6 S 125.84 125.81 125.84 125.82 125.82 125.81 125.81 125.81
# diagonal-C6 Na 186.11 186.11
EvdW_6 =   -0.003180
EvdW_8 =   -0.010914

-------- Electronic minimization -----------
Will mix electronic density at each iteration.
SCF: Cycle:  0   Etot: -177.682852623490021   dEtot: -3.347e-06   |Residual|: 6.469e-04   |deigs|: 9.016e-08  t[s]:   1745.05
SCF: Cycle:  1   Etot: -177.682853658238770   dEtot: -1.035e-06   |Residual|: 3.326e-04   |deigs|: 1.136e-05  t[s]:   1745.47
SCF: Cycle:  2   Etot: -177.682854005284071   dEtot: -3.470e-07   |Residual|: 9.386e-05   |deigs|: 1.123e-05  t[s]:   1745.88
SCF: Cycle:  3   Etot: -177.682854076847434   dEtot: -7.156e-08   |Residual|: 7.390e-05   |deigs|: 1.866e-06  t[s]:   1746.29
SCF: Cycle:  4   Etot: -177.682854108475851   dEtot: -3.163e-08   |Residual|: 2.773e-05   |deigs|: 3.708e-06  t[s]:   1746.69
SCF: Cycle:  5   Etot: -177.682854126377180   dEtot: -1.790e-08   |Residual|: 1.588e-05   |deigs|: 1.523e-06  t[s]:   1747.10
SCF: Cycle:  6   Etot: -177.682854135703053   dEtot: -9.326e-09   |Residual|: 1.005e-05   |deigs|: 1.561e-06  t[s]:   1747.51
SCF: Cycle:  7   Etot: -177.682854141099028   dEtot: -5.396e-09   |Residual|: 7.812e-06   |deigs|: 1.012e-06  t[s]:   1747.92
SCF: Converged (|Delta E|<1.000000e-08 for 2 iters).

Setting wave functions to eigenvectors of Hamiltonian

Computing DFT-D3 correction:
# coordination-number S 2.158 2.900 2.140 2.385 2.354 2.942 3.105 2.887
# coordination-number Na 3.807 4.424
# diagonal-C6 S 125.84 125.81 125.84 125.82 125.82 125.81 125.81 125.81
# diagonal-C6 Na 186.11 186.11
EvdW_6 =   -0.003180
EvdW_8 =   -0.010914

-------- Electronic minimization -----------
Will mix electronic density at each iteration.
SCF: Cycle:  0   Etot: -177.682854144894975   dEtot: -4.292e-09   |Residual|: 9.047e-06   |deigs|: 1.165e-10  t[s]:   1748.57
SCF: Cycle:  1   Etot: -177.682854147204921   dEtot: -2.310e-09   |Residual|: 7.522e-06   |deigs|: 3.454e-07  t[s]:   1748.98
SCF: Converged (|Delta E|<1.000000e-08 for 2 iters).

Setting wave functions to eigenvectors of Hamiltonian

Computing DFT-D3 correction:
# coordination-number S 2.158 2.900 2.140 2.385 2.354 2.942 3.105 2.887
# coordination-number Na 3.807 4.424
# diagonal-C6 S 125.84 125.81 125.84 125.82 125.82 125.81 125.81 125.81
# diagonal-C6 Na 186.11 186.11
EvdW_6 =   -0.003180
EvdW_8 =   -0.010914

# Ionic positions in cartesian coordinates:
ion S   4.708853092586935  11.435702765599427  21.397087739833733 1
ion S   5.763006646049172   8.210902751603882  23.443351020627507 1
ion S   4.304820449371399   8.328586436920929  27.138511173389531 1
ion S   7.305517106491362   7.918337325257894  29.699373207343843 1
ion S   8.654996050300626  11.255824560701786  31.158412116818425 1
ion S  11.959716141606652  12.321952434040901  29.336409542295243 1
ion S   6.608338727302989  14.630351623084627  22.521600752218028 1
ion S  10.428505710281540  14.458154908655002  21.763768342755476 1
ion Na   9.931638178024386  16.090353697614859  26.669131936875061 1
ion Na  10.791457580104989  10.072340905280756  24.774671325613188 1

# Forces in Cartesian coordinates:
force S  -0.000193275906320   0.000018504854817  -0.000116824680052 1
force S   0.000139991761296  -0.000440394028770  -0.000203271371510 1
force S  -0.000104944798879  -0.000002293922967   0.000283612075492 1
force S   0.000478831472282   0.000138959601980  -0.000169180553871 1
force S   0.000120736933734   0.000355521616201  -0.000311024862018 1
force S  -0.000349493619023  -0.000369397494008   0.000086815215294 1
force S   0.000226399030026   0.000725340805549  -0.000241811559207 1
force S  -0.000284797050423  -0.000468685445286   0.000395461956316 1
force Na   0.000043725521204  -0.000171487894404   0.000103422509686 1
force Na  -0.000042602364659   0.000332115517323   0.000128715636097 1

# Energy components:
   Eewald =      300.2995931563024783
       EH =      446.0031850812115408
     Eloc =     -808.1416307653523745
      Enl =     -129.5822323876036535
     EvdW =       -0.0140943881554400
      Exc =      -47.9894166127418487
 Exc_core =       14.1418373118478993
       KE =       47.5999044572864136
-------------------------------------
     Etot =     -177.6828541472049210

IonicMinimize: Iter: 174  Etot: -177.682854147204921  |grad|_K:  2.852e-04  alpha:  7.191e-01  linmin:  1.020e-02  t[s]:   1749.34

#--- Lowdin population analysis ---
# oxidation-state S +0.064 -0.003 +0.033 +0.057 +0.091 -0.548 +0.053 -0.522
# oxidation-state Na +0.778 +0.714


Computing DFT-D3 correction:
# coordination-number S 2.158 2.901 2.140 2.385 2.354 2.941 3.104 2.887
# coordination-number Na 3.805 4.425
# diagonal-C6 S 125.84 125.81 125.84 125.82 125.82 125.81 125.81 125.81
# diagonal-C6 Na 186.11 186.11
EvdW_6 =   -0.003180
EvdW_8 =   -0.010915

-------- Electronic minimization -----------
Will mix electronic density at each iteration.
SCF: Cycle:  0   Etot: -177.682853730599447   dEtot: -2.856e-06   |Residual|: 5.975e-04   |deigs|: 7.683e-08  t[s]:   1749.95
SCF: Cycle:  1   Etot: -177.682854645485293   dEtot: -9.149e-07   |Residual|: 3.040e-04   |deigs|: 8.287e-06  t[s]:   1750.37
SCF: Cycle:  2   Etot: -177.682854939488891   dEtot: -2.940e-07   |Residual|: 8.458e-05   |deigs|: 7.690e-06  t[s]:   1750.78
SCF: Cycle:  3   Etot: -177.682855005123884   dEtot: -6.563e-08   |Residual|: 6.682e-05   |deigs|: 1.117e-06  t[s]:   1751.18
SCF: Cycle:  4   Etot: -177.682855033717289   dEtot: -2.859e-08   |Residual|: 2.494e-05   |deigs|: 2.439e-06  t[s]:   1751.59
SCF: Cycle:  5   Etot: -177.682855050529270   dEtot: -1.681e-08   |Residual|: 1.372e-05   |deigs|: 9.363e-07  t[s]:   1752.00
SCF: Cycle:  6   Etot: -177.682855059453175   dEtot: -8.924e-09   |Residual|: 8.374e-06   |deigs|: 9.907e-07  t[s]:   1752.41
SCF: Cycle:  7   Etot: -177.682855064666512   dEtot: -5.213e-09   |Residual|: 6.590e-06   |deigs|: 6.712e-07  t[s]:   1752.81
SCF: Converged (|Delta E|<1.000000e-08 for 2 iters).

Setting wave functions to eigenvectors of Hamiltonian

Computing DFT-D3 correction:
# coordination-number S 2.158 2.901 2.140 2.386 2.354 2.941 3.104 2.887
# coordination-number Na 3.805 4.425
# diagonal-C6 S 125.84 125.81 125.84 125.82 125.82 125.81 125.81 125.81
# diagonal-C6 Na 186.11 186.11
EvdW_6 =   -0.003180
EvdW_8 =   -0.010915

-------- Electronic minimization -----------
Will mix electronic density at each iteration.
SCF: Cycle:  0   Etot: -177.682855042278902   dEtot: -4.531e-08   |Residual|: 7.148e-05   |deigs|: 1.187e-09  t[s]:   1753.47
SCF: Cycle:  1   Etot: -177.682855060391262   dEtot: -1.811e-08   |Residual|: 3.642e-05   |deigs|: 9.469e-07  t[s]:   1753.89
SCF: Cycle:  2   Etot: -177.682855067684216   dEtot: -7.293e-09   |Residual|: 1.101e-05   |deigs|: 8.294e-07  t[s]:   1754.30
SCF: Cycle:  3   Etot: -177.682855070547930   dEtot: -2.864e-09   |Residual|: 9.240e-06   |deigs|: 1.407e-07  t[s]:   1754.70
SCF: Converged (|Delta E|<1.000000e-08 for 2 iters).

Setting wave functions to eigenvectors of Hamiltonian

Computing DFT-D3 correction:
# coordination-number S 2.158 2.901 2.140 2.386 2.354 2.941 3.104 2.887
# coordination-number Na 3.805 4.425
# diagonal-C6 S 125.84 125.81 125.84 125.82 125.82 125.81 125.81 125.81
# diagonal-C6 Na 186.11 186.11
EvdW_6 =   -0.003180
EvdW_8 =   -0.010915

# Ionic positions in cartesian coordinates:
ion S   4.709312802264113  11.434598711079666  21.396645254768263 1
ion S   5.763193892427383   8.211726924724454  23.443105787955947 1
ion S   4.305719098611226   8.328987596300211  27.141052700676191 1
ion S   7.305646898115039   7.917668244738075  29.699671070234469 1
ion S   8.655061406134109  11.253496469570091  31.158568269581153 1
ion S  11.959856453963205  12.321785078629567  29.337930262342745 1
ion S   6.608899160161481  14.632481199548218  22.518307516579082 1
ion S  10.427824811465269  14.458419127717560  21.762748947893325 1
ion Na   9.931547548896834  16.090527491914809  26.669731352240053 1
ion Na  10.789787610081385  10.072816564537412  24.774555995498798 1

# Forces in Cartesian coordinates:
force S  -0.000204405190386   0.000163394765959  -0.000102554093002 1
force S   0.000146319090639  -0.000451738681029  -0.000039527177936 1
force S  -0.000203807859551   0.000016380128768   0.000041397739631 1
force S   0.000548912201589  -0.000089877127146  -0.000175157796478 1
force S   0.000154809457137   0.000577816047385  -0.000164008039641 1
force S  -0.000360409481170  -0.000395800501285   0.000005388758577 1
force S  -0.000003637521812   0.000576384769782  -0.000227258390938 1
force S  -0.000076477771481  -0.000469914947920   0.000390581916512 1
force Na   0.000037604433566  -0.000200707019583   0.000080578092541 1
force Na  -0.000021050570978   0.000336624222083   0.000146001090096 1

# Energy components:
   Eewald =      300.2875075640942555
       EH =      445.9899655047934175
     Eloc =     -808.1170215203292173
      Enl =     -129.5819876484233077
     EvdW =       -0.0140946357434098
      Exc =      -47.9896776117790438
 Exc_core =       14.1418373027324620
       KE =       47.6006159741068871
-------------------------------------
     Etot =     -177.6828550705479302

IonicMinimize: Iter: 175  Etot: -177.682855070547930  |grad|_K:  2.773e-04  alpha:  7.995e-01  linmin:  2.124e-02  t[s]:   1755.06
IonicMinimize: Converged (|Delta Etot|<1.000000e-06 for 2 iters).

#--- Lowdin population analysis ---
# oxidation-state S +0.064 -0.003 +0.033 +0.058 +0.091 -0.548 +0.053 -0.521
# oxidation-state Na +0.778 +0.714


Dumping 'Na2S8-vdw.wfns' ... done
Dumping 'Na2S8-vdw.ionpos' ... done
End date and time: Fri Sep 27 17:55:25 2024  (Duration: 0-0:29:15.34)
Done!
