CRYSTAL
PRIMVEC
 14.820031   0.000000   0.000000
 -7.410015  12.834505   0.000000
  0.000000   0.000000  20.000041
PRIMCOORD
4 1
16   4.967148   6.549810  14.504741
16   3.142743   5.333531  14.499931
11   5.251973   4.146574  13.368663
11   2.800436   7.823551  13.593863
