
*************** JDFTx 1.7.0  ***************

Start date and time: Sun Aug 18 10:03:02 2024
Executable jdftx with command-line: -i Na2S6-vdw.in -o Na2S6-vdw.out
Running on hosts (process indices):  AndrewsXPS (0)
Divided in process groups (process indices):  0 (0)
Resource initialization completed at t[s]:      0.00
Run totals: 1 processes, 4 threads, 0 GPUs


Input parsed successfully to the following command list (including defaults):

basis kpoint-dependent
coords-type Cartesian
core-overlap-check vector
coulomb-interaction Isolated
coulomb-truncation-embed 3.92133 11.8496 23.1275
davidson-band-ratio 1.1
dump End State
dump-name Na2S6-vdw.$VAR
elec-cutoff 20 100
elec-eigen-algo Davidson
elec-ex-corr gga-PBE
electronic-minimize  \
	dirUpdateScheme      FletcherReeves \
	linminMethod         DirUpdateRecommended \
	nIterations          100 \
	history              15 \
	knormThreshold       0 \
	energyDiffThreshold  1e-08 \
	nEnergyDiff          2 \
	alphaTstart          1 \
	alphaTmin            1e-10 \
	updateTestStepSize   yes \
	alphaTreduceFactor   0.1 \
	alphaTincreaseFactor 3 \
	nAlphaAdjustMax      3 \
	wolfeEnergy          0.0001 \
	wolfeGradient        0.9 \
	fdTest               no
electronic-scf  \
	nIterations	50 \
	energyDiffThreshold	1e-08 \
	residualThreshold	1e-07 \
	mixFraction	0.5 \
	qMetric	0.8 \
	history	10 \
	nEigSteps	2 \
	eigDiffThreshold	1e-08 \
	mixedVariable	Density \
	qKerker	0.8 \
	qKappa	-1 \
	verbose	no \
	mixFractionMag	1.5
exchange-regularization None
fluid None
fluid-ex-corr lda-TF lda-PZ
fluid-gummel-loop 10 1.000000e-05
fluid-minimize  \
	dirUpdateScheme      PolakRibiere \
	linminMethod         DirUpdateRecommended \
	nIterations          100 \
	history              15 \
	knormThreshold       0 \
	energyDiffThreshold  0 \
	nEnergyDiff          2 \
	alphaTstart          1 \
	alphaTmin            1e-10 \
	updateTestStepSize   yes \
	alphaTreduceFactor   0.1 \
	alphaTincreaseFactor 3 \
	nAlphaAdjustMax      3 \
	wolfeEnergy          0.0001 \
	wolfeGradient        0.9 \
	fdTest               no
fluid-solvent H2O 55.338 ScalarEOS \
	epsBulk 78.4 \
	pMol 0.92466 \
	epsInf 1.77 \
	Pvap 1.06736e-10 \
	sigmaBulk 4.62e-05 \
	Rvdw 2.61727 \
	Res 1.42 \
	tauNuc 343133 \
	poleEl 15 7 1
forces-output-coords Positions
ion S   3.921331479750000  11.849557634189999  23.127532414739999 1
ion S   7.567480476899996  11.351192369400000  23.945456691719997 1
ion S   8.668781105760003   7.743174344189998  23.234262475409999 1
ion S   6.502139520210000   7.687128731849999  29.705151530609999 1
ion S   7.556913106740001  11.318358310649998  29.045040495659997 1
ion S  11.194673592419999  11.852526400019999  29.882693553839999 1
ion Na   3.832890226020000   7.182347833710000  25.239470096249999 1
ion Na  11.349661688099999   7.228066071600000  27.689512600169998 1
ion-species GBRV/$ID_pbe.uspp
ion-width 0
ionic-minimize  \
	dirUpdateScheme      FletcherReeves \
	linminMethod         DirUpdateRecommended \
	nIterations          200 \
	history              15 \
	knormThreshold       0.0001 \
	energyDiffThreshold  1e-06 \
	nEnergyDiff          2 \
	alphaTstart          1 \
	alphaTmin            1e-10 \
	updateTestStepSize   yes \
	alphaTreduceFactor   0.1 \
	alphaTincreaseFactor 3 \
	nAlphaAdjustMax      3 \
	wolfeEnergy          0.0001 \
	wolfeGradient        0.9 \
	fdTest               no
kpoint   0.000000000000   0.000000000000   0.000000000000  1.00000000000000
kpoint-folding 1 1 1 
latt-move-scale 1 1 1
latt-scale 1 1 1 
lattice Triclinic 28.0058 28.0058 37.7946 90 90 120
lattice-minimize  \
	dirUpdateScheme      L-BFGS \
	linminMethod         DirUpdateRecommended \
	nIterations          0 \
	history              15 \
	knormThreshold       0 \
	energyDiffThreshold  1e-06 \
	nEnergyDiff          2 \
	alphaTstart          1 \
	alphaTmin            1e-10 \
	updateTestStepSize   yes \
	alphaTreduceFactor   0.1 \
	alphaTincreaseFactor 3 \
	nAlphaAdjustMax      3 \
	wolfeEnergy          0.0001 \
	wolfeGradient        0.9 \
	fdTest               no
lcao-params -1 1e-06 0.001
pcm-variant GLSSA13
spintype no-spin
subspace-rotation-factor 1 yes
symmetries automatic
symmetry-threshold 0.0001
van-der-waals D3



---------- Setting up symmetries ----------

Found 24 point-group symmetries of the bravais lattice
Found 1 space-group symmetries with basis
Applied RMS atom displacement 0 bohrs to make symmetries exact.

---------- Initializing the Grid ----------
R = 
[      28.0058     -14.0029            0  ]
[            0      24.2537            0  ]
[            0            0      37.7946  ]
unit cell volume = 25671.8
G =
[   0.224353    0.12953         -0  ]
[          0   0.259061          0  ]
[          0         -0   0.166246  ]
Minimum fftbox size, Smin = [  128  128  172  ]
Chosen fftbox size, S = [  128  128  180  ]

---------- Initializing tighter grid for wavefunction operations ----------
R = 
[      28.0058     -14.0029            0  ]
[            0      24.2537            0  ]
[            0            0      37.7946  ]
unit cell volume = 25671.8
G =
[   0.224353    0.12953         -0  ]
[          0   0.259061          0  ]
[          0         -0   0.166246  ]
Minimum fftbox size, Smin = [  116  116  156  ]
Chosen fftbox size, S = [  120  120  160  ]

---------- Exchange Correlation functional ----------
Initalized PBE GGA exchange.
Initalized PBE GGA correlation.

---------- Setting up pseudopotentials ----------
Width of ionic core gaussian charges (only for fluid interactions / plotting) set to 0

Reading pseudopotential file '/home/akakimmykim/jdftx_install/build/pseudopotentials/GBRV/s_pbe.uspp':
  Title: S.  Created by USPP 7.3.6 on 1-4-15
  Reference state energy: -11.898476.  6 valence electrons in orbitals:
    |300>  occupation: 2  eigenvalue: -0.634167
    |310>  occupation: 4  eigenvalue: -0.257568
  lMax: 2  lLocal: 3  QijEcut: 6
  6 projectors sampled on a log grid with 635 points:
    l: 0  eig: -0.634161  rCut: 1.5
    l: 0  eig: 1.500000  rCut: 1.5
    l: 1  eig: -0.257567  rCut: 1.5
    l: 1  eig: 1.500000  rCut: 1.5
    l: 2  eig: -1.000000  rCut: 1.5
    l: 2  eig: 1.500000  rCut: 1.5
  Partial core density with radius 1.15
  Transforming core density to a uniform radial grid of dG=0.02 with 1625 points.
  Transforming local potential to a uniform radial grid of dG=0.02 with 1625 points.
  Transforming nonlocal projectors to a uniform radial grid of dG=0.02 with 432 points.
  Transforming density augmentations to a uniform radial grid of dG=0.02 with 1625 points.
  Transforming atomic orbitals to a uniform radial grid of dG=0.02 with 432 points.
  Core radius for overlap checks: 1.50 bohrs.

Reading pseudopotential file '/home/akakimmykim/jdftx_install/build/pseudopotentials/GBRV/na_pbe.uspp':
  Title: Na.  Created by USPP 7.3.6 on 23-9-15
  Reference state energy: -47.625620.  9 valence electrons in orbitals:
    |200>  occupation: 2  eigenvalue: -2.085638
    |210>  occupation: 6  eigenvalue: -1.053708
    |300>  occupation: 1  eigenvalue: -0.100838
  lMax: 2  lLocal: 0  QijEcut: 6
  5 projectors sampled on a log grid with 657 points:
    l: 0  eig: -2.085640  rCut: 1.37
    l: 0  eig: -0.100839  rCut: 1.37
    l: 1  eig: -1.053708  rCut: 1.47
    l: 1  eig: 0.500000  rCut: 1.47
    l: 2  eig: 0.750000  rCut: 2
  Transforming local potential to a uniform radial grid of dG=0.02 with 1625 points.
  Transforming nonlocal projectors to a uniform radial grid of dG=0.02 with 432 points.
  Transforming density augmentations to a uniform radial grid of dG=0.02 with 1625 points.
  Transforming atomic orbitals to a uniform radial grid of dG=0.02 with 432 points.
  Core radius for overlap checks: 2.00 bohrs.

Initialized 2 species with 8 total atoms.

Folded 1 k-points by 1x1x1 to 1 k-points.

---------- Setting up k-points, bands, fillings ----------
No reducable k-points. 
Computing the number of bands and number of electrons
Calculating initial fillings.
nElectrons:  54.000000   nBands: 27   nStates: 1

----- Setting up reduced wavefunction bases (one per k-point) -----
average nbasis = 109673.000 , ideal nbasis = 109671.883

---------- Setting up coulomb interaction ----------
Setting up double-sized grid for truncated Coulomb potentials:
R = 
[      56.0116     -28.0058            0  ]
[            0      48.5075            0  ]
[            0            0      75.5892  ]
unit cell volume = 205374
G =
[   0.112177  0.0647651         -0  ]
[          0    0.12953          0  ]
[          0         -0  0.0831228  ]
Chosen fftbox size, S = [  256  256  360  ]
Integer grid location selected as the embedding center:
   Grid: [  49  63  110  ]
   Lattice: [  0.384302  0.488566  0.611927  ]
   Cartesian: [  3.92133  11.8496  23.1275  ]
Constructing Wigner-Seitz cell: 8 faces (6 quadrilaterals, 2 hexagons)
Range-separation parameter for embedded mesh potentials due to point charges: 0.590105 bohrs.
Constructing Wigner-Seitz cell: 8 faces (6 quadrilaterals, 2 hexagons)
Gaussian width for range separation: 2.95095 bohrs.
FFT grid for long-range part: [ 256 256 360 ].
Planning fourier transform ... Done.
Computing truncated long-range part in real space ... Done.
Adding short-range part in reciprocal space ... Done.

Initializing DFT-D3 calculator:
	Parameters set for gga-PBE functional
	s6:  1.000  s_r6:  1.217
	s8:  0.722  s_r8:  1.000
	Per-atom parameters loaded for:
	 S:  sqrtQ[a0]:  4.041  Rcov[a0]:  1.928  CN: [ 0.00 0.99 1.99 ]
	Na:  sqrtQ[a0]:  6.586  Rcov[a0]:  2.646  CN: [ 0.00 0.97 ]

Computing DFT-D3 correction:
# coordination-number S 2.024 3.464 2.947 2.946 3.463 2.024
# coordination-number Na 3.875 3.880
# diagonal-C6 S 125.88 125.81 125.81 125.81 125.81 125.88
# diagonal-C6 Na 186.11 186.11
EvdW_6 =   -0.001208
EvdW_8 =   -0.007715

---------- Allocating electronic variables ----------
Initializing wave functions:  linear combination of atomic orbitals
S pseudo-atom occupations:   s ( 2 )  p ( 4 )
Na pseudo-atom occupations:   s ( 2 1 )  p ( 6 )
	FillingsUpdate:  mu: -0.166849522  nElectrons: 54.000000
LCAOMinimize: Iter:   0  Etot: -156.5682799653936286  |grad|_K:  2.734e-02  alpha:  1.000e+00
	FillingsUpdate:  mu: -0.150028366  nElectrons: 54.000000
LCAOMinimize: Iter:   1  Etot: -156.7061239973500903  |grad|_K:  7.065e-03  alpha:  3.523e-01  linmin:  3.107e-01  cgtest: -7.177e-01  t[s]:     58.62
	FillingsUpdate:  mu: -0.154111967  nElectrons: 54.000000
LCAOMinimize: Iter:   2  Etot: -156.7090312771699132  |grad|_K:  7.222e-03  alpha:  3.197e-01  linmin:  3.641e-03  cgtest:  8.409e-01  t[s]:     78.74
	FillingsUpdate:  mu: -0.168317220  nElectrons: 54.000000
LCAOMinimize: Iter:   3  Etot: -156.7189717431884617  |grad|_K:  7.594e-04  alpha:  3.118e-01  linmin:  2.928e-02  cgtest: -2.564e-01  t[s]:     99.40
LCAOMinimize: None of the convergence criteria satisfied after 3 iterations.


---- Citations for features of the code used in this run ----

   Software package:
      R. Sundararaman, K. Letchworth-Weaver, K.A. Schwarz, D. Gunceler, Y. Ozhabes and T.A. Arias, 'JDFTx: software for joint density-functional theory', SoftwareX 6, 278 (2017)

   gga-PBE exchange-correlation functional:
      J.P. Perdew, K. Burke and M. Ernzerhof, Phys. Rev. Lett. 77, 3865 (1996)

   Pseudopotentials:
      KF Garrity, JW Bennett, KM Rabe and D Vanderbilt, Comput. Mater. Sci. 81, 446 (2014)

   Truncated Coulomb potentials:
      R. Sundararaman and T.A. Arias, Phys. Rev. B 87, 165122 (2013)

   DFT-D3 dispersion correction:
      S. Grimme, J. Antony, S. Ehrlich and H. Krieg, J. Chem. Phys. 132, 154104 (2010)

This list may not be complete. Please suggest additional citations or
report any other bugs at https://github.com/shankar1729/jdftx/issues

Initialization completed successfully at t[s]:    101.18


Computing DFT-D3 correction:
# coordination-number S 2.024 3.464 2.947 2.946 3.463 2.024
# coordination-number Na 3.875 3.880
# diagonal-C6 S 125.88 125.81 125.81 125.81 125.81 125.88
# diagonal-C6 Na 186.11 186.11
EvdW_6 =   -0.001208
EvdW_8 =   -0.007715

-------- Electronic minimization -----------
Will mix electronic density at each iteration.
SCF: Cycle:  0   Etot: -156.915945400596286   dEtot: -1.970e-01   |Residual|: 2.741e-01   |deigs|: 1.230e-02  t[s]:    129.92
SCF: Cycle:  1   Etot: -157.051006529363747   dEtot: -1.351e-01   |Residual|: 1.406e-01   |deigs|: 1.582e-02  t[s]:    150.35
SCF: Cycle:  2   Etot: -157.099983772588558   dEtot: -4.898e-02   |Residual|: 5.622e-02   |deigs|: 1.501e-02  t[s]:    172.18
SCF: Cycle:  3   Etot: -157.103790310787588   dEtot: -3.807e-03   |Residual|: 3.185e-02   |deigs|: 5.102e-03  t[s]:    196.14
SCF: Cycle:  4   Etot: -157.106366607400076   dEtot: -2.576e-03   |Residual|: 1.595e-02   |deigs|: 6.375e-03  t[s]:    219.62
SCF: Cycle:  5   Etot: -157.107025315820408   dEtot: -6.587e-04   |Residual|: 1.292e-02   |deigs|: 1.707e-03  t[s]:    243.16
SCF: Cycle:  6   Etot: -157.107126849783867   dEtot: -1.015e-04   |Residual|: 8.462e-03   |deigs|: 4.029e-03  t[s]:    266.89
SCF: Cycle:  7   Etot: -157.107101486347545   dEtot: +2.536e-05   |Residual|: 9.050e-03   |deigs|: 7.206e-04  t[s]:    290.03
SCF: Cycle:  8   Etot: -157.107376101287826   dEtot: -2.746e-04   |Residual|: 3.787e-03   |deigs|: 3.329e-03  t[s]:    313.94
SCF: Cycle:  9   Etot: -157.107369655640667   dEtot: +6.446e-06   |Residual|: 4.194e-03   |deigs|: 1.422e-03  t[s]:    340.01
SCF: Cycle: 10   Etot: -157.107404210940729   dEtot: -3.456e-05   |Residual|: 2.961e-03   |deigs|: 1.444e-03  t[s]:    368.81
SCF: Cycle: 11   Etot: -157.107396639190540   dEtot: +7.572e-06   |Residual|: 3.146e-03   |deigs|: 4.746e-04  t[s]:    395.77
SCF: Cycle: 12   Etot: -157.107422053713947   dEtot: -2.541e-05   |Residual|: 2.808e-03   |deigs|: 2.735e-04  t[s]:    417.87
SCF: Cycle: 13   Etot: -157.107435287234296   dEtot: -1.323e-05   |Residual|: 2.069e-03   |deigs|: 5.255e-04  t[s]:    440.81
SCF: Cycle: 14   Etot: -157.107443113479889   dEtot: -7.826e-06   |Residual|: 1.449e-03   |deigs|: 1.555e-04  t[s]:    460.87
SCF: Cycle: 15   Etot: -157.107451491690910   dEtot: -8.378e-06   |Residual|: 7.313e-04   |deigs|: 2.539e-04  t[s]:    480.70
SCF: Cycle: 16   Etot: -157.107456083446465   dEtot: -4.592e-06   |Residual|: 5.774e-04   |deigs|: 1.418e-04  t[s]:    500.35
SCF: Cycle: 17   Etot: -157.107458003916463   dEtot: -1.920e-06   |Residual|: 5.988e-04   |deigs|: 1.806e-04  t[s]:    520.26
SCF: Cycle: 18   Etot: -157.107458839279047   dEtot: -8.354e-07   |Residual|: 4.955e-04   |deigs|: 1.574e-04  t[s]:    540.92
SCF: Cycle: 19   Etot: -157.107458361009009   dEtot: +4.783e-07   |Residual|: 5.784e-04   |deigs|: 1.760e-04  t[s]:    560.69
SCF: Cycle: 20   Etot: -157.107458550750323   dEtot: -1.897e-07   |Residual|: 4.668e-04   |deigs|: 2.354e-04  t[s]:    579.92
SCF: Cycle: 21   Etot: -157.107459067133476   dEtot: -5.164e-07   |Residual|: 3.699e-04   |deigs|: 5.104e-05  t[s]:    603.99
SCF: Cycle: 22   Etot: -157.107459331381449   dEtot: -2.642e-07   |Residual|: 2.371e-04   |deigs|: 3.751e-05  t[s]:    623.93
SCF: Cycle: 23   Etot: -157.107459450828003   dEtot: -1.194e-07   |Residual|: 2.148e-04   |deigs|: 6.446e-05  t[s]:    643.99
SCF: Cycle: 24   Etot: -157.107459701307533   dEtot: -2.505e-07   |Residual|: 1.716e-04   |deigs|: 9.527e-05  t[s]:    666.69
SCF: Cycle: 25   Etot: -157.107459893788672   dEtot: -1.925e-07   |Residual|: 9.826e-05   |deigs|: 2.808e-05  t[s]:    686.84
SCF: Cycle: 26   Etot: -157.107460002088942   dEtot: -1.083e-07   |Residual|: 1.262e-04   |deigs|: 2.832e-05  t[s]:    707.02
SCF: Cycle: 27   Etot: -157.107460117152073   dEtot: -1.151e-07   |Residual|: 7.629e-05   |deigs|: 3.175e-05  t[s]:    727.23
SCF: Cycle: 28   Etot: -157.107460159880873   dEtot: -4.273e-08   |Residual|: 4.714e-05   |deigs|: 2.476e-05  t[s]:    747.53
SCF: Cycle: 29   Etot: -157.107460176904851   dEtot: -1.702e-08   |Residual|: 5.133e-05   |deigs|: 3.513e-05  t[s]:    767.20
SCF: Cycle: 30   Etot: -157.107460200466846   dEtot: -2.356e-08   |Residual|: 4.665e-05   |deigs|: 6.196e-06  t[s]:    791.00
SCF: Cycle: 31   Etot: -157.107460214368444   dEtot: -1.390e-08   |Residual|: 2.649e-05   |deigs|: 2.581e-06  t[s]:    810.70
SCF: Cycle: 32   Etot: -157.107460236139218   dEtot: -2.177e-08   |Residual|: 2.446e-05   |deigs|: 5.744e-06  t[s]:    834.47
SCF: Cycle: 33   Etot: -157.107460242163597   dEtot: -6.024e-09   |Residual|: 1.692e-05   |deigs|: 2.648e-06  t[s]:    853.83
SCF: Cycle: 34   Etot: -157.107460249726046   dEtot: -7.562e-09   |Residual|: 8.991e-06   |deigs|: 7.425e-06  t[s]:    878.49
SCF: Converged (|Delta E|<1.000000e-08 for 2 iters).

Setting wave functions to eigenvectors of Hamiltonian

Computing DFT-D3 correction:
# coordination-number S 2.024 3.464 2.947 2.946 3.463 2.024
# coordination-number Na 3.875 3.880
# diagonal-C6 S 125.88 125.81 125.81 125.81 125.81 125.88
# diagonal-C6 Na 186.11 186.11
EvdW_6 =   -0.001208
EvdW_8 =   -0.007715

# Ionic positions in cartesian coordinates:
ion S   3.921331479750000  11.849557634189999  23.127532414739999 1
ion S   7.567480476899996  11.351192369400000  23.945456691719997 1
ion S   8.668781105760003   7.743174344189998  23.234262475409999 1
ion S   6.502139520210000   7.687128731849999  29.705151530609999 1
ion S   7.556913106740001  11.318358310649998  29.045040495659997 1
ion S  11.194673592419999  11.852526400019999  29.882693553839999 1
ion Na   3.832890226020000   7.182347833710000  25.239470096249999 1
ion Na  11.349661688099999   7.228066071600000  27.689512600169998 1

# Forces in Cartesian coordinates:
force S  -0.000209464454437   0.000305872114338  -0.000042073198369 1
force S   0.000423886959906   0.000564837051929  -0.000345597807524 1
force S   0.000466745269424  -0.000161695408129  -0.000549521787606 1
force S  -0.000428131313065  -0.000179038121430   0.000523384687687 1
force S  -0.000296644240945   0.000471579043443   0.000396360115287 1
force S   0.000050451096806   0.000354694040746  -0.000043679612195 1
force Na  -0.000776445770104  -0.000658841101622   0.000123485552060 1
force Na   0.000767424308502  -0.000730367958217  -0.000091376694562 1

# Energy components:
   Eewald =      213.0803897791079180
       EH =      342.4970435017136765
     Eloc =     -590.5855617189215536
      Enl =     -133.0877997222775377
     EvdW =       -0.0089227127969592
      Exc =      -39.5814043768980355
 Exc_core =       10.6063786150839796
       KE =       39.9724163852624059
-------------------------------------
     Etot =     -157.1074602497260457

IonicMinimize: Iter:   0  Etot: -157.107460249726046  |grad|_K:  4.365e-04  alpha:  1.000e+00

#--- Lowdin population analysis ---
# oxidation-state S -0.392 +0.392 -0.457 -0.457 +0.392 -0.393
# oxidation-state Na +0.720 +0.721


Computing DFT-D3 correction:
# coordination-number S 2.023 3.462 2.946 2.945 3.462 2.024
# coordination-number Na 3.873 3.878
# diagonal-C6 S 125.88 125.81 125.81 125.81 125.81 125.88
# diagonal-C6 Na 186.11 186.11
EvdW_6 =   -0.001209
EvdW_8 =   -0.007719

-------- Electronic minimization -----------
Will mix electronic density at each iteration.
SCF: Cycle:  0   Etot: -157.107464448178405   dEtot: -1.769e-07   |Residual|: 2.108e-04   |deigs|: 1.015e-08  t[s]:    933.89
SCF: Cycle:  1   Etot: -157.107464576690489   dEtot: -1.285e-07   |Residual|: 1.098e-04   |deigs|: 1.173e-05  t[s]:    952.82
SCF: Cycle:  2   Etot: -157.107464626989355   dEtot: -5.030e-08   |Residual|: 3.262e-05   |deigs|: 1.332e-05  t[s]:    972.61
SCF: Cycle:  3   Etot: -157.107464631919640   dEtot: -4.930e-09   |Residual|: 2.572e-05   |deigs|: 1.675e-06  t[s]:    992.68
SCF: Cycle:  4   Etot: -157.107464633897308   dEtot: -1.978e-09   |Residual|: 6.755e-06   |deigs|: 3.606e-06  t[s]:   1012.57
SCF: Converged (|Delta E|<1.000000e-08 for 2 iters).

Setting wave functions to eigenvectors of Hamiltonian
IonicMinimize: 	Predicted alpha/alphaT>3.000000, increasing alphaT to 3.000000e+00.

Computing DFT-D3 correction:
# coordination-number S 2.023 3.458 2.945 2.944 3.458 2.023
# coordination-number Na 3.868 3.873
# diagonal-C6 S 125.88 125.81 125.81 125.81 125.81 125.88
# diagonal-C6 Na 186.11 186.11
EvdW_6 =   -0.001210
EvdW_8 =   -0.007727

-------- Electronic minimization -----------
Will mix electronic density at each iteration.
SCF: Cycle:  0   Etot: -157.107471421997332   dEtot: -7.583e-07   |Residual|: 4.139e-04   |deigs|: 3.892e-08  t[s]:   1051.44
SCF: Cycle:  1   Etot: -157.107471899705104   dEtot: -4.777e-07   |Residual|: 2.106e-04   |deigs|: 2.139e-05  t[s]:   1070.37
SCF: Cycle:  2   Etot: -157.107472066177223   dEtot: -1.665e-07   |Residual|: 6.043e-05   |deigs|: 2.261e-05  t[s]:   1089.65
SCF: Cycle:  3   Etot: -157.107472082266952   dEtot: -1.609e-08   |Residual|: 4.710e-05   |deigs|: 3.360e-06  t[s]:   1108.91
SCF: Cycle:  4   Etot: -157.107472087898543   dEtot: -5.632e-09   |Residual|: 1.279e-05   |deigs|: 5.838e-06  t[s]:   1127.93
SCF: Cycle:  5   Etot: -157.107472090272779   dEtot: -2.374e-09   |Residual|: 9.877e-06   |deigs|: 3.532e-06  t[s]:   1147.94
SCF: Converged (|Delta E|<1.000000e-08 for 2 iters).

Setting wave functions to eigenvectors of Hamiltonian
IonicMinimize: 	Predicted alpha/alphaT>3.000000, increasing alphaT to 9.000000e+00.

Computing DFT-D3 correction:
# coordination-number S 2.021 3.446 2.941 2.940 3.446 2.022
# coordination-number Na 3.854 3.860
# diagonal-C6 S 125.89 125.81 125.81 125.81 125.81 125.89
# diagonal-C6 Na 186.11 186.11
EvdW_6 =   -0.001213
EvdW_8 =   -0.007752

-------- Electronic minimization -----------
Will mix electronic density at each iteration.
SCF: Cycle:  0   Etot: -157.107477997861679   dEtot: -6.664e-06   |Residual|: 1.242e-03   |deigs|: 3.516e-07  t[s]:   1185.47
SCF: Cycle:  1   Etot: -157.107482312624882   dEtot: -4.315e-06   |Residual|: 6.376e-04   |deigs|: 6.484e-05  t[s]:   1204.36
SCF: Cycle:  2   Etot: -157.107483870831459   dEtot: -1.558e-06   |Residual|: 1.825e-04   |deigs|: 7.056e-05  t[s]:   1223.23
SCF: Cycle:  3   Etot: -157.107484016574915   dEtot: -1.457e-07   |Residual|: 1.434e-04   |deigs|: 1.007e-05  t[s]:   1245.50
SCF: Cycle:  4   Etot: -157.107484066282296   dEtot: -4.971e-08   |Residual|: 3.755e-05   |deigs|: 1.870e-05  t[s]:   1267.42
SCF: Cycle:  5   Etot: -157.107484088144417   dEtot: -2.186e-08   |Residual|: 3.068e-05   |deigs|: 1.059e-05  t[s]:   1287.02
SCF: Cycle:  6   Etot: -157.107484101433158   dEtot: -1.329e-08   |Residual|: 2.000e-05   |deigs|: 1.184e-05  t[s]:   1313.58
SCF: Cycle:  7   Etot: -157.107484108536170   dEtot: -7.103e-09   |Residual|: 1.453e-05   |deigs|: 9.905e-06  t[s]:   1335.46
SCF: Cycle:  8   Etot: -157.107484113657335   dEtot: -5.121e-09   |Residual|: 9.442e-06   |deigs|: 7.271e-06  t[s]:   1357.35
SCF: Converged (|Delta E|<1.000000e-08 for 2 iters).

Setting wave functions to eigenvectors of Hamiltonian

Computing DFT-D3 correction:
# coordination-number S 2.021 3.442 2.940 2.939 3.442 2.021
# coordination-number Na 3.850 3.856
# diagonal-C6 S 125.89 125.81 125.81 125.81 125.81 125.89
# diagonal-C6 Na 186.11 186.11
EvdW_6 =   -0.001214
EvdW_8 =   -0.007759

-------- Electronic minimization -----------
Will mix electronic density at each iteration.
SCF: Cycle:  0   Etot: -157.107484219347214   dEtot: -5.587e-07   |Residual|: 3.554e-04   |deigs|: 2.860e-08  t[s]:   1398.84
SCF: Cycle:  1   Etot: -157.107484576380273   dEtot: -3.570e-07   |Residual|: 1.806e-04   |deigs|: 1.814e-05  t[s]:   1419.35
SCF: Cycle:  2   Etot: -157.107484700511975   dEtot: -1.241e-07   |Residual|: 5.159e-05   |deigs|: 1.900e-05  t[s]:   1439.49
SCF: Cycle:  3   Etot: -157.107484714299460   dEtot: -1.379e-08   |Residual|: 4.035e-05   |deigs|: 2.999e-06  t[s]:   1460.39
SCF: Cycle:  4   Etot: -157.107484719269337   dEtot: -4.970e-09   |Residual|: 1.095e-05   |deigs|: 5.065e-06  t[s]:   1481.60
SCF: Cycle:  5   Etot: -157.107484721593551   dEtot: -2.324e-09   |Residual|: 8.506e-06   |deigs|: 2.853e-06  t[s]:   1502.42
SCF: Converged (|Delta E|<1.000000e-08 for 2 iters).

Setting wave functions to eigenvectors of Hamiltonian

Computing DFT-D3 correction:
# coordination-number S 2.021 3.442 2.940 2.939 3.442 2.021
# coordination-number Na 3.850 3.856
# diagonal-C6 S 125.89 125.81 125.81 125.81 125.81 125.89
# diagonal-C6 Na 186.11 186.11
EvdW_6 =   -0.001214
EvdW_8 =   -0.007759

# Ionic positions in cartesian coordinates:
ion S   3.919091083392978  11.852877573191460  23.127120669179941 1
ion S   7.572023116876711  11.357285758560522  23.941794272986318 1
ion S   8.673782747586369   7.741486751161770  23.228416081500928 1
ion S   6.497557256110246   7.685255402669959  29.710795698559348 1
ion S   7.553739036523470  11.323452929703357  29.049324261989707 1
ion S  11.195216827058124  11.856369209726747  29.882264603986865 1
ion Na   3.824577600600828   7.175335933787112  25.240831443785012 1
ion Na  11.357883527751270   7.220288136809055  27.688572826411875 1

# Forces in Cartesian coordinates:
force S   0.000902453270264   0.000046112500598   0.000170093717449 1
force S  -0.000621091984320  -0.000712889858930  -0.000520771877846 1
force S   0.000008642469398   0.001047379217206  -0.000070823590408 1
force S   0.000020466893764   0.000913466023461   0.000112558215726 1
force S   0.000203102296629  -0.000668450630930   0.000407870881736 1
force S  -0.000520563008771   0.000114969164659  -0.000118208317266 1
force Na  -0.000403998212525  -0.000326386975694   0.000067492826572 1
force Na   0.000394763712272  -0.000418748065613  -0.000043465675834 1

# Energy components:
   Eewald =      212.7083879617950402
       EH =      342.1318847611423166
     Eloc =     -589.8390679175698779
      Enl =     -133.0878317325084197
     EvdW =       -0.0089730959283118
      Exc =      -39.5750708969995770
 Exc_core =       10.6063784708322135
       KE =       39.9568077276430884
-------------------------------------
     Etot =     -157.1074847215935506

IonicMinimize: Iter:   1  Etot: -157.107484721593551  |grad|_K:  4.796e-04  alpha:  1.071e+01  linmin: -9.520e-03  t[s]:   1527.06

#--- Lowdin population analysis ---
# oxidation-state S -0.393 +0.390 -0.458 -0.457 +0.391 -0.392
# oxidation-state Na +0.721 +0.721


Computing DFT-D3 correction:
# coordination-number S 2.019 3.408 2.930 2.930 3.408 2.018
# coordination-number Na 3.815 3.818
# diagonal-C6 S 125.89 125.81 125.81 125.81 125.81 125.89
# diagonal-C6 Na 186.11 186.11
EvdW_6 =   -0.001222
EvdW_8 =   -0.007817

-------- Electronic minimization -----------
Will mix electronic density at each iteration.
SCF: Cycle:  0   Etot: -157.107470467851499   dEtot: -6.360e-05   |Residual|: 3.129e-03   |deigs|: 2.402e-06  t[s]:   1565.88
SCF: Cycle:  1   Etot: -157.107481480608328   dEtot: -1.101e-05   |Residual|: 1.804e-03   |deigs|: 7.875e-05  t[s]:   1586.38
SCF: Cycle:  2   Etot: -157.107490483220914   dEtot: -9.003e-06   |Residual|: 5.688e-04   |deigs|: 8.812e-05  t[s]:   1608.47
SCF: Cycle:  3   Etot: -157.107491550826239   dEtot: -1.068e-06   |Residual|: 3.519e-04   |deigs|: 2.111e-05  t[s]:   1629.17
SCF: Cycle:  4   Etot: -157.107491832458805   dEtot: -2.816e-07   |Residual|: 1.127e-04   |deigs|: 4.346e-05  t[s]:   1649.56
SCF: Cycle:  5   Etot: -157.107491962418237   dEtot: -1.300e-07   |Residual|: 9.631e-05   |deigs|: 1.800e-05  t[s]:   1671.04
SCF: Cycle:  6   Etot: -157.107492050019403   dEtot: -8.760e-08   |Residual|: 9.213e-05   |deigs|: 3.393e-05  t[s]:   1691.89
SCF: Cycle:  7   Etot: -157.107492102454898   dEtot: -5.244e-08   |Residual|: 4.752e-05   |deigs|: 8.850e-06  t[s]:   1712.77
SCF: Cycle:  8   Etot: -157.107492137507336   dEtot: -3.505e-08   |Residual|: 4.821e-05   |deigs|: 1.519e-05  t[s]:   1734.04
SCF: Cycle:  9   Etot: -157.107492158340506   dEtot: -2.083e-08   |Residual|: 3.044e-05   |deigs|: 1.146e-05  t[s]:   1755.18
SCF: Cycle: 10   Etot: -157.107492178228654   dEtot: -1.989e-08   |Residual|: 1.924e-05   |deigs|: 1.606e-05  t[s]:   1776.68
SCF: Cycle: 11   Etot: -157.107492188408088   dEtot: -1.018e-08   |Residual|: 1.588e-05   |deigs|: 4.571e-06  t[s]:   1797.71
SCF: Cycle: 12   Etot: -157.107492192716506   dEtot: -4.308e-09   |Residual|: 1.060e-05   |deigs|: 4.576e-06  t[s]:   1819.69
SCF: Cycle: 13   Etot: -157.107492196357470   dEtot: -3.641e-09   |Residual|: 1.016e-05   |deigs|: 6.182e-06  t[s]:   1843.39
SCF: Converged (|Delta E|<1.000000e-08 for 2 iters).

Setting wave functions to eigenvectors of Hamiltonian

Computing DFT-D3 correction:
# coordination-number S 2.020 3.423 2.935 2.934 3.423 2.020
# coordination-number Na 3.830 3.834
# diagonal-C6 S 125.89 125.81 125.81 125.81 125.81 125.89
# diagonal-C6 Na 186.11 186.11
EvdW_6 =   -0.001219
EvdW_8 =   -0.007792

-------- Electronic minimization -----------
Will mix electronic density at each iteration.
SCF: Cycle:  0   Etot: -157.107495583994307   dEtot: -9.728e-06   |Residual|: 1.236e-03   |deigs|: 3.873e-07  t[s]:   1884.85
SCF: Cycle:  1   Etot: -157.107499719109967   dEtot: -4.135e-06   |Residual|: 6.730e-04   |deigs|: 2.814e-05  t[s]:   1905.50
SCF: Cycle:  2   Etot: -157.107501112664096   dEtot: -1.394e-06   |Residual|: 1.824e-04   |deigs|: 3.390e-05  t[s]:   1926.03
SCF: Cycle:  3   Etot: -157.107501318922203   dEtot: -2.063e-07   |Residual|: 1.290e-04   |deigs|: 1.548e-05  t[s]:   1946.80
SCF: Cycle:  4   Etot: -157.107501407137306   dEtot: -8.822e-08   |Residual|: 4.640e-05   |deigs|: 2.221e-05  t[s]:   1967.59
SCF: Cycle:  5   Etot: -157.107501444264216   dEtot: -3.713e-08   |Residual|: 3.482e-05   |deigs|: 9.145e-06  t[s]:   1988.19
SCF: Cycle:  6   Etot: -157.107501464115387   dEtot: -1.985e-08   |Residual|: 1.949e-05   |deigs|: 1.081e-05  t[s]:   2008.81
SCF: Cycle:  7   Etot: -157.107501475130789   dEtot: -1.102e-08   |Residual|: 1.710e-05   |deigs|: 7.836e-06  t[s]:   2029.89
SCF: Cycle:  8   Etot: -157.107501482513783   dEtot: -7.383e-09   |Residual|: 1.230e-05   |deigs|: 9.302e-06  t[s]:   2051.07
SCF: Cycle:  9   Etot: -157.107501487029168   dEtot: -4.515e-09   |Residual|: 1.001e-05   |deigs|: 3.611e-06  t[s]:   2071.59
SCF: Converged (|Delta E|<1.000000e-08 for 2 iters).

Setting wave functions to eigenvectors of Hamiltonian

Computing DFT-D3 correction:
# coordination-number S 2.020 3.423 2.935 2.934 3.423 2.020
# coordination-number Na 3.830 3.834
# diagonal-C6 S 125.89 125.81 125.81 125.81 125.81 125.89
# diagonal-C6 Na 186.11 186.11
EvdW_6 =   -0.001219
EvdW_8 =   -0.007792

# Ionic positions in cartesian coordinates:
ion S   3.923081563995033  11.855453659504988  23.127874080465471 1
ion S   7.571367874839281  11.357129546044437  23.936076502141155 1
ion S   8.677298598405308   7.746736720230149  23.223945640008299 1
ion S   6.494533723327466   7.689557589016606  29.715374812085791 1
ion S   7.552804852826601  11.322879684961352  29.054772389633648 1
ion S  11.192417780912406  11.859727467988472  29.881241526757545 1
ion Na   3.816382523887444   7.168504307752779  25.242180086294645 1
ion Na  11.365984277706460   7.212362720111198  27.687654821013432 1

# Forces in Cartesian coordinates:
force S  -0.000125733698699  -0.000110871684384  -0.000087918930215 1
force S   0.000225906229215  -0.000089388136382   0.000232056015051 1
force S  -0.000062038907174   0.000296144814377  -0.000010588592361 1
force S   0.000069502755694   0.000190077214405   0.000031309877014 1
force S  -0.000135810575965  -0.000007307807617  -0.000209885336014 1
force S   0.000016717251522  -0.000128856227268   0.000007953200023 1
force Na  -0.000064426797698  -0.000035464778485   0.000037688726320 1
force Na   0.000061237551498  -0.000083040570410  -0.000001161512939 1

# Energy components:
   Eewald =      212.5050322753964736
       EH =      341.9292563860868768
     Eloc =     -589.4382115810503819
      Enl =     -133.0851609664103705
     EvdW =       -0.0090108972440961
      Exc =      -39.5759729601938801
 Exc_core =       10.6063785955583612
       KE =       39.9601876608278346
-------------------------------------
     Etot =     -157.1075014870291682

IonicMinimize: Iter:   2  Etot: -157.107501487029168  |grad|_K:  1.257e-04  alpha:  6.121e+00  linmin: -2.245e-02  t[s]:   2097.60

#--- Lowdin population analysis ---
# oxidation-state S -0.392 +0.391 -0.457 -0.457 +0.391 -0.392
# oxidation-state Na +0.721 +0.721


Computing DFT-D3 correction:
# coordination-number S 2.020 3.424 2.934 2.933 3.423 2.020
# coordination-number Na 3.828 3.832
# diagonal-C6 S 125.89 125.81 125.81 125.81 125.81 125.89
# diagonal-C6 Na 186.11 186.11
EvdW_6 =   -0.001218
EvdW_8 =   -0.007795

-------- Electronic minimization -----------
Will mix electronic density at each iteration.
SCF: Cycle:  0   Etot: -157.107501641714919   dEtot: -1.616e-06   |Residual|: 5.718e-04   |deigs|: 6.560e-08  t[s]:   2132.55
SCF: Cycle:  1   Etot: -157.107502345071765   dEtot: -7.034e-07   |Residual|: 2.874e-04   |deigs|: 1.425e-05  t[s]:   2154.76
SCF: Cycle:  2   Etot: -157.107502555701899   dEtot: -2.106e-07   |Residual|: 8.547e-05   |deigs|: 1.396e-05  t[s]:   2175.61
SCF: Cycle:  3   Etot: -157.107502594620655   dEtot: -3.892e-08   |Residual|: 6.565e-05   |deigs|: 1.494e-06  t[s]:   2195.81
SCF: Cycle:  4   Etot: -157.107502610404197   dEtot: -1.578e-08   |Residual|: 2.239e-05   |deigs|: 3.955e-06  t[s]:   2216.96
SCF: Cycle:  5   Etot: -157.107502617764055   dEtot: -7.360e-09   |Residual|: 1.564e-05   |deigs|: 1.255e-06  t[s]:   2237.88
SCF: Cycle:  6   Etot: -157.107502621470644   dEtot: -3.707e-09   |Residual|: 1.151e-05   |deigs|: 1.593e-06  t[s]:   2258.19
SCF: Converged (|Delta E|<1.000000e-08 for 2 iters).

Setting wave functions to eigenvectors of Hamiltonian

Computing DFT-D3 correction:
# coordination-number S 2.020 3.424 2.934 2.933 3.423 2.020
# coordination-number Na 3.828 3.832
# diagonal-C6 S 125.89 125.81 125.81 125.81 125.81 125.89
# diagonal-C6 Na 186.11 186.11
EvdW_6 =   -0.001218
EvdW_8 =   -0.007795

-------- Electronic minimization -----------
Will mix electronic density at each iteration.
SCF: Cycle:  0   Etot: -157.107502626673579   dEtot: -3.113e-09   |Residual|: 1.339e-05   |deigs|: 9.064e-11  t[s]:   2298.04
SCF: Cycle:  1   Etot: -157.107502627672659   dEtot: -9.991e-10   |Residual|: 9.570e-06   |deigs|: 5.695e-07  t[s]:   2318.87
SCF: Converged (|Delta E|<1.000000e-08 for 2 iters).

Setting wave functions to eigenvectors of Hamiltonian

Computing DFT-D3 correction:
# coordination-number S 2.020 3.424 2.934 2.933 3.423 2.020
# coordination-number Na 3.828 3.832
# diagonal-C6 S 125.89 125.81 125.81 125.81 125.81 125.89
# diagonal-C6 Na 186.11 186.11
EvdW_6 =   -0.001218
EvdW_8 =   -0.007795

# Ionic positions in cartesian coordinates:
ion S   3.922611718922323  11.854943725709935  23.127402627295645 1
ion S   7.572676507745701  11.356565128230383  23.937073871933908 1
ion S   8.677175345527571   7.748821791117391  23.223585306861203 1
ion S   6.494755841293223   7.690949685039538  29.715866239375014 1
ion S   7.551947042732521  11.322774869497589  29.053889513379819 1
ion S  11.192341418545180  11.859162858730496  29.881220990807762 1
ion Na   3.815464796007297   7.167815303341445  25.242494145508644 1
ion Na  11.366898525126173   7.211318333943206  27.687587163237993 1

# Forces in Cartesian coordinates:
force S   0.000184327676142  -0.000155299765561  -0.000002558593843 1
force S  -0.000212125790143   0.000273297933310   0.000181902363179 1
force S   0.000071278787175  -0.000057993192051  -0.000042848731036 1
force S  -0.000010419146350  -0.000028103077290   0.000032132210102 1
force S   0.000092212696936   0.000178883912383  -0.000181618731718 1
force S  -0.000101841871097  -0.000136288479262  -0.000035743625381 1
force Na  -0.000052560194663  -0.000002594325264   0.000024166484371 1
force Na   0.000044840444225  -0.000048623845989   0.000010126741636 1

# Energy components:
   Eewald =      212.4986966620544990
       EH =      341.9222778198936226
     Eloc =     -589.4252214282412297
      Enl =     -133.0849470467008189
     EvdW =       -0.0090128174177375
      Exc =      -39.5760653140463674
 Exc_core =       10.6063786028794471
       KE =       39.9603908939058243
-------------------------------------
     Etot =     -157.1075026276726589

IonicMinimize: Iter:   3  Etot: -157.107502627672659  |grad|_K:  1.181e-04  alpha:  5.938e+00  linmin:  4.365e-02  t[s]:   2343.74

#--- Lowdin population analysis ---
# oxidation-state S -0.393 +0.391 -0.457 -0.457 +0.391 -0.393
# oxidation-state Na +0.721 +0.721


Computing DFT-D3 correction:
# coordination-number S 2.020 3.425 2.934 2.933 3.425 2.020
# coordination-number Na 3.826 3.830
# diagonal-C6 S 125.89 125.81 125.81 125.81 125.81 125.89
# diagonal-C6 Na 186.11 186.11
EvdW_6 =   -0.001218
EvdW_8 =   -0.007797

-------- Electronic minimization -----------
Will mix electronic density at each iteration.
SCF: Cycle:  0   Etot: -157.107503066426432   dEtot: -1.420e-06   |Residual|: 4.568e-04   |deigs|: 5.944e-08  t[s]:   2378.03
SCF: Cycle:  1   Etot: -157.107503715533966   dEtot: -6.491e-07   |Residual|: 2.469e-04   |deigs|: 1.644e-05  t[s]:   2398.86
SCF: Cycle:  2   Etot: -157.107503944383325   dEtot: -2.288e-07   |Residual|: 8.068e-05   |deigs|: 1.778e-05  t[s]:   2419.11
SCF: Cycle:  3   Etot: -157.107503980127774   dEtot: -3.574e-08   |Residual|: 6.025e-05   |deigs|: 1.988e-06  t[s]:   2439.79
SCF: Cycle:  4   Etot: -157.107503992863883   dEtot: -1.274e-08   |Residual|: 2.035e-05   |deigs|: 3.108e-06  t[s]:   2460.77
SCF: Cycle:  5   Etot: -157.107504000491446   dEtot: -7.628e-09   |Residual|: 1.460e-05   |deigs|: 1.635e-06  t[s]:   2481.15
SCF: Cycle:  6   Etot: -157.107504004365495   dEtot: -3.874e-09   |Residual|: 1.121e-05   |deigs|: 2.285e-06  t[s]:   2502.25
SCF: Converged (|Delta E|<1.000000e-08 for 2 iters).

Setting wave functions to eigenvectors of Hamiltonian

Computing DFT-D3 correction:
# coordination-number S 2.020 3.427 2.933 2.933 3.427 2.020
# coordination-number Na 3.824 3.828
# diagonal-C6 S 125.89 125.81 125.81 125.81 125.81 125.89
# diagonal-C6 Na 186.11 186.11
EvdW_6 =   -0.001218
EvdW_8 =   -0.007799

-------- Electronic minimization -----------
Will mix electronic density at each iteration.
SCF: Cycle:  0   Etot: -157.107503706315754   dEtot: -9.889e-07   |Residual|: 3.762e-04   |deigs|: 4.043e-08  t[s]:   2542.66
SCF: Cycle:  1   Etot: -157.107504156993144   dEtot: -4.507e-07   |Residual|: 2.014e-04   |deigs|: 1.333e-05  t[s]:   2563.56
SCF: Cycle:  2   Etot: -157.107504310706702   dEtot: -1.537e-07   |Residual|: 6.680e-05   |deigs|: 1.412e-05  t[s]:   2584.79
SCF: Cycle:  3   Etot: -157.107504336616614   dEtot: -2.591e-08   |Residual|: 5.014e-05   |deigs|: 1.574e-06  t[s]:   2605.32
SCF: Cycle:  4   Etot: -157.107504346003026   dEtot: -9.386e-09   |Residual|: 1.658e-05   |deigs|: 2.592e-06  t[s]:   2625.60
SCF: Cycle:  5   Etot: -157.107504351502172   dEtot: -5.499e-09   |Residual|: 1.150e-05   |deigs|: 1.249e-06  t[s]:   2646.85
SCF: Converged (|Delta E|<1.000000e-08 for 2 iters).

Setting wave functions to eigenvectors of Hamiltonian

Computing DFT-D3 correction:
# coordination-number S 2.020 3.427 2.933 2.933 3.427 2.020
# coordination-number Na 3.824 3.828
# diagonal-C6 S 125.89 125.81 125.81 125.81 125.81 125.89
# diagonal-C6 Na 186.11 186.11
EvdW_6 =   -0.001218
EvdW_8 =   -0.007799

# Ionic positions in cartesian coordinates:
ion S   3.923828068345120  11.852415090912402  23.126637430707401 1
ion S   7.572464206766695  11.358580902769811  23.940660785596279 1
ion S   8.677726518436184   7.751511791990892  23.222563126095491 1
ion S   6.494978689441237   7.692849939074088  29.717022134039947 1
ion S   7.551544905636042  11.324508327071765  29.050528536301837 1
ion S  11.191096955090742  11.856751883519614  29.880821238718191 1
ion Na   3.813401868031670   7.166649422011799  25.243279137810088 1
ion Na  11.368829984152299   7.209084338259615  27.687607469130754 1

# Forces in Cartesian coordinates:
force S  -0.000065777728099   0.000010578621795   0.000039883511962 1
force S  -0.000054539146606   0.000081883502287   0.000020738360460 1
force S   0.000139174910877  -0.000005614575607   0.000093093991329 1
force S  -0.000124496731949   0.000022525877656  -0.000087611777605 1
force S  -0.000001090081224  -0.000014301932129   0.000000181797223 1
force S   0.000064222418911   0.000028848039258  -0.000072194811409 1
force Na   0.000007847718957   0.000001723326927   0.000056318365435 1
force Na  -0.000021311328221  -0.000036165604782  -0.000015203018720 1

# Energy components:
   Eewald =      212.4923869230745197
       EH =      341.9167364522032244
     Eloc =     -589.4139498439259341
      Enl =     -133.0846365236883173
     EvdW =       -0.0090168196965541
      Exc =      -39.5763164448056344
 Exc_core =       10.6063786306399379
       KE =       39.9609132746965301
-------------------------------------
     Etot =     -157.1075043515021719

IonicMinimize: Iter:   4  Etot: -157.107504351502172  |grad|_K:  5.843e-05  alpha:  1.081e+01  linmin:  3.425e-02  t[s]:   2671.43
IonicMinimize: Converged (|grad|_K<1.000000e-04).

#--- Lowdin population analysis ---
# oxidation-state S -0.393 +0.392 -0.457 -0.457 +0.392 -0.393
# oxidation-state Na +0.721 +0.721


Dumping 'Na2S6-vdw.wfns' ... done
Dumping 'Na2S6-vdw.ionpos' ... done
End date and time: Sun Aug 18 10:47:35 2024  (Duration: 0-0:44:33.48)
Done!
