
*************** JDFTx 1.7.0  ***************

Start date and time: Fri Jan  3 15:34:33 2025
Executable jdftx_gpu with command-line: -i /home/akim2/JDFTx/Na2S@graphene_vdw-PC/Na2S@graphene_vdw-PC.in -o /home/akim2/JDFTx/Na2S@graphene_vdw-PC/Na2S@graphene_vdw-PC.out
Running on hosts (process indices):  exp-2-59 (0)
Divided in process groups (process indices):  0 (0)
gpuInit: Found compatible cuda device 0 'Tesla V100-SXM2-32GB'
gpuInit: Selected device 0
Resource initialization completed at t[s]:      0.72
Run totals: 1 processes, 1 threads, 1 GPUs


Input parsed successfully to the following command list (including defaults):

basis kpoint-dependent
coords-type Cartesian
core-overlap-check vector
coulomb-interaction Slab 001
coulomb-truncation-embed 0 0 23.6216
davidson-band-ratio 1.1
dump End State
dump-name Na2S@graphene_vdw-PC.$VAR
elec-cutoff 20 100
elec-eigen-algo Davidson
elec-ex-corr gga-PBE
elec-smearing Fermi 0.01
electronic-minimize  \
	dirUpdateScheme      FletcherReeves \
	linminMethod         DirUpdateRecommended \
	nIterations          100 \
	history              15 \
	knormThreshold       0 \
	energyDiffThreshold  1e-08 \
	nEnergyDiff          2 \
	alphaTstart          1 \
	alphaTmin            1e-10 \
	updateTestStepSize   yes \
	alphaTreduceFactor   0.1 \
	alphaTincreaseFactor 3 \
	nAlphaAdjustMax      3 \
	wolfeEnergy          0.0001 \
	wolfeGradient        0.9 \
	fdTest               no
electronic-scf  \
	nIterations	50 \
	energyDiffThreshold	1e-08 \
	residualThreshold	1e-07 \
	mixFraction	0.5 \
	qMetric	0.8 \
	history	10 \
	nEigSteps	2 \
	eigDiffThreshold	1e-08 \
	mixedVariable	Density \
	qKerker	0.8 \
	qKappa	-1 \
	verbose	no \
	mixFractionMag	1.5
exchange-regularization WignerSeitzTruncated
fluid LinearPCM 298.000000 1.013250
fluid-ex-corr lda-TF lda-PZ
fluid-gummel-loop 10 1.000000e-05
fluid-minimize  \
	dirUpdateScheme      PolakRibiere \
	linminMethod         DirUpdateRecommended \
	nIterations          400 \
	history              15 \
	knormThreshold       1e-11 \
	energyDiffThreshold  0 \
	nEnergyDiff          2 \
	alphaTstart          1 \
	alphaTmin            1e-10 \
	updateTestStepSize   yes \
	alphaTreduceFactor   0.1 \
	alphaTincreaseFactor 3 \
	nAlphaAdjustMax      6 \
	wolfeEnergy          0.0001 \
	wolfeGradient        0.9 \
	fdTest               no
fluid-solvent PC 11.6429 ScalarEOS \
	epsBulk 64 \
	pMol 2.95 \
	epsInf 2.02 \
	Pvap 1.53277e-13 \
	sigmaBulk 2.88e-05 \
	Rvdw 0 \
	Res 0 \
	tauNuc 343133
forces-output-coords Positions
ion C  28.014330944498511   0.004543279125116  23.502503101125598 1
ion C  16.346224761984317  20.218360617645246  23.502993663098884 1
ion C   2.341951358854215   4.043669653663128  23.490310836319793 1
ion C  23.346771763020477   0.004694323538036  23.498216754438761 1
ion C   4.676533615107807   0.003831167870708  23.498685821160176 1
ion C  11.678054281551246  20.219266980939235  23.483658915920575 1
ion C  25.678991858822329   4.044057917565260  23.508874346519622 1
ion C  18.680440079023036  16.175341055052883  23.519363020373817 1
ion C   4.678378946307143   8.082837906825780  23.450478296962348 1
ion C  18.679591829961794   0.004651883449718  23.497906461752532 1
ion C   9.344021241386271   0.003939820602881  23.497971918094969 1
ion C   9.343179295144006  16.179546258376917  23.440559991123497 1
ion C  23.344952959302244   8.086660760316342  23.526594918842108 1
ion C  21.013255319023163  12.130628672731959  23.533068712377567 1
ion C   7.010810918293329  12.130439914706225  23.408218476823503 1
ion C  14.011638440051723   0.004675982535733  23.500080963589497 1
ion C  14.013653392426466  16.179682814125560  23.490942159310400 1
ion C   7.009985775794462   4.042695467073137  23.470591829357346 1
ion C  21.013291932731093   4.045077802232385  23.513006219064938 1
ion C  16.350624679377603  12.130854488859232  23.519307394058586 1
ion C   9.341975123457070   8.082439809963612  23.444210730674989 1
ion C  16.347178860444394   4.043827620232956  23.505919979355681 1
ion C  11.677858690215984   4.043771058455998  23.484952942759385 1
ion C  11.678159369752152  12.132857297916649  23.454690384171027 1
ion C  18.681482078452035   8.086326334091167  23.524861551822386 1
ion C   7.010112726965763  20.219775011515857  23.468039107190911 1
ion C  -6.992566704966779  20.217126736754256  23.509976403571088 1
ion C   0.003722382936144   8.084160467465541  23.503769723969423 1
ion C  14.015611194154660   8.083728566235635  23.496206586410079 1
ion C   2.342012414452640  20.219269349376475  23.483529700959480 1
ion C  -4.659839113170444  16.175022385290934  23.519403838352229 1
ion C   2.340272699356768  12.133295251578309  23.466721493580362 1
ion C  -2.329652515957535  12.131279392765128  23.521465563713519 1
ion C  -2.325835858400934  20.218198754759452  23.503025749889876 1
ion C   4.676934166292030  16.180459821140062  23.443289622582263 1
ion C   0.006535367739357  16.179005456332462  23.492642979851283 1
ion C  14.012614104128019  21.564662341327953  23.497610658767908 1
ion C   2.342559863656532   1.350039232428767  23.498630044074449 1
ion C  25.680336124799918   1.350673880730549  23.503130018920771 1
ion C  16.347779963867701  17.524777462591612  23.506749577203493 1
ion C   4.676569179297269   5.388550549889562  23.470493183765313 1
ion C  21.013169836835772   1.350953932666499  23.502836393398102 1
ion C   7.010273391955430   1.349522317466488  23.489475541607618 1
ion C  11.677965474827904  17.525881516477941  23.470489180815424 1
ion C  23.346014665385979   5.392107415289417  23.516503618153557 1
ion C  18.682113859673748  13.480607069821957  23.529052710888060 1
ion C   7.010893386958772   9.433290904292258  23.423624878467532 1
ion C  16.345742170795607   1.350440673849301  23.501566578049186 1
ion C  11.677514623182249   1.350381876267648  23.495472449931800 1
ion C   9.340815429774427  13.484324941698592  23.421501805901219 1
ion C  21.013291563965343   9.435832073656103  23.532620953036144 1
ion C   9.344204363873716  21.565347915904500  23.482193298356805 1
ion C  -9.325686771384444  21.564080063724639  23.505591227172872 1
ion C   0.006761056121325   5.389669923082919  23.500903090099651 1
ion C  14.017579113974165  13.483470370900783  23.492212073749375 1
ion C   9.343498561894823   5.388844080703572  23.465479049935183 1
ion C  18.680518821978382   5.392076805376961  23.515607460000002 1
ion C  16.349213982122254   9.434616495215218  23.517573718404336 1
ion C  11.678293363441576   9.429643329434038  23.464048874449229 1
ion C  14.013392481832096   5.389036900754228  23.496451148110378 1
ion C   4.676056857796958  21.565336574920735  23.482133156414999 1
ion C  -6.992543014689888  17.522354508341369  23.519185585456739 1
ion C   2.340810440823758   9.430233358344413  23.475631470081868 1
ion C  -2.328817621644771   9.435398986909497  23.520625145778123 1
ion C  -4.659465462513320  21.563964974446471  23.505131012674862 1
ion C   7.010228734821794  17.526615730199584  23.446431787258852 1
ion C   0.007749976106235  21.564814451891710  23.495896088162482 1
ion C  -4.661248369483401  13.480394938390157  23.528644617442477 1
ion C   4.679286990612406  13.484291020280608  23.427457139843693 1
ion C   2.341994858908546  17.525729630397418  23.471843026130763 1
ion C  -2.327260500926807  17.524680271424181  23.506564360790222 1
ion C   0.002203245718183  13.483789064939169  23.497906276306175 1
ion S   7.350899320190606  11.764718324374256  31.361927556252461 1
ion Na   3.353004489488626  11.655350954426734  28.697606674687371 1
ion Na  11.355103972937918  11.747054047512222  28.712818410291860 1
ion-species GBRV/$ID_pbe.uspp
ion-width Ecut
ionic-minimize  \
	dirUpdateScheme      FletcherReeves \
	linminMethod         DirUpdateRecommended \
	nIterations          200 \
	history              15 \
	knormThreshold       0.0001 \
	energyDiffThreshold  1e-06 \
	nEnergyDiff          2 \
	alphaTstart          1 \
	alphaTmin            1e-10 \
	updateTestStepSize   yes \
	alphaTreduceFactor   0.1 \
	alphaTincreaseFactor 3 \
	nAlphaAdjustMax      3 \
	wolfeEnergy          0.0001 \
	wolfeGradient        0.9 \
	fdTest               no
kpoint   0.000000000000   0.000000000000   0.000000000000  1.00000000000000
kpoint-folding 1 1 1 
latt-move-scale 1 1 1
latt-scale 1 1 1 
lattice Triclinic 28.0058 28.0058 37.7946 90 90 120
lattice-minimize  \
	dirUpdateScheme      L-BFGS \
	linminMethod         DirUpdateRecommended \
	nIterations          0 \
	history              15 \
	knormThreshold       0 \
	energyDiffThreshold  1e-06 \
	nEnergyDiff          2 \
	alphaTstart          1 \
	alphaTmin            1e-10 \
	updateTestStepSize   yes \
	alphaTreduceFactor   0.1 \
	alphaTincreaseFactor 3 \
	nAlphaAdjustMax      3 \
	wolfeEnergy          0.0001 \
	wolfeGradient        0.9 \
	fdTest               no
lcao-params -1 1e-06 0.01
pcm-variant GLSSA13
spintype no-spin
subspace-rotation-factor 1 yes
symmetries automatic
symmetry-threshold 0.0001
van-der-waals D3



---------- Setting up symmetries ----------

Found 24 point-group symmetries of the bravais lattice
Found 1 space-group symmetries with basis
Applied RMS atom displacement 0 bohrs to make symmetries exact.

---------- Initializing the Grid ----------
R = 
[      28.0058     -14.0029            0  ]
[            0      24.2537            0  ]
[            0            0      37.7946  ]
unit cell volume = 25671.8
G =
[   0.224353    0.12953         -0  ]
[          0   0.259061          0  ]
[          0         -0   0.166246  ]
Minimum fftbox size, Smin = [  128  128  172  ]
Chosen fftbox size, S = [  128  128  180  ]

---------- Initializing tighter grid for wavefunction operations ----------
R = 
[      28.0058     -14.0029            0  ]
[            0      24.2537            0  ]
[            0            0      37.7946  ]
unit cell volume = 25671.8
G =
[   0.224353    0.12953         -0  ]
[          0   0.259061          0  ]
[          0         -0   0.166246  ]
Minimum fftbox size, Smin = [  116  116  156  ]
Chosen fftbox size, S = [  120  120  160  ]

---------- Exchange Correlation functional ----------
Initalized PBE GGA exchange.
Initalized PBE GGA correlation.

---------- Setting up pseudopotentials ----------
Width of ionic core gaussian charges (only for fluid interactions / plotting) set to 0.397384

Reading pseudopotential file '/home/akim2/jdftx_install/build/pseudopotentials/GBRV/c_pbe.uspp':
  Title: C.  Created by USPP 7.3.6 on 3-2-2014
  Reference state energy: -5.406344.  4 valence electrons in orbitals:
    |200>  occupation: 2  eigenvalue: -0.504890
    |210>  occupation: 2  eigenvalue: -0.194356
  lMax: 1  lLocal: 2  QijEcut: 5
  4 projectors sampled on a log grid with 503 points:
    l: 0  eig: -0.504890  rCut: 1.3
    l: 0  eig: 0.000000  rCut: 1.3
    l: 1  eig: -0.194357  rCut: 1.3
    l: 1  eig: 0.000000  rCut: 1.3
  Partial core density with radius 1.1
  Transforming core density to a uniform radial grid of dG=0.02 with 1625 points.
  Transforming local potential to a uniform radial grid of dG=0.02 with 1625 points.
  Transforming nonlocal projectors to a uniform radial grid of dG=0.02 with 432 points.
  Transforming density augmentations to a uniform radial grid of dG=0.02 with 1625 points.
  Transforming atomic orbitals to a uniform radial grid of dG=0.02 with 432 points.
  Core radius for overlap checks: 1.30 bohrs.

Reading pseudopotential file '/home/akim2/jdftx_install/build/pseudopotentials/GBRV/s_pbe.uspp':
  Title: S.  Created by USPP 7.3.6 on 1-4-15
  Reference state energy: -11.898476.  6 valence electrons in orbitals:
    |300>  occupation: 2  eigenvalue: -0.634167
    |310>  occupation: 4  eigenvalue: -0.257568
  lMax: 2  lLocal: 3  QijEcut: 6
  6 projectors sampled on a log grid with 635 points:
    l: 0  eig: -0.634161  rCut: 1.5
    l: 0  eig: 1.500000  rCut: 1.5
    l: 1  eig: -0.257567  rCut: 1.5
    l: 1  eig: 1.500000  rCut: 1.5
    l: 2  eig: -1.000000  rCut: 1.5
    l: 2  eig: 1.500000  rCut: 1.5
  Partial core density with radius 1.15
  Transforming core density to a uniform radial grid of dG=0.02 with 1625 points.
  Transforming local potential to a uniform radial grid of dG=0.02 with 1625 points.
  Transforming nonlocal projectors to a uniform radial grid of dG=0.02 with 432 points.
  Transforming density augmentations to a uniform radial grid of dG=0.02 with 1625 points.
  Transforming atomic orbitals to a uniform radial grid of dG=0.02 with 432 points.
  Core radius for overlap checks: 1.50 bohrs.

Reading pseudopotential file '/home/akim2/jdftx_install/build/pseudopotentials/GBRV/na_pbe.uspp':
  Title: Na.  Created by USPP 7.3.6 on 23-9-15
  Reference state energy: -47.625620.  9 valence electrons in orbitals:
    |200>  occupation: 2  eigenvalue: -2.085638
    |210>  occupation: 6  eigenvalue: -1.053708
    |300>  occupation: 1  eigenvalue: -0.100838
  lMax: 2  lLocal: 0  QijEcut: 6
  5 projectors sampled on a log grid with 657 points:
    l: 0  eig: -2.085640  rCut: 1.37
    l: 0  eig: -0.100839  rCut: 1.37
    l: 1  eig: -1.053708  rCut: 1.47
    l: 1  eig: 0.500000  rCut: 1.47
    l: 2  eig: 0.750000  rCut: 2
  Transforming local potential to a uniform radial grid of dG=0.02 with 1625 points.
  Transforming nonlocal projectors to a uniform radial grid of dG=0.02 with 432 points.
  Transforming density augmentations to a uniform radial grid of dG=0.02 with 1625 points.
  Transforming atomic orbitals to a uniform radial grid of dG=0.02 with 432 points.
  Core radius for overlap checks: 2.00 bohrs.

Initialized 3 species with 75 total atoms.

Folded 1 k-points by 1x1x1 to 1 k-points.

---------- Setting up k-points, bands, fillings ----------
No reducable k-points. 
Computing the number of bands and number of electrons
Calculating initial fillings.
nElectrons: 312.000000   nBands: 302   nStates: 1

----- Setting up reduced wavefunction bases (one per k-point) -----
average nbasis = 109673.000 , ideal nbasis = 109671.883

---------- Setting up coulomb interaction ----------
Fluid mode embedding: using embedded box, but periodic Coulomb kernel.
(Fluid response is responsible for (approximate) separation between periodic images.)
Setting up double-sized grid for truncated Coulomb potentials:
R = 
[      28.0058     -14.0029            0  ]
[            0      24.2537            0  ]
[            0            0      75.5892  ]
unit cell volume = 51343.6
G =
[   0.224353    0.12953         -0  ]
[          0   0.259061          0  ]
[          0         -0  0.0831228  ]
Chosen fftbox size, S = [  128  128  360  ]
Integer grid location selected as the embedding center:
   Grid: [  0  0  113  ]
   Lattice: [  0  0  0.625  ]
   Cartesian: [  0  0  23.6216  ]
Constructing Wigner-Seitz cell: 8 faces (6 quadrilaterals, 2 hexagons)
Range-separation parameter for embedded mesh potentials due to point charges: 0.590105 bohrs.

Initializing DFT-D3 calculator:
	Parameters set for gga-PBE functional
	s6:  1.000  s_r6:  1.217
	s8:  0.722  s_r8:  1.000
	Per-atom parameters loaded for:
	 C:  sqrtQ[a0]:  3.105  Rcov[a0]:  1.417  CN: [ 0.00 0.99 2.00 3.00 3.98 ]
	 S:  sqrtQ[a0]:  4.041  Rcov[a0]:  1.928  CN: [ 0.00 0.99 1.99 ]
	Na:  sqrtQ[a0]:  6.586  Rcov[a0]:  2.646  CN: [ 0.00 0.97 ]

---------- Setting up ewald sum ----------
Optimum gaussian width for ewald sums = 7.220412 bohr.
Real space sum over 405 unit cells with max indices [  4  4  2  ]
Reciprocal space sum over 7875 terms with max indices [  7  7  17  ]

Computing DFT-D3 correction:
# coordination-number C 3.301 3.301 3.301 3.301 3.301 3.301 3.301 3.301 3.366 3.301 3.301 3.320 3.301 3.301 3.402 3.301 3.313 3.302 3.301 3.316 3.343 3.301 3.302 3.897 3.301 3.302 3.301 3.319 3.328 3.301 3.300 3.846 3.307 3.301 3.323 3.308 3.301 3.301 3.301 3.301 3.304 3.301 3.301 3.307 3.301 3.302 3.353 3.301 3.301 3.505 3.301 3.301 3.301 3.302 3.436 3.304 3.301 3.309 3.582 3.302 3.301 3.301 3.572 3.304 3.301 3.305 3.301 3.301 3.592 3.306 3.301 3.368
# coordination-number S 1.981
# coordination-number Na 2.588 2.568
# diagonal-C6 C 24.27 24.27 24.27 24.27 24.27 24.27 24.27 24.28 23.55 24.27 24.27 24.09 24.27 24.28 23.08 24.27 24.15 24.26 24.27 24.12 23.83 24.27 24.27 18.47 24.27 24.27 24.28 24.10 23.99 24.27 24.28 18.59 24.21 24.28 24.05 24.21 24.27 24.27 24.27 24.27 24.24 24.27 24.27 24.22 24.28 24.27 23.71 24.27 24.27 21.57 24.28 24.27 24.27 24.26 22.60 24.25 24.28 24.20 20.49 24.26 24.27 24.27 20.63 24.24 24.27 24.24 24.27 24.27 20.38 24.23 24.27 23.52
# diagonal-C6 S 125.91
# diagonal-C6 Na 186.11 186.11
EvdW_6 =   -0.057687
EvdW_8 =   -0.049284

---------- Allocating electronic variables ----------
Initializing wave functions:  linear combination of atomic orbitals
C pseudo-atom occupations:   s ( 2 )  p ( 2 )
S pseudo-atom occupations:   s ( 2 )  p ( 4 )
Na pseudo-atom occupations:   s ( 2 1 )  p ( 6 )
	FillingsUpdate:  mu: -0.219601975  nElectrons: 312.000000
LCAOMinimize: Iter:   0  F: -512.6625313949288056  |grad|_K:  4.638e-03  alpha:  1.000e+00
LCAOMinimize: 	Step increased F by 3.590338e-01, reducing alpha to 3.983072e-02.
	FillingsUpdate:  mu: -0.232533138  nElectrons: 312.000000
LCAOMinimize: Iter:   1  F: -512.7005010392582562  |grad|_K:  7.214e-04  alpha:  3.983e-02  linmin:  2.755e-02  cgtest: -9.961e-02  t[s]:     10.30
LCAOMinimize: 	Predicted alpha/alphaT>3.000000, increasing alphaT to 1.194922e-01.
	FillingsUpdate:  mu: -0.233175594  nElectrons: 312.000000
LCAOMinimize: Iter:   2  F: -512.7085038906570844  |grad|_K:  4.453e-04  alpha:  3.455e-01  linmin:  4.753e-03  cgtest: -1.862e-02  t[s]:     12.28
	FillingsUpdate:  mu: -0.236763371  nElectrons: 312.000000
LCAOMinimize: Iter:   3  F: -512.7110015701879320  |grad|_K:  6.576e-04  alpha:  2.769e-01  linmin:  3.775e-04  cgtest:  3.046e-02  t[s]:     13.83
	FillingsUpdate:  mu: -0.234946890  nElectrons: 312.000000
LCAOMinimize: Iter:   4  F: -512.7121584928430593  |grad|_K:  7.810e-05  alpha:  6.215e-02  linmin:  2.355e-02  cgtest: -6.624e-02  t[s]:     18.19
LCAOMinimize: 	Predicted alpha/alphaT>3.000000, increasing alphaT to 1.864560e-01.
	FillingsUpdate:  mu: -0.235486819  nElectrons: 312.000000
LCAOMinimize: Iter:   5  F: -512.7122927320846202  |grad|_K:  4.534e-05  alpha:  5.182e-01  linmin:  1.222e-03  cgtest:  1.274e-01  t[s]:     23.26
	FillingsUpdate:  mu: -0.234954508  nElectrons: 312.000000
LCAOMinimize: Iter:   6  F: -512.7123068036543145  |grad|_K:  5.647e-05  alpha:  1.505e-01  linmin:  3.881e-04  cgtest: -6.643e-03  t[s]:     24.82
	FillingsUpdate:  mu: -0.235399947  nElectrons: 312.000000
LCAOMinimize: Iter:   7  F: -512.7123207550096140  |grad|_K:  1.547e-05  alpha:  9.569e-02  linmin:  1.566e-06  cgtest:  1.702e-02  t[s]:     27.58
LCAOMinimize: 	Predicted alpha/alphaT>3.000000, increasing alphaT to 2.870722e-01.
	FillingsUpdate:  mu: -0.235389908  nElectrons: 312.000000
LCAOMinimize: Iter:   8  F: -512.7123243296144892  |grad|_K:  4.560e-06  alpha:  3.254e-01  linmin: -5.242e-05  cgtest: -3.819e-03  t[s]:     29.59
	FillingsUpdate:  mu: -0.235434525  nElectrons: 312.000000
LCAOMinimize: Iter:   9  F: -512.7123246474881171  |grad|_K:  6.226e-06  alpha:  3.330e-01  linmin:  3.035e-05  cgtest:  2.321e-04  t[s]:     31.14
	FillingsUpdate:  mu: -0.235382830  nElectrons: 312.000000
LCAOMinimize: Iter:  10  F: -512.7123247473665515  |grad|_K:  1.556e-06  alpha:  5.624e-02  linmin:  4.965e-04  cgtest: -3.775e-03  t[s]:     32.69
LCAOMinimize: Converged (|Delta F|<1.000000e-06 for 2 iters).
----- createFluidSolver() ----- (Fluid-side solver setup)
   Initializing fluid molecule 'PC'
     Net charge: 0   dipole magnitude: 0
     Initializing spherical shell mfKernel with radius 0 Bohr
     deltaS corrections:

Correction to mu due to finite nuclear width = -0.00602931
   Cavity determined by nc: 0.00098 and sigma: 0.6
   Effective cavity tension: 9.53e-06 Eh/bohr^2 to account for cavitation and dispersion.


---- Citations for features of the code used in this run ----

   Software package:
      R. Sundararaman, K. Letchworth-Weaver, K.A. Schwarz, D. Gunceler, Y. Ozhabes and T.A. Arias, 'JDFTx: software for joint density-functional theory', SoftwareX 6, 278 (2017)

   gga-PBE exchange-correlation functional:
      J.P. Perdew, K. Burke and M. Ernzerhof, Phys. Rev. Lett. 77, 3865 (1996)

   Pseudopotentials:
      KF Garrity, JW Bennett, KM Rabe and D Vanderbilt, Comput. Mater. Sci. 81, 446 (2014)

   Truncated Coulomb potentials:
      R. Sundararaman and T.A. Arias, Phys. Rev. B 87, 165122 (2013)

   DFT-D3 dispersion correction:
      S. Grimme, J. Antony, S. Ehrlich and H. Krieg, J. Chem. Phys. 132, 154104 (2010)

   Linear/nonlinear dielectric/ionic fluid model with effective cavity tension:
      D. Gunceler, K. Letchworth-Weaver, R. Sundararaman, K.A. Schwarz and T.A. Arias, Modelling Simul. Mater. Sci. Eng. 21, 074005 (2013)

This list may not be complete. Please suggest additional citations or
report any other bugs at https://github.com/shankar1729/jdftx/issues

Initialization completed successfully at t[s]:     32.86


Computing DFT-D3 correction:
# coordination-number C 3.301 3.301 3.301 3.301 3.301 3.301 3.301 3.301 3.366 3.301 3.301 3.320 3.301 3.301 3.402 3.301 3.313 3.302 3.301 3.316 3.343 3.301 3.302 3.897 3.301 3.302 3.301 3.319 3.328 3.301 3.300 3.846 3.307 3.301 3.323 3.308 3.301 3.301 3.301 3.301 3.304 3.301 3.301 3.307 3.301 3.302 3.353 3.301 3.301 3.505 3.301 3.301 3.301 3.302 3.436 3.304 3.301 3.309 3.582 3.302 3.301 3.301 3.572 3.304 3.301 3.305 3.301 3.301 3.592 3.306 3.301 3.368
# coordination-number S 1.981
# coordination-number Na 2.588 2.568
# diagonal-C6 C 24.27 24.27 24.27 24.27 24.27 24.27 24.27 24.28 23.55 24.27 24.27 24.09 24.27 24.28 23.08 24.27 24.15 24.26 24.27 24.12 23.83 24.27 24.27 18.47 24.27 24.27 24.28 24.10 23.99 24.27 24.28 18.59 24.21 24.28 24.05 24.21 24.27 24.27 24.27 24.27 24.24 24.27 24.27 24.22 24.28 24.27 23.71 24.27 24.27 21.57 24.28 24.27 24.27 24.26 22.60 24.25 24.28 24.20 20.49 24.26 24.27 24.27 20.63 24.24 24.27 24.24 24.27 24.27 20.38 24.23 24.27 23.52
# diagonal-C6 S 125.91
# diagonal-C6 Na 186.11 186.11
EvdW_6 =   -0.057687
EvdW_8 =   -0.049284
Fluid solver invoked on fresh (random / LCAO) wavefunctions
Running a vacuum solve first:

-------- Initial electronic minimization -----------
Will mix electronic density at each iteration.
	FillingsUpdate:  mu: -0.235382830  nElectrons: 312.000000
	FillingsUpdate:  mu: -0.242841170  nElectrons: 312.000000
SCF: Cycle:  0   F: -516.116111642063856   dF: -3.404e+00   |Residual|: 9.419e-01   |deigs|: 1.237e-01  t[s]:     38.96
	FillingsUpdate:  mu: -0.216344054  nElectrons: 312.000000
SCF: Cycle:  1   F: -516.563036323376082   dF: -4.469e-01   |Residual|: 4.934e-01   |deigs|: 3.678e-02  t[s]:     42.11
	FillingsUpdate:  mu: -0.181398467  nElectrons: 312.000000
SCF: Cycle:  2   F: -516.764407333590498   dF: -2.014e-01   |Residual|: 1.961e-01   |deigs|: 2.970e-02  t[s]:     45.22
	FillingsUpdate:  mu: -0.176081436  nElectrons: 312.000000
SCF: Cycle:  3   F: -516.874061856998651   dF: -1.097e-01   |Residual|: 1.013e-01   |deigs|: 1.176e-02  t[s]:     48.31
	FillingsUpdate:  mu: -0.166833756  nElectrons: 312.000000
SCF: Cycle:  4   F: -516.945033458840044   dF: -7.097e-02   |Residual|: 6.938e-02   |deigs|: 6.795e-03  t[s]:     51.44
	FillingsUpdate:  mu: -0.158149654  nElectrons: 312.000000
SCF: Cycle:  5   F: -516.953961092008058   dF: -8.928e-03   |Residual|: 3.194e-02   |deigs|: 9.606e-03  t[s]:     54.53
	FillingsUpdate:  mu: -0.148488493  nElectrons: 312.000000
SCF: Cycle:  6   F: -516.965434393082205   dF: -1.147e-02   |Residual|: 1.750e-02   |deigs|: 8.302e-03  t[s]:     57.47
	FillingsUpdate:  mu: -0.143581994  nElectrons: 312.000000
SCF: Cycle:  7   F: -516.967273850632864   dF: -1.839e-03   |Residual|: 1.562e-02   |deigs|: 5.030e-03  t[s]:     60.41
	FillingsUpdate:  mu: -0.139990562  nElectrons: 312.000000
SCF: Cycle:  8   F: -516.967400149723630   dF: -1.263e-04   |Residual|: 1.131e-02   |deigs|: 3.598e-03  t[s]:     63.22
	FillingsUpdate:  mu: -0.136577335  nElectrons: 312.000000
SCF: Cycle:  9   F: -516.968692979751495   dF: -1.293e-03   |Residual|: 1.069e-02   |deigs|: 2.828e-03  t[s]:     66.10
	FillingsUpdate:  mu: -0.135222529  nElectrons: 312.000000
SCF: Cycle: 10   F: -516.968561372535419   dF: +1.316e-04   |Residual|: 9.379e-03   |deigs|: 1.580e-03  t[s]:     69.04
	FillingsUpdate:  mu: -0.132586481  nElectrons: 312.000000
SCF: Cycle: 11   F: -516.969300445024828   dF: -7.391e-04   |Residual|: 7.759e-03   |deigs|: 1.935e-03  t[s]:     71.76
	FillingsUpdate:  mu: -0.131315334  nElectrons: 312.000000
SCF: Cycle: 12   F: -516.969656886821099   dF: -3.564e-04   |Residual|: 6.263e-03   |deigs|: 1.336e-03  t[s]:     74.46
	FillingsUpdate:  mu: -0.128583523  nElectrons: 312.000000
SCF: Cycle: 13   F: -516.969562000629935   dF: +9.489e-05   |Residual|: 5.793e-03   |deigs|: 2.318e-03  t[s]:     77.18
	FillingsUpdate:  mu: -0.126127472  nElectrons: 312.000000
SCF: Cycle: 14   F: -516.969833392639771   dF: -2.714e-04   |Residual|: 2.959e-03   |deigs|: 2.944e-03  t[s]:     79.87
	FillingsUpdate:  mu: -0.124633140  nElectrons: 312.000000
SCF: Cycle: 15   F: -516.969804840527331   dF: +2.855e-05   |Residual|: 2.294e-03   |deigs|: 1.773e-03  t[s]:     82.55
	FillingsUpdate:  mu: -0.123291889  nElectrons: 312.000000
SCF: Cycle: 16   F: -516.969838246839913   dF: -3.341e-05   |Residual|: 1.384e-03   |deigs|: 1.532e-03  t[s]:     85.23
	FillingsUpdate:  mu: -0.122718983  nElectrons: 312.000000
SCF: Cycle: 17   F: -516.969845457595625   dF: -7.211e-06   |Residual|: 1.158e-03   |deigs|: 8.422e-04  t[s]:     87.95
	FillingsUpdate:  mu: -0.122345381  nElectrons: 312.000000
SCF: Cycle: 18   F: -516.969861192360895   dF: -1.573e-05   |Residual|: 9.569e-04   |deigs|: 5.489e-04  t[s]:     90.65
	FillingsUpdate:  mu: -0.121636741  nElectrons: 312.000000
SCF: Cycle: 19   F: -516.969869703286008   dF: -8.511e-06   |Residual|: 7.914e-04   |deigs|: 8.083e-04  t[s]:     93.33
	FillingsUpdate:  mu: -0.120953811  nElectrons: 312.000000
SCF: Cycle: 20   F: -516.969871129554576   dF: -1.426e-06   |Residual|: 6.684e-04   |deigs|: 9.411e-04  t[s]:     96.03
	FillingsUpdate:  mu: -0.120640352  nElectrons: 312.000000
SCF: Cycle: 21   F: -516.969871970461099   dF: -8.409e-07   |Residual|: 5.018e-04   |deigs|: 7.088e-04  t[s]:     98.73
	FillingsUpdate:  mu: -0.120397947  nElectrons: 312.000000
SCF: Cycle: 22   F: -516.969875470324723   dF: -3.500e-06   |Residual|: 3.676e-04   |deigs|: 1.008e-03  t[s]:    101.43
	FillingsUpdate:  mu: -0.120337593  nElectrons: 312.000000
SCF: Cycle: 23   F: -516.969877039240487   dF: -1.569e-06   |Residual|: 2.903e-04   |deigs|: 4.140e-04  t[s]:    104.13
	FillingsUpdate:  mu: -0.120204952  nElectrons: 312.000000
SCF: Cycle: 24   F: -516.969878548677571   dF: -1.509e-06   |Residual|: 2.261e-04   |deigs|: 4.286e-04  t[s]:    106.83
	FillingsUpdate:  mu: -0.120182464  nElectrons: 312.000000
SCF: Cycle: 25   F: -516.969878706584041   dF: -1.579e-07   |Residual|: 1.561e-04   |deigs|: 1.826e-04  t[s]:    109.51
	FillingsUpdate:  mu: -0.120186535  nElectrons: 312.000000
SCF: Cycle: 26   F: -516.969878829800678   dF: -1.232e-07   |Residual|: 1.095e-04   |deigs|: 4.354e-04  t[s]:    112.19
	FillingsUpdate:  mu: -0.120191973  nElectrons: 312.000000
SCF: Cycle: 27   F: -516.969878959155722   dF: -1.294e-07   |Residual|: 8.944e-05   |deigs|: 8.326e-05  t[s]:    114.92
	FillingsUpdate:  mu: -0.120186247  nElectrons: 312.000000
SCF: Cycle: 28   F: -516.969878968828311   dF: -9.673e-09   |Residual|: 6.891e-05   |deigs|: 1.612e-04  t[s]:    117.61
	FillingsUpdate:  mu: -0.120179672  nElectrons: 312.000000
SCF: Cycle: 29   F: -516.969879002478933   dF: -3.365e-08   |Residual|: 5.139e-05   |deigs|: 2.018e-04  t[s]:    120.32
	FillingsUpdate:  mu: -0.120161917  nElectrons: 312.000000
SCF: Cycle: 30   F: -516.969878996789703   dF: +5.689e-09   |Residual|: 4.238e-05   |deigs|: 2.370e-04  t[s]:    122.99
	FillingsUpdate:  mu: -0.120149102  nElectrons: 312.000000
SCF: Cycle: 31   F: -516.969879011206103   dF: -1.442e-08   |Residual|: 3.171e-05   |deigs|: 1.913e-04  t[s]:    125.67
	FillingsUpdate:  mu: -0.120136079  nElectrons: 312.000000
SCF: Cycle: 32   F: -516.969879018861207   dF: -7.655e-09   |Residual|: 1.937e-05   |deigs|: 2.358e-04  t[s]:    128.37
	FillingsUpdate:  mu: -0.120125216  nElectrons: 312.000000
SCF: Cycle: 33   F: -516.969879020843678   dF: -1.982e-09   |Residual|: 1.841e-05   |deigs|: 1.699e-04  t[s]:    131.06
SCF: Converged (|Delta E|<1.000000e-08 for 2 iters).

Setting wave functions to eigenvectors of Hamiltonian
Vacuum energy after initial minimize, F = -516.969879020843678


-------- Electronic minimization -----------
Will mix electronic density at each iteration.
	FillingsUpdate:  mu: -0.120125216  nElectrons: 312.000000
	Linear fluid (dielectric constant: 64) occupying 0.894262 of unit cell:	Completed after 44 iterations at t[s]:    132.17
	FillingsUpdate:  mu: -0.109110889  nElectrons: 312.000000
	Linear fluid (dielectric constant: 64) occupying 0.894281 of unit cell:	Completed after 35 iterations at t[s]:    136.25
SCF: Cycle:  0   F: -517.078677707453267   dF: -9.401e-04   |Residual|: 9.558e-02   |deigs|: 3.495e-03  t[s]:    136.42
	Linear fluid (dielectric constant: 64) occupying 0.894411 of unit cell:	Completed after 32 iterations at t[s]:    136.90
	FillingsUpdate:  mu: -0.107241071  nElectrons: 312.000000
	Linear fluid (dielectric constant: 64) occupying 0.894055 of unit cell:	Completed after 31 iterations at t[s]:    140.44
SCF: Cycle:  1   F: -517.119014580297517   dF: -4.034e-02   |Residual|: 4.218e-02   |deigs|: 3.718e-03  t[s]:    140.61
	Linear fluid (dielectric constant: 64) occupying 0.894309 of unit cell:	Completed after 30 iterations at t[s]:    141.06
	FillingsUpdate:  mu: -0.108014654  nElectrons: 312.000000
	Linear fluid (dielectric constant: 64) occupying 0.894102 of unit cell:	Completed after 31 iterations at t[s]:    144.41
SCF: Cycle:  2   F: -517.119944538925097   dF: -9.300e-04   |Residual|: 2.793e-02   |deigs|: 1.096e-03  t[s]:    144.57
	Linear fluid (dielectric constant: 64) occupying 0.894197 of unit cell:	Completed after 27 iterations at t[s]:    145.00
	FillingsUpdate:  mu: -0.106889866  nElectrons: 312.000000
	Linear fluid (dielectric constant: 64) occupying 0.894130 of unit cell:	Completed after 27 iterations at t[s]:    148.48
SCF: Cycle:  3   F: -517.121098721599196   dF: -1.154e-03   |Residual|: 2.293e-02   |deigs|: 1.788e-03  t[s]:    148.65
	Linear fluid (dielectric constant: 64) occupying 0.894065 of unit cell:	Completed after 26 iterations at t[s]:    149.06
	FillingsUpdate:  mu: -0.107384749  nElectrons: 312.000000
	Linear fluid (dielectric constant: 64) occupying 0.894103 of unit cell:	Completed after 26 iterations at t[s]:    152.47
SCF: Cycle:  4   F: -517.122895316493668   dF: -1.797e-03   |Residual|: 1.216e-02   |deigs|: 7.603e-04  t[s]:    152.65
	Linear fluid (dielectric constant: 64) occupying 0.893902 of unit cell:	Completed after 20 iterations at t[s]:    152.99
	FillingsUpdate:  mu: -0.106543997  nElectrons: 312.000000
	Linear fluid (dielectric constant: 64) occupying 0.894029 of unit cell:	Completed after 22 iterations at t[s]:    156.36
SCF: Cycle:  5   F: -517.121595906652942   dF: +1.299e-03   |Residual|: 1.742e-02   |deigs|: 1.201e-03  t[s]:    156.53
	Linear fluid (dielectric constant: 64) occupying 0.893748 of unit cell:	Completed after 21 iterations at t[s]:    156.88
	FillingsUpdate:  mu: -0.107190351  nElectrons: 312.000000
	Linear fluid (dielectric constant: 64) occupying 0.893967 of unit cell:	Completed after 18 iterations at t[s]:    160.22
SCF: Cycle:  6   F: -517.123682389685428   dF: -2.086e-03   |Residual|: 5.830e-03   |deigs|: 6.339e-04  t[s]:    160.39
	Linear fluid (dielectric constant: 64) occupying 0.893608 of unit cell:	Completed after 19 iterations at t[s]:    160.72
	FillingsUpdate:  mu: -0.107467612  nElectrons: 312.000000
	Linear fluid (dielectric constant: 64) occupying 0.893928 of unit cell:	Completed after 19 iterations at t[s]:    163.71
SCF: Cycle:  7   F: -517.123727239189179   dF: -4.485e-05   |Residual|: 4.841e-03   |deigs|: 6.272e-04  t[s]:    163.87
	Linear fluid (dielectric constant: 64) occupying 0.893600 of unit cell:	Completed after 19 iterations at t[s]:    164.20
	FillingsUpdate:  mu: -0.107704481  nElectrons: 312.000000
	Linear fluid (dielectric constant: 64) occupying 0.893928 of unit cell:	Completed after 20 iterations at t[s]:    167.19
SCF: Cycle:  8   F: -517.123719947553013   dF: +7.292e-06   |Residual|: 5.078e-03   |deigs|: 6.543e-04  t[s]:    167.36
	Linear fluid (dielectric constant: 64) occupying 0.893702 of unit cell:	Completed after 19 iterations at t[s]:    167.70
	FillingsUpdate:  mu: -0.107895751  nElectrons: 312.000000
	Linear fluid (dielectric constant: 64) occupying 0.893944 of unit cell:	Completed after 19 iterations at t[s]:    170.68
SCF: Cycle:  9   F: -517.123699082776739   dF: +2.086e-05   |Residual|: 5.309e-03   |deigs|: 7.465e-04  t[s]:    170.86
	Linear fluid (dielectric constant: 64) occupying 0.893772 of unit cell:	Completed after 19 iterations at t[s]:    171.19
	FillingsUpdate:  mu: -0.107913739  nElectrons: 312.000000
	Linear fluid (dielectric constant: 64) occupying 0.893951 of unit cell:	Completed after 18 iterations at t[s]:    174.11
SCF: Cycle: 10   F: -517.123769253173350   dF: -7.017e-05   |Residual|: 4.271e-03   |deigs|: 5.106e-04  t[s]:    174.28
	Linear fluid (dielectric constant: 64) occupying 0.893894 of unit cell:	Completed after 17 iterations at t[s]:    174.59
	FillingsUpdate:  mu: -0.107852182  nElectrons: 312.000000
	Linear fluid (dielectric constant: 64) occupying 0.893963 of unit cell:	Completed after 12 iterations at t[s]:    177.43
SCF: Cycle: 11   F: -517.123879562952425   dF: -1.103e-04   |Residual|: 1.873e-03   |deigs|: 1.134e-03  t[s]:    177.59
	Linear fluid (dielectric constant: 64) occupying 0.893916 of unit cell:	Completed after 12 iterations at t[s]:    177.85
	FillingsUpdate:  mu: -0.107914403  nElectrons: 312.000000
	Linear fluid (dielectric constant: 64) occupying 0.893970 of unit cell:	Completed after 12 iterations at t[s]:    180.69
SCF: Cycle: 12   F: -517.123872758120910   dF: +6.805e-06   |Residual|: 2.095e-03   |deigs|: 9.517e-04  t[s]:    180.85
	Linear fluid (dielectric constant: 64) occupying 0.893917 of unit cell:	Completed after 11 iterations at t[s]:    181.10
	FillingsUpdate:  mu: -0.107915441  nElectrons: 312.000000
	Linear fluid (dielectric constant: 64) occupying 0.893975 of unit cell:	Completed after 6 iterations at t[s]:    183.86
SCF: Cycle: 13   F: -517.123888773239401   dF: -1.602e-05   |Residual|: 1.190e-03   |deigs|: 4.385e-04  t[s]:    184.03
	Linear fluid (dielectric constant: 64) occupying 0.893928 of unit cell:	Completed after 7 iterations at t[s]:    184.21
	FillingsUpdate:  mu: -0.107904553  nElectrons: 312.000000
	Linear fluid (dielectric constant: 64) occupying 0.893979 of unit cell:	Completed after 5 iterations at t[s]:    186.97
SCF: Cycle: 14   F: -517.123887174675588   dF: +1.599e-06   |Residual|: 9.653e-04   |deigs|: 4.025e-04  t[s]:    187.13
	Linear fluid (dielectric constant: 64) occupying 0.893936 of unit cell:	Completed after 7 iterations at t[s]:    187.31
	FillingsUpdate:  mu: -0.107905260  nElectrons: 312.000000
	Linear fluid (dielectric constant: 64) occupying 0.893975 of unit cell:	Completed after 5 iterations at t[s]:    190.13
SCF: Cycle: 15   F: -517.123889743735504   dF: -2.569e-06   |Residual|: 7.710e-04   |deigs|: 5.014e-04  t[s]:    190.29
	Linear fluid (dielectric constant: 64) occupying 0.893959 of unit cell:	Completed after 5 iterations at t[s]:    190.45
	FillingsUpdate:  mu: -0.107917026  nElectrons: 312.000000
	Linear fluid (dielectric constant: 64) occupying 0.893976 of unit cell:	Completed after 5 iterations at t[s]:    193.21
SCF: Cycle: 16   F: -517.123892205970833   dF: -2.462e-06   |Residual|: 6.130e-04   |deigs|: 3.141e-04  t[s]:    193.37
	Linear fluid (dielectric constant: 64) occupying 0.893972 of unit cell:	Completed after 4 iterations at t[s]:    193.52
	FillingsUpdate:  mu: -0.107945716  nElectrons: 312.000000
	Linear fluid (dielectric constant: 64) occupying 0.893975 of unit cell:	Completed after 4 iterations at t[s]:    196.24
SCF: Cycle: 17   F: -517.123893568702783   dF: -1.363e-06   |Residual|: 3.994e-04   |deigs|: 6.449e-04  t[s]:    196.40
	Linear fluid (dielectric constant: 64) occupying 0.893976 of unit cell:	Completed after 3 iterations at t[s]:    196.54
	FillingsUpdate:  mu: -0.107942059  nElectrons: 312.000000
	Linear fluid (dielectric constant: 64) occupying 0.893977 of unit cell:	Completed after 4 iterations at t[s]:    199.27
SCF: Cycle: 18   F: -517.123893991657383   dF: -4.230e-07   |Residual|: 3.546e-04   |deigs|: 2.969e-04  t[s]:    199.43
	Linear fluid (dielectric constant: 64) occupying 0.893966 of unit cell:	Completed after 2 iterations at t[s]:    199.55
	FillingsUpdate:  mu: -0.107972963  nElectrons: 312.000000
	Linear fluid (dielectric constant: 64) occupying 0.893978 of unit cell:	Completed after 7 iterations at t[s]:    202.31
SCF: Cycle: 19   F: -517.123892301549631   dF: +1.690e-06   |Residual|: 5.779e-04   |deigs|: 4.791e-04  t[s]:    202.48
	Linear fluid (dielectric constant: 64) occupying 0.893970 of unit cell:	Completed after 4 iterations at t[s]:    202.63
	FillingsUpdate:  mu: -0.107946696  nElectrons: 312.000000
	Linear fluid (dielectric constant: 64) occupying 0.893980 of unit cell:	Completed after 7 iterations at t[s]:    205.40
SCF: Cycle: 20   F: -517.123892169693818   dF: +1.319e-07   |Residual|: 5.586e-04   |deigs|: 1.899e-04  t[s]:    205.57
	Linear fluid (dielectric constant: 64) occupying 0.893969 of unit cell:	Completed after 4 iterations at t[s]:    205.72
	FillingsUpdate:  mu: -0.107967230  nElectrons: 312.000000
	Linear fluid (dielectric constant: 64) occupying 0.893977 of unit cell:	Completed after 4 iterations at t[s]:    208.47
SCF: Cycle: 21   F: -517.123894049765681   dF: -1.880e-06   |Residual|: 2.978e-04   |deigs|: 2.133e-04  t[s]:    208.63
	Linear fluid (dielectric constant: 64) occupying 0.893972 of unit cell:	Completed after 2 iterations at t[s]:    208.75
	FillingsUpdate:  mu: -0.107942793  nElectrons: 312.000000
	Linear fluid (dielectric constant: 64) occupying 0.893978 of unit cell:	Completed after 7 iterations at t[s]:    211.51
SCF: Cycle: 22   F: -517.123892136077188   dF: +1.914e-06   |Residual|: 5.754e-04   |deigs|: 1.264e-04  t[s]:    211.68
	Linear fluid (dielectric constant: 64) occupying 0.893971 of unit cell:	Completed after 5 iterations at t[s]:    211.84
	FillingsUpdate:  mu: -0.107971505  nElectrons: 312.000000
	Linear fluid (dielectric constant: 64) occupying 0.893978 of unit cell:	Completed after 5 iterations at t[s]:    214.60
SCF: Cycle: 23   F: -517.123893839459015   dF: -1.703e-06   |Residual|: 3.763e-04   |deigs|: 1.639e-04  t[s]:    214.76
	Linear fluid (dielectric constant: 64) occupying 0.893976 of unit cell:	Completed after 3 iterations at t[s]:    214.90
	FillingsUpdate:  mu: -0.107952543  nElectrons: 312.000000
	Linear fluid (dielectric constant: 64) occupying 0.893980 of unit cell:	Completed after 4 iterations at t[s]:    217.64
SCF: Cycle: 24   F: -517.123894662385965   dF: -8.229e-07   |Residual|: 1.721e-04   |deigs|: 2.114e-04  t[s]:    217.80
	Linear fluid (dielectric constant: 64) occupying 0.893977 of unit cell:	Completed after 0 iterations at t[s]:    217.90
	FillingsUpdate:  mu: -0.107986643  nElectrons: 312.000000
	Linear fluid (dielectric constant: 64) occupying 0.893980 of unit cell:	Completed after 9 iterations at t[s]:    220.67
SCF: Cycle: 25   F: -517.123885288370616   dF: +9.374e-06   |Residual|: 1.085e-03   |deigs|: 6.410e-05  t[s]:    220.83
	Linear fluid (dielectric constant: 64) occupying 0.893978 of unit cell:	Completed after 8 iterations at t[s]:    221.03
	FillingsUpdate:  mu: -0.107969367  nElectrons: 312.000000
	Linear fluid (dielectric constant: 64) occupying 0.893981 of unit cell:	Completed after 2 iterations at t[s]:    223.18
SCF: Cycle: 26   F: -517.123894913980962   dF: -9.626e-06   |Residual|: 1.556e-04   |deigs|: 7.614e-05  t[s]:    223.33
	Linear fluid (dielectric constant: 64) occupying 0.893978 of unit cell:	Completed after 0 iterations at t[s]:    223.43
	FillingsUpdate:  mu: -0.107969418  nElectrons: 312.000000
	Linear fluid (dielectric constant: 64) occupying 0.893980 of unit cell:	Completed after 2 iterations at t[s]:    225.55
SCF: Cycle: 27   F: -517.123894782633442   dF: +1.313e-07   |Residual|: 1.918e-04   |deigs|: 1.759e-05  t[s]:    225.70
	Linear fluid (dielectric constant: 64) occupying 0.893978 of unit cell:	Completed after 1 iterations at t[s]:    225.82
	FillingsUpdate:  mu: -0.107957559  nElectrons: 312.000000
	Linear fluid (dielectric constant: 64) occupying 0.893979 of unit cell:	Completed after 4 iterations at t[s]:    228.56
SCF: Cycle: 28   F: -517.123893997100254   dF: +7.855e-07   |Residual|: 3.277e-04   |deigs|: 7.664e-05  t[s]:    228.71
	Linear fluid (dielectric constant: 64) occupying 0.893980 of unit cell:	Completed after 2 iterations at t[s]:    228.84
	FillingsUpdate:  mu: -0.107978472  nElectrons: 312.000000
	Linear fluid (dielectric constant: 64) occupying 0.893980 of unit cell:	Completed after 7 iterations at t[s]:    231.59
SCF: Cycle: 29   F: -517.123892622612743   dF: +1.374e-06   |Residual|: 5.510e-04   |deigs|: 1.028e-04  t[s]:    231.77
	Linear fluid (dielectric constant: 64) occupying 0.893981 of unit cell:	Completed after 3 iterations at t[s]:    231.90
	FillingsUpdate:  mu: -0.107951346  nElectrons: 312.000000
	Linear fluid (dielectric constant: 64) occupying 0.893981 of unit cell:	Completed after 6 iterations at t[s]:    234.65
SCF: Cycle: 30   F: -517.123893749282047   dF: -1.127e-06   |Residual|: 3.454e-04   |deigs|: 4.931e-05  t[s]:    234.82
	Linear fluid (dielectric constant: 64) occupying 0.893981 of unit cell:	Completed after 4 iterations at t[s]:    234.97
	FillingsUpdate:  mu: -0.107970541  nElectrons: 312.000000
	Linear fluid (dielectric constant: 64) occupying 0.893978 of unit cell:	Completed after 4 iterations at t[s]:    237.69
SCF: Cycle: 31   F: -517.123893625383403   dF: +1.239e-07   |Residual|: 4.300e-04   |deigs|: 1.738e-04  t[s]:    237.85
	Linear fluid (dielectric constant: 64) occupying 0.893981 of unit cell:	Completed after 3 iterations at t[s]:    237.99
	FillingsUpdate:  mu: -0.107947637  nElectrons: 312.000000
	Linear fluid (dielectric constant: 64) occupying 0.893979 of unit cell:	Completed after 3 iterations at t[s]:    240.69
SCF: Cycle: 32   F: -517.123894696483035   dF: -1.071e-06   |Residual|: 1.721e-04   |deigs|: 5.206e-05  t[s]:    240.84
	Linear fluid (dielectric constant: 64) occupying 0.893980 of unit cell:	Completed after 2 iterations at t[s]:    240.97
	FillingsUpdate:  mu: -0.107976588  nElectrons: 312.000000
	Linear fluid (dielectric constant: 64) occupying 0.893980 of unit cell:	Completed after 5 iterations at t[s]:    243.70
SCF: Cycle: 33   F: -517.123892823108577   dF: +1.873e-06   |Residual|: 5.411e-04   |deigs|: 8.958e-05  t[s]:    243.86
	Linear fluid (dielectric constant: 64) occupying 0.893980 of unit cell:	Completed after 3 iterations at t[s]:    244.00
	FillingsUpdate:  mu: -0.107951590  nElectrons: 312.000000
	Linear fluid (dielectric constant: 64) occupying 0.893980 of unit cell:	Completed after 3 iterations at t[s]:    246.72
SCF: Cycle: 34   F: -517.123894536546572   dF: -1.713e-06   |Residual|: 2.123e-04   |deigs|: 4.787e-05  t[s]:    246.87
	Linear fluid (dielectric constant: 64) occupying 0.893980 of unit cell:	Completed after 2 iterations at t[s]:    247.00
	FillingsUpdate:  mu: -0.107978466  nElectrons: 312.000000
	Linear fluid (dielectric constant: 64) occupying 0.893980 of unit cell:	Completed after 5 iterations at t[s]:    249.16
SCF: Cycle: 35   F: -517.123892729493150   dF: +1.807e-06   |Residual|: 5.489e-04   |deigs|: 5.464e-05  t[s]:    249.33
	Linear fluid (dielectric constant: 64) occupying 0.893979 of unit cell:	Completed after 3 iterations at t[s]:    249.46
	FillingsUpdate:  mu: -0.107952180  nElectrons: 312.000000
	Linear fluid (dielectric constant: 64) occupying 0.893980 of unit cell:	Completed after 4 iterations at t[s]:    251.62
SCF: Cycle: 36   F: -517.123894340262837   dF: -1.611e-06   |Residual|: 2.531e-04   |deigs|: 2.975e-05  t[s]:    251.78
	Linear fluid (dielectric constant: 64) occupying 0.893979 of unit cell:	Completed after 2 iterations at t[s]:    251.90
	FillingsUpdate:  mu: -0.107978030  nElectrons: 312.000000
	Linear fluid (dielectric constant: 64) occupying 0.893980 of unit cell:	Completed after 7 iterations at t[s]:    254.68
SCF: Cycle: 37   F: -517.123892163839514   dF: +2.176e-06   |Residual|: 5.926e-04   |deigs|: 1.199e-04  t[s]:    254.85
	Linear fluid (dielectric constant: 64) occupying 0.893979 of unit cell:	Completed after 5 iterations at t[s]:    255.02
	FillingsUpdate:  mu: -0.107960229  nElectrons: 312.000000
	Linear fluid (dielectric constant: 64) occupying 0.893980 of unit cell:	Completed after 0 iterations at t[s]:    257.71
SCF: Cycle: 38   F: -517.123895127872970   dF: -2.964e-06   |Residual|: 8.298e-05   |deigs|: 9.747e-05  t[s]:    257.85
	Linear fluid (dielectric constant: 64) occupying 0.893979 of unit cell:	Completed after 0 iterations at t[s]:    257.95
	FillingsUpdate:  mu: -0.107963396  nElectrons: 312.000000
	Linear fluid (dielectric constant: 64) occupying 0.893980 of unit cell:	Completed after 0 iterations at t[s]:    259.99
SCF: Cycle: 39   F: -517.123895122216936   dF: +5.656e-09   |Residual|: 5.542e-05   |deigs|: 2.922e-05  t[s]:    260.12
	Linear fluid (dielectric constant: 64) occupying 0.893979 of unit cell:	Completed after 0 iterations at t[s]:    260.21
	FillingsUpdate:  mu: -0.107963333  nElectrons: 312.000000
	Linear fluid (dielectric constant: 64) occupying 0.893980 of unit cell:	Completed after 0 iterations at t[s]:    262.85
SCF: Cycle: 40   F: -517.123895123987950   dF: -1.771e-09   |Residual|: 5.420e-05   |deigs|: 6.071e-05  t[s]:    262.98
	Linear fluid (dielectric constant: 64) occupying 0.893979 of unit cell:	Completed after 0 iterations at t[s]:    263.07
	FillingsUpdate:  mu: -0.107963322  nElectrons: 312.000000
	Linear fluid (dielectric constant: 64) occupying 0.893980 of unit cell:	Completed after 0 iterations at t[s]:    265.73
SCF: Cycle: 41   F: -517.123895128123650   dF: -4.136e-09   |Residual|: 4.929e-05   |deigs|: 1.826e-04  t[s]:    265.86
SCF: Converged (|Delta E|<1.000000e-08 for 2 iters).

Setting wave functions to eigenvectors of Hamiltonian
Single-point solvation energy estimate, DeltaF = -0.154016107279972

Computing DFT-D3 correction:
# coordination-number C 3.301 3.301 3.301 3.301 3.301 3.301 3.301 3.301 3.366 3.301 3.301 3.320 3.301 3.301 3.402 3.301 3.313 3.302 3.301 3.316 3.343 3.301 3.302 3.897 3.301 3.302 3.301 3.319 3.328 3.301 3.300 3.846 3.307 3.301 3.323 3.308 3.301 3.301 3.301 3.301 3.304 3.301 3.301 3.307 3.301 3.302 3.353 3.301 3.301 3.505 3.301 3.301 3.301 3.302 3.436 3.304 3.301 3.309 3.582 3.302 3.301 3.301 3.572 3.304 3.301 3.305 3.301 3.301 3.592 3.306 3.301 3.368
# coordination-number S 1.981
# coordination-number Na 2.588 2.568
# diagonal-C6 C 24.27 24.27 24.27 24.27 24.27 24.27 24.27 24.28 23.55 24.27 24.27 24.09 24.27 24.28 23.08 24.27 24.15 24.26 24.27 24.12 23.83 24.27 24.27 18.47 24.27 24.27 24.28 24.10 23.99 24.27 24.28 18.59 24.21 24.28 24.05 24.21 24.27 24.27 24.27 24.27 24.24 24.27 24.27 24.22 24.28 24.27 23.71 24.27 24.27 21.57 24.28 24.27 24.27 24.26 22.60 24.25 24.28 24.20 20.49 24.26 24.27 24.27 20.63 24.24 24.27 24.24 24.27 24.27 20.38 24.23 24.27 23.52
# diagonal-C6 S 125.91
# diagonal-C6 Na 186.11 186.11
EvdW_6 =   -0.057687
EvdW_8 =   -0.049284

# Ionic positions in cartesian coordinates:
ion C  28.014330944498511   0.004543279125116  23.502503101125598 1
ion C  16.346224761984317  20.218360617645246  23.502993663098884 1
ion C   2.341951358854215   4.043669653663128  23.490310836319793 1
ion C  23.346771763020477   0.004694323538036  23.498216754438761 1
ion C   4.676533615107807   0.003831167870708  23.498685821160176 1
ion C  11.678054281551246  20.219266980939235  23.483658915920575 1
ion C  25.678991858822329   4.044057917565260  23.508874346519622 1
ion C  18.680440079023036  16.175341055052883  23.519363020373817 1
ion C   4.678378946307143   8.082837906825780  23.450478296962348 1
ion C  18.679591829961794   0.004651883449718  23.497906461752532 1
ion C   9.344021241386271   0.003939820602881  23.497971918094969 1
ion C   9.343179295144006  16.179546258376917  23.440559991123497 1
ion C  23.344952959302244   8.086660760316342  23.526594918842108 1
ion C  21.013255319023163  12.130628672731959  23.533068712377567 1
ion C   7.010810918293329  12.130439914706225  23.408218476823503 1
ion C  14.011638440051723   0.004675982535733  23.500080963589497 1
ion C  14.013653392426466  16.179682814125560  23.490942159310400 1
ion C   7.009985775794462   4.042695467073137  23.470591829357346 1
ion C  21.013291932731093   4.045077802232385  23.513006219064938 1
ion C  16.350624679377603  12.130854488859232  23.519307394058586 1
ion C   9.341975123457070   8.082439809963612  23.444210730674989 1
ion C  16.347178860444394   4.043827620232956  23.505919979355681 1
ion C  11.677858690215984   4.043771058455998  23.484952942759385 1
ion C  11.678159369752152  12.132857297916649  23.454690384171027 1
ion C  18.681482078452035   8.086326334091167  23.524861551822386 1
ion C   7.010112726965763  20.219775011515857  23.468039107190911 1
ion C  -6.992566704966779  20.217126736754256  23.509976403571088 1
ion C   0.003722382936144   8.084160467465541  23.503769723969423 1
ion C  14.015611194154660   8.083728566235635  23.496206586410079 1
ion C   2.342012414452640  20.219269349376475  23.483529700959480 1
ion C  -4.659839113170444  16.175022385290934  23.519403838352229 1
ion C   2.340272699356768  12.133295251578309  23.466721493580362 1
ion C  -2.329652515957535  12.131279392765128  23.521465563713519 1
ion C  -2.325835858400934  20.218198754759452  23.503025749889876 1
ion C   4.676934166292030  16.180459821140062  23.443289622582263 1
ion C   0.006535367739357  16.179005456332462  23.492642979851283 1
ion C  14.012614104128019  21.564662341327953  23.497610658767908 1
ion C   2.342559863656532   1.350039232428767  23.498630044074449 1
ion C  25.680336124799918   1.350673880730549  23.503130018920771 1
ion C  16.347779963867701  17.524777462591612  23.506749577203493 1
ion C   4.676569179297269   5.388550549889562  23.470493183765313 1
ion C  21.013169836835772   1.350953932666499  23.502836393398102 1
ion C   7.010273391955430   1.349522317466488  23.489475541607618 1
ion C  11.677965474827904  17.525881516477941  23.470489180815424 1
ion C  23.346014665385979   5.392107415289417  23.516503618153557 1
ion C  18.682113859673748  13.480607069821957  23.529052710888060 1
ion C   7.010893386958772   9.433290904292258  23.423624878467532 1
ion C  16.345742170795607   1.350440673849301  23.501566578049186 1
ion C  11.677514623182249   1.350381876267648  23.495472449931800 1
ion C   9.340815429774427  13.484324941698592  23.421501805901219 1
ion C  21.013291563965343   9.435832073656103  23.532620953036144 1
ion C   9.344204363873716  21.565347915904500  23.482193298356805 1
ion C  -9.325686771384444  21.564080063724639  23.505591227172872 1
ion C   0.006761056121325   5.389669923082919  23.500903090099651 1
ion C  14.017579113974165  13.483470370900783  23.492212073749375 1
ion C   9.343498561894823   5.388844080703572  23.465479049935183 1
ion C  18.680518821978382   5.392076805376961  23.515607460000002 1
ion C  16.349213982122254   9.434616495215218  23.517573718404336 1
ion C  11.678293363441576   9.429643329434038  23.464048874449229 1
ion C  14.013392481832096   5.389036900754228  23.496451148110378 1
ion C   4.676056857796958  21.565336574920735  23.482133156414999 1
ion C  -6.992543014689888  17.522354508341369  23.519185585456739 1
ion C   2.340810440823758   9.430233358344413  23.475631470081868 1
ion C  -2.328817621644771   9.435398986909497  23.520625145778123 1
ion C  -4.659465462513320  21.563964974446471  23.505131012674862 1
ion C   7.010228734821794  17.526615730199584  23.446431787258852 1
ion C   0.007749976106235  21.564814451891710  23.495896088162482 1
ion C  -4.661248369483401  13.480394938390157  23.528644617442477 1
ion C   4.679286990612406  13.484291020280608  23.427457139843693 1
ion C   2.341994858908546  17.525729630397418  23.471843026130763 1
ion C  -2.327260500926807  17.524680271424181  23.506564360790222 1
ion C   0.002203245718183  13.483789064939169  23.497906276306175 1
ion S   7.350899320190606  11.764718324374256  31.361927556252461 1
ion Na   3.353004489488626  11.655350954426734  28.697606674687371 1
ion Na  11.355103972937918  11.747054047512222  28.712818410291860 1

# Forces in Cartesian coordinates:
force C   0.000093118797995  -0.000139979984029  -0.000216790529553 1
force C   0.000252179935401  -0.000104004168098   0.000101963786654 1
force C  -0.000170557630307   0.000106752563880   0.000070396183233 1
force C   0.000005121299501   0.000006145142946  -0.000167303587195 1
force C  -0.000002594433858  -0.000108695832429  -0.000143040814659 1
force C   0.000089964816313  -0.000161493568244  -0.000013519504009 1
force C   0.000176900316380   0.000093416900327  -0.000042649822268 1
force C  -0.000062286403770   0.000016451484370   0.000218252996512 1
force C  -0.001522310304127   0.000939302611586  -0.000739999894675 1
force C  -0.000095312226479   0.000007208666388  -0.000190898650457 1
force C  -0.000076939102005  -0.000193108204473  -0.000260700793212 1
force C   0.000249737522006  -0.000764000343045   0.000066361609843 1
force C   0.000235521356334   0.000371868643881  -0.000006883726361 1
force C   0.000021294589045   0.000460230186205   0.000230210285024 1
force C  -0.000255568509931   0.001065651467501  -0.000637196030957 1
force C  -0.000098871276454  -0.000138636405867  -0.000215350562144 1
force C  -0.000156006879792  -0.001308791478573  -0.000099803750883 1
force C   0.000083186266214  -0.000225806037228   0.000278320923895 1
force C  -0.000030279113951  -0.000068332965674   0.000059158895498 1
force C  -0.001348847988296   0.000577492994901  -0.000293332017015 1
force C   0.001478505350523   0.001056663512993  -0.000361144451602 1
force C  -0.000111425551722   0.000130793038516   0.000099225030556 1
force C   0.000257815921922   0.000049953701230   0.000117593174814 1
force C   0.000834636595248  -0.000470377268971  -0.004854757435232 1
force C  -0.000244401588960   0.000433442052314   0.000120684375691 1
force C   0.000043963458593  -0.000067356244164   0.000246782922778 1
force C  -0.000007963614037  -0.000265837909837   0.000029400979294 1
force C   0.001471719862028   0.001098622861466  -0.000302481812550 1
force C  -0.001095095023535   0.001081399036279  -0.000406170765614 1
force C  -0.000041744454459  -0.000166642062968  -0.000069939117195 1
force C   0.000046271817051   0.000141297120750   0.000160559023701 1
force C  -0.000089103091211  -0.000478665972393  -0.004749460918420 1
force C   0.000932010623202   0.000422643115542  -0.000126324830872 1
force C  -0.000170701074199  -0.000064539833207  -0.000066091781023 1
force C  -0.000185441827268  -0.001325825891386  -0.000013426919597 1
force C   0.000170519267260  -0.000809391390302  -0.000011119598814 1
force C  -0.000291423986947   0.000080292560691   0.000016465795985 1
force C  -0.000042383681585   0.000170626214361  -0.000052080708964 1
force C  -0.000066407969239   0.000024467383229   0.000092569855432 1
force C  -0.000267175775964  -0.000253643361231   0.000027092282496 1
force C  -0.000027643847583   0.000672126251422  -0.000098744843635 1
force C   0.000004619845700   0.000201419357283  -0.000007021699886 1
force C  -0.000038690620322   0.000111992970574   0.000045665627129 1
force C   0.000184198336382  -0.000627927542204   0.000021061353892 1
force C   0.000066505734705   0.000079361082663   0.000134986869543 1
force C  -0.000340450412544  -0.000514913305225  -0.000120316203203 1
force C  -0.000279453093394  -0.000001219032365  -0.000339027716553 1
force C   0.000142066108993   0.000090111832245   0.000031688182665 1
force C   0.000134402850397   0.000049921821465  -0.000019826264878 1
force C   0.002097440953881  -0.001461548908484  -0.001856596170121 1
force C  -0.000081031625834  -0.000256731096518  -0.000118292970535 1
force C  -0.000079616848991   0.000046730426017  -0.000034906534135 1
force C  -0.000167813978623   0.000045244299816   0.000006523461433 1
force C   0.000101224971734   0.000442724439717   0.000207954957579 1
force C  -0.001914153357843  -0.001490525166611  -0.001794051481955 1
force C  -0.000036323870927   0.000350004843411   0.000022603052006 1
force C  -0.000169823768387  -0.000059671596676   0.000019233448522 1
force C  -0.000768349311984   0.000028528162580  -0.000067831135873 1
force C   0.000429053802222   0.002100213213737  -0.003108906691335 1
force C  -0.000164120243189   0.000673742084516   0.000021347463616 1
force C   0.000075191743011  -0.000004977687491  -0.000033379580947 1
force C  -0.000008551273323   0.000200719962189  -0.000152637931526 1
force C  -0.000192453817532   0.001926684461497  -0.003220482127672 1
force C   0.000598421811640  -0.000115103653594   0.000111266591112 1
force C   0.000115559007354   0.000129540512906   0.000062192809745 1
force C  -0.000043122330877  -0.000029510963124  -0.000083033327759 1
force C   0.000193765095577   0.000044657975509   0.000147558113136 1
force C   0.000241550208980  -0.000439477168994  -0.000044953803765 1
force C  -0.002215417827964  -0.001301959431547  -0.002564550280116 1
force C  -0.000174127067154  -0.000528778835468   0.000093755422556 1
force C   0.000233643341205  -0.000326096133772   0.000080700400773 1
force C   0.002108406665528  -0.001601149257485  -0.001010010032673 1
force S  -0.000165368053778   0.000569396524593   0.022563777982905 1
force Na  -0.017322184093335  -0.000243830257415   0.001270570741579 1
force Na   0.017397269163325   0.000044079893181   0.000624422271397 1

# Energy components:
   A_diel =       -0.2150258984049153
   Eewald =     4605.5699777846530196
       EH =     5005.5009676121817392
     Eloc =   -10155.9396189562921791
      Enl =      -84.1164740697553981
     EvdW =       -0.1069706814528402
      Exc =     -149.3530804163617915
 Exc_core =        4.1924000766186413
       KE =      257.4182618212980742
-------------------------------------
     Etot =     -517.0495627275154220
       TS =        0.0743324006082535
-------------------------------------
        F =     -517.1238951281236496

IonicMinimize: Iter:   0  F: -517.123895128123650  |grad|_K:  2.366e-03  alpha:  1.000e+00

#--- Lowdin population analysis ---
# oxidation-state C +0.036 +0.035 +0.035 +0.036 +0.035 +0.036 +0.035 +0.035 +0.033 +0.036 +0.035 +0.033 +0.035 +0.035 +0.030 +0.035 +0.033 +0.035 +0.036 +0.033 +0.034 +0.035 +0.035 +0.027 +0.035 +0.036 +0.035 +0.034 +0.033 +0.036 +0.035 +0.028 +0.034 +0.035 +0.034 +0.034 +0.035 +0.036 +0.035 +0.035 +0.035 +0.035 +0.036 +0.034 +0.035 +0.035 +0.031 +0.035 +0.036 +0.033 +0.035 +0.036 +0.036 +0.035 +0.033 +0.035 +0.035 +0.033 +0.032 +0.035 +0.036 +0.036 +0.032 +0.034 +0.036 +0.035 +0.035 +0.035 +0.032 +0.034 +0.035 +0.034
# oxidation-state S -1.164
# oxidation-state Na +0.884 +0.884


Computing DFT-D3 correction:
# coordination-number C 3.301 3.301 3.301 3.301 3.301 3.301 3.301 3.301 3.366 3.301 3.301 3.319 3.301 3.300 3.400 3.301 3.313 3.302 3.301 3.317 3.343 3.301 3.301 3.895 3.301 3.301 3.301 3.319 3.329 3.301 3.300 3.845 3.307 3.301 3.323 3.308 3.301 3.301 3.301 3.301 3.304 3.301 3.301 3.307 3.300 3.301 3.352 3.301 3.301 3.502 3.300 3.301 3.301 3.302 3.439 3.303 3.300 3.309 3.582 3.302 3.301 3.301 3.572 3.305 3.301 3.304 3.301 3.301 3.588 3.306 3.301 3.370
# coordination-number S 1.978
# coordination-number Na 2.573 2.554
# diagonal-C6 C 24.27 24.28 24.27 24.27 24.27 24.27 24.28 24.28 23.56 24.27 24.27 24.09 24.28 24.28 23.11 24.27 24.15 24.27 24.27 24.12 23.83 24.28 24.27 18.47 24.28 24.27 24.28 24.09 23.98 24.27 24.28 18.60 24.21 24.28 24.05 24.20 24.28 24.27 24.27 24.27 24.24 24.27 24.27 24.22 24.28 24.27 23.72 24.27 24.27 21.61 24.28 24.27 24.27 24.27 22.56 24.25 24.28 24.19 20.50 24.26 24.27 24.28 20.62 24.24 24.27 24.24 24.28 24.27 20.42 24.23 24.27 23.50
# diagonal-C6 S 125.92
# diagonal-C6 Na 186.11 186.11
EvdW_6 =   -0.057678
EvdW_8 =   -0.049292

-------- Electronic minimization -----------
Will mix electronic density at each iteration.
	FillingsUpdate:  mu: -0.107963322  nElectrons: 312.000000
	Linear fluid (dielectric constant: 64) occupying 0.893979 of unit cell:	Completed after 19 iterations at t[s]:    271.93
	FillingsUpdate:  mu: -0.107398936  nElectrons: 312.000000
	Linear fluid (dielectric constant: 64) occupying 0.893917 of unit cell:	Completed after 23 iterations at t[s]:    275.80
SCF: Cycle:  0   F: -517.122873909068744   dF: -1.034e-02   |Residual|: 5.148e-02   |deigs|: 1.503e-04  t[s]:    275.97
	Linear fluid (dielectric constant: 64) occupying 0.893979 of unit cell:	Completed after 21 iterations at t[s]:    276.34
	FillingsUpdate:  mu: -0.108016696  nElectrons: 312.000000
	Linear fluid (dielectric constant: 64) occupying 0.893936 of unit cell:	Completed after 22 iterations at t[s]:    279.73
SCF: Cycle:  1   F: -517.124209590149349   dF: -1.336e-03   |Residual|: 2.668e-02   |deigs|: 6.196e-04  t[s]:    279.89
	Linear fluid (dielectric constant: 64) occupying 0.894011 of unit cell:	Completed after 22 iterations at t[s]:    280.25
	FillingsUpdate:  mu: -0.107566705  nElectrons: 312.000000
	Linear fluid (dielectric constant: 64) occupying 0.893935 of unit cell:	Completed after 20 iterations at t[s]:    283.62
SCF: Cycle:  2   F: -517.124324795151324   dF: -1.152e-04   |Residual|: 1.432e-02   |deigs|: 6.671e-04  t[s]:    283.79
	Linear fluid (dielectric constant: 64) occupying 0.893989 of unit cell:	Completed after 20 iterations at t[s]:    284.14
	FillingsUpdate:  mu: -0.107831964  nElectrons: 312.000000
	Linear fluid (dielectric constant: 64) occupying 0.893942 of unit cell:	Completed after 16 iterations at t[s]:    287.47
SCF: Cycle:  3   F: -517.125048633729648   dF: -7.238e-04   |Residual|: 4.086e-03   |deigs|: 4.659e-04  t[s]:    287.64
	Linear fluid (dielectric constant: 64) occupying 0.893958 of unit cell:	Completed after 13 iterations at t[s]:    287.90
	FillingsUpdate:  mu: -0.107873941  nElectrons: 312.000000
	Linear fluid (dielectric constant: 64) occupying 0.893949 of unit cell:	Completed after 14 iterations at t[s]:    290.76
SCF: Cycle:  4   F: -517.125075353220836   dF: -2.672e-05   |Residual|: 2.212e-03   |deigs|: 3.476e-04  t[s]:    290.93
	Linear fluid (dielectric constant: 64) occupying 0.893935 of unit cell:	Completed after 10 iterations at t[s]:    291.17
	FillingsUpdate:  mu: -0.107866354  nElectrons: 312.000000
	Linear fluid (dielectric constant: 64) occupying 0.893949 of unit cell:	Completed after 10 iterations at t[s]:    293.97
SCF: Cycle:  5   F: -517.125091876485385   dF: -1.652e-05   |Residual|: 1.413e-03   |deigs|: 2.011e-04  t[s]:    294.14
	Linear fluid (dielectric constant: 64) occupying 0.893914 of unit cell:	Completed after 10 iterations at t[s]:    294.36
	FillingsUpdate:  mu: -0.107864757  nElectrons: 312.000000
	Linear fluid (dielectric constant: 64) occupying 0.893949 of unit cell:	Completed after 7 iterations at t[s]:    297.13
SCF: Cycle:  6   F: -517.125101136983858   dF: -9.260e-06   |Residual|: 8.023e-04   |deigs|: 1.273e-04  t[s]:    297.29
	Linear fluid (dielectric constant: 64) occupying 0.893908 of unit cell:	Completed after 8 iterations at t[s]:    297.49
	FillingsUpdate:  mu: -0.107880983  nElectrons: 312.000000
	Linear fluid (dielectric constant: 64) occupying 0.893947 of unit cell:	Completed after 8 iterations at t[s]:    300.30
SCF: Cycle:  7   F: -517.125103947076809   dF: -2.810e-06   |Residual|: 5.885e-04   |deigs|: 8.142e-05  t[s]:    300.47
	Linear fluid (dielectric constant: 64) occupying 0.893913 of unit cell:	Completed after 5 iterations at t[s]:    300.63
	FillingsUpdate:  mu: -0.107888628  nElectrons: 312.000000
	Linear fluid (dielectric constant: 64) occupying 0.893946 of unit cell:	Completed after 5 iterations at t[s]:    303.39
SCF: Cycle:  8   F: -517.125106081097442   dF: -2.134e-06   |Residual|: 4.904e-04   |deigs|: 1.772e-04  t[s]:    303.55
	Linear fluid (dielectric constant: 64) occupying 0.893919 of unit cell:	Completed after 3 iterations at t[s]:    303.68
	FillingsUpdate:  mu: -0.107919517  nElectrons: 312.000000
	Linear fluid (dielectric constant: 64) occupying 0.893946 of unit cell:	Completed after 7 iterations at t[s]:    306.44
SCF: Cycle:  9   F: -517.125105455636572   dF: +6.255e-07   |Residual|: 5.799e-04   |deigs|: 1.463e-04  t[s]:    306.60
	Linear fluid (dielectric constant: 64) occupying 0.893927 of unit cell:	Completed after 5 iterations at t[s]:    306.78
	FillingsUpdate:  mu: -0.107894842  nElectrons: 312.000000
	Linear fluid (dielectric constant: 64) occupying 0.893946 of unit cell:	Completed after 7 iterations at t[s]:    309.54
SCF: Cycle: 10   F: -517.125105428324673   dF: +2.731e-08   |Residual|: 7.025e-04   |deigs|: 2.093e-04  t[s]:    309.71
	Linear fluid (dielectric constant: 64) occupying 0.893928 of unit cell:	Completed after 4 iterations at t[s]:    309.85
	FillingsUpdate:  mu: -0.107947754  nElectrons: 312.000000
	Linear fluid (dielectric constant: 64) occupying 0.893944 of unit cell:	Completed after 8 iterations at t[s]:    312.92
SCF: Cycle: 11   F: -517.125101649215821   dF: +3.779e-06   |Residual|: 9.536e-04   |deigs|: 1.547e-04  t[s]:    313.08
	Linear fluid (dielectric constant: 64) occupying 0.893930 of unit cell:	Completed after 8 iterations at t[s]:    313.28
	FillingsUpdate:  mu: -0.107949568  nElectrons: 312.000000
	Linear fluid (dielectric constant: 64) occupying 0.893948 of unit cell:	Completed after 4 iterations at t[s]:    316.05
SCF: Cycle: 12   F: -517.125108046983200   dF: -6.398e-06   |Residual|: 4.372e-04   |deigs|: 2.298e-04  t[s]:    316.20
	Linear fluid (dielectric constant: 64) occupying 0.893931 of unit cell:	Completed after 4 iterations at t[s]:    316.35
	FillingsUpdate:  mu: -0.107927127  nElectrons: 312.000000
	Linear fluid (dielectric constant: 64) occupying 0.893947 of unit cell:	Completed after 1 iterations at t[s]:    319.05
SCF: Cycle: 13   F: -517.125108963253524   dF: -9.163e-07   |Residual|: 1.821e-04   |deigs|: 1.318e-04  t[s]:    319.19
	Linear fluid (dielectric constant: 64) occupying 0.893932 of unit cell:	Completed after 0 iterations at t[s]:    319.29
	FillingsUpdate:  mu: -0.107935681  nElectrons: 312.000000
	Linear fluid (dielectric constant: 64) occupying 0.893946 of unit cell:	Completed after 0 iterations at t[s]:    321.95
SCF: Cycle: 14   F: -517.125108969497091   dF: -6.244e-09   |Residual|: 1.729e-04   |deigs|: 1.035e-04  t[s]:    322.09
	Linear fluid (dielectric constant: 64) occupying 0.893935 of unit cell:	Completed after 0 iterations at t[s]:    326.01
	FillingsUpdate:  mu: -0.107936927  nElectrons: 312.000000
	Linear fluid (dielectric constant: 64) occupying 0.893947 of unit cell:	Completed after 0 iterations at t[s]:    330.96
SCF: Cycle: 15   F: -517.125109020679361   dF: -5.118e-08   |Residual|: 1.489e-04   |deigs|: 3.849e-04  t[s]:    331.10
	Linear fluid (dielectric constant: 64) occupying 0.893937 of unit cell:	Completed after 3 iterations at t[s]:    331.23
	FillingsUpdate:  mu: -0.107944065  nElectrons: 312.000000
	Linear fluid (dielectric constant: 64) occupying 0.893947 of unit cell:	Completed after 4 iterations at t[s]:    334.40
SCF: Cycle: 16   F: -517.125108197121222   dF: +8.236e-07   |Residual|: 3.994e-04   |deigs|: 2.320e-04  t[s]:    334.56
	Linear fluid (dielectric constant: 64) occupying 0.893943 of unit cell:	Completed after 2 iterations at t[s]:    334.68
	FillingsUpdate:  mu: -0.107923016  nElectrons: 312.000000
	Linear fluid (dielectric constant: 64) occupying 0.893947 of unit cell:	Completed after 5 iterations at t[s]:    337.43
SCF: Cycle: 17   F: -517.125107722533926   dF: +4.746e-07   |Residual|: 4.341e-04   |deigs|: 1.584e-04  t[s]:    337.59
	Linear fluid (dielectric constant: 64) occupying 0.893945 of unit cell:	Completed after 3 iterations at t[s]:    337.73
	FillingsUpdate:  mu: -0.107956174  nElectrons: 312.000000
	Linear fluid (dielectric constant: 64) occupying 0.893948 of unit cell:	Completed after 8 iterations at t[s]:    340.50
SCF: Cycle: 18   F: -517.125104730104795   dF: +2.992e-06   |Residual|: 7.608e-04   |deigs|: 1.981e-04  t[s]:    340.67
	Linear fluid (dielectric constant: 64) occupying 0.893949 of unit cell:	Completed after 7 iterations at t[s]:    340.85
	FillingsUpdate:  mu: -0.107951453  nElectrons: 312.000000
	Linear fluid (dielectric constant: 64) occupying 0.893950 of unit cell:	Completed after 1 iterations at t[s]:    343.56
SCF: Cycle: 19   F: -517.125109039407562   dF: -4.309e-06   |Residual|: 1.534e-04   |deigs|: 1.940e-04  t[s]:    343.70
	Linear fluid (dielectric constant: 64) occupying 0.893951 of unit cell:	Completed after 0 iterations at t[s]:    343.81
	FillingsUpdate:  mu: -0.107943187  nElectrons: 312.000000
	Linear fluid (dielectric constant: 64) occupying 0.893950 of unit cell:	Completed after 0 iterations at t[s]:    346.48
SCF: Cycle: 20   F: -517.125109076769263   dF: -3.736e-08   |Residual|: 9.648e-05   |deigs|: 8.800e-05  t[s]:    346.60
	Linear fluid (dielectric constant: 64) occupying 0.893951 of unit cell:	Completed after 0 iterations at t[s]:    346.70
	FillingsUpdate:  mu: -0.107943666  nElectrons: 312.000000
	Linear fluid (dielectric constant: 64) occupying 0.893950 of unit cell:	Completed after 0 iterations at t[s]:    349.36
SCF: Cycle: 21   F: -517.125109085369559   dF: -8.600e-09   |Residual|: 8.003e-05   |deigs|: 1.002e-04  t[s]:    349.48
	Linear fluid (dielectric constant: 64) occupying 0.893950 of unit cell:	Completed after 0 iterations at t[s]:    349.59
	FillingsUpdate:  mu: -0.107943956  nElectrons: 312.000000
	Linear fluid (dielectric constant: 64) occupying 0.893950 of unit cell:	Completed after 0 iterations at t[s]:    352.24
SCF: Cycle: 22   F: -517.125109099339511   dF: -1.397e-08   |Residual|: 8.021e-05   |deigs|: 9.619e-05  t[s]:    352.37
	Linear fluid (dielectric constant: 64) occupying 0.893949 of unit cell:	Completed after 0 iterations at t[s]:    352.47
	FillingsUpdate:  mu: -0.107943838  nElectrons: 312.000000
	Linear fluid (dielectric constant: 64) occupying 0.893949 of unit cell:	Completed after 0 iterations at t[s]:    355.55
SCF: Cycle: 23   F: -517.125109109857249   dF: -1.052e-08   |Residual|: 6.991e-05   |deigs|: 5.502e-05  t[s]:    355.67
	Linear fluid (dielectric constant: 64) occupying 0.893949 of unit cell:	Completed after 0 iterations at t[s]:    355.77
	FillingsUpdate:  mu: -0.107943977  nElectrons: 312.000000
	Linear fluid (dielectric constant: 64) occupying 0.893949 of unit cell:	Completed after 0 iterations at t[s]:    358.86
SCF: Cycle: 24   F: -517.125109099700921   dF: +1.016e-08   |Residual|: 4.759e-05   |deigs|: 1.221e-04  t[s]:    358.99
	Linear fluid (dielectric constant: 64) occupying 0.893949 of unit cell:	Completed after 0 iterations at t[s]:    359.09
	FillingsUpdate:  mu: -0.107951174  nElectrons: 312.000000
	Linear fluid (dielectric constant: 64) occupying 0.893949 of unit cell:	Completed after 0 iterations at t[s]:    361.75
SCF: Cycle: 25   F: -517.125109107111371   dF: -7.410e-09   |Residual|: 2.971e-05   |deigs|: 9.015e-05  t[s]:    361.88
	Linear fluid (dielectric constant: 64) occupying 0.893948 of unit cell:	Completed after 0 iterations at t[s]:    361.98
	FillingsUpdate:  mu: -0.107951171  nElectrons: 312.000000
	Linear fluid (dielectric constant: 64) occupying 0.893949 of unit cell:	Completed after 0 iterations at t[s]:    364.62
SCF: Cycle: 26   F: -517.125109109291884   dF: -2.181e-09   |Residual|: 2.590e-05   |deigs|: 2.484e-05  t[s]:    364.74
SCF: Converged (|Delta E|<1.000000e-08 for 2 iters).

Setting wave functions to eigenvectors of Hamiltonian
IonicMinimize: 	Predicted alpha/alphaT>3.000000, increasing alphaT to 3.000000e+00.

Computing DFT-D3 correction:
# coordination-number C 3.301 3.300 3.301 3.301 3.301 3.301 3.300 3.301 3.364 3.301 3.301 3.319 3.300 3.300 3.396 3.301 3.314 3.301 3.300 3.318 3.341 3.300 3.301 3.890 3.300 3.301 3.301 3.320 3.331 3.301 3.300 3.843 3.308 3.301 3.323 3.308 3.301 3.301 3.301 3.301 3.304 3.301 3.301 3.307 3.300 3.301 3.350 3.301 3.301 3.497 3.300 3.301 3.301 3.302 3.444 3.303 3.300 3.310 3.582 3.302 3.301 3.300 3.574 3.305 3.301 3.303 3.301 3.300 3.581 3.306 3.300 3.374
# coordination-number S 1.971
# coordination-number Na 2.543 2.527
# diagonal-C6 C 24.28 24.28 24.27 24.27 24.27 24.28 24.28 24.28 23.57 24.27 24.27 24.09 24.28 24.28 23.17 24.28 24.14 24.28 24.28 24.10 23.85 24.28 24.27 18.48 24.28 24.28 24.27 24.08 23.97 24.28 24.28 18.60 24.20 24.28 24.05 24.20 24.28 24.28 24.28 24.28 24.25 24.27 24.27 24.22 24.28 24.28 23.74 24.28 24.28 21.68 24.28 24.27 24.28 24.27 22.48 24.26 24.28 24.18 20.50 24.26 24.27 24.28 20.60 24.23 24.28 24.25 24.28 24.28 20.50 24.23 24.28 23.45
# diagonal-C6 S 125.92
# diagonal-C6 Na 186.11 186.11
EvdW_6 =   -0.057659
EvdW_8 =   -0.049307

-------- Electronic minimization -----------
Will mix electronic density at each iteration.
	FillingsUpdate:  mu: -0.107951171  nElectrons: 312.000000
	Linear fluid (dielectric constant: 64) occupying 0.893945 of unit cell:	Completed after 22 iterations at t[s]:    368.00
	FillingsUpdate:  mu: -0.106788379  nElectrons: 312.000000
	Linear fluid (dielectric constant: 64) occupying 0.893842 of unit cell:	Completed after 28 iterations at t[s]:    371.92
SCF: Cycle:  0   F: -517.118183019007802   dF: -4.122e-02   |Residual|: 1.036e-01   |deigs|: 5.967e-04  t[s]:    372.10
	Linear fluid (dielectric constant: 64) occupying 0.893945 of unit cell:	Completed after 27 iterations at t[s]:    372.52
	FillingsUpdate:  mu: -0.108066689  nElectrons: 312.000000
	Linear fluid (dielectric constant: 64) occupying 0.893875 of unit cell:	Completed after 26 iterations at t[s]:    375.95
SCF: Cycle:  1   F: -517.123687342089283   dF: -5.504e-03   |Residual|: 5.362e-02   |deigs|: 1.241e-03  t[s]:    376.13
	Linear fluid (dielectric constant: 64) occupying 0.894008 of unit cell:	Completed after 25 iterations at t[s]:    376.51
	FillingsUpdate:  mu: -0.107084833  nElectrons: 312.000000
	Linear fluid (dielectric constant: 64) occupying 0.893864 of unit cell:	Completed after 24 iterations at t[s]:    379.92
SCF: Cycle:  2   F: -517.123986956401041   dF: -2.996e-04   |Residual|: 2.895e-02   |deigs|: 1.167e-03  t[s]:    380.09
	Linear fluid (dielectric constant: 64) occupying 0.893963 of unit cell:	Completed after 25 iterations at t[s]:    380.48
	FillingsUpdate:  mu: -0.107712667  nElectrons: 312.000000
	Linear fluid (dielectric constant: 64) occupying 0.893877 of unit cell:	Completed after 22 iterations at t[s]:    383.87
SCF: Cycle:  3   F: -517.127047183324407   dF: -3.060e-03   |Residual|: 8.263e-03   |deigs|: 7.114e-04  t[s]:    384.04
	Linear fluid (dielectric constant: 64) occupying 0.893908 of unit cell:	Completed after 19 iterations at t[s]:    384.37
	FillingsUpdate:  mu: -0.107738394  nElectrons: 312.000000
	Linear fluid (dielectric constant: 64) occupying 0.893889 of unit cell:	Completed after 18 iterations at t[s]:    387.71
SCF: Cycle:  4   F: -517.127139250486266   dF: -9.207e-05   |Residual|: 4.609e-03   |deigs|: 4.440e-04  t[s]:    387.88
	Linear fluid (dielectric constant: 64) occupying 0.893858 of unit cell:	Completed after 14 iterations at t[s]:    388.16
	FillingsUpdate:  mu: -0.107747705  nElectrons: 312.000000
	Linear fluid (dielectric constant: 64) occupying 0.893891 of unit cell:	Completed after 14 iterations at t[s]:    391.46
SCF: Cycle:  5   F: -517.127219760584580   dF: -8.051e-05   |Residual|: 2.758e-03   |deigs|: 2.048e-04  t[s]:    391.63
	Linear fluid (dielectric constant: 64) occupying 0.893816 of unit cell:	Completed after 12 iterations at t[s]:    391.88
	FillingsUpdate:  mu: -0.107746259  nElectrons: 312.000000
	Linear fluid (dielectric constant: 64) occupying 0.893889 of unit cell:	Completed after 12 iterations at t[s]:    395.16
SCF: Cycle:  6   F: -517.127255662470361   dF: -3.590e-05   |Residual|: 1.664e-03   |deigs|: 1.242e-04  t[s]:    395.33
	Linear fluid (dielectric constant: 64) occupying 0.893806 of unit cell:	Completed after 12 iterations at t[s]:    395.58
	FillingsUpdate:  mu: -0.107783202  nElectrons: 312.000000
	Linear fluid (dielectric constant: 64) occupying 0.893886 of unit cell:	Completed after 11 iterations at t[s]:    398.41
SCF: Cycle:  7   F: -517.127268564679866   dF: -1.290e-05   |Residual|: 1.093e-03   |deigs|: 1.896e-04  t[s]:    398.58
	Linear fluid (dielectric constant: 64) occupying 0.893820 of unit cell:	Completed after 10 iterations at t[s]:    398.80
	FillingsUpdate:  mu: -0.107814968  nElectrons: 312.000000
	Linear fluid (dielectric constant: 64) occupying 0.893883 of unit cell:	Completed after 10 iterations at t[s]:    401.61
SCF: Cycle:  8   F: -517.127275760808061   dF: -7.196e-06   |Residual|: 7.566e-04   |deigs|: 2.656e-04  t[s]:    401.77
	Linear fluid (dielectric constant: 64) occupying 0.893838 of unit cell:	Completed after 5 iterations at t[s]:    401.95
	FillingsUpdate:  mu: -0.107847110  nElectrons: 312.000000
	Linear fluid (dielectric constant: 64) occupying 0.893882 of unit cell:	Completed after 4 iterations at t[s]:    404.69
SCF: Cycle:  9   F: -517.127279854517610   dF: -4.094e-06   |Residual|: 6.212e-04   |deigs|: 3.495e-04  t[s]:    404.84
	Linear fluid (dielectric constant: 64) occupying 0.893843 of unit cell:	Completed after 3 iterations at t[s]:    404.98
	FillingsUpdate:  mu: -0.107874828  nElectrons: 312.000000
	Linear fluid (dielectric constant: 64) occupying 0.893884 of unit cell:	Completed after 4 iterations at t[s]:    407.70
SCF: Cycle: 10   F: -517.127280488121073   dF: -6.336e-07   |Residual|: 5.743e-04   |deigs|: 2.226e-04  t[s]:    407.86
	Linear fluid (dielectric constant: 64) occupying 0.893851 of unit cell:	Completed after 4 iterations at t[s]:    408.01
	FillingsUpdate:  mu: -0.107864875  nElectrons: 312.000000
	Linear fluid (dielectric constant: 64) occupying 0.893883 of unit cell:	Completed after 4 iterations at t[s]:    410.77
SCF: Cycle: 11   F: -517.127281772132392   dF: -1.284e-06   |Residual|: 4.065e-04   |deigs|: 3.899e-04  t[s]:    410.92
	Linear fluid (dielectric constant: 64) occupying 0.893855 of unit cell:	Completed after 2 iterations at t[s]:    411.05
	FillingsUpdate:  mu: -0.107912962  nElectrons: 312.000000
	Linear fluid (dielectric constant: 64) occupying 0.893885 of unit cell:	Completed after 9 iterations at t[s]:    413.84
SCF: Cycle: 12   F: -517.127278472085550   dF: +3.300e-06   |Residual|: 7.991e-04   |deigs|: 2.659e-04  t[s]:    414.02
	Linear fluid (dielectric constant: 64) occupying 0.893861 of unit cell:	Completed after 7 iterations at t[s]:    414.20
	FillingsUpdate:  mu: -0.107898690  nElectrons: 312.000000
	Linear fluid (dielectric constant: 64) occupying 0.893886 of unit cell:	Completed after 4 iterations at t[s]:    416.94
SCF: Cycle: 13   F: -517.127282130504227   dF: -3.658e-06   |Residual|: 3.396e-04   |deigs|: 4.725e-04  t[s]:    417.10
	Linear fluid (dielectric constant: 64) occupying 0.893862 of unit cell:	Completed after 4 iterations at t[s]:    417.25
	FillingsUpdate:  mu: -0.107894800  nElectrons: 312.000000
	Linear fluid (dielectric constant: 64) occupying 0.893885 of unit cell:	Completed after 2 iterations at t[s]:    419.96
SCF: Cycle: 14   F: -517.127282241776584   dF: -1.113e-07   |Residual|: 3.027e-04   |deigs|: 1.687e-04  t[s]:    420.11
	Linear fluid (dielectric constant: 64) occupying 0.893869 of unit cell:	Completed after 2 iterations at t[s]:    420.24
[...]
	Linear fluid (dielectric constant: 64) occupying 0.892510 of unit cell:	Completed after 4 iterations at t[s]:  15356.97
SCF: Cycle: 34   F: -517.166875988232277   dF: +2.134e-07   |Residual|: 3.348e-04   |deigs|: 1.658e-05  t[s]:  15357.13
	Linear fluid (dielectric constant: 64) occupying 0.892510 of unit cell:	Completed after 2 iterations at t[s]:  15357.26
	FillingsUpdate:  mu: -0.107594251  nElectrons: 312.000000
	Linear fluid (dielectric constant: 64) occupying 0.892510 of unit cell:	Completed after 4 iterations at t[s]:  15359.42
SCF: Cycle: 35   F: -517.166876020947711   dF: -3.272e-08   |Residual|: 3.234e-04   |deigs|: 1.772e-05  t[s]:  15359.58
	Linear fluid (dielectric constant: 64) occupying 0.892510 of unit cell:	Completed after 2 iterations at t[s]:  15359.71
	FillingsUpdate:  mu: -0.107569072  nElectrons: 312.000000
	Linear fluid (dielectric constant: 64) occupying 0.892509 of unit cell:	Completed after 4 iterations at t[s]:  15361.87
SCF: Cycle: 36   F: -517.166875906848077   dF: +1.141e-07   |Residual|: 3.495e-04   |deigs|: 1.820e-05  t[s]:  15362.03
	Linear fluid (dielectric constant: 64) occupying 0.892510 of unit cell:	Completed after 3 iterations at t[s]:  15362.17
	FillingsUpdate:  mu: -0.107595783  nElectrons: 312.000000
	Linear fluid (dielectric constant: 64) occupying 0.892510 of unit cell:	Completed after 3 iterations at t[s]:  15364.36
SCF: Cycle: 37   F: -517.166876212565967   dF: -3.057e-07   |Residual|: 2.829e-04   |deigs|: 1.732e-05  t[s]:  15364.51
	Linear fluid (dielectric constant: 64) occupying 0.892510 of unit cell:	Completed after 2 iterations at t[s]:  15364.64
	FillingsUpdate:  mu: -0.107569557  nElectrons: 312.000000
	Linear fluid (dielectric constant: 64) occupying 0.892510 of unit cell:	Completed after 5 iterations at t[s]:  15366.81
SCF: Cycle: 38   F: -517.166875705112034   dF: +5.075e-07   |Residual|: 3.752e-04   |deigs|: 1.793e-05  t[s]:  15366.97
	Linear fluid (dielectric constant: 64) occupying 0.892510 of unit cell:	Completed after 2 iterations at t[s]:  15367.10
	FillingsUpdate:  mu: -0.107598422  nElectrons: 312.000000
	Linear fluid (dielectric constant: 64) occupying 0.892509 of unit cell:	Completed after 5 iterations at t[s]:  15369.28
SCF: Cycle: 39   F: -517.166875514442722   dF: +1.907e-07   |Residual|: 3.948e-04   |deigs|: 2.128e-05  t[s]:  15369.44
	Linear fluid (dielectric constant: 64) occupying 0.892510 of unit cell:	Completed after 3 iterations at t[s]:  15369.58
	FillingsUpdate:  mu: -0.107563507  nElectrons: 312.000000
	Linear fluid (dielectric constant: 64) occupying 0.892510 of unit cell:	Completed after 6 iterations at t[s]:  15371.76
SCF: Cycle: 40   F: -517.166875243620780   dF: +2.708e-07   |Residual|: 4.187e-04   |deigs|: 2.293e-05  t[s]:  15371.92
	Linear fluid (dielectric constant: 64) occupying 0.892510 of unit cell:	Completed after 3 iterations at t[s]:  15372.07
	FillingsUpdate:  mu: -0.107595174  nElectrons: 312.000000
	Linear fluid (dielectric constant: 64) occupying 0.892508 of unit cell:	Completed after 5 iterations at t[s]:  15374.24
SCF: Cycle: 41   F: -517.166875627536683   dF: -3.839e-07   |Residual|: 3.587e-04   |deigs|: 2.309e-05  t[s]:  15374.40
	Linear fluid (dielectric constant: 64) occupying 0.892510 of unit cell:	Completed after 3 iterations at t[s]:  15374.55
	FillingsUpdate:  mu: -0.107562220  nElectrons: 312.000000
	Linear fluid (dielectric constant: 64) occupying 0.892511 of unit cell:	Completed after 5 iterations at t[s]:  15376.73
SCF: Cycle: 42   F: -517.166875271983372   dF: +3.556e-07   |Residual|: 4.310e-04   |deigs|: 2.356e-05  t[s]:  15376.90
	Linear fluid (dielectric constant: 64) occupying 0.892510 of unit cell:	Completed after 3 iterations at t[s]:  15377.04
	FillingsUpdate:  mu: -0.107601431  nElectrons: 312.000000
	Linear fluid (dielectric constant: 64) occupying 0.892509 of unit cell:	Completed after 5 iterations at t[s]:  15379.21
SCF: Cycle: 43   F: -517.166875267164528   dF: +4.819e-09   |Residual|: 4.260e-04   |deigs|: 2.461e-05  t[s]:  15379.37
	Linear fluid (dielectric constant: 64) occupying 0.892510 of unit cell:	Completed after 3 iterations at t[s]:  15379.51
	FillingsUpdate:  mu: -0.107561920  nElectrons: 312.000000
	Linear fluid (dielectric constant: 64) occupying 0.892511 of unit cell:	Completed after 7 iterations at t[s]:  15382.56
SCF: Cycle: 44   F: -517.166874927233948   dF: +3.399e-07   |Residual|: 4.556e-04   |deigs|: 2.518e-05  t[s]:  15382.72
	Linear fluid (dielectric constant: 64) occupying 0.892510 of unit cell:	Completed after 5 iterations at t[s]:  15382.89
	FillingsUpdate:  mu: -0.107586853  nElectrons: 312.000000
	Linear fluid (dielectric constant: 64) occupying 0.892508 of unit cell:	Completed after 4 iterations at t[s]:  15385.07
SCF: Cycle: 45   F: -517.166876483101078   dF: -1.556e-06   |Residual|: 1.875e-04   |deigs|: 1.966e-05  t[s]:  15385.23
	Linear fluid (dielectric constant: 64) occupying 0.892510 of unit cell:	Completed after 2 iterations at t[s]:  15385.36
	FillingsUpdate:  mu: -0.107566235  nElectrons: 312.000000
	Linear fluid (dielectric constant: 64) occupying 0.892509 of unit cell:	Completed after 6 iterations at t[s]:  15387.54
SCF: Cycle: 46   F: -517.166875111720287   dF: +1.371e-06   |Residual|: 4.486e-04   |deigs|: 1.947e-05  t[s]:  15387.71
	Linear fluid (dielectric constant: 64) occupying 0.892510 of unit cell:	Completed after 4 iterations at t[s]:  15387.86
	FillingsUpdate:  mu: -0.107590305  nElectrons: 312.000000
	Linear fluid (dielectric constant: 64) occupying 0.892508 of unit cell:	Completed after 4 iterations at t[s]:  15390.03
SCF: Cycle: 47   F: -517.166876041233763   dF: -9.295e-07   |Residual|: 2.955e-04   |deigs|: 2.200e-05  t[s]:  15390.19
	Linear fluid (dielectric constant: 64) occupying 0.892510 of unit cell:	Completed after 3 iterations at t[s]:  15390.33
	FillingsUpdate:  mu: -0.107564459  nElectrons: 312.000000
	Linear fluid (dielectric constant: 64) occupying 0.892510 of unit cell:	Completed after 3 iterations at t[s]:  15392.50
SCF: Cycle: 48   F: -517.166875892440089   dF: +1.488e-07   |Residual|: 3.530e-04   |deigs|: 1.924e-05  t[s]:  15392.65
	Linear fluid (dielectric constant: 64) occupying 0.892510 of unit cell:	Completed after 3 iterations at t[s]:  15392.79
	FillingsUpdate:  mu: -0.107595635  nElectrons: 312.000000
	Linear fluid (dielectric constant: 64) occupying 0.892509 of unit cell:	Completed after 4 iterations at t[s]:  15394.95
SCF: Cycle: 49   F: -517.166876153610588   dF: -2.612e-07   |Residual|: 2.890e-04   |deigs|: 1.831e-05  t[s]:  15395.11
	Linear fluid (dielectric constant: 64) occupying 0.892510 of unit cell:	Completed after 2 iterations at t[s]:  15395.24
Setting wave functions to eigenvectors of Hamiltonian

Computing DFT-D3 correction:
# coordination-number C 3.300 3.300 3.300 3.300 3.300 3.300 3.300 3.301 3.305 3.300 3.300 3.302 3.301 3.301 3.304 3.300 3.306 3.300 3.300 3.322 3.303 3.300 3.300 3.346 3.301 3.300 3.300 3.312 3.313 3.300 3.300 3.358 3.313 3.300 3.302 3.305 3.300 3.300 3.300 3.301 3.301 3.300 3.300 3.302 3.300 3.302 3.303 3.300 3.300 3.307 3.300 3.300 3.300 3.301 3.344 3.300 3.300 3.312 3.325 3.301 3.300 3.300 3.332 3.308 3.300 3.300 3.300 3.301 3.311 3.302 3.300 3.335
# coordination-number S 0.164
# coordination-number Na 0.294 0.294
# diagonal-C6 C 24.29 24.28 24.28 24.29 24.29 24.28 24.28 24.28 24.24 24.29 24.29 24.26 24.28 24.28 24.25 24.29 24.22 24.28 24.29 24.06 24.25 24.28 24.28 23.79 24.27 24.28 24.29 24.16 24.15 24.28 24.28 23.66 24.15 24.29 24.26 24.23 24.29 24.29 24.29 24.27 24.28 24.29 24.29 24.27 24.28 24.26 24.26 24.29 24.29 24.21 24.28 24.28 24.29 24.27 23.82 24.28 24.28 24.16 24.03 24.27 24.28 24.29 23.95 24.20 24.29 24.28 24.29 24.27 24.17 24.27 24.28 23.92
# diagonal-C6 S 133.81
# diagonal-C6 Na 1225.00 1223.61
EvdW_6 =   -0.058885
EvdW_8 =   -0.051672

# Ionic positions in cartesian coordinates:
ion C  28.015232113836600   0.004906985928347  23.469255169669250 1
ion C  16.346077796793367  20.216643818620263  23.459456577963255 1
ion C   2.343465237613466   4.046952301025510  23.437645414486209 1
ion C  23.347461699047170   0.004622572594450  23.473595354169571 1
ion C   4.677029897917846   0.005066530563350  23.469093846357676 1
ion C  11.678157532132648  20.216493362217800  23.442226618447645 1
ion C  25.681306054090157   4.046990626775764  23.461329670641675 1
ion C  18.680165751963994  16.174373750407778  23.438691007268687 1
ion C   4.677032622052510   8.089057168381762  23.373255742063808 1
ion C  18.679859506003048   0.004661279060414  23.473703483767046 1
ion C   9.344524703416404   0.005100451928231  23.469950174914747 1
ion C   9.344410782555762  16.174498925667958  23.380564593788687 1
ion C  23.347344122494302   8.089383020048228  23.441945281106193 1
ion C  21.013706329095307  12.131913844978891  23.431769241081149 1
ion C   7.010749066007216  12.131968482546133  23.345740802563881 1
ion C  14.012028206673907   0.004984763555422  23.470039393472078 1
ion C  14.012044711388276  16.174603263336415  23.399861450705451 1
ion C   7.010785289456297   4.046963669431649  23.429982163060139 1
ion C  21.013658773047101   4.047014305116786  23.471755228902779 1
ion C  16.346265201991450  12.132182498563591  23.395382025715389 1
ion C   9.344541441448616   8.089064776671398  23.374315029036669 1
ion C  16.345890821083955   4.047050164614606  23.459787081017936 1
ion C  11.678082124109633   4.046974533640309  23.437541653895874 1
ion C  11.678188283382042  12.131987846187279  23.347864100076482 1
ion C  18.680029490538693   8.089422899507888  23.438928018804361 1
ion C   7.010758305456049  20.216338279536863  23.437355097435447 1
ion C  -6.992097460644531  20.216351159964052  23.470398585070239 1
ion C   0.009595545798960   8.089158618778622  23.400085412833924 1
ion C  14.011964045353366   8.089171713510401  23.397554242028644 1
ion C   2.343358934211652  20.216534562544751  23.444603292689521 1
ion C  -4.658601789088341  16.174332262517652  23.442573367952050 1
ion C   2.343352615293606  12.131969316951396  23.347957196588428 1
ion C  -2.324681252646633  12.132107210686605  23.404088069788532 1
ion C  -2.324577928366965  20.216636875579560  23.462917925947721 1
ion C   4.677095802173048  16.174470269418951  23.381699681448758 1
ion C   0.009447612522088  16.174591509296821  23.405996725036811 1
ion C  14.011887766534743  21.563904361586580  23.460442345728776 1
ion C   2.343233467257360   1.352402193522583  23.462428727862250 1
ion C  25.681182367875159   1.352055623317024  23.472411455784414 1
ion C  16.345911233317064  17.521760760422559  23.435237106355185 1
ion C   4.677191514611403   5.394546494630228  23.412684900037373 1
ion C  21.013670584153584   1.352212508122919  23.477559347074227 1
ion C   7.010760824633668   1.352636652708903  23.460256512633087 1
ion C  11.677967419711319  17.521954679064290  23.406309935164490 1
ion C  23.347253969417739   5.394575207204530  23.460883242066085 1
ion C  18.680051936845391  13.479232844005422  23.423401328354721 1
ion C   7.010760647629683   9.436713820552194  23.357136201498115 1
ion C  16.346095611029497   1.352076855209857  23.471991652604206 1
ion C  11.678280518152578   1.352469508364514  23.463208277189853 1
ion C   9.344541388325005  13.479427870413984  23.351510342236889 1
ion C  21.013753426570066   9.436813828721908  23.438840142728854 1
ion C   9.344383012973335  21.563731710179169  23.453909963551506 1
ion C  -9.325941871449459  21.564149298663768  23.472727811529673 1
ion C   0.009574634509119   5.394394396949008  23.433841670912859 1
ion C  14.012019921320093  13.479643654711486  23.369497548470161 1
ion C   9.344363862478930   5.394510368631678  23.413009623535167 1
ion C  18.680041430066929   5.394542089237144  23.459355958738346 1
ion C  16.346134841384970   9.436682945613239  23.408019296437484 1
ion C  11.678053731976096   9.436745696385456  23.364081462467812 1
ion C  14.011880462639777   5.394436070281901  23.432335103383103 1
ion C   4.677121349045578  21.563749078297061  23.454722145546679 1
ion C  -6.992056166123234  17.521705932089201  23.455281988515814 1
ion C   2.343494743423887   9.436684551065003  23.363051144778048 1
ion C  -2.324555611617140   9.436685053454307  23.413708060228199 1
ion C  -4.658280550317423  21.564156018952730  23.474080368783017 1
ion C   7.010713176245581  17.521864079434401  23.398727163372893 1
ion C   0.009606938367046  21.563923303922266  23.463080711502421 1
ion C  -4.658392994138733  13.479235568160902  23.428358920164797 1
ion C   4.676909658187119  13.479438558940696  23.351144977705918 1
ion C   2.343522480519212  17.521923632287859  23.409331783767225 1
ion C  -2.324399872545915  17.521703423539154  23.440725150199977 1
ion C   0.009507771585826  13.479516028534498  23.376594995626714 1
ion S   7.340290793869463  11.832686424255305  33.748238489636677 1
ion Na   1.329482357120824  11.590726675690204  29.804137402097545 1
ion Na  13.344408041701552  11.709397604180140  29.794488021932693 1

# Forces in Cartesian coordinates:
force C  -0.000094713397085   0.000033429263364  -0.000057387707242 1
force C  -0.000128116514184  -0.000032077100786  -0.000101900709898 1
force C  -0.000056948044207   0.000165792353849  -0.000033862084215 1
force C  -0.000042110272882   0.000094859634772  -0.000094532400293 1
force C  -0.000012012896028   0.000071725024041  -0.000090915215173 1
force C   0.000006998094947   0.000007337358539  -0.000036827040664 1
force C   0.000009608965545   0.000100228906937  -0.000167179754213 1
force C  -0.000252449074903  -0.000128442426510  -0.000079941492550 1
force C   0.000077518387142   0.000123389126969   0.000042242474123 1
force C   0.000033468280333   0.000089223103207  -0.000107105429127 1
force C   0.000000245706788   0.000067294657481  -0.000101299767612 1
force C   0.000016442382670  -0.000136289969185   0.000067108756624 1
force C   0.000118503560135   0.000003162643571  -0.000061771744813 1
force C   0.000005583514938  -0.000180742117703   0.000040561149141 1
force C   0.000000470554799  -0.000162393657979   0.000202577394750 1
force C   0.000112531412684  -0.000002019962602  -0.000034634822464 1
force C  -0.000021504061307  -0.000103461121874   0.000078488068490 1
force C  -0.000010477152802   0.000208632088898  -0.000013809025924 1
force C  -0.000006069789555   0.000038135547847  -0.000025987067262 1
force C  -0.000107478802024  -0.000188187700572  -0.000023171231446 1
force C  -0.000105669469314   0.000127193603035   0.000049785599565 1
force C   0.000038064034702   0.000082456067400  -0.000177130905705 1
force C   0.000035092268765   0.000162126735319  -0.000018637119950 1
force C  -0.000063188625468  -0.000064348345668   0.000081150240131 1
force C  -0.000097267434700  -0.000016010839213  -0.000049419439209 1
force C  -0.000009254993278   0.000016871462853  -0.000030546797603 1
force C  -0.000005589823953   0.000193441680190  -0.000015773209119 1
force C  -0.000043313381636   0.000082089655302   0.000117980145170 1
force C   0.000042068593350   0.000081485060322   0.000142387499588 1
force C  -0.000017063786601  -0.000016054337935  -0.000054264684296 1
force C   0.000269696620808  -0.000126944185654  -0.000087541156541 1
force C   0.000003663545545  -0.000063031482943   0.000091761772413 1
force C   0.000167663565886  -0.000185413332212  -0.000074139318818 1
force C   0.000152193457486  -0.000037512528283  -0.000120461367816 1
force C  -0.000048196521082  -0.000117913197498   0.000054294675108 1
force C   0.000043050325589  -0.000138230392064   0.000057413952998 1
force C   0.000155842319493  -0.000063281896843  -0.000050412031523 1
force C  -0.000000840562503  -0.000071662587578  -0.000039919348332 1
force C   0.000096504846211   0.000073703160727  -0.000100711445127 1
force C   0.000097145826340  -0.000037730119164  -0.000070341494598 1
force C  -0.000093975891226  -0.000053970782236   0.000024273312631 1
force C  -0.000002796986801  -0.000067674442310  -0.000112664351975 1
force C   0.000009867165317  -0.000151829087152  -0.000037820960065 1
force C   0.000120344696557  -0.000097196742515  -0.000000109196671 1
force C   0.000183422945037  -0.000038540759281  -0.000052057525097 1
force C  -0.000051721144264   0.000178989822721  -0.000056394552630 1
force C   0.000024883162837   0.000115277624862   0.000131886938961 1
force C  -0.000095945295043   0.000090019081264  -0.000078730891472 1
force C  -0.000001663860983  -0.000079427516236  -0.000064524046030 1
force C  -0.000062818131311   0.000087510705721   0.000070103323270 1
force C  -0.000047125911370   0.000160587377182  -0.000049448213681 1
force C   0.000048040610831  -0.000042182504068  -0.000055040489598 1
force C   0.000028505781979  -0.000170473838351  -0.000166987212444 1
force C  -0.000055806538990  -0.000008751998419  -0.000030968756919 1
force C   0.000162752897641   0.000102094555530   0.000100743710696 1
force C   0.000094528309580  -0.000020569025267   0.000018899051539 1
force C  -0.000193617751464  -0.000000104741892  -0.000048558390347 1
force C  -0.000051720068916   0.000158365322024  -0.000029604019457 1
force C   0.000093909285256   0.000006644993860   0.000020414608353 1
force C   0.000081021632974  -0.000000587463046  -0.000018122181375 1
force C  -0.000036090046734  -0.000034321605857  -0.000053649434796 1
force C  -0.000044067652576  -0.000004754738955  -0.000008345177038 1
force C  -0.000099787918527  -0.000007132085371   0.000039706936772 1
force C   0.000075907738769   0.000138520366370  -0.000016628126215 1
force C  -0.000043160183067  -0.000147805609430  -0.000128283230344 1
force C   0.000023861625398  -0.000115109830039   0.000073431515088 1
force C  -0.000153498034165  -0.000051445266460  -0.000067223898377 1
force C   0.000006165476810   0.000161529854841  -0.000022291797437 1
force C   0.000094668339738   0.000079480764933   0.000050188534702 1
force C  -0.000112858775772  -0.000080185073850   0.000032633939636 1
force C  -0.000078573074721  -0.000008398960797  -0.000088550784159 1
force C  -0.000142396570796   0.000114013977293   0.000089639447906 1
force S  -0.000013232781893   0.000006440212698  -0.000237343807943 1
force Na  -0.000230070124887  -0.000084902217519   0.000049525279817 1
force Na   0.000197272909111  -0.000080830834082   0.000056490653366 1

# Energy components:
   A_diel =       -0.3446198572411834
   Eewald =     4519.1254641185778382
       EH =     4917.2543148298154847
     Eloc =    -9981.0921337163126736
      Enl =      -84.0966792292304319
     EvdW =       -0.1105569121947775
      Exc =     -149.2885203137077497
 Exc_core =        4.1924003905715965
       KE =      257.2672940530292749
-------------------------------------
     Etot =     -517.0930366366924318
       TS =        0.0747760583402919
-------------------------------------
        F =     -517.1678126950326941

IonicMinimize: Iter:  83  F: -517.167812695032694  |grad|_K:  9.382e-05  alpha:  1.006e+00  linmin: -9.051e-03  t[s]:  15398.65
IonicMinimize: Converged (|grad|_K<1.000000e-04).

#--- Lowdin population analysis ---
# oxidation-state C +0.035 +0.035 +0.034 +0.035 +0.035 +0.035 +0.034 +0.034 +0.034 +0.035 +0.035 +0.034 +0.034 +0.034 +0.033 +0.035 +0.033 +0.035 +0.035 +0.032 +0.034 +0.034 +0.034 +0.032 +0.034 +0.035 +0.035 +0.032 +0.032 +0.035 +0.034 +0.032 +0.032 +0.035 +0.034 +0.033 +0.035 +0.035 +0.035 +0.034 +0.034 +0.035 +0.035 +0.034 +0.034 +0.033 +0.033 +0.035 +0.035 +0.033 +0.034 +0.035 +0.035 +0.034 +0.032 +0.034 +0.034 +0.032 +0.032 +0.034 +0.035 +0.035 +0.032 +0.032 +0.035 +0.035 +0.035 +0.034 +0.033 +0.034 +0.034 +0.032
# oxidation-state S -1.259
# oxidation-state Na +0.956 +0.956


Dumping 'Na2S@graphene_vdw-PC.fillings' ... done
Dumping 'Na2S@graphene_vdw-PC.wfns' ... done
Dumping 'Na2S@graphene_vdw-PC.fluidState' ... done
Dumping 'Na2S@graphene_vdw-PC.ionpos' ... done
Dumping 'Na2S@graphene_vdw-PC.eigenvals' ... done
End date and time: Fri Jan  3 19:51:14 2025  (Duration: 0-4:16:40.42)
Done!
