
*************** JDFTx 1.7.0  ***************

Start date and time: Fri Jan  3 15:34:33 2025
Executable jdftx_gpu with command-line: -i /home/akim2/JDFTx/Na2S@graphene_vdw-glyme/Na2S@graphene_vdw-glyme.in -o /home/akim2/JDFTx/Na2S@graphene_vdw-glyme/Na2S@graphene_vdw-glyme.out
Running on hosts (process indices):  exp-3-59 (0)
Divided in process groups (process indices):  0 (0)
gpuInit: Found compatible cuda device 0 'Tesla V100-SXM2-32GB'
gpuInit: Selected device 0
Resource initialization completed at t[s]:      0.66
Run totals: 1 processes, 1 threads, 1 GPUs


Input parsed successfully to the following command list (including defaults):

basis kpoint-dependent
coords-type Cartesian
core-overlap-check vector
coulomb-interaction Slab 001
coulomb-truncation-embed 0 0 23.6216
davidson-band-ratio 1.1
dump End State
dump-name Na2S@graphene_vdw-glyme.$VAR
elec-cutoff 20 100
elec-eigen-algo Davidson
elec-ex-corr gga-PBE
elec-smearing Fermi 0.01
electronic-minimize  \
	dirUpdateScheme      FletcherReeves \
	linminMethod         DirUpdateRecommended \
	nIterations          100 \
	history              15 \
	knormThreshold       0 \
	energyDiffThreshold  1e-08 \
	nEnergyDiff          2 \
	alphaTstart          1 \
	alphaTmin            1e-10 \
	updateTestStepSize   yes \
	alphaTreduceFactor   0.1 \
	alphaTincreaseFactor 3 \
	nAlphaAdjustMax      3 \
	wolfeEnergy          0.0001 \
	wolfeGradient        0.9 \
	fdTest               no
electronic-scf  \
	nIterations	50 \
	energyDiffThreshold	1e-08 \
	residualThreshold	1e-07 \
	mixFraction	0.5 \
	qMetric	0.8 \
	history	10 \
	nEigSteps	2 \
	eigDiffThreshold	1e-08 \
	mixedVariable	Density \
	qKerker	0.8 \
	qKappa	-1 \
	verbose	no \
	mixFractionMag	1.5
exchange-regularization WignerSeitzTruncated
fluid LinearPCM 298.000000 1.013250
fluid-ex-corr lda-TF lda-PZ
fluid-gummel-loop 10 1.000000e-05
fluid-minimize  \
	dirUpdateScheme      PolakRibiere \
	linminMethod         DirUpdateRecommended \
	nIterations          400 \
	history              15 \
	knormThreshold       1e-11 \
	energyDiffThreshold  0 \
	nEnergyDiff          2 \
	alphaTstart          1 \
	alphaTmin            1e-10 \
	updateTestStepSize   yes \
	alphaTreduceFactor   0.1 \
	alphaTincreaseFactor 3 \
	nAlphaAdjustMax      6 \
	wolfeEnergy          0.0001 \
	wolfeGradient        0.9 \
	fdTest               no
fluid-solvent Glyme 9.62137 ScalarEOS \
	epsBulk 7.2 \
	pMol 0 \
	epsInf 1.9 \
	Pvap 0 \
	sigmaBulk 0 \
	Rvdw 0 \
	Res 0 \
	tauNuc 343133
forces-output-coords Positions
ion C  28.014330944498511   0.004543279125116  23.502503101125598 1
ion C  16.346224761984317  20.218360617645246  23.502993663098884 1
ion C   2.341951358854215   4.043669653663128  23.490310836319793 1
ion C  23.346771763020477   0.004694323538036  23.498216754438761 1
ion C   4.676533615107807   0.003831167870708  23.498685821160176 1
ion C  11.678054281551246  20.219266980939235  23.483658915920575 1
ion C  25.678991858822329   4.044057917565260  23.508874346519622 1
ion C  18.680440079023036  16.175341055052883  23.519363020373817 1
ion C   4.678378946307143   8.082837906825780  23.450478296962348 1
ion C  18.679591829961794   0.004651883449718  23.497906461752532 1
ion C   9.344021241386271   0.003939820602881  23.497971918094969 1
ion C   9.343179295144006  16.179546258376917  23.440559991123497 1
ion C  23.344952959302244   8.086660760316342  23.526594918842108 1
ion C  21.013255319023163  12.130628672731959  23.533068712377567 1
ion C   7.010810918293329  12.130439914706225  23.408218476823503 1
ion C  14.011638440051723   0.004675982535733  23.500080963589497 1
ion C  14.013653392426466  16.179682814125560  23.490942159310400 1
ion C   7.009985775794462   4.042695467073137  23.470591829357346 1
ion C  21.013291932731093   4.045077802232385  23.513006219064938 1
ion C  16.350624679377603  12.130854488859232  23.519307394058586 1
ion C   9.341975123457070   8.082439809963612  23.444210730674989 1
ion C  16.347178860444394   4.043827620232956  23.505919979355681 1
ion C  11.677858690215984   4.043771058455998  23.484952942759385 1
ion C  11.678159369752152  12.132857297916649  23.454690384171027 1
ion C  18.681482078452035   8.086326334091167  23.524861551822386 1
ion C   7.010112726965763  20.219775011515857  23.468039107190911 1
ion C  -6.992566704966779  20.217126736754256  23.509976403571088 1
ion C   0.003722382936144   8.084160467465541  23.503769723969423 1
ion C  14.015611194154660   8.083728566235635  23.496206586410079 1
ion C   2.342012414452640  20.219269349376475  23.483529700959480 1
ion C  -4.659839113170444  16.175022385290934  23.519403838352229 1
ion C   2.340272699356768  12.133295251578309  23.466721493580362 1
ion C  -2.329652515957535  12.131279392765128  23.521465563713519 1
ion C  -2.325835858400934  20.218198754759452  23.503025749889876 1
ion C   4.676934166292030  16.180459821140062  23.443289622582263 1
ion C   0.006535367739357  16.179005456332462  23.492642979851283 1
ion C  14.012614104128019  21.564662341327953  23.497610658767908 1
ion C   2.342559863656532   1.350039232428767  23.498630044074449 1
ion C  25.680336124799918   1.350673880730549  23.503130018920771 1
ion C  16.347779963867701  17.524777462591612  23.506749577203493 1
ion C   4.676569179297269   5.388550549889562  23.470493183765313 1
ion C  21.013169836835772   1.350953932666499  23.502836393398102 1
ion C   7.010273391955430   1.349522317466488  23.489475541607618 1
ion C  11.677965474827904  17.525881516477941  23.470489180815424 1
ion C  23.346014665385979   5.392107415289417  23.516503618153557 1
ion C  18.682113859673748  13.480607069821957  23.529052710888060 1
ion C   7.010893386958772   9.433290904292258  23.423624878467532 1
ion C  16.345742170795607   1.350440673849301  23.501566578049186 1
ion C  11.677514623182249   1.350381876267648  23.495472449931800 1
ion C   9.340815429774427  13.484324941698592  23.421501805901219 1
ion C  21.013291563965343   9.435832073656103  23.532620953036144 1
ion C   9.344204363873716  21.565347915904500  23.482193298356805 1
ion C  -9.325686771384444  21.564080063724639  23.505591227172872 1
ion C   0.006761056121325   5.389669923082919  23.500903090099651 1
ion C  14.017579113974165  13.483470370900783  23.492212073749375 1
ion C   9.343498561894823   5.388844080703572  23.465479049935183 1
ion C  18.680518821978382   5.392076805376961  23.515607460000002 1
ion C  16.349213982122254   9.434616495215218  23.517573718404336 1
ion C  11.678293363441576   9.429643329434038  23.464048874449229 1
ion C  14.013392481832096   5.389036900754228  23.496451148110378 1
ion C   4.676056857796958  21.565336574920735  23.482133156414999 1
ion C  -6.992543014689888  17.522354508341369  23.519185585456739 1
ion C   2.340810440823758   9.430233358344413  23.475631470081868 1
ion C  -2.328817621644771   9.435398986909497  23.520625145778123 1
ion C  -4.659465462513320  21.563964974446471  23.505131012674862 1
ion C   7.010228734821794  17.526615730199584  23.446431787258852 1
ion C   0.007749976106235  21.564814451891710  23.495896088162482 1
ion C  -4.661248369483401  13.480394938390157  23.528644617442477 1
ion C   4.679286990612406  13.484291020280608  23.427457139843693 1
ion C   2.341994858908546  17.525729630397418  23.471843026130763 1
ion C  -2.327260500926807  17.524680271424181  23.506564360790222 1
ion C   0.002203245718183  13.483789064939169  23.497906276306175 1
ion S   7.350899320190606  11.764718324374256  31.361927556252461 1
ion Na   3.353004489488626  11.655350954426734  28.697606674687371 1
ion Na  11.355103972937918  11.747054047512222  28.712818410291860 1
ion-species GBRV/$ID_pbe.uspp
ion-width Ecut
ionic-minimize  \
	dirUpdateScheme      FletcherReeves \
	linminMethod         DirUpdateRecommended \
	nIterations          200 \
	history              15 \
	knormThreshold       0.0001 \
	energyDiffThreshold  1e-06 \
	nEnergyDiff          2 \
	alphaTstart          1 \
	alphaTmin            1e-10 \
	updateTestStepSize   yes \
	alphaTreduceFactor   0.1 \
	alphaTincreaseFactor 3 \
	nAlphaAdjustMax      3 \
	wolfeEnergy          0.0001 \
	wolfeGradient        0.9 \
	fdTest               no
kpoint   0.000000000000   0.000000000000   0.000000000000  1.00000000000000
kpoint-folding 1 1 1 
latt-move-scale 1 1 1
latt-scale 1 1 1 
lattice Triclinic 28.0058 28.0058 37.7946 90 90 120
lattice-minimize  \
	dirUpdateScheme      L-BFGS \
	linminMethod         DirUpdateRecommended \
	nIterations          0 \
	history              15 \
	knormThreshold       0 \
	energyDiffThreshold  1e-06 \
	nEnergyDiff          2 \
	alphaTstart          1 \
	alphaTmin            1e-10 \
	updateTestStepSize   yes \
	alphaTreduceFactor   0.1 \
	alphaTincreaseFactor 3 \
	nAlphaAdjustMax      3 \
	wolfeEnergy          0.0001 \
	wolfeGradient        0.9 \
	fdTest               no
lcao-params -1 1e-06 0.01
pcm-variant GLSSA13
spintype no-spin
subspace-rotation-factor 1 yes
symmetries automatic
symmetry-threshold 0.0001
van-der-waals D3



---------- Setting up symmetries ----------

Found 24 point-group symmetries of the bravais lattice
Found 1 space-group symmetries with basis
Applied RMS atom displacement 0 bohrs to make symmetries exact.

---------- Initializing the Grid ----------
R = 
[      28.0058     -14.0029            0  ]
[            0      24.2537            0  ]
[            0            0      37.7946  ]
unit cell volume = 25671.8
G =
[   0.224353    0.12953         -0  ]
[          0   0.259061          0  ]
[          0         -0   0.166246  ]
Minimum fftbox size, Smin = [  128  128  172  ]
Chosen fftbox size, S = [  128  128  180  ]

---------- Initializing tighter grid for wavefunction operations ----------
R = 
[      28.0058     -14.0029            0  ]
[            0      24.2537            0  ]
[            0            0      37.7946  ]
unit cell volume = 25671.8
G =
[   0.224353    0.12953         -0  ]
[          0   0.259061          0  ]
[          0         -0   0.166246  ]
Minimum fftbox size, Smin = [  116  116  156  ]
Chosen fftbox size, S = [  120  120  160  ]

---------- Exchange Correlation functional ----------
Initalized PBE GGA exchange.
Initalized PBE GGA correlation.

---------- Setting up pseudopotentials ----------
Width of ionic core gaussian charges (only for fluid interactions / plotting) set to 0.397384

Reading pseudopotential file '/home/akim2/jdftx_install/build/pseudopotentials/GBRV/c_pbe.uspp':
  Title: C.  Created by USPP 7.3.6 on 3-2-2014
  Reference state energy: -5.406344.  4 valence electrons in orbitals:
    |200>  occupation: 2  eigenvalue: -0.504890
    |210>  occupation: 2  eigenvalue: -0.194356
  lMax: 1  lLocal: 2  QijEcut: 5
  4 projectors sampled on a log grid with 503 points:
    l: 0  eig: -0.504890  rCut: 1.3
    l: 0  eig: 0.000000  rCut: 1.3
    l: 1  eig: -0.194357  rCut: 1.3
    l: 1  eig: 0.000000  rCut: 1.3
  Partial core density with radius 1.1
  Transforming core density to a uniform radial grid of dG=0.02 with 1625 points.
  Transforming local potential to a uniform radial grid of dG=0.02 with 1625 points.
  Transforming nonlocal projectors to a uniform radial grid of dG=0.02 with 432 points.
  Transforming density augmentations to a uniform radial grid of dG=0.02 with 1625 points.
  Transforming atomic orbitals to a uniform radial grid of dG=0.02 with 432 points.
  Core radius for overlap checks: 1.30 bohrs.

Reading pseudopotential file '/home/akim2/jdftx_install/build/pseudopotentials/GBRV/s_pbe.uspp':
  Title: S.  Created by USPP 7.3.6 on 1-4-15
  Reference state energy: -11.898476.  6 valence electrons in orbitals:
    |300>  occupation: 2  eigenvalue: -0.634167
    |310>  occupation: 4  eigenvalue: -0.257568
  lMax: 2  lLocal: 3  QijEcut: 6
  6 projectors sampled on a log grid with 635 points:
    l: 0  eig: -0.634161  rCut: 1.5
    l: 0  eig: 1.500000  rCut: 1.5
    l: 1  eig: -0.257567  rCut: 1.5
    l: 1  eig: 1.500000  rCut: 1.5
    l: 2  eig: -1.000000  rCut: 1.5
    l: 2  eig: 1.500000  rCut: 1.5
  Partial core density with radius 1.15
  Transforming core density to a uniform radial grid of dG=0.02 with 1625 points.
  Transforming local potential to a uniform radial grid of dG=0.02 with 1625 points.
  Transforming nonlocal projectors to a uniform radial grid of dG=0.02 with 432 points.
  Transforming density augmentations to a uniform radial grid of dG=0.02 with 1625 points.
  Transforming atomic orbitals to a uniform radial grid of dG=0.02 with 432 points.
  Core radius for overlap checks: 1.50 bohrs.

Reading pseudopotential file '/home/akim2/jdftx_install/build/pseudopotentials/GBRV/na_pbe.uspp':
  Title: Na.  Created by USPP 7.3.6 on 23-9-15
  Reference state energy: -47.625620.  9 valence electrons in orbitals:
    |200>  occupation: 2  eigenvalue: -2.085638
    |210>  occupation: 6  eigenvalue: -1.053708
    |300>  occupation: 1  eigenvalue: -0.100838
  lMax: 2  lLocal: 0  QijEcut: 6
  5 projectors sampled on a log grid with 657 points:
    l: 0  eig: -2.085640  rCut: 1.37
    l: 0  eig: -0.100839  rCut: 1.37
    l: 1  eig: -1.053708  rCut: 1.47
    l: 1  eig: 0.500000  rCut: 1.47
    l: 2  eig: 0.750000  rCut: 2
  Transforming local potential to a uniform radial grid of dG=0.02 with 1625 points.
  Transforming nonlocal projectors to a uniform radial grid of dG=0.02 with 432 points.
  Transforming density augmentations to a uniform radial grid of dG=0.02 with 1625 points.
  Transforming atomic orbitals to a uniform radial grid of dG=0.02 with 432 points.
  Core radius for overlap checks: 2.00 bohrs.

Initialized 3 species with 75 total atoms.

Folded 1 k-points by 1x1x1 to 1 k-points.

---------- Setting up k-points, bands, fillings ----------
No reducable k-points. 
Computing the number of bands and number of electrons
Calculating initial fillings.
nElectrons: 312.000000   nBands: 302   nStates: 1

----- Setting up reduced wavefunction bases (one per k-point) -----
average nbasis = 109673.000 , ideal nbasis = 109671.883

---------- Setting up coulomb interaction ----------
Fluid mode embedding: using embedded box, but periodic Coulomb kernel.
(Fluid response is responsible for (approximate) separation between periodic images.)
Setting up double-sized grid for truncated Coulomb potentials:
R = 
[      28.0058     -14.0029            0  ]
[            0      24.2537            0  ]
[            0            0      75.5892  ]
unit cell volume = 51343.6
G =
[   0.224353    0.12953         -0  ]
[          0   0.259061          0  ]
[          0         -0  0.0831228  ]
Chosen fftbox size, S = [  128  128  360  ]
Integer grid location selected as the embedding center:
   Grid: [  0  0  113  ]
   Lattice: [  0  0  0.625  ]
   Cartesian: [  0  0  23.6216  ]
Constructing Wigner-Seitz cell: 8 faces (6 quadrilaterals, 2 hexagons)
Range-separation parameter for embedded mesh potentials due to point charges: 0.590105 bohrs.

Initializing DFT-D3 calculator:
	Parameters set for gga-PBE functional
	s6:  1.000  s_r6:  1.217
	s8:  0.722  s_r8:  1.000
	Per-atom parameters loaded for:
	 C:  sqrtQ[a0]:  3.105  Rcov[a0]:  1.417  CN: [ 0.00 0.99 2.00 3.00 3.98 ]
	 S:  sqrtQ[a0]:  4.041  Rcov[a0]:  1.928  CN: [ 0.00 0.99 1.99 ]
	Na:  sqrtQ[a0]:  6.586  Rcov[a0]:  2.646  CN: [ 0.00 0.97 ]

---------- Setting up ewald sum ----------
Optimum gaussian width for ewald sums = 7.220412 bohr.
Real space sum over 405 unit cells with max indices [  4  4  2  ]
Reciprocal space sum over 7875 terms with max indices [  7  7  17  ]

Computing DFT-D3 correction:
# coordination-number C 3.301 3.301 3.301 3.301 3.301 3.301 3.301 3.301 3.366 3.301 3.301 3.320 3.301 3.301 3.402 3.301 3.313 3.302 3.301 3.316 3.343 3.301 3.302 3.897 3.301 3.302 3.301 3.319 3.328 3.301 3.300 3.846 3.307 3.301 3.323 3.308 3.301 3.301 3.301 3.301 3.304 3.301 3.301 3.307 3.301 3.302 3.353 3.301 3.301 3.505 3.301 3.301 3.301 3.302 3.436 3.304 3.301 3.309 3.582 3.302 3.301 3.301 3.572 3.304 3.301 3.305 3.301 3.301 3.592 3.306 3.301 3.368
# coordination-number S 1.981
# coordination-number Na 2.588 2.568
# diagonal-C6 C 24.27 24.27 24.27 24.27 24.27 24.27 24.27 24.28 23.55 24.27 24.27 24.09 24.27 24.28 23.08 24.27 24.15 24.26 24.27 24.12 23.83 24.27 24.27 18.47 24.27 24.27 24.28 24.10 23.99 24.27 24.28 18.59 24.21 24.28 24.05 24.21 24.27 24.27 24.27 24.27 24.24 24.27 24.27 24.22 24.28 24.27 23.71 24.27 24.27 21.57 24.28 24.27 24.27 24.26 22.60 24.25 24.28 24.20 20.49 24.26 24.27 24.27 20.63 24.24 24.27 24.24 24.27 24.27 20.38 24.23 24.27 23.52
# diagonal-C6 S 125.91
# diagonal-C6 Na 186.11 186.11
EvdW_6 =   -0.057687
EvdW_8 =   -0.049284

---------- Allocating electronic variables ----------
Initializing wave functions:  linear combination of atomic orbitals
C pseudo-atom occupations:   s ( 2 )  p ( 2 )
S pseudo-atom occupations:   s ( 2 )  p ( 4 )
Na pseudo-atom occupations:   s ( 2 1 )  p ( 6 )
	FillingsUpdate:  mu: -0.219601975  nElectrons: 312.000000
LCAOMinimize: Iter:   0  F: -512.6625313949288056  |grad|_K:  4.638e-03  alpha:  1.000e+00
LCAOMinimize: 	Step increased F by 3.590338e-01, reducing alpha to 3.983072e-02.
	FillingsUpdate:  mu: -0.232533138  nElectrons: 312.000000
LCAOMinimize: Iter:   1  F: -512.7005010392582562  |grad|_K:  7.214e-04  alpha:  3.983e-02  linmin:  2.755e-02  cgtest: -9.961e-02  t[s]:     10.28
LCAOMinimize: 	Predicted alpha/alphaT>3.000000, increasing alphaT to 1.194922e-01.
	FillingsUpdate:  mu: -0.233175594  nElectrons: 312.000000
LCAOMinimize: Iter:   2  F: -512.7085038906570844  |grad|_K:  4.453e-04  alpha:  3.455e-01  linmin:  4.753e-03  cgtest: -1.862e-02  t[s]:     12.32
	FillingsUpdate:  mu: -0.236763371  nElectrons: 312.000000
LCAOMinimize: Iter:   3  F: -512.7110015701879320  |grad|_K:  6.576e-04  alpha:  2.769e-01  linmin:  3.775e-04  cgtest:  3.046e-02  t[s]:     13.88
	FillingsUpdate:  mu: -0.234946890  nElectrons: 312.000000
LCAOMinimize: Iter:   4  F: -512.7121584928430593  |grad|_K:  7.810e-05  alpha:  6.215e-02  linmin:  2.355e-02  cgtest: -6.624e-02  t[s]:     19.03
LCAOMinimize: 	Predicted alpha/alphaT>3.000000, increasing alphaT to 1.864560e-01.
	FillingsUpdate:  mu: -0.235486819  nElectrons: 312.000000
LCAOMinimize: Iter:   5  F: -512.7122927320846202  |grad|_K:  4.534e-05  alpha:  5.182e-01  linmin:  1.222e-03  cgtest:  1.274e-01  t[s]:     23.18
	FillingsUpdate:  mu: -0.234954508  nElectrons: 312.000000
LCAOMinimize: Iter:   6  F: -512.7123068036543145  |grad|_K:  5.647e-05  alpha:  1.505e-01  linmin:  3.881e-04  cgtest: -6.643e-03  t[s]:     24.87
	FillingsUpdate:  mu: -0.235399947  nElectrons: 312.000000
LCAOMinimize: Iter:   7  F: -512.7123207550096140  |grad|_K:  1.547e-05  alpha:  9.569e-02  linmin:  1.566e-06  cgtest:  1.702e-02  t[s]:     27.49
LCAOMinimize: 	Predicted alpha/alphaT>3.000000, increasing alphaT to 2.870722e-01.
	FillingsUpdate:  mu: -0.235389908  nElectrons: 312.000000
LCAOMinimize: Iter:   8  F: -512.7123243296144892  |grad|_K:  4.560e-06  alpha:  3.254e-01  linmin: -5.242e-05  cgtest: -3.819e-03  t[s]:     29.61
	FillingsUpdate:  mu: -0.235434525  nElectrons: 312.000000
LCAOMinimize: Iter:   9  F: -512.7123246474881171  |grad|_K:  6.226e-06  alpha:  3.330e-01  linmin:  3.035e-05  cgtest:  2.321e-04  t[s]:     31.22
	FillingsUpdate:  mu: -0.235382830  nElectrons: 312.000000
LCAOMinimize: Iter:  10  F: -512.7123247473665515  |grad|_K:  1.556e-06  alpha:  5.624e-02  linmin:  4.965e-04  cgtest: -3.775e-03  t[s]:     32.81
LCAOMinimize: Converged (|Delta F|<1.000000e-06 for 2 iters).
----- createFluidSolver() ----- (Fluid-side solver setup)
   Initializing fluid molecule 'Glyme'
     Net charge: 0   dipole magnitude: 0
     Initializing spherical shell mfKernel with radius 0 Bohr
     deltaS corrections:

Correction to mu due to finite nuclear width = -0.00602931
   Cavity determined by nc: 8.36e-05 and sigma: 0.6
   Effective cavity tension: -8.03e-06 Eh/bohr^2 to account for cavitation and dispersion.


---- Citations for features of the code used in this run ----

   Software package:
      R. Sundararaman, K. Letchworth-Weaver, K.A. Schwarz, D. Gunceler, Y. Ozhabes and T.A. Arias, 'JDFTx: software for joint density-functional theory', SoftwareX 6, 278 (2017)

   gga-PBE exchange-correlation functional:
      J.P. Perdew, K. Burke and M. Ernzerhof, Phys. Rev. Lett. 77, 3865 (1996)

   Pseudopotentials:
      KF Garrity, JW Bennett, KM Rabe and D Vanderbilt, Comput. Mater. Sci. 81, 446 (2014)

   Truncated Coulomb potentials:
      R. Sundararaman and T.A. Arias, Phys. Rev. B 87, 165122 (2013)

   DFT-D3 dispersion correction:
      S. Grimme, J. Antony, S. Ehrlich and H. Krieg, J. Chem. Phys. 132, 154104 (2010)

   Linear/nonlinear dielectric/ionic fluid model with effective cavity tension:
      D. Gunceler, K. Letchworth-Weaver, R. Sundararaman, K.A. Schwarz and T.A. Arias, Modelling Simul. Mater. Sci. Eng. 21, 074005 (2013)

This list may not be complete. Please suggest additional citations or
report any other bugs at https://github.com/shankar1729/jdftx/issues

Initialization completed successfully at t[s]:     32.97


Computing DFT-D3 correction:
# coordination-number C 3.301 3.301 3.301 3.301 3.301 3.301 3.301 3.301 3.366 3.301 3.301 3.320 3.301 3.301 3.402 3.301 3.313 3.302 3.301 3.316 3.343 3.301 3.302 3.897 3.301 3.302 3.301 3.319 3.328 3.301 3.300 3.846 3.307 3.301 3.323 3.308 3.301 3.301 3.301 3.301 3.304 3.301 3.301 3.307 3.301 3.302 3.353 3.301 3.301 3.505 3.301 3.301 3.301 3.302 3.436 3.304 3.301 3.309 3.582 3.302 3.301 3.301 3.572 3.304 3.301 3.305 3.301 3.301 3.592 3.306 3.301 3.368
# coordination-number S 1.981
# coordination-number Na 2.588 2.568
# diagonal-C6 C 24.27 24.27 24.27 24.27 24.27 24.27 24.27 24.28 23.55 24.27 24.27 24.09 24.27 24.28 23.08 24.27 24.15 24.26 24.27 24.12 23.83 24.27 24.27 18.47 24.27 24.27 24.28 24.10 23.99 24.27 24.28 18.59 24.21 24.28 24.05 24.21 24.27 24.27 24.27 24.27 24.24 24.27 24.27 24.22 24.28 24.27 23.71 24.27 24.27 21.57 24.28 24.27 24.27 24.26 22.60 24.25 24.28 24.20 20.49 24.26 24.27 24.27 20.63 24.24 24.27 24.24 24.27 24.27 20.38 24.23 24.27 23.52
# diagonal-C6 S 125.91
# diagonal-C6 Na 186.11 186.11
EvdW_6 =   -0.057687
EvdW_8 =   -0.049284
Fluid solver invoked on fresh (random / LCAO) wavefunctions
Running a vacuum solve first:

-------- Initial electronic minimization -----------
Will mix electronic density at each iteration.
	FillingsUpdate:  mu: -0.235382830  nElectrons: 312.000000
	FillingsUpdate:  mu: -0.242841170  nElectrons: 312.000000
SCF: Cycle:  0   F: -516.116111642063856   dF: -3.404e+00   |Residual|: 9.419e-01   |deigs|: 1.237e-01  t[s]:     39.02
	FillingsUpdate:  mu: -0.216344054  nElectrons: 312.000000
SCF: Cycle:  1   F: -516.563036323376082   dF: -4.469e-01   |Residual|: 4.934e-01   |deigs|: 3.678e-02  t[s]:     42.18
	FillingsUpdate:  mu: -0.181398467  nElectrons: 312.000000
SCF: Cycle:  2   F: -516.764407333590498   dF: -2.014e-01   |Residual|: 1.961e-01   |deigs|: 2.970e-02  t[s]:     45.41
	FillingsUpdate:  mu: -0.176081436  nElectrons: 312.000000
SCF: Cycle:  3   F: -516.874061856998651   dF: -1.097e-01   |Residual|: 1.013e-01   |deigs|: 1.176e-02  t[s]:     48.57
	FillingsUpdate:  mu: -0.166833756  nElectrons: 312.000000
SCF: Cycle:  4   F: -516.945033458840044   dF: -7.097e-02   |Residual|: 6.938e-02   |deigs|: 6.795e-03  t[s]:     51.76
	FillingsUpdate:  mu: -0.158149654  nElectrons: 312.000000
SCF: Cycle:  5   F: -516.953961092008058   dF: -8.928e-03   |Residual|: 3.194e-02   |deigs|: 9.606e-03  t[s]:     54.98
	FillingsUpdate:  mu: -0.148488493  nElectrons: 312.000000
SCF: Cycle:  6   F: -516.965434393082205   dF: -1.147e-02   |Residual|: 1.750e-02   |deigs|: 8.302e-03  t[s]:     58.02
	FillingsUpdate:  mu: -0.143581994  nElectrons: 312.000000
SCF: Cycle:  7   F: -516.967273850632864   dF: -1.839e-03   |Residual|: 1.562e-02   |deigs|: 5.030e-03  t[s]:     61.01
	FillingsUpdate:  mu: -0.139990562  nElectrons: 312.000000
SCF: Cycle:  8   F: -516.967400149723630   dF: -1.263e-04   |Residual|: 1.131e-02   |deigs|: 3.598e-03  t[s]:     63.91
	FillingsUpdate:  mu: -0.136577335  nElectrons: 312.000000
SCF: Cycle:  9   F: -516.968692979751495   dF: -1.293e-03   |Residual|: 1.069e-02   |deigs|: 2.828e-03  t[s]:     66.88
	FillingsUpdate:  mu: -0.135222529  nElectrons: 312.000000
SCF: Cycle: 10   F: -516.968561372535419   dF: +1.316e-04   |Residual|: 9.379e-03   |deigs|: 1.580e-03  t[s]:     69.93
	FillingsUpdate:  mu: -0.132586481  nElectrons: 312.000000
SCF: Cycle: 11   F: -516.969300445024828   dF: -7.391e-04   |Residual|: 7.759e-03   |deigs|: 1.935e-03  t[s]:     72.68
	FillingsUpdate:  mu: -0.131315334  nElectrons: 312.000000
SCF: Cycle: 12   F: -516.969656886821099   dF: -3.564e-04   |Residual|: 6.263e-03   |deigs|: 1.336e-03  t[s]:     75.42
	FillingsUpdate:  mu: -0.128583523  nElectrons: 312.000000
SCF: Cycle: 13   F: -516.969562000629935   dF: +9.489e-05   |Residual|: 5.793e-03   |deigs|: 2.318e-03  t[s]:     78.18
	FillingsUpdate:  mu: -0.126127472  nElectrons: 312.000000
SCF: Cycle: 14   F: -516.969833392639771   dF: -2.714e-04   |Residual|: 2.959e-03   |deigs|: 2.944e-03  t[s]:     80.94
	FillingsUpdate:  mu: -0.124633140  nElectrons: 312.000000
SCF: Cycle: 15   F: -516.969804840527331   dF: +2.855e-05   |Residual|: 2.294e-03   |deigs|: 1.773e-03  t[s]:     83.73
	FillingsUpdate:  mu: -0.123291889  nElectrons: 312.000000
SCF: Cycle: 16   F: -516.969838246839913   dF: -3.341e-05   |Residual|: 1.384e-03   |deigs|: 1.532e-03  t[s]:     86.51
	FillingsUpdate:  mu: -0.122718983  nElectrons: 312.000000
SCF: Cycle: 17   F: -516.969845457595625   dF: -7.211e-06   |Residual|: 1.158e-03   |deigs|: 8.422e-04  t[s]:     89.27
	FillingsUpdate:  mu: -0.122345381  nElectrons: 312.000000
SCF: Cycle: 18   F: -516.969861192360895   dF: -1.573e-05   |Residual|: 9.569e-04   |deigs|: 5.489e-04  t[s]:     92.03
	FillingsUpdate:  mu: -0.121636741  nElectrons: 312.000000
SCF: Cycle: 19   F: -516.969869703286008   dF: -8.511e-06   |Residual|: 7.914e-04   |deigs|: 8.083e-04  t[s]:     94.81
	FillingsUpdate:  mu: -0.120953811  nElectrons: 312.000000
SCF: Cycle: 20   F: -516.969871129554576   dF: -1.426e-06   |Residual|: 6.684e-04   |deigs|: 9.411e-04  t[s]:     97.53
	FillingsUpdate:  mu: -0.120640352  nElectrons: 312.000000
SCF: Cycle: 21   F: -516.969871970461099   dF: -8.409e-07   |Residual|: 5.018e-04   |deigs|: 7.088e-04  t[s]:    100.28
	FillingsUpdate:  mu: -0.120397947  nElectrons: 312.000000
SCF: Cycle: 22   F: -516.969875470324723   dF: -3.500e-06   |Residual|: 3.676e-04   |deigs|: 1.008e-03  t[s]:    102.99
	FillingsUpdate:  mu: -0.120337593  nElectrons: 312.000000
SCF: Cycle: 23   F: -516.969877039240487   dF: -1.569e-06   |Residual|: 2.903e-04   |deigs|: 4.140e-04  t[s]:    105.74
	FillingsUpdate:  mu: -0.120204952  nElectrons: 312.000000
SCF: Cycle: 24   F: -516.969878548677571   dF: -1.509e-06   |Residual|: 2.261e-04   |deigs|: 4.286e-04  t[s]:    108.52
	FillingsUpdate:  mu: -0.120182464  nElectrons: 312.000000
SCF: Cycle: 25   F: -516.969878706584041   dF: -1.579e-07   |Residual|: 1.561e-04   |deigs|: 1.826e-04  t[s]:    111.25
	FillingsUpdate:  mu: -0.120186535  nElectrons: 312.000000
SCF: Cycle: 26   F: -516.969878829800678   dF: -1.232e-07   |Residual|: 1.095e-04   |deigs|: 4.354e-04  t[s]:    114.00
	FillingsUpdate:  mu: -0.120191973  nElectrons: 312.000000
SCF: Cycle: 27   F: -516.969878959155722   dF: -1.294e-07   |Residual|: 8.944e-05   |deigs|: 8.326e-05  t[s]:    116.79
	FillingsUpdate:  mu: -0.120186247  nElectrons: 312.000000
SCF: Cycle: 28   F: -516.969878968828311   dF: -9.673e-09   |Residual|: 6.891e-05   |deigs|: 1.612e-04  t[s]:    119.52
	FillingsUpdate:  mu: -0.120179672  nElectrons: 312.000000
SCF: Cycle: 29   F: -516.969879002478933   dF: -3.365e-08   |Residual|: 5.139e-05   |deigs|: 2.018e-04  t[s]:    122.26
	FillingsUpdate:  mu: -0.120161917  nElectrons: 312.000000
SCF: Cycle: 30   F: -516.969878996789703   dF: +5.689e-09   |Residual|: 4.238e-05   |deigs|: 2.370e-04  t[s]:    125.00
	FillingsUpdate:  mu: -0.120149102  nElectrons: 312.000000
SCF: Cycle: 31   F: -516.969879011206103   dF: -1.442e-08   |Residual|: 3.171e-05   |deigs|: 1.913e-04  t[s]:    127.75
	FillingsUpdate:  mu: -0.120136079  nElectrons: 312.000000
SCF: Cycle: 32   F: -516.969879018861207   dF: -7.655e-09   |Residual|: 1.937e-05   |deigs|: 2.358e-04  t[s]:    130.51
	FillingsUpdate:  mu: -0.120125216  nElectrons: 312.000000
SCF: Cycle: 33   F: -516.969879020843678   dF: -1.982e-09   |Residual|: 1.841e-05   |deigs|: 1.699e-04  t[s]:    137.07
SCF: Converged (|Delta E|<1.000000e-08 for 2 iters).

Setting wave functions to eigenvectors of Hamiltonian
Vacuum energy after initial minimize, F = -516.969879020843678


-------- Electronic minimization -----------
Will mix electronic density at each iteration.
	FillingsUpdate:  mu: -0.120125216  nElectrons: 312.000000
	Linear fluid (dielectric constant: 7.2) occupying 0.850744 of unit cell:	Completed after 13 iterations at t[s]:    138.06
	FillingsUpdate:  mu: -0.121504376  nElectrons: 312.000000
	Linear fluid (dielectric constant: 7.2) occupying 0.851806 of unit cell:	Completed after 9 iterations at t[s]:    141.97
SCF: Cycle:  0   F: -516.993393244669051   dF: +6.934e-03   |Residual|: 3.752e-02   |deigs|: 3.970e-03  t[s]:    142.14
	Linear fluid (dielectric constant: 7.2) occupying 0.851239 of unit cell:	Completed after 9 iterations at t[s]:    142.35
	FillingsUpdate:  mu: -0.119174009  nElectrons: 312.000000
	Linear fluid (dielectric constant: 7.2) occupying 0.851852 of unit cell:	Completed after 11 iterations at t[s]:    145.58
SCF: Cycle:  1   F: -516.991817763368431   dF: +1.575e-03   |Residual|: 4.330e-02   |deigs|: 1.880e-03  t[s]:    145.75
	Linear fluid (dielectric constant: 7.2) occupying 0.851120 of unit cell:	Completed after 11 iterations at t[s]:    145.98
	FillingsUpdate:  mu: -0.120541294  nElectrons: 312.000000
	Linear fluid (dielectric constant: 7.2) occupying 0.851958 of unit cell:	Completed after 10 iterations at t[s]:    149.19
SCF: Cycle:  2   F: -517.007544468879360   dF: -1.573e-02   |Residual|: 7.716e-03   |deigs|: 9.214e-04  t[s]:    149.37
	Linear fluid (dielectric constant: 7.2) occupying 0.851363 of unit cell:	Completed after 9 iterations at t[s]:    149.57
	FillingsUpdate:  mu: -0.120023984  nElectrons: 312.000000
	Linear fluid (dielectric constant: 7.2) occupying 0.852219 of unit cell:	Completed after 10 iterations at t[s]:    152.98
SCF: Cycle:  3   F: -517.008577661163258   dF: -1.033e-03   |Residual|: 5.682e-03   |deigs|: 6.955e-04  t[s]:    153.14
	Linear fluid (dielectric constant: 7.2) occupying 0.851470 of unit cell:	Completed after 9 iterations at t[s]:    153.35
	FillingsUpdate:  mu: -0.119677399  nElectrons: 312.000000
	Linear fluid (dielectric constant: 7.2) occupying 0.852433 of unit cell:	Completed after 10 iterations at t[s]:    156.69
SCF: Cycle:  4   F: -517.009177028370800   dF: -5.994e-04   |Residual|: 3.643e-03   |deigs|: 5.549e-04  t[s]:    156.86
	Linear fluid (dielectric constant: 7.2) occupying 0.851728 of unit cell:	Completed after 8 iterations at t[s]:    157.05
	FillingsUpdate:  mu: -0.118789914  nElectrons: 312.000000
	Linear fluid (dielectric constant: 7.2) occupying 0.852636 of unit cell:	Completed after 10 iterations at t[s]:    160.37
SCF: Cycle:  5   F: -517.009535681301713   dF: -3.587e-04   |Residual|: 6.101e-03   |deigs|: 9.845e-04  t[s]:    160.55
	Linear fluid (dielectric constant: 7.2) occupying 0.851767 of unit cell:	Completed after 9 iterations at t[s]:    160.75
	FillingsUpdate:  mu: -0.118703385  nElectrons: 312.000000
	Linear fluid (dielectric constant: 7.2) occupying 0.852641 of unit cell:	Completed after 10 iterations at t[s]:    163.71
SCF: Cycle:  6   F: -517.009707957638170   dF: -1.723e-04   |Residual|: 5.652e-03   |deigs|: 1.353e-04  t[s]:    163.88
	Linear fluid (dielectric constant: 7.2) occupying 0.851966 of unit cell:	Completed after 9 iterations at t[s]:    164.08
	FillingsUpdate:  mu: -0.118129590  nElectrons: 312.000000
	Linear fluid (dielectric constant: 7.2) occupying 0.852606 of unit cell:	Completed after 9 iterations at t[s]:    167.42
SCF: Cycle:  7   F: -517.010409909978193   dF: -7.020e-04   |Residual|: 3.920e-03   |deigs|: 9.243e-04  t[s]:    167.59
	Linear fluid (dielectric constant: 7.2) occupying 0.851993 of unit cell:	Completed after 8 iterations at t[s]:    167.79
	FillingsUpdate:  mu: -0.117857273  nElectrons: 312.000000
	Linear fluid (dielectric constant: 7.2) occupying 0.852577 of unit cell:	Completed after 8 iterations at t[s]:    171.10
SCF: Cycle:  8   F: -517.010667138910776   dF: -2.572e-04   |Residual|: 3.212e-03   |deigs|: 4.733e-04  t[s]:    171.28
	Linear fluid (dielectric constant: 7.2) occupying 0.851874 of unit cell:	Completed after 9 iterations at t[s]:    171.49
	FillingsUpdate:  mu: -0.117699483  nElectrons: 312.000000
	Linear fluid (dielectric constant: 7.2) occupying 0.852565 of unit cell:	Completed after 8 iterations at t[s]:    174.76
SCF: Cycle:  9   F: -517.010915552995584   dF: -2.484e-04   |Residual|: 1.276e-03   |deigs|: 5.760e-04  t[s]:    174.93
	Linear fluid (dielectric constant: 7.2) occupying 0.852011 of unit cell:	Completed after 7 iterations at t[s]:    175.13
	FillingsUpdate:  mu: -0.117715636  nElectrons: 312.000000
	Linear fluid (dielectric constant: 7.2) occupying 0.852504 of unit cell:	Completed after 7 iterations at t[s]:    178.06
SCF: Cycle: 10   F: -517.010958504873770   dF: -4.295e-05   |Residual|: 6.981e-04   |deigs|: 4.551e-04  t[s]:    178.23
	Linear fluid (dielectric constant: 7.2) occupying 0.852248 of unit cell:	Completed after 7 iterations at t[s]:    178.42
	FillingsUpdate:  mu: -0.117658483  nElectrons: 312.000000
	Linear fluid (dielectric constant: 7.2) occupying 0.852447 of unit cell:	Completed after 6 iterations at t[s]:    181.32
SCF: Cycle: 11   F: -517.010970434435194   dF: -1.193e-05   |Residual|: 8.449e-04   |deigs|: 4.088e-04  t[s]:    181.48
	Linear fluid (dielectric constant: 7.2) occupying 0.852325 of unit cell:	Completed after 7 iterations at t[s]:    181.68
	FillingsUpdate:  mu: -0.117641676  nElectrons: 312.000000
	Linear fluid (dielectric constant: 7.2) occupying 0.852445 of unit cell:	Completed after 7 iterations at t[s]:    184.50
SCF: Cycle: 12   F: -517.010983204814124   dF: -1.277e-05   |Residual|: 4.751e-04   |deigs|: 4.709e-04  t[s]:    184.67
	Linear fluid (dielectric constant: 7.2) occupying 0.852400 of unit cell:	Completed after 6 iterations at t[s]:    184.85
	FillingsUpdate:  mu: -0.117702637  nElectrons: 312.000000
	Linear fluid (dielectric constant: 7.2) occupying 0.852463 of unit cell:	Completed after 6 iterations at t[s]:    187.67
SCF: Cycle: 13   F: -517.010987596128871   dF: -4.391e-06   |Residual|: 4.007e-04   |deigs|: 4.040e-04  t[s]:    187.83
	Linear fluid (dielectric constant: 7.2) occupying 0.852370 of unit cell:	Completed after 7 iterations at t[s]:    188.02
	FillingsUpdate:  mu: -0.117748836  nElectrons: 312.000000
	Linear fluid (dielectric constant: 7.2) occupying 0.852497 of unit cell:	Completed after 6 iterations at t[s]:    190.86
SCF: Cycle: 14   F: -517.010986036628992   dF: +1.559e-06   |Residual|: 4.168e-04   |deigs|: 2.897e-04  t[s]:    191.02
	Linear fluid (dielectric constant: 7.2) occupying 0.852349 of unit cell:	Completed after 7 iterations at t[s]:    191.21
	FillingsUpdate:  mu: -0.117779205  nElectrons: 312.000000
	Linear fluid (dielectric constant: 7.2) occupying 0.852501 of unit cell:	Completed after 6 iterations at t[s]:    194.06
SCF: Cycle: 15   F: -517.010987081146254   dF: -1.045e-06   |Residual|: 3.454e-04   |deigs|: 1.948e-04  t[s]:    194.23
	Linear fluid (dielectric constant: 7.2) occupying 0.852369 of unit cell:	Completed after 6 iterations at t[s]:    194.41
	FillingsUpdate:  mu: -0.117794696  nElectrons: 312.000000
	Linear fluid (dielectric constant: 7.2) occupying 0.852506 of unit cell:	Completed after 6 iterations at t[s]:    197.26
SCF: Cycle: 16   F: -517.010988261051466   dF: -1.180e-06   |Residual|: 3.270e-04   |deigs|: 2.341e-04  t[s]:    197.42
	Linear fluid (dielectric constant: 7.2) occupying 0.852454 of unit cell:	Completed after 5 iterations at t[s]:    197.59
	FillingsUpdate:  mu: -0.117775188  nElectrons: 312.000000
	Linear fluid (dielectric constant: 7.2) occupying 0.852483 of unit cell:	Completed after 5 iterations at t[s]:    200.41
SCF: Cycle: 17   F: -517.010991053876296   dF: -2.793e-06   |Residual|: 2.127e-04   |deigs|: 4.542e-04  t[s]:    200.57
	Linear fluid (dielectric constant: 7.2) occupying 0.852481 of unit cell:	Completed after 4 iterations at t[s]:    200.72
	FillingsUpdate:  mu: -0.117774371  nElectrons: 312.000000
	Linear fluid (dielectric constant: 7.2) occupying 0.852481 of unit cell:	Completed after 4 iterations at t[s]:    203.49
SCF: Cycle: 18   F: -517.010991766322604   dF: -7.124e-07   |Residual|: 2.297e-04   |deigs|: 2.856e-04  t[s]:    203.64
	Linear fluid (dielectric constant: 7.2) occupying 0.852494 of unit cell:	Completed after 4 iterations at t[s]:    203.81
	FillingsUpdate:  mu: -0.117768946  nElectrons: 312.000000
	Linear fluid (dielectric constant: 7.2) occupying 0.852481 of unit cell:	Completed after 4 iterations at t[s]:    206.66
SCF: Cycle: 19   F: -517.010992452224173   dF: -6.859e-07   |Residual|: 1.028e-04   |deigs|: 2.029e-04  t[s]:    206.81
	Linear fluid (dielectric constant: 7.2) occupying 0.852486 of unit cell:	Completed after 3 iterations at t[s]:    206.95
	FillingsUpdate:  mu: -0.117778828  nElectrons: 312.000000
	Linear fluid (dielectric constant: 7.2) occupying 0.852484 of unit cell:	Completed after 3 iterations at t[s]:    209.77
SCF: Cycle: 20   F: -517.010992682976735   dF: -2.308e-07   |Residual|: 7.542e-05   |deigs|: 1.421e-04  t[s]:    209.92
	Linear fluid (dielectric constant: 7.2) occupying 0.852468 of unit cell:	Completed after 2 iterations at t[s]:    210.05
	FillingsUpdate:  mu: -0.117788834  nElectrons: 312.000000
	Linear fluid (dielectric constant: 7.2) occupying 0.852484 of unit cell:	Completed after 2 iterations at t[s]:    212.90
SCF: Cycle: 21   F: -517.010992554294717   dF: +1.287e-07   |Residual|: 1.793e-04   |deigs|: 2.075e-04  t[s]:    213.04
	Linear fluid (dielectric constant: 7.2) occupying 0.852470 of unit cell:	Completed after 2 iterations at t[s]:    213.18
	FillingsUpdate:  mu: -0.117785097  nElectrons: 312.000000
	Linear fluid (dielectric constant: 7.2) occupying 0.852485 of unit cell:	Completed after 2 iterations at t[s]:    216.02
SCF: Cycle: 22   F: -517.010992826213965   dF: -2.719e-07   |Residual|: 7.241e-05   |deigs|: 5.815e-05  t[s]:    216.16
	Linear fluid (dielectric constant: 7.2) occupying 0.852460 of unit cell:	Completed after 2 iterations at t[s]:    216.30
	FillingsUpdate:  mu: -0.117792794  nElectrons: 312.000000
	Linear fluid (dielectric constant: 7.2) occupying 0.852482 of unit cell:	Completed after 2 iterations at t[s]:    219.06
SCF: Cycle: 23   F: -517.010992892289323   dF: -6.608e-08   |Residual|: 7.184e-05   |deigs|: 2.299e-04  t[s]:    219.20
	Linear fluid (dielectric constant: 7.2) occupying 0.852460 of unit cell:	Completed after 2 iterations at t[s]:    219.34
	FillingsUpdate:  mu: -0.117795081  nElectrons: 312.000000
	Linear fluid (dielectric constant: 7.2) occupying 0.852481 of unit cell:	Completed after 1 iterations at t[s]:    222.10
SCF: Cycle: 24   F: -517.010992950103741   dF: -5.781e-08   |Residual|: 3.976e-05   |deigs|: 2.340e-04  t[s]:    222.24
	Linear fluid (dielectric constant: 7.2) occupying 0.852462 of unit cell:	Completed after 2 iterations at t[s]:    222.38
	FillingsUpdate:  mu: -0.117800893  nElectrons: 312.000000
	Linear fluid (dielectric constant: 7.2) occupying 0.852480 of unit cell:	Completed after 2 iterations at t[s]:    225.12
SCF: Cycle: 25   F: -517.010992896946163   dF: +5.316e-08   |Residual|: 7.248e-05   |deigs|: 1.464e-04  t[s]:    225.27
	Linear fluid (dielectric constant: 7.2) occupying 0.852467 of unit cell:	Completed after 2 iterations at t[s]:    225.41
	FillingsUpdate:  mu: -0.117803925  nElectrons: 312.000000
	Linear fluid (dielectric constant: 7.2) occupying 0.852480 of unit cell:	Completed after 2 iterations at t[s]:    228.14
SCF: Cycle: 26   F: -517.010992931396686   dF: -3.445e-08   |Residual|: 4.378e-05   |deigs|: 1.187e-04  t[s]:    228.29
	Linear fluid (dielectric constant: 7.2) occupying 0.852472 of unit cell:	Completed after 2 iterations at t[s]:    228.43
	FillingsUpdate:  mu: -0.117806481  nElectrons: 312.000000
	Linear fluid (dielectric constant: 7.2) occupying 0.852480 of unit cell:	Completed after 2 iterations at t[s]:    231.17
SCF: Cycle: 27   F: -517.010992955553320   dF: -2.416e-08   |Residual|: 1.996e-05   |deigs|: 7.277e-05  t[s]:    231.32
	Linear fluid (dielectric constant: 7.2) occupying 0.852473 of unit cell:	Completed after 2 iterations at t[s]:    231.45
	FillingsUpdate:  mu: -0.117807772  nElectrons: 312.000000
	Linear fluid (dielectric constant: 7.2) occupying 0.852480 of unit cell:	Completed after 2 iterations at t[s]:    234.14
SCF: Cycle: 28   F: -517.010992960167982   dF: -4.615e-09   |Residual|: 2.456e-05   |deigs|: 1.973e-05  t[s]:    234.28
	Linear fluid (dielectric constant: 7.2) occupying 0.852475 of unit cell:	Completed after 1 iterations at t[s]:    234.40
	FillingsUpdate:  mu: -0.117811046  nElectrons: 312.000000
	Linear fluid (dielectric constant: 7.2) occupying 0.852481 of unit cell:	Completed after 1 iterations at t[s]:    237.39
SCF: Cycle: 29   F: -517.010992995874290   dF: -3.571e-08   |Residual|: 1.452e-05   |deigs|: 7.081e-05  t[s]:    237.53
	Linear fluid (dielectric constant: 7.2) occupying 0.852477 of unit cell:	Completed after 0 iterations at t[s]:    237.64
	FillingsUpdate:  mu: -0.117808938  nElectrons: 312.000000
	Linear fluid (dielectric constant: 7.2) occupying 0.852481 of unit cell:	Completed after 2 iterations at t[s]:    240.39
SCF: Cycle: 30   F: -517.010992959344321   dF: +3.653e-08   |Residual|: 6.528e-05   |deigs|: 9.433e-05  t[s]:    240.53
	Linear fluid (dielectric constant: 7.2) occupying 0.852480 of unit cell:	Completed after 1 iterations at t[s]:    240.66
	FillingsUpdate:  mu: -0.117811389  nElectrons: 312.000000
	Linear fluid (dielectric constant: 7.2) occupying 0.852481 of unit cell:	Completed after 1 iterations at t[s]:    243.43
SCF: Cycle: 31   F: -517.010993000732583   dF: -4.139e-08   |Residual|: 4.083e-05   |deigs|: 9.689e-05  t[s]:    243.57
	Linear fluid (dielectric constant: 7.2) occupying 0.852481 of unit cell:	Completed after 1 iterations at t[s]:    243.69
	FillingsUpdate:  mu: -0.117809062  nElectrons: 312.000000
	Linear fluid (dielectric constant: 7.2) occupying 0.852481 of unit cell:	Completed after 0 iterations at t[s]:    246.41
SCF: Cycle: 32   F: -517.010993019796388   dF: -1.906e-08   |Residual|: 1.404e-05   |deigs|: 2.258e-05  t[s]:    246.54
	Linear fluid (dielectric constant: 7.2) occupying 0.852480 of unit cell:	Completed after 0 iterations at t[s]:    246.65
	FillingsUpdate:  mu: -0.117807067  nElectrons: 312.000000
	Linear fluid (dielectric constant: 7.2) occupying 0.852481 of unit cell:	Completed after 1 iterations at t[s]:    249.40
SCF: Cycle: 33   F: -517.010993012577842   dF: +7.219e-09   |Residual|: 2.630e-05   |deigs|: 1.632e-05  t[s]:    249.54
	Linear fluid (dielectric constant: 7.2) occupying 0.852481 of unit cell:	Completed after 1 iterations at t[s]:    249.67
	FillingsUpdate:  mu: -0.117807916  nElectrons: 312.000000
	Linear fluid (dielectric constant: 7.2) occupying 0.852481 of unit cell:	Completed after 0 iterations at t[s]:    252.39
SCF: Cycle: 34   F: -517.010993019423722   dF: -6.846e-09   |Residual|: 2.188e-05   |deigs|: 2.359e-05  t[s]:    252.52
	Linear fluid (dielectric constant: 7.2) occupying 0.852480 of unit cell:	Completed after 0 iterations at t[s]:    252.64
	FillingsUpdate:  mu: -0.117804121  nElectrons: 312.000000
	Linear fluid (dielectric constant: 7.2) occupying 0.852481 of unit cell:	Completed after 1 iterations at t[s]:    255.38
SCF: Cycle: 35   F: -517.010992984027666   dF: +3.540e-08   |Residual|: 5.445e-05   |deigs|: 6.172e-05  t[s]:    255.52
	Linear fluid (dielectric constant: 7.2) occupying 0.852479 of unit cell:	Completed after 1 iterations at t[s]:    255.65
	FillingsUpdate:  mu: -0.117809276  nElectrons: 312.000000
	Linear fluid (dielectric constant: 7.2) occupying 0.852480 of unit cell:	Completed after 2 iterations at t[s]:    258.41
SCF: Cycle: 36   F: -517.010992914138001   dF: +6.989e-08   |Residual|: 9.733e-05   |deigs|: 4.336e-05  t[s]:    258.56
	Linear fluid (dielectric constant: 7.2) occupying 0.852479 of unit cell:	Completed after 1 iterations at t[s]:    258.68
	FillingsUpdate:  mu: -0.117812003  nElectrons: 312.000000
	Linear fluid (dielectric constant: 7.2) occupying 0.852481 of unit cell:	Completed after 1 iterations at t[s]:    261.43
SCF: Cycle: 37   F: -517.010993012985637   dF: -9.885e-08   |Residual|: 3.702e-05   |deigs|: 1.824e-05  t[s]:    261.57
	Linear fluid (dielectric constant: 7.2) occupying 0.852479 of unit cell:	Completed after 1 iterations at t[s]:    261.69
	FillingsUpdate:  mu: -0.117810602  nElectrons: 312.000000
	Linear fluid (dielectric constant: 7.2) occupying 0.852481 of unit cell:	Completed after 1 iterations at t[s]:    263.69
SCF: Cycle: 38   F: -517.010993009937806   dF: +3.048e-09   |Residual|: 3.957e-05   |deigs|: 9.267e-06  t[s]:    263.83
	Linear fluid (dielectric constant: 7.2) occupying 0.852479 of unit cell:	Completed after 1 iterations at t[s]:    263.95
	FillingsUpdate:  mu: -0.117811302  nElectrons: 312.000000
	Linear fluid (dielectric constant: 7.2) occupying 0.852481 of unit cell:	Completed after 1 iterations at t[s]:    266.65
SCF: Cycle: 39   F: -517.010993003588851   dF: +6.349e-09   |Residual|: 4.414e-05   |deigs|: 3.839e-05  t[s]:    266.80
	Linear fluid (dielectric constant: 7.2) occupying 0.852479 of unit cell:	Completed after 1 iterations at t[s]:    266.92
	FillingsUpdate:  mu: -0.117811701  nElectrons: 312.000000
	Linear fluid (dielectric constant: 7.2) occupying 0.852481 of unit cell:	Completed after 1 iterations at t[s]:    269.49
SCF: Cycle: 40   F: -517.010993011377764   dF: -7.789e-09   |Residual|: 3.604e-05   |deigs|: 1.613e-05  t[s]:    269.63
	Linear fluid (dielectric constant: 7.2) occupying 0.852480 of unit cell:	Completed after 1 iterations at t[s]:    269.75
	FillingsUpdate:  mu: -0.117811474  nElectrons: 312.000000
	Linear fluid (dielectric constant: 7.2) occupying 0.852481 of unit cell:	Completed after 0 iterations at t[s]:    272.47
SCF: Cycle: 41   F: -517.010993022825687   dF: -1.145e-08   |Residual|: 1.832e-05   |deigs|: 2.732e-05  t[s]:    272.60
	Linear fluid (dielectric constant: 7.2) occupying 0.852480 of unit cell:	Completed after 0 iterations at t[s]:    272.71
	FillingsUpdate:  mu: -0.117808007  nElectrons: 312.000000
	Linear fluid (dielectric constant: 7.2) occupying 0.852480 of unit cell:	Completed after 1 iterations at t[s]:    275.43
SCF: Cycle: 42   F: -517.010992979143452   dF: +4.368e-08   |Residual|: 6.018e-05   |deigs|: 1.597e-05  t[s]:    275.58
	Linear fluid (dielectric constant: 7.2) occupying 0.852480 of unit cell:	Completed after 1 iterations at t[s]:    275.70
	FillingsUpdate:  mu: -0.117811154  nElectrons: 312.000000
	Linear fluid (dielectric constant: 7.2) occupying 0.852481 of unit cell:	Completed after 1 iterations at t[s]:    277.86
SCF: Cycle: 43   F: -517.010992993369427   dF: -1.423e-08   |Residual|: 4.986e-05   |deigs|: 1.000e-05  t[s]:    278.00
	Linear fluid (dielectric constant: 7.2) occupying 0.852481 of unit cell:	Completed after 1 iterations at t[s]:    278.12
	FillingsUpdate:  mu: -0.117811169  nElectrons: 312.000000
	Linear fluid (dielectric constant: 7.2) occupying 0.852481 of unit cell:	Completed after 0 iterations at t[s]:    280.79
SCF: Cycle: 44   F: -517.010993026487313   dF: -3.312e-08   |Residual|: 3.273e-06   |deigs|: 2.781e-05  t[s]:    280.92
	Linear fluid (dielectric constant: 7.2) occupying 0.852481 of unit cell:	Completed after 0 iterations at t[s]:    281.02
	FillingsUpdate:  mu: -0.117811170  nElectrons: 312.000000
	Linear fluid (dielectric constant: 7.2) occupying 0.852481 of unit cell:	Completed after 0 iterations at t[s]:    283.45
SCF: Cycle: 45   F: -517.010993026732308   dF: -2.450e-10   |Residual|: 3.366e-06   |deigs|: 1.923e-05  t[s]:    283.58
	Linear fluid (dielectric constant: 7.2) occupying 0.852481 of unit cell:	Completed after 0 iterations at t[s]:    283.69
	FillingsUpdate:  mu: -0.117811155  nElectrons: 312.000000
	Linear fluid (dielectric constant: 7.2) occupying 0.852481 of unit cell:	Completed after 0 iterations at t[s]:    286.17
SCF: Cycle: 46   F: -517.010993027411473   dF: -6.792e-10   |Residual|: 2.972e-06   |deigs|: 1.642e-05  t[s]:    286.30
SCF: Converged (|Delta E|<1.000000e-08 for 2 iters).

Setting wave functions to eigenvectors of Hamiltonian
Single-point solvation energy estimate, DeltaF = -0.041114006567796

Computing DFT-D3 correction:
# coordination-number C 3.301 3.301 3.301 3.301 3.301 3.301 3.301 3.301 3.366 3.301 3.301 3.320 3.301 3.301 3.402 3.301 3.313 3.302 3.301 3.316 3.343 3.301 3.302 3.897 3.301 3.302 3.301 3.319 3.328 3.301 3.300 3.846 3.307 3.301 3.323 3.308 3.301 3.301 3.301 3.301 3.304 3.301 3.301 3.307 3.301 3.302 3.353 3.301 3.301 3.505 3.301 3.301 3.301 3.302 3.436 3.304 3.301 3.309 3.582 3.302 3.301 3.301 3.572 3.304 3.301 3.305 3.301 3.301 3.592 3.306 3.301 3.368
# coordination-number S 1.981
# coordination-number Na 2.588 2.568
# diagonal-C6 C 24.27 24.27 24.27 24.27 24.27 24.27 24.27 24.28 23.55 24.27 24.27 24.09 24.27 24.28 23.08 24.27 24.15 24.26 24.27 24.12 23.83 24.27 24.27 18.47 24.27 24.27 24.28 24.10 23.99 24.27 24.28 18.59 24.21 24.28 24.05 24.21 24.27 24.27 24.27 24.27 24.24 24.27 24.27 24.22 24.28 24.27 23.71 24.27 24.27 21.57 24.28 24.27 24.27 24.26 22.60 24.25 24.28 24.20 20.49 24.26 24.27 24.27 20.63 24.24 24.27 24.24 24.27 24.27 20.38 24.23 24.27 23.52
# diagonal-C6 S 125.91
# diagonal-C6 Na 186.11 186.11
EvdW_6 =   -0.057687
EvdW_8 =   -0.049284

# Ionic positions in cartesian coordinates:
ion C  28.014330944498511   0.004543279125116  23.502503101125598 1
ion C  16.346224761984317  20.218360617645246  23.502993663098884 1
ion C   2.341951358854215   4.043669653663128  23.490310836319793 1
ion C  23.346771763020477   0.004694323538036  23.498216754438761 1
ion C   4.676533615107807   0.003831167870708  23.498685821160176 1
ion C  11.678054281551246  20.219266980939235  23.483658915920575 1
ion C  25.678991858822329   4.044057917565260  23.508874346519622 1
ion C  18.680440079023036  16.175341055052883  23.519363020373817 1
ion C   4.678378946307143   8.082837906825780  23.450478296962348 1
ion C  18.679591829961794   0.004651883449718  23.497906461752532 1
ion C   9.344021241386271   0.003939820602881  23.497971918094969 1
ion C   9.343179295144006  16.179546258376917  23.440559991123497 1
ion C  23.344952959302244   8.086660760316342  23.526594918842108 1
ion C  21.013255319023163  12.130628672731959  23.533068712377567 1
ion C   7.010810918293329  12.130439914706225  23.408218476823503 1
ion C  14.011638440051723   0.004675982535733  23.500080963589497 1
ion C  14.013653392426466  16.179682814125560  23.490942159310400 1
ion C   7.009985775794462   4.042695467073137  23.470591829357346 1
ion C  21.013291932731093   4.045077802232385  23.513006219064938 1
ion C  16.350624679377603  12.130854488859232  23.519307394058586 1
ion C   9.341975123457070   8.082439809963612  23.444210730674989 1
ion C  16.347178860444394   4.043827620232956  23.505919979355681 1
ion C  11.677858690215984   4.043771058455998  23.484952942759385 1
ion C  11.678159369752152  12.132857297916649  23.454690384171027 1
ion C  18.681482078452035   8.086326334091167  23.524861551822386 1
ion C   7.010112726965763  20.219775011515857  23.468039107190911 1
ion C  -6.992566704966779  20.217126736754256  23.509976403571088 1
ion C   0.003722382936144   8.084160467465541  23.503769723969423 1
ion C  14.015611194154660   8.083728566235635  23.496206586410079 1
ion C   2.342012414452640  20.219269349376475  23.483529700959480 1
ion C  -4.659839113170444  16.175022385290934  23.519403838352229 1
ion C   2.340272699356768  12.133295251578309  23.466721493580362 1
ion C  -2.329652515957535  12.131279392765128  23.521465563713519 1
ion C  -2.325835858400934  20.218198754759452  23.503025749889876 1
ion C   4.676934166292030  16.180459821140062  23.443289622582263 1
ion C   0.006535367739357  16.179005456332462  23.492642979851283 1
ion C  14.012614104128019  21.564662341327953  23.497610658767908 1
ion C   2.342559863656532   1.350039232428767  23.498630044074449 1
ion C  25.680336124799918   1.350673880730549  23.503130018920771 1
ion C  16.347779963867701  17.524777462591612  23.506749577203493 1
ion C   4.676569179297269   5.388550549889562  23.470493183765313 1
ion C  21.013169836835772   1.350953932666499  23.502836393398102 1
ion C   7.010273391955430   1.349522317466488  23.489475541607618 1
ion C  11.677965474827904  17.525881516477941  23.470489180815424 1
ion C  23.346014665385979   5.392107415289417  23.516503618153557 1
ion C  18.682113859673748  13.480607069821957  23.529052710888060 1
ion C   7.010893386958772   9.433290904292258  23.423624878467532 1
ion C  16.345742170795607   1.350440673849301  23.501566578049186 1
ion C  11.677514623182249   1.350381876267648  23.495472449931800 1
ion C   9.340815429774427  13.484324941698592  23.421501805901219 1
ion C  21.013291563965343   9.435832073656103  23.532620953036144 1
ion C   9.344204363873716  21.565347915904500  23.482193298356805 1
ion C  -9.325686771384444  21.564080063724639  23.505591227172872 1
ion C   0.006761056121325   5.389669923082919  23.500903090099651 1
ion C  14.017579113974165  13.483470370900783  23.492212073749375 1
ion C   9.343498561894823   5.388844080703572  23.465479049935183 1
ion C  18.680518821978382   5.392076805376961  23.515607460000002 1
ion C  16.349213982122254   9.434616495215218  23.517573718404336 1
ion C  11.678293363441576   9.429643329434038  23.464048874449229 1
ion C  14.013392481832096   5.389036900754228  23.496451148110378 1
ion C   4.676056857796958  21.565336574920735  23.482133156414999 1
ion C  -6.992543014689888  17.522354508341369  23.519185585456739 1
ion C   2.340810440823758   9.430233358344413  23.475631470081868 1
ion C  -2.328817621644771   9.435398986909497  23.520625145778123 1
ion C  -4.659465462513320  21.563964974446471  23.505131012674862 1
ion C   7.010228734821794  17.526615730199584  23.446431787258852 1
ion C   0.007749976106235  21.564814451891710  23.495896088162482 1
ion C  -4.661248369483401  13.480394938390157  23.528644617442477 1
ion C   4.679286990612406  13.484291020280608  23.427457139843693 1
ion C   2.341994858908546  17.525729630397418  23.471843026130763 1
ion C  -2.327260500926807  17.524680271424181  23.506564360790222 1
ion C   0.002203245718183  13.483789064939169  23.497906276306175 1
ion S   7.350899320190606  11.764718324374256  31.361927556252461 1
ion Na   3.353004489488626  11.655350954426734  28.697606674687371 1
ion Na  11.355103972937918  11.747054047512222  28.712818410291860 1

# Forces in Cartesian coordinates:
force C  -0.000092928834497  -0.000073824422589  -0.000129317787744 1
force C   0.000143712110694   0.000010260162684   0.000171652493649 1
force C  -0.000029353792889   0.000084798537921   0.000173539141118 1
force C  -0.000011573712688   0.000089173199731  -0.000052291879321 1
force C  -0.000057458239663   0.000044370050370  -0.000023693311438 1
force C  -0.000026774638376  -0.000052043302446   0.000245249074532 1
force C   0.000048548758455   0.000167529001679  -0.000012410230584 1
force C   0.000000326681623  -0.000008181987961   0.000202544369873 1
force C  -0.000482827543202   0.000170853429482  -0.000013097725051 1
force C  -0.000031843073739   0.000109098907256  -0.000060466993766 1
force C  -0.000020287932529  -0.000058614252804  -0.000131817560162 1
force C   0.000158208112135   0.000087220281232   0.000105359454068 1
force C   0.000185896432100   0.000182924611357  -0.000009923573947 1
force C   0.000015414372621   0.000146499675240   0.000116004439762 1
force C   0.000007207715176   0.000230776935403  -0.000272379101004 1
force C   0.000065082816605  -0.000082786024298  -0.000098916439742 1
force C  -0.000088543853810  -0.000571576383902  -0.000210301617548 1
force C   0.000051634134119   0.000046110054242   0.000432708728182 1
force C  -0.000051868256214   0.000035413026164   0.000066845875130 1
force C  -0.000510132747788   0.000155788186627  -0.000552467304652 1
force C   0.000481007449168   0.000199402560941   0.000063635557740 1
force C   0.000043178841716   0.000161123413203   0.000155162520026 1
force C   0.000185422299397   0.000071872955665   0.000266785090205 1
force C   0.000723563695614  -0.000097934527661  -0.000503629567315 1
force C  -0.000137309002223   0.000248123351083   0.000135871166262 1
force C   0.000033930748193  -0.000105010125888   0.000446392574681 1
force C  -0.000000406445047  -0.000130617246861   0.000048904482014 1
force C   0.000364487775482   0.000206526776945  -0.000393441357059 1
force C  -0.000045436765380   0.000153191203206  -0.000512810536147 1
force C   0.000121425183576  -0.000070800288525   0.000183992882775 1
force C   0.000055617774601   0.000040414280973   0.000167478538887 1
force C  -0.000467487706001  -0.000232809096013  -0.000823967443639 1
force C   0.000502773984693   0.000191328219471  -0.000339162395441 1
force C  -0.000061387915104   0.000048681920917   0.000013515734203 1
force C  -0.000051333883566   0.000036399919519   0.000215427750747 1
force C   0.000009340317263  -0.000480469094057  -0.000116145540375 1
force C  -0.000181441517994   0.000017999080166   0.000135697813683 1
force C   0.000132085155742   0.000145710949306   0.000077432814313 1
force C   0.000041099463940  -0.000062221582739   0.000168110049155 1
force C  -0.000132801278718  -0.000203548553516   0.000078443349541 1
force C  -0.000017448861456   0.000154060500133   0.000030148033751 1
force C   0.000003098620581   0.000038946863445   0.000074076495442 1
force C  -0.000034609121817   0.000044535304155   0.000209634209959 1
force C   0.000053684686543  -0.000413892482428  -0.000072919086222 1
force C   0.000137945081334   0.000051883213940   0.000136248272979 1
force C  -0.000244145240727  -0.000202117160216  -0.000174596718930 1
force C  -0.000143294973856   0.000029018414432  -0.000447057287798 1
force C   0.000027549263192   0.000026337784361   0.000132474654324 1
force C  -0.000006731677831  -0.000001121394721   0.000153393297340 1
force C   0.000295483171076  -0.000111450030751  -0.000350683670227 1
force C  -0.000100426542197  -0.000018649601037  -0.000219135501759 1
force C  -0.000043041812287  -0.000078420378634   0.000197525462066 1
force C  -0.000140992495658  -0.000069995626440   0.000070179071380 1
force C   0.000136185766530   0.000373624707459   0.000245228945282 1
force C  -0.000108991480195  -0.000191588720515  -0.001152703337725 1
force C  -0.000016399847576   0.000173764188694   0.000147772633538 1
force C  -0.000251191407186  -0.000103908550514   0.000016745238744 1
force C  -0.000396028416461   0.000041153748930  -0.000388860905068 1
force C   0.000318382081850   0.000135832301335  -0.000709506411903 1
force C  -0.000245127882388   0.000484166277228   0.000120278968098 1
force C   0.000031800219867  -0.000136490793752   0.000201213007817 1
force C  -0.000008607838371   0.000170652298117  -0.000145411231843 1
force C  -0.000175139217560   0.000397496739206  -0.001129164641177 1
force C   0.000380246480927  -0.000097345820440  -0.000128221857769 1
force C   0.000095246027729   0.000024592686091   0.000135182382298 1
force C  -0.000090074860997  -0.000066058185164   0.000214722524812 1
force C   0.000015199962445  -0.000004025173259   0.000299413802521 1
force C   0.000196500868347  -0.000101721643021  -0.000095143608196 1
force C  -0.000501153523219  -0.000223850236249  -0.000360585429115 1
force C  -0.000016678975006  -0.000305495710263   0.000044207880239 1
force C   0.000055689195251  -0.000303186590710   0.000153162387335 1
force C   0.000228342445719  -0.000323986936307  -0.000790776227052 1
force S  -0.000101783521695  -0.000030092188211   0.003935356744341 1
force Na  -0.005423990989502  -0.000064703405794   0.002013548893056 1
force Na   0.005400179524943  -0.000021150701588   0.001911523332111 1

# Energy components:
   A_diel =       -0.0531451966189225
   Eewald =     4605.5699777846530196
       EH =     5009.9866825100398273
     Eloc =   -10160.7471260820202588
      Enl =      -83.8681734716847842
     EvdW =       -0.1069706814528403
      Exc =     -149.3408283316987024
 Exc_core =        4.1924000766186413
       KE =      257.4328090786411281
-------------------------------------
     Etot =     -516.9343743135239038
       TS =        0.0766187138875900
-------------------------------------
        F =     -517.0109930274114731

IonicMinimize: Iter:   0  F: -517.010993027411473  |grad|_K:  6.504e-04  alpha:  1.000e+00

#--- Lowdin population analysis ---
# oxidation-state C +0.038 +0.037 +0.037 +0.038 +0.038 +0.037 +0.037 +0.036 +0.025 +0.038 +0.038 +0.034 +0.036 +0.036 +0.026 +0.038 +0.032 +0.039 +0.037 +0.030 +0.030 +0.037 +0.037 -0.012 +0.036 +0.039 +0.038 +0.030 +0.028 +0.037 +0.037 -0.010 +0.032 +0.037 +0.033 +0.033 +0.038 +0.038 +0.038 +0.036 +0.037 +0.038 +0.038 +0.034 +0.037 +0.035 +0.029 +0.038 +0.038 +0.018 +0.037 +0.038 +0.038 +0.036 +0.017 +0.037 +0.037 +0.032 +0.008 +0.036 +0.038 +0.037 +0.008 +0.033 +0.038 +0.038 +0.038 +0.036 +0.011 +0.034 +0.036 +0.024
# oxidation-state S -0.978
# oxidation-state Na +0.856 +0.856


Computing DFT-D3 correction:
# coordination-number C 3.301 3.301 3.301 3.301 3.301 3.301 3.301 3.301 3.366 3.301 3.301 3.319 3.301 3.301 3.401 3.301 3.313 3.302 3.301 3.316 3.343 3.301 3.302 3.896 3.301 3.302 3.301 3.319 3.329 3.301 3.300 3.845 3.307 3.301 3.323 3.308 3.301 3.301 3.301 3.301 3.304 3.301 3.301 3.307 3.300 3.301 3.353 3.301 3.301 3.503 3.300 3.301 3.301 3.302 3.436 3.304 3.300 3.309 3.581 3.302 3.301 3.301 3.571 3.304 3.301 3.305 3.301 3.301 3.590 3.306 3.301 3.369
# coordination-number S 1.980
# coordination-number Na 2.581 2.561
# diagonal-C6 C 24.27 24.28 24.27 24.27 24.27 24.27 24.27 24.28 23.55 24.27 24.27 24.09 24.27 24.28 23.10 24.27 24.15 24.26 24.27 24.12 23.83 24.27 24.27 18.47 24.27 24.27 24.28 24.09 23.99 24.27 24.28 18.60 24.21 24.28 24.05 24.21 24.27 24.27 24.27 24.27 24.24 24.28 24.27 24.22 24.28 24.27 23.71 24.27 24.27 21.59 24.28 24.27 24.27 24.26 22.59 24.25 24.28 24.20 20.51 24.26 24.27 24.28 20.64 24.24 24.27 24.24 24.27 24.27 20.40 24.23 24.27 23.52
# diagonal-C6 S 125.91
# diagonal-C6 Na 186.11 186.11
EvdW_6 =   -0.057689
EvdW_8 =   -0.049288

-------- Electronic minimization -----------
Will mix electronic density at each iteration.
	FillingsUpdate:  mu: -0.117811155  nElectrons: 312.000000
	Linear fluid (dielectric constant: 7.2) occupying 0.852468 of unit cell:	Completed after 4 iterations at t[s]:    291.99
	FillingsUpdate:  mu: -0.117739311  nElectrons: 312.000000
	Linear fluid (dielectric constant: 7.2) occupying 0.852474 of unit cell:	Completed after 6 iterations at t[s]:    294.78
SCF: Cycle:  0   F: -517.011063307821018   dF: +1.900e-05   |Residual|: 1.431e-03   |deigs|: 4.916e-07  t[s]:    294.94
	Linear fluid (dielectric constant: 7.2) occupying 0.852457 of unit cell:	Completed after 6 iterations at t[s]:    295.12
	FillingsUpdate:  mu: -0.117831174  nElectrons: 312.000000
	Linear fluid (dielectric constant: 7.2) occupying 0.852473 of unit cell:	Completed after 5 iterations at t[s]:    297.41
SCF: Cycle:  1   F: -517.011059556198688   dF: +3.752e-06   |Residual|: 1.749e-03   |deigs|: 6.430e-05  t[s]:    297.57
	Linear fluid (dielectric constant: 7.2) occupying 0.852465 of unit cell:	Completed after 5 iterations at t[s]:    297.74
	FillingsUpdate:  mu: -0.117774418  nElectrons: 312.000000
	Linear fluid (dielectric constant: 7.2) occupying 0.852472 of unit cell:	Completed after 4 iterations at t[s]:    299.93
SCF: Cycle:  2   F: -517.011084783639717   dF: -2.523e-05   |Residual|: 2.447e-04   |deigs|: 3.737e-05  t[s]:    300.09
	Linear fluid (dielectric constant: 7.2) occupying 0.852465 of unit cell:	Completed after 4 iterations at t[s]:    300.24
	FillingsUpdate:  mu: -0.117776639  nElectrons: 312.000000
	Linear fluid (dielectric constant: 7.2) occupying 0.852469 of unit cell:	Completed after 3 iterations at t[s]:    302.47
SCF: Cycle:  3   F: -517.011085215903108   dF: -4.323e-07   |Residual|: 9.990e-05   |deigs|: 1.265e-05  t[s]:    302.61
	Linear fluid (dielectric constant: 7.2) occupying 0.852464 of unit cell:	Completed after 2 iterations at t[s]:    302.74
	FillingsUpdate:  mu: -0.117782275  nElectrons: 312.000000
	Linear fluid (dielectric constant: 7.2) occupying 0.852469 of unit cell:	Completed after 2 iterations at t[s]:    304.90
SCF: Cycle:  4   F: -517.011085335159692   dF: -1.193e-07   |Residual|: 4.643e-05   |deigs|: 1.459e-05  t[s]:    305.05
	Linear fluid (dielectric constant: 7.2) occupying 0.852464 of unit cell:	Completed after 2 iterations at t[s]:    305.18
	FillingsUpdate:  mu: -0.117783354  nElectrons: 312.000000
	Linear fluid (dielectric constant: 7.2) occupying 0.852468 of unit cell:	Completed after 1 iterations at t[s]:    307.89
SCF: Cycle:  5   F: -517.011085378717212   dF: -4.356e-08   |Residual|: 2.898e-05   |deigs|: 2.216e-05  t[s]:    308.03
	Linear fluid (dielectric constant: 7.2) occupying 0.852464 of unit cell:	Completed after 1 iterations at t[s]:    308.14
	FillingsUpdate:  mu: -0.117781119  nElectrons: 312.000000
	Linear fluid (dielectric constant: 7.2) occupying 0.852468 of unit cell:	Completed after 1 iterations at t[s]:    310.88
SCF: Cycle:  6   F: -517.011085381776752   dF: -3.060e-09   |Residual|: 1.908e-05   |deigs|: 1.893e-05  t[s]:    311.02
	Linear fluid (dielectric constant: 7.2) occupying 0.852464 of unit cell:	Completed after 0 iterations at t[s]:    311.12
	FillingsUpdate:  mu: -0.117782934  nElectrons: 312.000000
	Linear fluid (dielectric constant: 7.2) occupying 0.852467 of unit cell:	Completed after 0 iterations at t[s]:    313.83
SCF: Cycle:  7   F: -517.011085389457207   dF: -7.680e-09   |Residual|: 2.200e-05   |deigs|: 2.138e-05  t[s]:    314.00
SCF: Converged (|Delta E|<1.000000e-08 for 2 iters).

Setting wave functions to eigenvectors of Hamiltonian
IonicMinimize: 	Predicted alpha/alphaT>3.000000, increasing alphaT to 3.000000e+00.

Computing DFT-D3 correction:
# coordination-number C 3.301 3.301 3.301 3.301 3.301 3.301 3.301 3.301 3.365 3.301 3.301 3.319 3.301 3.300 3.398 3.301 3.313 3.302 3.301 3.317 3.342 3.301 3.301 3.893 3.301 3.302 3.301 3.319 3.329 3.301 3.300 3.843 3.308 3.301 3.323 3.308 3.301 3.301 3.301 3.301 3.304 3.301 3.301 3.307 3.300 3.301 3.352 3.301 3.301 3.500 3.300 3.301 3.301 3.302 3.436 3.304 3.300 3.309 3.579 3.302 3.301 3.301 3.570 3.305 3.301 3.304 3.301 3.301 3.586 3.306 3.301 3.369
# coordination-number S 1.979
# coordination-number Na 2.565 2.547
# diagonal-C6 C 24.28 24.28 24.27 24.27 24.27 24.27 24.27 24.28 23.56 24.27 24.27 24.09 24.28 24.28 23.13 24.28 24.15 24.27 24.27 24.11 23.84 24.27 24.27 18.48 24.27 24.27 24.28 24.09 23.98 24.27 24.28 18.60 24.21 24.28 24.05 24.20 24.28 24.27 24.28 24.27 24.24 24.28 24.27 24.22 24.28 24.27 23.73 24.28 24.27 21.63 24.28 24.27 24.27 24.26 22.59 24.25 24.28 24.19 20.53 24.26 24.27 24.28 20.66 24.24 24.27 24.24 24.28 24.27 20.44 24.23 24.27 23.51
# diagonal-C6 S 125.92
# diagonal-C6 Na 186.11 186.11
EvdW_6 =   -0.057693
EvdW_8 =   -0.049298

-------- Electronic minimization -----------
Will mix electronic density at each iteration.
	FillingsUpdate:  mu: -0.117782934  nElectrons: 312.000000
	Linear fluid (dielectric constant: 7.2) occupying 0.852441 of unit cell:	Completed after 5 iterations at t[s]:    318.44
	FillingsUpdate:  mu: -0.117627783  nElectrons: 312.000000
	Linear fluid (dielectric constant: 7.2) occupying 0.852451 of unit cell:	Completed after 7 iterations at t[s]:    321.18
SCF: Cycle:  0   F: -517.011150095233916   dF: +9.046e-05   |Residual|: 3.068e-03   |deigs|: 1.300e-06  t[s]:    321.35
	Linear fluid (dielectric constant: 7.2) occupying 0.852415 of unit cell:	Completed after 7 iterations at t[s]:    321.55
	FillingsUpdate:  mu: -0.117830221  nElectrons: 312.000000
	Linear fluid (dielectric constant: 7.2) occupying 0.852452 of unit cell:	Completed after 6 iterations at t[s]:    326.32
SCF: Cycle:  1   F: -517.011132542074847   dF: +1.755e-05   |Residual|: 3.769e-03   |deigs|: 1.384e-04  t[s]:    326.48
	Linear fluid (dielectric constant: 7.2) occupying 0.852433 of unit cell:	Completed after 7 iterations at t[s]:    326.67
	FillingsUpdate:  mu: -0.117706368  nElectrons: 312.000000
	Linear fluid (dielectric constant: 7.2) occupying 0.852449 of unit cell:	Completed after 5 iterations at t[s]:    330.99
SCF: Cycle:  2   F: -517.011250518251813   dF: -1.180e-04   |Residual|: 4.898e-04   |deigs|: 8.022e-05  t[s]:    331.15
	Linear fluid (dielectric constant: 7.2) occupying 0.852432 of unit cell:	Completed after 5 iterations at t[s]:    331.31
	FillingsUpdate:  mu: -0.117711961  nElectrons: 312.000000
	Linear fluid (dielectric constant: 7.2) occupying 0.852445 of unit cell:	Completed after 4 iterations at t[s]:    334.39
SCF: Cycle:  3   F: -517.011252159504352   dF: -1.641e-06   |Residual|: 2.088e-04   |deigs|: 2.536e-05  t[s]:    334.55
	Linear fluid (dielectric constant: 7.2) occupying 0.852431 of unit cell:	Completed after 4 iterations at t[s]:    334.70
	FillingsUpdate:  mu: -0.117716550  nElectrons: 312.000000
	Linear fluid (dielectric constant: 7.2) occupying 0.852445 of unit cell:	Completed after 4 iterations at t[s]:    336.97
SCF: Cycle:  4   F: -517.011252658231797   dF: -4.987e-07   |Residual|: 1.063e-04   |deigs|: 3.005e-05  t[s]:    337.13
	Linear fluid (dielectric constant: 7.2) occupying 0.852430 of unit cell:	Completed after 4 iterations at t[s]:    337.28
	FillingsUpdate:  mu: -0.117720518  nElectrons: 312.000000
	Linear fluid (dielectric constant: 7.2) occupying 0.852442 of unit cell:	Completed after 3 iterations at t[s]:    340.09
SCF: Cycle:  5   F: -517.011252873318654   dF: -2.151e-07   |Residual|: 6.426e-05   |deigs|: 4.359e-05  t[s]:    340.24
	Linear fluid (dielectric constant: 7.2) occupying 0.852431 of unit cell:	Completed after 3 iterations at t[s]:    340.37
	FillingsUpdate:  mu: -0.117719914  nElectrons: 312.000000
	Linear fluid (dielectric constant: 7.2) occupying 0.852441 of unit cell:	Completed after 3 iterations at t[s]:    343.16
SCF: Cycle:  6   F: -517.011252901778676   dF: -2.846e-08   |Residual|: 5.515e-05   |deigs|: 4.755e-05  t[s]:    343.31
	Linear fluid (dielectric constant: 7.2) occupying 0.852432 of unit cell:	Completed after 2 iterations at t[s]:    343.44
	FillingsUpdate:  mu: -0.117725904  nElectrons: 312.000000
	Linear fluid (dielectric constant: 7.2) occupying 0.852440 of unit cell:	Completed after 2 iterations at t[s]:    346.17
SCF: Cycle:  7   F: -517.011252975061097   dF: -7.328e-08   |Residual|: 4.001e-05   |deigs|: 5.754e-05  t[s]:    346.32
	Linear fluid (dielectric constant: 7.2) occupying 0.852435 of unit cell:	Completed after 2 iterations at t[s]:    346.45
	FillingsUpdate:  mu: -0.117722653  nElectrons: 312.000000
	Linear fluid (dielectric constant: 7.2) occupying 0.852441 of unit cell:	Completed after 2 iterations at t[s]:    349.19
SCF: Cycle:  8   F: -517.011253013923465   dF: -3.886e-08   |Residual|: 2.492e-05   |deigs|: 5.196e-05  t[s]:    349.33
	Linear fluid (dielectric constant: 7.2) occupying 0.852438 of unit cell:	Completed after 1 iterations at t[s]:    349.46
	FillingsUpdate:  mu: -0.117714398  nElectrons: 312.000000
	Linear fluid (dielectric constant: 7.2) occupying 0.852441 of unit cell:	Completed after 2 iterations at t[s]:    352.18
SCF: Cycle:  9   F: -517.011253003068646   dF: +1.085e-08   |Residual|: 5.919e-05   |deigs|: 5.402e-05  t[s]:    352.32
	Linear fluid (dielectric constant: 7.2) occupying 0.852441 of unit cell:	Completed after 1 iterations at t[s]:    352.46
	FillingsUpdate:  mu: -0.117716005  nElectrons: 312.000000
	Linear fluid (dielectric constant: 7.2) occupying 0.852441 of unit cell:	Completed after 1 iterations at t[s]:    355.19
SCF: Cycle: 10   F: -517.011253047365130   dF: -4.430e-08   |Residual|: 3.014e-05   |deigs|: 4.559e-05  t[s]:    355.33
	Linear fluid (dielectric constant: 7.2) occupying 0.852445 of unit cell:	Completed after 1 iterations at t[s]:    355.46
	FillingsUpdate:  mu: -0.117714362  nElectrons: 312.000000
	Linear fluid (dielectric constant: 7.2) occupying 0.852442 of unit cell:	Completed after 1 iterations at t[s]:    358.20
SCF: Cycle: 11   F: -517.011253059742785   dF: -1.238e-08   |Residual|: 1.647e-05   |deigs|: 5.339e-05  t[s]:    358.34
	Linear fluid (dielectric constant: 7.2) occupying 0.852446 of unit cell:	Completed after 0 iterations at t[s]:    358.45
	FillingsUpdate:  mu: -0.117715611  nElectrons: 312.000000
	Linear fluid (dielectric constant: 7.2) occupying 0.852441 of unit cell:	Completed after 1 iterations at t[s]:    361.21
SCF: Cycle: 12   F: -517.011252984275757   dF: +7.547e-08   |Residual|: 8.854e-05   |deigs|: 2.265e-05  t[s]:    361.35
	Linear fluid (dielectric constant: 7.2) occupying 0.852447 of unit cell:	Completed after 1 iterations at t[s]:    361.48
	FillingsUpdate:  mu: -0.117712548  nElectrons: 312.000000
	Linear fluid (dielectric constant: 7.2) occupying 0.852442 of unit cell:	Completed after 1 iterations at t[s]:    364.20
SCF: Cycle: 13   F: -517.011253046337060   dF: -6.206e-08   |Residual|: 3.007e-05   |deigs|: 2.428e-05  t[s]:    364.34
	Linear fluid (dielectric constant: 7.2) occupying 0.852447 of unit cell:	Completed after 1 iterations at t[s]:    364.47
	FillingsUpdate:  mu: -0.117713470  nElectrons: 312.000000
	Linear fluid (dielectric constant: 7.2) occupying 0.852442 of unit cell:	Completed after 1 iterations at t[s]:    367.18
SCF: Cycle: 14   F: -517.011252973628075   dF: +7.271e-08   |Residual|: 8.964e-05   |deigs|: 4.110e-05  t[s]:    367.32
	Linear fluid (dielectric constant: 7.2) occupying 0.852447 of unit cell:	Completed after 1 iterations at t[s]:    367.44
	FillingsUpdate:  mu: -0.117708979  nElectrons: 312.000000
	Linear fluid (dielectric constant: 7.2) occupying 0.852442 of unit cell:	Completed after 2 iterations at t[s]:    369.59
SCF: Cycle: 15   F: -517.011252990110847   dF: -1.648e-08   |Residual|: 7.578e-05   |deigs|: 1.619e-05  t[s]:    369.74
	Linear fluid (dielectric constant: 7.2) occupying 0.852446 of unit cell:	Completed after 1 iterations at t[s]:    369.85
	FillingsUpdate:  mu: -0.117709291  nElectrons: 312.000000
	Linear fluid (dielectric constant: 7.2) occupying 0.852442 of unit cell:	Completed after 2 iterations at t[s]:    372.58
SCF: Cycle: 16   F: -517.011252959458034   dF: +3.065e-08   |Residual|: 9.619e-05   |deigs|: 8.954e-05  t[s]:    372.73
	Linear fluid (dielectric constant: 7.2) occupying 0.852445 of unit cell:	Completed after 1 iterations at t[s]:    372.86
	FillingsUpdate:  mu: -0.117712751  nElectrons: 312.000000
	Linear fluid (dielectric constant: 7.2) occupying 0.852442 of unit cell:	Completed after 0 iterations at t[s]:    375.59
SCF: Cycle: 17   F: -517.011253070069529   dF: -1.106e-07   |Residual|: 1.300e-05   |deigs|: 6.549e-05  t[s]:    375.72
	Linear fluid (dielectric constant: 7.2) occupying 0.852444 of unit cell:	Completed after 0 iterations at t[s]:    375.83
	FillingsUpdate:  mu: -0.117709562  nElectrons: 312.000000
	Linear fluid (dielectric constant: 7.2) occupying 0.852442 of unit cell:	Completed after 0 iterations at t[s]:    378.56
SCF: Cycle: 18   F: -517.011253068451197   dF: +1.618e-09   |Residual|: 1.301e-05   |deigs|: 3.270e-05  t[s]:    378.70
	Linear fluid (dielectric constant: 7.2) occupying 0.852444 of unit cell:	Completed after 0 iterations at t[s]:    378.80
	FillingsUpdate:  mu: -0.117711669  nElectrons: 312.000000
	Linear fluid (dielectric constant: 7.2) occupying 0.852442 of unit cell:	Completed after 1 iterations at t[s]:    381.56
SCF: Cycle: 19   F: -517.011253018354068   dF: +5.010e-08   |Residual|: 6.747e-05   |deigs|: 2.170e-05  t[s]:    381.70
	Linear fluid (dielectric constant: 7.2) occupying 0.852443 of unit cell:	Completed after 1 iterations at t[s]:    381.82
	FillingsUpdate:  mu: -0.117710619  nElectrons: 312.000000
	Linear fluid (dielectric constant: 7.2) occupying 0.852441 of unit cell:	Completed after 0 iterations at t[s]:    384.54
SCF: Cycle: 20   F: -517.011253070727435   dF: -5.237e-08   |Residual|: 9.187e-06   |deigs|: 4.539e-05  t[s]:    384.68
	Linear fluid (dielectric constant: 7.2) occupying 0.852443 of unit cell:	Completed after 0 iterations at t[s]:    384.79
	FillingsUpdate:  mu: -0.117709697  nElectrons: 312.000000
	Linear fluid (dielectric constant: 7.2) occupying 0.852441 of unit cell:	Completed after 0 iterations at t[s]:    386.91
SCF: Cycle: 21   F: -517.011253072163640   dF: -1.436e-09   |Residual|: 7.720e-06   |deigs|: 9.135e-06  t[s]:    387.04
	Linear fluid (dielectric constant: 7.2) occupying 0.852443 of unit cell:	Completed after 0 iterations at t[s]:    387.14
	FillingsUpdate:  mu: -0.117709704  nElectrons: 312.000000
	Linear fluid (dielectric constant: 7.2) occupying 0.852441 of unit cell:	Completed after 0 iterations at t[s]:    389.58
SCF: Cycle: 22   F: -517.011253072546310   dF: -3.827e-10   |Residual|: 7.396e-06   |deigs|: 9.361e-06  t[s]:    389.71
SCF: Converged (|Delta E|<1.000000e-08 for 2 iters).

Setting wave functions to eigenvectors of Hamiltonian
IonicMinimize: 	Predicted alpha/alphaT>3.000000, increasing alphaT to 9.000000e+00.

Computing DFT-D3 correction:
# coordination-number C 3.300 3.300 3.301 3.301 3.301 3.301 3.301 3.300 3.363 3.301 3.301 3.319 3.300 3.300 3.392 3.300 3.314 3.301 3.300 3.318 3.340 3.301 3.301 3.885 3.301 3.301 3.301 3.321 3.330 3.301 3.300 3.836 3.309 3.300 3.322 3.309 3.300 3.300 3.300 3.301 3.304 3.300 3.301 3.307 3.300 3.301 3.349 3.300 3.300 3.491 3.299 3.301 3.300 3.302 3.438 3.303 3.300 3.310 3.574 3.303 3.301 3.300 3.566 3.305 3.301 3.304 3.300 3.300 3.576 3.306 3.301 3.371
# coordination-number S 1.975
# coordination-number Na 2.520 2.504
# diagonal-C6 C 24.28 24.28 24.27 24.28 24.28 24.27 24.28 24.28 23.59 24.27 24.28 24.10 24.28 24.29 23.22 24.28 24.14 24.27 24.28 24.10 23.86 24.27 24.27 18.50 24.28 24.27 24.28 24.08 23.97 24.28 24.28 18.62 24.20 24.28 24.06 24.20 24.28 24.28 24.28 24.27 24.24 24.28 24.27 24.22 24.28 24.27 23.76 24.28 24.28 21.77 24.29 24.27 24.28 24.26 22.57 24.25 24.28 24.18 20.60 24.26 24.27 24.28 20.71 24.23 24.28 24.24 24.28 24.28 20.57 24.23 24.27 23.48
# diagonal-C6 S 125.92
# diagonal-C6 Na 186.11 186.11
EvdW_6 =   -0.057704
EvdW_8 =   -0.049324

-------- Electronic minimization -----------
Will mix electronic density at each iteration.
	FillingsUpdate:  mu: -0.117709704  nElectrons: 312.000000
	Linear fluid (dielectric constant: 7.2) occupying 0.852439 of unit cell:	Completed after 9 iterations at t[s]:    392.75
	FillingsUpdate:  mu: -0.113641817  nElectrons: 312.000000
	Linear fluid (dielectric constant: 7.2) occupying 0.852116 of unit cell:	Completed after 11 iterations at t[s]:    396.61
SCF: Cycle:  0   F: -516.962295054786750   dF: +6.413e-04   |Residual|: 1.119e-01   |deigs|: 6.382e-04  t[s]:    396.79
	Linear fluid (dielectric constant: 7.2) occupying 0.852764 of unit cell:	Completed after 13 iterations at t[s]:    397.05
	FillingsUpdate:  mu: -0.117006912  nElectrons: 312.000000
	Linear fluid (dielectric constant: 7.2) occupying 0.852435 of unit cell:	Completed after 11 iterations at t[s]:    400.39
SCF: Cycle:  1   F: -516.975251305076199   dF: -1.296e-02   |Residual|: 8.313e-02   |deigs|: 2.810e-03  t[s]:    400.56
	Linear fluid (dielectric constant: 7.2) occupying 0.853285 of unit cell:	Completed after 12 iterations at t[s]:    400.80
	FillingsUpdate:  mu: -0.114945635  nElectrons: 312.000000
[...]
SCF: Cycle: 21   F: -517.016171118800003   dF: -1.699e-08   |Residual|: 3.563e-05   |deigs|: 2.657e-06  t[s]:   6102.18
	Linear fluid (dielectric constant: 7.2) occupying 0.851166 of unit cell:	Completed after 1 iterations at t[s]:   6102.29
	FillingsUpdate:  mu: -0.110841820  nElectrons: 312.000000
	Linear fluid (dielectric constant: 7.2) occupying 0.851165 of unit cell:	Completed after 0 iterations at t[s]:   6104.27
SCF: Cycle: 22   F: -517.016171132523937   dF: -1.372e-08   |Residual|: 1.290e-05   |deigs|: 3.128e-06  t[s]:   6104.39
	Linear fluid (dielectric constant: 7.2) occupying 0.851166 of unit cell:	Completed after 0 iterations at t[s]:   6104.50
	FillingsUpdate:  mu: -0.110841809  nElectrons: 312.000000
	Linear fluid (dielectric constant: 7.2) occupying 0.851165 of unit cell:	Completed after 0 iterations at t[s]:   6106.42
SCF: Cycle: 23   F: -517.016171130523389   dF: +2.001e-09   |Residual|: 1.297e-05   |deigs|: 5.099e-06  t[s]:   6106.57
	Linear fluid (dielectric constant: 7.2) occupying 0.851165 of unit cell:	Completed after 0 iterations at t[s]:   6106.67
	FillingsUpdate:  mu: -0.110844541  nElectrons: 312.000000
	Linear fluid (dielectric constant: 7.2) occupying 0.851165 of unit cell:	Completed after 1 iterations at t[s]:   6108.82
SCF: Cycle: 24   F: -517.016171095105165   dF: +3.542e-08   |Residual|: 5.508e-05   |deigs|: 2.928e-06  t[s]:   6108.96
	Linear fluid (dielectric constant: 7.2) occupying 0.851165 of unit cell:	Completed after 1 iterations at t[s]:   6109.08
	FillingsUpdate:  mu: -0.110843315  nElectrons: 312.000000
	Linear fluid (dielectric constant: 7.2) occupying 0.851165 of unit cell:	Completed after 0 iterations at t[s]:   6111.24
SCF: Cycle: 25   F: -517.016171130135490   dF: -3.503e-08   |Residual|: 1.377e-05   |deigs|: 3.236e-06  t[s]:   6111.39
	Linear fluid (dielectric constant: 7.2) occupying 0.851165 of unit cell:	Completed after 0 iterations at t[s]:   6111.49
	FillingsUpdate:  mu: -0.110845077  nElectrons: 312.000000
	Linear fluid (dielectric constant: 7.2) occupying 0.851165 of unit cell:	Completed after 1 iterations at t[s]:   6113.62
SCF: Cycle: 26   F: -517.016171095237269   dF: +3.490e-08   |Residual|: 5.494e-05   |deigs|: 2.978e-06  t[s]:   6113.75
	Linear fluid (dielectric constant: 7.2) occupying 0.851165 of unit cell:	Completed after 1 iterations at t[s]:   6113.88
	FillingsUpdate:  mu: -0.110843504  nElectrons: 312.000000
	Linear fluid (dielectric constant: 7.2) occupying 0.851165 of unit cell:	Completed after 0 iterations at t[s]:   6115.94
SCF: Cycle: 27   F: -517.016171130502812   dF: -3.527e-08   |Residual|: 1.254e-05   |deigs|: 2.173e-06  t[s]:   6116.09
	Linear fluid (dielectric constant: 7.2) occupying 0.851165 of unit cell:	Completed after 0 iterations at t[s]:   6116.19
	FillingsUpdate:  mu: -0.110845091  nElectrons: 312.000000
	Linear fluid (dielectric constant: 7.2) occupying 0.851165 of unit cell:	Completed after 1 iterations at t[s]:   6118.33
SCF: Cycle: 28   F: -517.016171096954508   dF: +3.355e-08   |Residual|: 5.307e-05   |deigs|: 2.058e-06  t[s]:   6118.47
	Linear fluid (dielectric constant: 7.2) occupying 0.851165 of unit cell:	Completed after 1 iterations at t[s]:   6118.60
	FillingsUpdate:  mu: -0.110843909  nElectrons: 312.000000
	Linear fluid (dielectric constant: 7.2) occupying 0.851165 of unit cell:	Completed after 0 iterations at t[s]:   6120.70
SCF: Cycle: 29   F: -517.016171132386489   dF: -3.543e-08   |Residual|: 3.562e-06   |deigs|: 1.565e-06  t[s]:   6120.83
	Linear fluid (dielectric constant: 7.2) occupying 0.851165 of unit cell:	Completed after 0 iterations at t[s]:   6120.93
	FillingsUpdate:  mu: -0.110843903  nElectrons: 312.000000
	Linear fluid (dielectric constant: 7.2) occupying 0.851165 of unit cell:	Completed after 0 iterations at t[s]:   6122.73
SCF: Cycle: 30   F: -517.016171132436511   dF: -5.002e-11   |Residual|: 3.110e-06   |deigs|: 2.084e-06  t[s]:   6122.86
	Linear fluid (dielectric constant: 7.2) occupying 0.851165 of unit cell:	Completed after 0 iterations at t[s]:   6122.97
	FillingsUpdate:  mu: -0.110843901  nElectrons: 312.000000
	Linear fluid (dielectric constant: 7.2) occupying 0.851165 of unit cell:	Completed after 0 iterations at t[s]:   6124.69
SCF: Cycle: 31   F: -517.016171132437989   dF: -1.478e-12   |Residual|: 3.004e-06   |deigs|: 7.997e-08  t[s]:   6124.83
SCF: Converged (|Delta E|<1.000000e-08 for 2 iters).

Setting wave functions to eigenvectors of Hamiltonian
IonicMinimize: 	Wrong curvature in test step, increasing alphaT to 7.449741e-03.

Computing DFT-D3 correction:
# coordination-number C 3.299 3.299 3.300 3.299 3.300 3.300 3.300 3.300 3.312 3.299 3.300 3.306 3.301 3.301 3.315 3.299 3.305 3.301 3.300 3.308 3.309 3.299 3.300 3.384 3.301 3.300 3.300 3.306 3.309 3.300 3.300 3.383 3.304 3.300 3.306 3.303 3.299 3.299 3.299 3.300 3.302 3.300 3.300 3.302 3.300 3.301 3.310 3.299 3.300 3.324 3.301 3.300 3.300 3.300 3.333 3.302 3.300 3.304 3.341 3.300 3.300 3.301 3.342 3.302 3.300 3.303 3.299 3.301 3.332 3.302 3.300 3.320
# coordination-number S 1.964
# coordination-number Na 1.254 1.256
# diagonal-C6 C 24.29 24.29 24.28 24.29 24.29 24.28 24.29 24.28 24.17 24.29 24.29 24.23 24.28 24.27 24.14 24.29 24.24 24.27 24.28 24.21 24.19 24.29 24.28 23.32 24.28 24.28 24.28 24.22 24.19 24.28 24.28 23.33 24.24 24.29 24.22 24.25 24.29 24.29 24.29 24.28 24.27 24.29 24.28 24.26 24.28 24.27 24.18 24.29 24.29 24.04 24.27 24.28 24.29 24.28 23.95 24.26 24.28 24.24 23.86 24.28 24.28 24.28 23.84 24.26 24.29 24.26 24.29 24.27 23.95 24.26 24.28 24.08
# diagonal-C6 S 125.93
# diagonal-C6 Na 187.74 187.72
EvdW_6 =   -0.058829
EvdW_8 =   -0.048515

-------- Electronic minimization -----------
Will mix electronic density at each iteration.
	FillingsUpdate:  mu: -0.110843901  nElectrons: 312.000000
	Linear fluid (dielectric constant: 7.2) occupying 0.851165 of unit cell:	Completed after 0 iterations at t[s]:   6127.55
	FillingsUpdate:  mu: -0.110843992  nElectrons: 312.000000
	Linear fluid (dielectric constant: 7.2) occupying 0.851165 of unit cell:	Completed after 0 iterations at t[s]:   6129.77
SCF: Cycle:  0   F: -517.016171132550994   dF: -1.130e-10   |Residual|: 2.689e-06   |deigs|: 1.610e-08  t[s]:   6129.90
	Linear fluid (dielectric constant: 7.2) occupying 0.851165 of unit cell:	Completed after 0 iterations at t[s]:   6129.99
	FillingsUpdate:  mu: -0.110844001  nElectrons: 312.000000
	Linear fluid (dielectric constant: 7.2) occupying 0.851165 of unit cell:	Completed after 0 iterations at t[s]:   6132.40
SCF: Cycle:  1   F: -517.016171132631484   dF: -8.049e-11   |Residual|: 2.586e-06   |deigs|: 2.723e-08  t[s]:   6132.53
SCF: Converged (|Delta E|<1.000000e-08 for 2 iters).

Setting wave functions to eigenvectors of Hamiltonian

Computing DFT-D3 correction:
# coordination-number C 3.299 3.299 3.300 3.299 3.300 3.300 3.300 3.300 3.312 3.299 3.300 3.306 3.301 3.301 3.315 3.299 3.305 3.301 3.300 3.308 3.309 3.299 3.300 3.384 3.301 3.300 3.300 3.306 3.309 3.300 3.300 3.383 3.304 3.300 3.306 3.303 3.299 3.299 3.299 3.300 3.302 3.300 3.300 3.302 3.300 3.301 3.310 3.299 3.300 3.324 3.301 3.300 3.300 3.300 3.333 3.302 3.300 3.304 3.341 3.300 3.300 3.301 3.342 3.302 3.300 3.303 3.299 3.301 3.332 3.302 3.300 3.320
# coordination-number S 1.964
# coordination-number Na 1.254 1.256
# diagonal-C6 C 24.29 24.29 24.28 24.29 24.29 24.28 24.29 24.28 24.17 24.29 24.29 24.23 24.28 24.27 24.14 24.29 24.24 24.27 24.28 24.21 24.19 24.29 24.28 23.32 24.28 24.28 24.28 24.22 24.19 24.28 24.28 23.33 24.24 24.29 24.22 24.25 24.29 24.29 24.29 24.28 24.27 24.29 24.28 24.26 24.28 24.27 24.18 24.29 24.29 24.04 24.27 24.28 24.29 24.28 23.95 24.26 24.28 24.24 23.86 24.28 24.28 24.28 23.84 24.26 24.29 24.26 24.29 24.27 23.95 24.26 24.28 24.08
# diagonal-C6 S 125.93
# diagonal-C6 Na 187.74 187.72
EvdW_6 =   -0.058829
EvdW_8 =   -0.048515

# Ionic positions in cartesian coordinates:
ion C  28.015617290813523   0.004839032491928  23.511856008536981 1
ion C  16.346555703267825  20.218691432129944  23.506545472463863 1
ion C   2.344536870199359   4.049377815771663  23.477246884131567 1
ion C  23.346779405959737   0.005163716413989  23.530057625502305 1
ion C   4.677524482881546   0.006973809440347  23.519210964196823 1
ion C  11.677993686213327  20.216396203731886  23.494043614722095 1
ion C  25.679372489705067   4.047251437420195  23.503667239498068 1
ion C  18.681538935239516  16.175237212871586  23.480156535196141 1
ion C   4.680532731740302   8.089236704278353  23.376624099472281 1
ion C  18.680199799358803   0.004557668016706  23.532031097114789 1
ion C   9.344546441941162   0.006153551054469  23.524961362980722 1
ion C   9.341708049663472  16.174768343898918  23.410903182995543 1
ion C  23.344877193196048   8.089545944435848  23.477222353016845 1
ion C  21.013653204896389  12.130393163286096  23.474097020587369 1
ion C   7.010885518630179  12.129154811994569  23.352829764446685 1
ion C  14.010708420252085   0.005295431411721  23.520349736998117 1
ion C  14.010929131409318  16.175589333491963  23.426934914112195 1
ion C   7.010155605037935   4.046332954047607  23.472042049351799 1
ion C  21.014157414249713   4.047104813949633  23.511677556941446 1
ion C  16.347797594717150  12.132611643579594  23.422085419438922 1
ion C   9.342080259414042   8.087583140659525  23.379718077016559 1
ion C  16.347727628494898   4.046717730407495  23.496446680423791 1
ion C  11.676716903439276   4.050661404515956  23.472936818942930 1
ion C  11.675595827560702  12.133726431985735  23.356364315854986 1
ion C  18.682763745799853   8.089786289879401  23.470216973483435 1
ion C   7.010372234649346  20.214356441142368  23.491008692144735 1
ion C  -6.991958647211818  20.213439362232052  23.514013855653971 1
ion C   0.007960939039280   8.088235238830960  23.425399042236084 1
ion C  14.011435501230672   8.088271801527714  23.416775850183850 1
ion C   2.342887382265737  20.216520750374091  23.496055031821861 1
ion C  -4.659983545468958  16.173295842328493  23.481698137340299 1
ion C   2.345398316333216  12.133028466883580  23.371130150519157 1
ion C  -2.326066516140055  12.133951319777271  23.443368076508680 1
ion C  -2.325204083642927  20.218835754855711  23.518088876784979 1
ion C   4.680306761839446  16.175423995821728  23.418201186263104 1
ion C   0.008759233390149  16.175857182672676  23.442996537176636 1
ion C  14.012553905582344  21.564844421283766  23.507013653415473 1
ion C   2.343135123257346   1.353701959288966  23.506194033981256 1
ion C  25.681442831559846   1.350141510949034  23.517086472557747 1
ion C  16.347344653347847  17.523641882685844  23.471509849629751 1
ion C   4.678575800083669   5.394852739256266  23.448967915357187 1
ion C  21.013144606368552   1.354004618260297  23.527775411771415 1
ion C   7.010812044268987   1.353481323439792  23.508326744719060 1
ion C  11.675160560665473  17.520821860258387  23.442947591764774 1
ion C  23.345318845672356   5.394942313551456  23.497372229211066 1
ion C  18.681659886462185  13.478715522060742  23.460710797550217 1
ion C   7.011318050876583   9.436766915914193  23.355507698486331 1
ion C  16.345328880616886   1.350985727280547  23.519671526680508 1
ion C  11.677762508431863   1.354072119520528  23.513291023518065 1
ion C   9.341105255326216  13.481563195078804  23.360187877764055 1
ion C  21.013475922579605   9.438511550361508  23.481322424648116 1
ion C   9.344194189336310  21.563195363602258  23.514792294671160 1
ion C  -9.324209687103284  21.563167538101858  23.521935234060127 1
ion C   0.007572625135548   5.394345505434535  23.462660540932728 1
ion C  14.012090685723223  13.481631327291732  23.397034359613759 1
ion C   9.342573335995354   5.395362123162239  23.445605552277581 1
ion C  18.682742495527446   5.393717344096148  23.502974040877707 1
ion C  16.348300762760367   9.436193650899325  23.424612919280325 1
ion C  11.674874266702115   9.434223429360840  23.372940569368573 1
ion C  14.012439110728023   5.394699399852696  23.456149053966332 1
ion C   4.676884022989162  21.561069594580054  23.513715922589370 1
ion C  -6.992055756007680  17.519920036586978  23.502890689239461 1
ion C   2.345447266419276   9.435382269614108  23.387122453376797 1
ion C  -2.328241700799000   9.436053031839913  23.440347749166239 1
ion C  -4.659608821831259  21.563822862602951  23.523715819840657 1
ion C   7.010672007796638  17.522855672973154  23.444247636010704 1
ion C   0.008383092863625  21.565487805014566  23.512006335782871 1
ion C  -4.660557127600452  13.479342061770538  23.471568110745896 1
ion C   4.680130508665275  13.480000969807181  23.364256700456320 1
ion C   2.345631342073046  17.522080936958218  23.454729741251967 1
ion C  -2.327645591851465  17.522277621500599  23.483470418197001 1
ion C   0.008379189199956  13.481977783038703  23.411211598891633 1
ion S   7.340800384866874  11.726679735014885  31.281066959777888 1
ion Na   2.679276247312662  11.651977284452421  29.706807110376410 1
ion Na  12.009003171123013  11.738681807102116  29.692951734133565 1

# Forces in Cartesian coordinates:
force C  -0.000128878153856   0.000291580421350   0.000335384765585 1
force C   0.000248453745461  -0.000619990467308  -0.000501589389354 1
force C  -0.000681810798861  -0.000680864268670  -0.000092138533211 1
force C   0.000125049008306  -0.000402705982332  -0.000501458436596 1
force C  -0.000079458579633  -0.000949102478788  -0.000337539329045 1
force C  -0.000055056184841   0.000059124168378  -0.000125764976422 1
force C   0.000331534436653  -0.000487499736247  -0.001164521718462 1
force C  -0.000987989009405  -0.000713852488963   0.000069966492882 1
force C  -0.000533010468281  -0.000535926833765   0.002165348463469 1
force C  -0.000276941889376  -0.000359272828904  -0.000672028174930 1
force C  -0.000212542522786  -0.000273179473040  -0.000691922106487 1
force C   0.000452235841550   0.000012087038358   0.000046616850219 1
force C   0.000572868468708  -0.000171724372900   0.000166693837275 1
force C  -0.000135726220067   0.000807881199813   0.000162961883495 1
force C   0.000203159751247   0.001070347630334  -0.000932049583468 1
force C   0.000267573180334   0.000391985478524  -0.000180884173957 1
force C   0.000631189982601   0.000765237039964   0.000771238225758 1
force C   0.000299530694819   0.000677842345593   0.000048535916526 1
force C  -0.000199247974828  -0.000030590973050   0.000712795302846 1
force C  -0.000100219327684  -0.000499720196975  -0.000171780432038 1
force C  -0.000181658139618   0.000238941095428   0.000803055751583 1
force C  -0.000373248727340  -0.000024188450022   0.000156154440969 1
force C   0.000411159463743  -0.001355232493471   0.000339635016692 1
force C   0.000147111660013  -0.000591409469606   0.001568551351742 1
force C  -0.001076856482731  -0.000530737277070   0.000645042789886 1
force C   0.000253229588597   0.000987024592008   0.000864045437285 1
force C   0.000029238625954   0.001322844990736   0.000786726354122 1
force C  -0.000242585189469   0.000359868114388   0.000022198903994 1
force C   0.000725030551179   0.000326539481810  -0.000794889106519 1
force C  -0.000021613630790   0.000039610579149   0.000262297130805 1
force C   0.000453554894737   0.000215432521689   0.000974427561046 1
force C  -0.000713397438954  -0.000023984885611   0.001128823249082 1
force C  -0.000176121448803  -0.001098613963916  -0.000690756904187 1
force C  -0.000303637944278  -0.000904873865003  -0.001243735453952 1
force C  -0.001062486420070  -0.000212556314867  -0.000008075741340 1
force C  -0.000041155599129   0.000534621835135   0.000496117294814 1
force C  -0.000304061058780  -0.000435828538284   0.000228552003427 1
force C   0.000426976456120   0.000078455553745   0.000277707586815 1
force C  -0.000435852406647   0.001189249438303   0.000367216788549 1
force C  -0.000635253086174  -0.000393138615921   0.000468424055328 1
force C  -0.000340777374218   0.000100928205844  -0.000862978722131 1
force C   0.000162145672967  -0.001241790906965   0.000258842181887 1
force C   0.000012537112703  -0.000334347846767   0.000572134771751 1
force C   0.000724051550552   0.000679272484538   0.000241837900539 1
force C   0.000981493456179  -0.000185813526638   0.000322839696252 1
force C  -0.000590433272055   0.000762339064630   0.000170556664256 1
force C   0.000041245459941   0.000003163973764   0.000041040475320 1
force C   0.000526094625360   0.000570246708374   0.000106056723226 1
force C  -0.000226040661122   0.000182674013557  -0.000119299613455 1
force C  -0.000305609118107  -0.000465107703620   0.000570766723155 1
force C   0.000030226274244  -0.000781259795908  -0.000640562880532 1
force C  -0.000176068790528   0.000159463318314  -0.000618233298734 1
force C  -0.000498599452915   0.000813549084572  -0.000386237457059 1
force C   0.000476289755823  -0.000120937723337   0.000955994085794 1
force C   0.000509700261992  -0.000407368528044  -0.000617490215815 1
force C   0.000228605921476  -0.000341002966345  -0.000294465988539 1
force C  -0.001288233911637   0.000487179208454  -0.001235776437859 1
force C  -0.000663289845631   0.000210345463315   0.000912404294193 1
force C   0.000900330234087   0.000501811465182   0.000319587243308 1
force C   0.000142801824915  -0.000292412678920   0.000885425089117 1
force C   0.000143310433262   0.001285725132314  -0.000297152836600 1
force C  -0.000022417129650   0.000532018657233  -0.000743952290912 1
force C  -0.000733919020705  -0.000266965582188  -0.000646587463505 1
force C   0.001305364573674   0.000790602140426   0.000938216306972 1
force C   0.000363548395004   0.000381072282792   0.000324890772480 1
force C   0.000117826348562  -0.000541704903979  -0.000072772454015 1
force C   0.000138953101550  -0.000627947330567   0.000802543031220 1
force C   0.000830139701737   0.000107133890779  -0.000096358940100 1
force C   0.000462199723492   0.000364031328793   0.001090224870663 1
force C  -0.000757557207633  -0.000071689205338  -0.000264882376178 1
force C   0.001185213777084   0.000311256561807   0.000244480191014 1
force C  -0.000285521817871  -0.000351725260261   0.000217041176644 1
force S   0.000320407096436  -0.000090684183346  -0.000581492063832 1
force Na  -0.000499661021297  -0.000097136510346   0.000385599795891 1
force Na   0.000270501323077  -0.000055933228799   0.000512819193470 1

# Energy components:
   A_diel =       -0.0720166018835582
   Eewald =     4562.5840082742279264
       EH =     4970.5946708651717927
     Eloc =   -10078.3019332749427122
      Enl =      -83.8956813793614486
     EvdW =       -0.1073441608336957
      Exc =     -149.3248369679994596
 Exc_core =        4.1923996101475005
       KE =      257.3906814516356008
-------------------------------------
     Etot =     -516.9400521838372242
       TS =        0.0761189487942991
-------------------------------------
        F =     -517.0161711326314844

IonicMinimize: Iter:  27  F: -517.016171132631484  |grad|_K:  5.870e-04  alpha: -3.235e-02  linmin: -6.086e-01  t[s]:   6135.40
IonicMinimize: Converged (|Delta F|<1.000000e-06 for 2 iters).

#--- Lowdin population analysis ---
# oxidation-state C +0.035 +0.034 +0.034 +0.035 +0.035 +0.035 +0.034 +0.033 +0.032 +0.035 +0.035 +0.036 +0.033 +0.033 +0.041 +0.035 +0.030 +0.036 +0.034 +0.027 +0.035 +0.034 +0.034 +0.012 +0.032 +0.036 +0.035 +0.028 +0.027 +0.034 +0.033 +0.011 +0.029 +0.034 +0.034 +0.030 +0.035 +0.035 +0.035 +0.032 +0.035 +0.035 +0.036 +0.033 +0.034 +0.032 +0.040 +0.035 +0.035 +0.033 +0.033 +0.035 +0.035 +0.033 +0.020 +0.036 +0.034 +0.029 +0.021 +0.033 +0.035 +0.034 +0.019 +0.030 +0.035 +0.037 +0.035 +0.032 +0.028 +0.032 +0.033 +0.023
# oxidation-state S -1.001
# oxidation-state Na +0.878 +0.878


Dumping 'Na2S@graphene_vdw-glyme.fillings' ... done
Dumping 'Na2S@graphene_vdw-glyme.wfns' ... done
Dumping 'Na2S@graphene_vdw-glyme.fluidState' ... done
Dumping 'Na2S@graphene_vdw-glyme.ionpos' ... done
Dumping 'Na2S@graphene_vdw-glyme.eigenvals' ... done
End date and time: Fri Jan  3 17:17:16 2025  (Duration: 0-1:42:42.38)
Done!
