
*************** JDFTx 1.7.0  ***************

Start date and time: Thu Sep 26 17:37:27 2024
Executable ../../jdftx_install/build/jdftx_gpu with command-line: -i Na2S2@graphene-vdw.in -o Na2S2@graphene-vdw.out
Running on hosts (process indices):  ubaid-base (0)
Divided in process groups (process indices):  0 (0)
gpuInit: Found compatible cuda device 0 'NVIDIA GeForce RTX 3050'
gpuInit: Selected device 0
Resource initialization completed at t[s]:      0.15
Run totals: 1 processes, 16 threads, 1 GPUs


Input parsed successfully to the following command list (including defaults):

basis kpoint-dependent
coords-type Cartesian
core-overlap-check vector
coulomb-interaction Slab 001
coulomb-truncation-embed 0 0 18.8973
davidson-band-ratio 1.1
dump End State
dump-name Na2S2@graphene-vdw.$VAR
elec-cutoff 20 100
elec-eigen-algo Davidson
elec-ex-corr gga-PBE
elec-smearing Fermi 0.01
electronic-minimize  \
	dirUpdateScheme      FletcherReeves \
	linminMethod         DirUpdateRecommended \
	nIterations          100 \
	history              15 \
	knormThreshold       0 \
	energyDiffThreshold  1e-08 \
	nEnergyDiff          2 \
	alphaTstart          1 \
	alphaTmin            1e-10 \
	updateTestStepSize   yes \
	alphaTreduceFactor   0.1 \
	alphaTincreaseFactor 3 \
	nAlphaAdjustMax      3 \
	wolfeEnergy          0.0001 \
	wolfeGradient        0.9 \
	fdTest               no
electronic-scf  \
	nIterations	50 \
	energyDiffThreshold	1e-08 \
	residualThreshold	1e-07 \
	mixFraction	0.5 \
	qMetric	0.8 \
	history	10 \
	nEigSteps	2 \
	eigDiffThreshold	1e-08 \
	mixedVariable	Density \
	qKerker	0.8 \
	qKappa	-1 \
	verbose	no \
	mixFractionMag	1.5
exchange-regularization WignerSeitzTruncated
fluid None
fluid-ex-corr lda-TF lda-PZ
fluid-gummel-loop 10 1.000000e-05
fluid-minimize  \
	dirUpdateScheme      PolakRibiere \
	linminMethod         DirUpdateRecommended \
	nIterations          100 \
	history              15 \
	knormThreshold       0 \
	energyDiffThreshold  0 \
	nEnergyDiff          2 \
	alphaTstart          1 \
	alphaTmin            1e-10 \
	updateTestStepSize   yes \
	alphaTreduceFactor   0.1 \
	alphaTincreaseFactor 3 \
	nAlphaAdjustMax      3 \
	wolfeEnergy          0.0001 \
	wolfeGradient        0.9 \
	fdTest               no
fluid-solvent H2O 55.338 ScalarEOS \
	epsBulk 78.4 \
	pMol 0.92466 \
	epsInf 1.77 \
	Pvap 1.06736e-10 \
	sigmaBulk 4.62e-05 \
	Rvdw 2.61727 \
	Res 1.42 \
	tauNuc 343133 \
	poleEl 15 7 1
forces-output-coords Positions
ion C  27.960435777659406  -0.000836748455272  18.967225597257869 1
ion C  16.293008899767823  20.209797818350172  18.966954068896204 1
ion C   2.284526133009872   4.038629794641428  18.934239832000621 1
ion C  23.293968583788732   0.000941593104949  18.988483786505867 1
ion C   4.620187559141830  -0.004185110706158  18.974117291140171 1
ion C  11.627560536053156  20.213154638204099  18.967304909614739 1
ion C  25.625941413530906   4.040548605123029  18.955298098082878 1
ion C  18.627480249730962  16.167709166067187  18.950015520065069 1
ion C   4.615956082724603   8.079909848275026  18.896953368656547 1
ion C  18.626446949877966   0.000162812578174  19.010914262498648 1
ion C   9.289070653340683  -0.005353821550489  18.997438721945013 1
ion C   9.297113137201020  16.171240444484461  18.938669194607488 1
ion C  23.293264777450027   8.081901879774755  18.955538789338135 1
ion C  20.960326159519393  12.124734040103963  18.951442873129604 1
ion C   6.954149710801754  12.123018290895926  18.894940078206229 1
ion C  13.959195578054858  -0.003503869475525  19.013004502691942 1
ion C  13.963913688698817  16.169595368214839  18.930557232059289 1
ion C   6.949729310028082   4.034923904670982  18.963252426295515 1
ion C  20.960762362008971   4.040739903593209  18.991824194138175 1
ion C  16.296245335738078  12.126362840736908  18.937754720481976 1
ion C   9.288487391865697   8.083108277810224  18.928755141026979 1
ion C  16.296237611893119   4.038849861673149  19.009360886585707 1
ion C  11.627796924776030   4.034873551514135  19.004690324589568 1
ion C  11.633134782020216  12.127706416554956  18.909506242801843 1
ion C  18.629123922330365   8.082769217958322  18.976651349751837 1
ion C   6.957091755434060  20.217963047978820  18.997496910933123 1
ion C  -7.047173622534926  20.208263710488335  18.980044334342434 1
ion C  -0.048846044232072   8.080835967187035  18.913469953671758 1
ion C  13.965297480126354   8.082876268602098  18.968139483295257 1
ion C   2.286881538680777  20.211505620374140  19.003023982715341 1
ion C  -4.713923797317030  16.166425829072896  18.960636484269507 1
ion C   2.281482994827999  12.121416683375426  18.913149728523106 1
ion C  -2.381235064716932  12.123335617806838  18.933759171557206 1
ion C  -2.380075329613396  20.208546083604062  18.990540698142738 1
ion C   4.616409455129544  16.169330606127787  18.965622841086176 1
ion C  -0.049224545911491  16.166808426348918  18.960549182889963 1
ion C  13.960653081190188  21.558352386049371  18.969129729085548 1
ion C   2.287549938125089   1.344516669434774  18.959543572007075 1
ion C  25.627555583909476   1.346872438882805  18.969691679842246 1
ion C  16.295578375260369  17.516068280870449  18.949073348904975 1
ion C   4.617067997802534   5.385007789594122  18.923885529928061 1
ion C  20.960020952102226   1.346881707733130  18.999903205868755 1
ion C   6.953882482319247   1.340808181606315  18.981165777431993 1
ion C  11.633032580511689  17.519491951855379  18.945542632478222 1
ion C  23.293488285979549   5.388230726884447  18.968117479379519 1
ion C  18.628265252806123  13.473560025167183  18.944403945495484 1
ion C   6.948863572035097   9.427349551862886  18.898788170181216 1
ion C  16.292302727322841   1.344655705695604  19.015263235265216 1
ion C  11.624195539227365   1.339935664392244  19.009432389050122 1
ion C   9.295036430975749  13.471116916913431  18.902594768963869 1
ion C  20.961174019546110   9.430536093169314  18.962552490490722 1
ion C   9.292565761706586  21.561217770899230  18.986271724930294 1
ion C  -9.380045295317339  21.555523111877413  18.977659266896840 1
ion C  -0.047611671352562   5.386811635680852  18.929042782846576 1
ion C  13.964345214096095  13.474572797645095  18.918823780904837 1
ion C   9.287815540479658   5.381462335956552  18.976295710854576 1
ion C  18.628339012006826   5.387939138514611  18.995890530057867 1
ion C  16.297617932255939   9.432088091065840  18.961561793808269 1
ion C  11.630620864159033   9.432695880471982  18.933435077362457 1
ion C  13.962759059998787   5.385213755273272  18.999203935408552 1
ion C   4.620938218825678  21.560161759453038  19.007559832741958 1
ion C  -7.046177052724487  17.514550011849263  18.965403199590025 1
ion C   2.283181057403024   9.427800625538129  18.897566342268348 1
ion C  -2.380528007451757   9.429250644626755  18.930463840681305 1
ion C  -4.713747236126427  21.554927788417448  18.992077672594331 1
ion C   6.955886532903662  17.520898321589701  18.975724491903382 1
ion C  -0.046943402481569  21.556137201721889  19.004497191178505 1
ion C  -4.713426187126700  13.472449621325163  18.948371448053731 1
ion C   4.615634273068003  13.469658487804836  18.919470679709526 1
ion C   2.281420186845015  17.517271005454010  18.982853017410299 1
ion C  -2.381486664243415  17.514482330999062  18.970307959902918 1
ion C  -0.049161937562907  13.470985110226032  18.932387958963570 1
ion S  10.171556359516019  12.006086899690814  26.820140956471057 1
ion S   6.507488340341624  10.627912342006763  26.552053258557091 1
ion Na   9.881779741931272   7.713632329873738  24.028357432749679 1
ion Na   7.219240068380776  14.874746855818364  23.762443623306204 1
ion-species GBRV/$ID_pbe.uspp
ion-width 0
ionic-minimize  \
	dirUpdateScheme      FletcherReeves \
	linminMethod         DirUpdateRecommended \
	nIterations          200 \
	history              15 \
	knormThreshold       0.0001 \
	energyDiffThreshold  1e-06 \
	nEnergyDiff          2 \
	alphaTstart          1 \
	alphaTmin            1e-10 \
	updateTestStepSize   yes \
	alphaTreduceFactor   0.1 \
	alphaTincreaseFactor 3 \
	nAlphaAdjustMax      3 \
	wolfeEnergy          0.0001 \
	wolfeGradient        0.9 \
	fdTest               no
kpoint   0.000000000000   0.000000000000   0.000000000000  1.00000000000000
kpoint-folding 1 1 1 
latt-move-scale 1 1 1
latt-scale 1 1 1 
lattice Triclinic 28.0058 28.0058 37.7946 90 90 120
lattice-minimize  \
	dirUpdateScheme      L-BFGS \
	linminMethod         DirUpdateRecommended \
	nIterations          0 \
	history              15 \
	knormThreshold       0 \
	energyDiffThreshold  1e-06 \
	nEnergyDiff          2 \
	alphaTstart          1 \
	alphaTmin            1e-10 \
	updateTestStepSize   yes \
	alphaTreduceFactor   0.1 \
	alphaTincreaseFactor 3 \
	nAlphaAdjustMax      3 \
	wolfeEnergy          0.0001 \
	wolfeGradient        0.9 \
	fdTest               no
lcao-params -1 1e-06 0.01
pcm-variant GLSSA13
spintype no-spin
subspace-rotation-factor 1 yes
symmetries automatic
symmetry-threshold 0.0001
van-der-waals D3



---------- Setting up symmetries ----------

Found 24 point-group symmetries of the bravais lattice
Found 1 space-group symmetries with basis
Applied RMS atom displacement 0 bohrs to make symmetries exact.

---------- Initializing the Grid ----------
R = 
[      28.0058     -14.0029            0  ]
[            0      24.2537            0  ]
[            0            0      37.7946  ]
unit cell volume = 25671.8
G =
[   0.224353    0.12953         -0  ]
[          0   0.259061          0  ]
[          0         -0   0.166246  ]
Minimum fftbox size, Smin = [  128  128  172  ]
Chosen fftbox size, S = [  128  128  180  ]

---------- Initializing tighter grid for wavefunction operations ----------
R = 
[      28.0058     -14.0029            0  ]
[            0      24.2537            0  ]
[            0            0      37.7946  ]
unit cell volume = 25671.8
G =
[   0.224353    0.12953         -0  ]
[          0   0.259061          0  ]
[          0         -0   0.166246  ]
Minimum fftbox size, Smin = [  116  116  156  ]
Chosen fftbox size, S = [  120  120  160  ]

---------- Exchange Correlation functional ----------
Initalized PBE GGA exchange.
Initalized PBE GGA correlation.

---------- Setting up pseudopotentials ----------
Width of ionic core gaussian charges (only for fluid interactions / plotting) set to 0

Reading pseudopotential file '/home/ubaid/jdftx_install/build/pseudopotentials/GBRV/c_pbe.uspp':
  Title: C.  Created by USPP 7.3.6 on 3-2-2014
  Reference state energy: -5.406344.  4 valence electrons in orbitals:
    |200>  occupation: 2  eigenvalue: -0.504890
    |210>  occupation: 2  eigenvalue: -0.194356
  lMax: 1  lLocal: 2  QijEcut: 5
  4 projectors sampled on a log grid with 503 points:
    l: 0  eig: -0.504890  rCut: 1.3
    l: 0  eig: 0.000000  rCut: 1.3
    l: 1  eig: -0.194357  rCut: 1.3
    l: 1  eig: 0.000000  rCut: 1.3
  Partial core density with radius 1.1
  Transforming core density to a uniform radial grid of dG=0.02 with 1625 points.
  Transforming local potential to a uniform radial grid of dG=0.02 with 1625 points.
  Transforming nonlocal projectors to a uniform radial grid of dG=0.02 with 432 points.
  Transforming density augmentations to a uniform radial grid of dG=0.02 with 1625 points.
  Transforming atomic orbitals to a uniform radial grid of dG=0.02 with 432 points.
  Core radius for overlap checks: 1.30 bohrs.

Reading pseudopotential file '/home/ubaid/jdftx_install/build/pseudopotentials/GBRV/s_pbe.uspp':
  Title: S.  Created by USPP 7.3.6 on 1-4-15
  Reference state energy: -11.898476.  6 valence electrons in orbitals:
    |300>  occupation: 2  eigenvalue: -0.634167
    |310>  occupation: 4  eigenvalue: -0.257568
  lMax: 2  lLocal: 3  QijEcut: 6
  6 projectors sampled on a log grid with 635 points:
    l: 0  eig: -0.634161  rCut: 1.5
    l: 0  eig: 1.500000  rCut: 1.5
    l: 1  eig: -0.257567  rCut: 1.5
    l: 1  eig: 1.500000  rCut: 1.5
    l: 2  eig: -1.000000  rCut: 1.5
    l: 2  eig: 1.500000  rCut: 1.5
  Partial core density with radius 1.15
  Transforming core density to a uniform radial grid of dG=0.02 with 1625 points.
  Transforming local potential to a uniform radial grid of dG=0.02 with 1625 points.
  Transforming nonlocal projectors to a uniform radial grid of dG=0.02 with 432 points.
  Transforming density augmentations to a uniform radial grid of dG=0.02 with 1625 points.
  Transforming atomic orbitals to a uniform radial grid of dG=0.02 with 432 points.
  Core radius for overlap checks: 1.50 bohrs.

Reading pseudopotential file '/home/ubaid/jdftx_install/build/pseudopotentials/GBRV/na_pbe.uspp':
  Title: Na.  Created by USPP 7.3.6 on 23-9-15
  Reference state energy: -47.625620.  9 valence electrons in orbitals:
    |200>  occupation: 2  eigenvalue: -2.085638
    |210>  occupation: 6  eigenvalue: -1.053708
    |300>  occupation: 1  eigenvalue: -0.100838
  lMax: 2  lLocal: 0  QijEcut: 6
  5 projectors sampled on a log grid with 657 points:
    l: 0  eig: -2.085640  rCut: 1.37
    l: 0  eig: -0.100839  rCut: 1.37
    l: 1  eig: -1.053708  rCut: 1.47
    l: 1  eig: 0.500000  rCut: 1.47
    l: 2  eig: 0.750000  rCut: 2
  Transforming local potential to a uniform radial grid of dG=0.02 with 1625 points.
  Transforming nonlocal projectors to a uniform radial grid of dG=0.02 with 432 points.
  Transforming density augmentations to a uniform radial grid of dG=0.02 with 1625 points.
  Transforming atomic orbitals to a uniform radial grid of dG=0.02 with 432 points.
  Core radius for overlap checks: 2.00 bohrs.

Initialized 3 species with 76 total atoms.

Folded 1 k-points by 1x1x1 to 1 k-points.

---------- Setting up k-points, bands, fillings ----------
No reducable k-points. 
Computing the number of bands and number of electrons
Calculating initial fillings.
nElectrons: 318.000000   nBands: 306   nStates: 1

----- Setting up reduced wavefunction bases (one per k-point) -----
average nbasis = 109673.000 , ideal nbasis = 109671.883

---------- Setting up coulomb interaction ----------
Setting up double-sized grid for truncated Coulomb potentials:
R = 
[      28.0058     -14.0029            0  ]
[            0      24.2537            0  ]
[            0            0      75.5892  ]
unit cell volume = 51343.6
G =
[   0.224353    0.12953         -0  ]
[          0   0.259061          0  ]
[          0         -0  0.0831228  ]
Chosen fftbox size, S = [  128  128  360  ]
Integer grid location selected as the embedding center:
   Grid: [  0  0  90  ]
   Lattice: [  0  0  0.5  ]
   Cartesian: [  0  0  18.8973  ]
Constructing Wigner-Seitz cell: 8 faces (6 quadrilaterals, 2 hexagons)
Range-separation parameter for embedded mesh potentials due to point charges: 0.590105 bohrs.
Initialized slab truncation along lattice direction 001

Initializing DFT-D3 calculator:
	Parameters set for gga-PBE functional
	s6:  1.000  s_r6:  1.217
	s8:  0.722  s_r8:  1.000
	Per-atom parameters loaded for:
	 C:  sqrtQ[a0]:  3.105  Rcov[a0]:  1.417  CN: [ 0.00 0.99 2.00 3.00 3.98 ]
	 S:  sqrtQ[a0]:  4.041  Rcov[a0]:  1.928  CN: [ 0.00 0.99 1.99 ]
	Na:  sqrtQ[a0]:  6.586  Rcov[a0]:  2.646  CN: [ 0.00 0.97 ]

---------- Setting up 2D ewald sum ----------
Optimum gaussian width for ewald sums = 15.547689 bohr.
Real space sums over 289 unit cells with max indices [  8  8  0  ]
Reciprocal space sums over 81 terms with max indices [  4  4  0  ]

Computing DFT-D3 correction:
# coordination-number C 3.301 3.301 3.302 3.301 3.301 3.303 3.301 3.301 3.316 3.301 3.301 3.802 3.301 3.301 3.684 3.301 3.304 3.328 3.301 3.303 3.996 3.302 3.366 3.347 3.301 3.318 3.301 3.302 3.362 3.302 3.301 3.313 3.301 3.301 3.663 3.302 3.301 3.301 3.301 3.302 3.309 3.301 3.302 3.323 3.301 3.301 3.442 3.301 3.303 3.767 3.301 3.302 3.301 3.301 3.306 3.671 3.301 3.304 3.638 3.330 3.302 3.301 3.304 3.301 3.301 3.753 3.301 3.301 3.624 3.313 3.301 3.302
# coordination-number S 2.908 2.910
# coordination-number Na 3.972 4.774
# diagonal-C6 C 24.27 24.27 24.27 24.27 24.27 24.25 24.27 24.27 24.12 24.27 24.27 18.74 24.27 24.27 19.43 24.27 24.24 23.99 24.27 24.26 18.33 24.26 23.55 23.79 24.27 24.10 24.27 24.26 23.61 24.26 24.27 24.16 24.27 24.28 19.62 24.26 24.27 24.27 24.27 24.26 24.20 24.28 24.26 24.05 24.27 24.27 22.51 24.27 24.25 18.90 24.27 24.26 24.27 24.27 24.22 19.54 24.28 24.25 19.86 23.98 24.26 24.27 24.24 24.27 24.27 18.97 24.27 24.27 20.00 24.15 24.27 24.26
# diagonal-C6 S 125.81 125.81
# diagonal-C6 Na 186.11 186.11
EvdW_6 =   -0.059294
EvdW_8 =   -0.049669

---------- Allocating electronic variables ----------
Initializing wave functions:  linear combination of atomic orbitals
C pseudo-atom occupations:   s ( 2 )  p ( 2 )
S pseudo-atom occupations:   s ( 2 )  p ( 4 )
Na pseudo-atom occupations:   s ( 2 1 )  p ( 6 )
	FillingsUpdate:  mu: -0.206844404  nElectrons: 318.000000
LCAOMinimize: Iter:   0  F: -522.1097539380943999  |grad|_K:  1.177e-02  alpha:  1.000e+00
LCAOMinimize: 	Step increased F by 1.455324e+00, reducing alpha to 3.399669e-02.
	FillingsUpdate:  mu: -0.242070730  nElectrons: 318.000000
LCAOMinimize: Iter:   1  F: -522.6590416134984025  |grad|_K:  1.024e-02  alpha:  3.400e-02  linmin: -1.525e-01  cgtest:  6.767e-01  t[s]:     52.67
	FillingsUpdate:  mu: -0.271102881  nElectrons: 318.000000
LCAOMinimize: Iter:   2  F: -522.9366701701929969  |grad|_K:  2.933e-03  alpha:  5.206e-02  linmin:  1.478e-01  cgtest: -9.482e-01  t[s]:     67.14
LCAOMinimize: 	Bad step direction: g.d > 0.
LCAOMinimize: 	Undoing step.
LCAOMinimize: 	Step failed: resetting search direction.
	FillingsUpdate:  mu: -0.271102881  nElectrons: 318.000000
LCAOMinimize: Iter:   3  F: -522.9366701701929969  |grad|_K:  2.933e-03  alpha:  0.000e+00
	FillingsUpdate:  mu: -0.284977350  nElectrons: 318.000000
LCAOMinimize: Iter:   4  F: -522.9600760772327703  |grad|_K:  5.281e-04  alpha:  5.873e-02  linmin:  1.521e-01  cgtest: -4.365e-01  t[s]:     92.40
LCAOMinimize: 	Predicted alpha/alphaT>3.000000, increasing alphaT to 1.762004e-01.
	FillingsUpdate:  mu: -0.283730326  nElectrons: 318.000000
LCAOMinimize: Iter:   5  F: -522.9646021134543616  |grad|_K:  6.390e-04  alpha:  5.087e-01  linmin:  1.465e-03  cgtest:  5.819e-01  t[s]:    110.59
	FillingsUpdate:  mu: -0.281461890  nElectrons: 318.000000
LCAOMinimize: Iter:   6  F: -522.9657038089991374  |grad|_K:  2.579e-04  alpha:  6.884e-02  linmin:  3.313e-02  cgtest: -3.844e-01  t[s]:    125.16
	FillingsUpdate:  mu: -0.281390387  nElectrons: 318.000000
LCAOMinimize: Iter:   7  F: -522.9661299338927165  |grad|_K:  1.936e-04  alpha:  1.905e-01  linmin:  9.321e-05  cgtest:  6.711e-01  t[s]:    139.65
	FillingsUpdate:  mu: -0.282627684  nElectrons: 318.000000
LCAOMinimize: Iter:   8  F: -522.9662256997879695  |grad|_K:  4.453e-05  alpha:  5.371e-02  linmin: -1.104e-02  cgtest:  3.420e-02  t[s]:    154.24
LCAOMinimize: 	Predicted alpha/alphaT>3.000000, increasing alphaT to 1.611338e-01.
LCAOMinimize: 	Predicted alpha/alphaT>3.000000, increasing alphaT to 4.834015e-01.
	FillingsUpdate:  mu: -0.282651821  nElectrons: 318.000000
LCAOMinimize: Iter:   9  F: -522.9662715279490612  |grad|_K:  2.757e-05  alpha:  4.870e-01  linmin:  3.907e-05  cgtest: -1.741e-02  t[s]:    176.23
	FillingsUpdate:  mu: -0.282734813  nElectrons: 318.000000
LCAOMinimize: Iter:  10  F: -522.9662839905909095  |grad|_K:  9.150e-06  alpha:  3.479e-01  linmin:  1.250e-05  cgtest:  9.619e-03  t[s]:    190.79
	FillingsUpdate:  mu: -0.282677787  nElectrons: 318.000000
LCAOMinimize: Iter:  11  F: -522.9662851513506894  |grad|_K:  9.864e-06  alpha:  2.942e-01  linmin: -2.536e-06  cgtest:  7.592e-05  t[s]:    205.33
	FillingsUpdate:  mu: -0.282733176  nElectrons: 318.000000
LCAOMinimize: Iter:  12  F: -522.9662854840785258  |grad|_K:  2.917e-06  alpha:  7.253e-02  linmin: -1.318e-04  cgtest:  1.810e-03  t[s]:    219.93
LCAOMinimize: 	Predicted alpha/alphaT>3.000000, increasing alphaT to 2.175968e-01.
	FillingsUpdate:  mu: -0.282727662  nElectrons: 318.000000
LCAOMinimize: Iter:  13  F: -522.9662856611415691  |grad|_K:  1.062e-06  alpha:  4.415e-01  linmin:  6.581e-06  cgtest: -1.493e-03  t[s]:    238.24
LCAOMinimize: Converged (|Delta F|<1.000000e-06 for 2 iters).


---- Citations for features of the code used in this run ----

   Software package:
      R. Sundararaman, K. Letchworth-Weaver, K.A. Schwarz, D. Gunceler, Y. Ozhabes and T.A. Arias, 'JDFTx: software for joint density-functional theory', SoftwareX 6, 278 (2017)

   gga-PBE exchange-correlation functional:
      J.P. Perdew, K. Burke and M. Ernzerhof, Phys. Rev. Lett. 77, 3865 (1996)

   Pseudopotentials:
      KF Garrity, JW Bennett, KM Rabe and D Vanderbilt, Comput. Mater. Sci. 81, 446 (2014)

   Truncated Coulomb potentials:
      R. Sundararaman and T.A. Arias, Phys. Rev. B 87, 165122 (2013)

   DFT-D3 dispersion correction:
      S. Grimme, J. Antony, S. Ehrlich and H. Krieg, J. Chem. Phys. 132, 154104 (2010)

This list may not be complete. Please suggest additional citations or
report any other bugs at https://github.com/shankar1729/jdftx/issues

Initialization completed successfully at t[s]:    244.87


Computing DFT-D3 correction:
# coordination-number C 3.301 3.301 3.302 3.301 3.301 3.303 3.301 3.301 3.316 3.301 3.301 3.802 3.301 3.301 3.684 3.301 3.304 3.328 3.301 3.303 3.996 3.302 3.366 3.347 3.301 3.318 3.301 3.302 3.362 3.302 3.301 3.313 3.301 3.301 3.663 3.302 3.301 3.301 3.301 3.302 3.309 3.301 3.302 3.323 3.301 3.301 3.442 3.301 3.303 3.767 3.301 3.302 3.301 3.301 3.306 3.671 3.301 3.304 3.638 3.330 3.302 3.301 3.304 3.301 3.301 3.753 3.301 3.301 3.624 3.313 3.301 3.302
# coordination-number S 2.908 2.910
# coordination-number Na 3.972 4.774
# diagonal-C6 C 24.27 24.27 24.27 24.27 24.27 24.25 24.27 24.27 24.12 24.27 24.27 18.74 24.27 24.27 19.43 24.27 24.24 23.99 24.27 24.26 18.33 24.26 23.55 23.79 24.27 24.10 24.27 24.26 23.61 24.26 24.27 24.16 24.27 24.28 19.62 24.26 24.27 24.27 24.27 24.26 24.20 24.28 24.26 24.05 24.27 24.27 22.51 24.27 24.25 18.90 24.27 24.26 24.27 24.27 24.22 19.54 24.28 24.25 19.86 23.98 24.26 24.27 24.24 24.27 24.27 18.97 24.27 24.27 20.00 24.15 24.27 24.26
# diagonal-C6 S 125.81 125.81
# diagonal-C6 Na 186.11 186.11
EvdW_6 =   -0.059294
EvdW_8 =   -0.049669

-------- Electronic minimization -----------
Will mix electronic density at each iteration.
	FillingsUpdate:  mu: -0.282727662  nElectrons: 318.000000
	FillingsUpdate:  mu: -0.290132370  nElectrons: 318.000000
SCF: Cycle:  0   F: -526.416243198060897   dF: -3.450e+00   |Residual|: 9.492e-01   |deigs|: 1.256e-01  t[s]:    301.93
	FillingsUpdate:  mu: -0.263787921  nElectrons: 318.000000
SCF: Cycle:  1   F: -526.882011360921297   dF: -4.658e-01   |Residual|: 4.887e-01   |deigs|: 3.567e-02  t[s]:    349.85
	FillingsUpdate:  mu: -0.230676721  nElectrons: 318.000000
SCF: Cycle:  2   F: -527.223265490660879   dF: -3.413e-01   |Residual|: 1.317e-01   |deigs|: 3.111e-02  t[s]:    397.87
	FillingsUpdate:  mu: -0.223389257  nElectrons: 318.000000
SCF: Cycle:  3   F: -527.223496281823486   dF: -2.308e-04   |Residual|: 8.288e-02   |deigs|: 9.131e-03  t[s]:    445.58
	FillingsUpdate:  mu: -0.212518741  nElectrons: 318.000000
SCF: Cycle:  4   F: -527.264945057493151   dF: -4.145e-02   |Residual|: 4.715e-02   |deigs|: 9.190e-03  t[s]:    493.46
	FillingsUpdate:  mu: -0.203368605  nElectrons: 318.000000
SCF: Cycle:  5   F: -527.268621429180826   dF: -3.676e-03   |Residual|: 3.462e-02   |deigs|: 8.961e-03  t[s]:    541.31
	FillingsUpdate:  mu: -0.196817739  nElectrons: 318.000000
SCF: Cycle:  6   F: -527.277758534979966   dF: -9.137e-03   |Residual|: 1.942e-02   |deigs|: 5.745e-03  t[s]:    587.27
	FillingsUpdate:  mu: -0.189807760  nElectrons: 318.000000
SCF: Cycle:  7   F: -527.281014101713254   dF: -3.256e-03   |Residual|: 1.446e-02   |deigs|: 6.865e-03  t[s]:    633.26
	FillingsUpdate:  mu: -0.186519664  nElectrons: 318.000000
SCF: Cycle:  8   F: -527.278730248391412   dF: +2.284e-03   |Residual|: 1.688e-02   |deigs|: 3.502e-03  t[s]:    678.36
	FillingsUpdate:  mu: -0.182671601  nElectrons: 318.000000
SCF: Cycle:  9   F: -527.283089470967525   dF: -4.359e-03   |Residual|: 1.237e-02   |deigs|: 3.007e-03  t[s]:    720.52
	FillingsUpdate:  mu: -0.180957445  nElectrons: 318.000000
SCF: Cycle: 10   F: -527.282712597457248   dF: +3.769e-04   |Residual|: 1.151e-02   |deigs|: 2.102e-03  t[s]:    762.64
	FillingsUpdate:  mu: -0.176752513  nElectrons: 318.000000
SCF: Cycle: 11   F: -527.283463055814309   dF: -7.505e-04   |Residual|: 1.141e-02   |deigs|: 3.198e-03  t[s]:    803.64
	FillingsUpdate:  mu: -0.173850377  nElectrons: 318.000000
SCF: Cycle: 12   F: -527.284502091447393   dF: -1.039e-03   |Residual|: 5.096e-03   |deigs|: 2.790e-03  t[s]:    844.67
	FillingsUpdate:  mu: -0.171466407  nElectrons: 318.000000
SCF: Cycle: 13   F: -527.284609388580748   dF: -1.073e-04   |Residual|: 3.915e-03   |deigs|: 2.211e-03  t[s]:    885.23
	FillingsUpdate:  mu: -0.168136678  nElectrons: 318.000000
SCF: Cycle: 14   F: -527.284533717574732   dF: +7.567e-05   |Residual|: 2.930e-03   |deigs|: 3.526e-03  t[s]:    925.78
	FillingsUpdate:  mu: -0.164820886  nElectrons: 318.000000
SCF: Cycle: 15   F: -527.284519595972256   dF: +1.412e-05   |Residual|: 2.373e-03   |deigs|: 3.343e-03  t[s]:    966.33
	FillingsUpdate:  mu: -0.162764095  nElectrons: 318.000000
SCF: Cycle: 16   F: -527.284598544786945   dF: -7.895e-05   |Residual|: 1.728e-03   |deigs|: 1.976e-03  t[s]:   1006.89
	FillingsUpdate:  mu: -0.161502206  nElectrons: 318.000000
SCF: Cycle: 17   F: -527.284618283912323   dF: -1.974e-05   |Residual|: 1.547e-03   |deigs|: 1.271e-03  t[s]:   1047.44
	FillingsUpdate:  mu: -0.160542138  nElectrons: 318.000000
SCF: Cycle: 18   F: -527.284663945504917   dF: -4.566e-05   |Residual|: 1.458e-03   |deigs|: 9.469e-04  t[s]:   1088.00
	FillingsUpdate:  mu: -0.159495288  nElectrons: 318.000000
SCF: Cycle: 19   F: -527.284684387019070   dF: -2.044e-05   |Residual|: 1.312e-03   |deigs|: 1.176e-03  t[s]:   1128.58
	FillingsUpdate:  mu: -0.157712479  nElectrons: 318.000000
SCF: Cycle: 20   F: -527.284694923433335   dF: -1.054e-05   |Residual|: 7.417e-04   |deigs|: 2.225e-03  t[s]:   1169.15
	FillingsUpdate:  mu: -0.157288747  nElectrons: 318.000000
SCF: Cycle: 21   F: -527.284695667535402   dF: -7.441e-07   |Residual|: 5.542e-04   |deigs|: 1.306e-03  t[s]:   1209.72
	FillingsUpdate:  mu: -0.157050526  nElectrons: 318.000000
SCF: Cycle: 22   F: -527.284696348547300   dF: -6.810e-07   |Residual|: 3.677e-04   |deigs|: 8.094e-04  t[s]:   1250.30
	FillingsUpdate:  mu: -0.156767307  nElectrons: 318.000000
SCF: Cycle: 23   F: -527.284696817863733   dF: -4.693e-07   |Residual|: 2.747e-04   |deigs|: 4.417e-04  t[s]:   1290.91
	FillingsUpdate:  mu: -0.156640031  nElectrons: 318.000000
SCF: Cycle: 24   F: -527.284697371347306   dF: -5.535e-07   |Residual|: 2.140e-04   |deigs|: 3.165e-04  t[s]:   1331.50
	FillingsUpdate:  mu: -0.156596104  nElectrons: 318.000000
SCF: Cycle: 25   F: -527.284697896691569   dF: -5.253e-07   |Residual|: 1.238e-04   |deigs|: 3.878e-04  t[s]:   1372.12
	FillingsUpdate:  mu: -0.156635805  nElectrons: 318.000000
SCF: Cycle: 26   F: -527.284698012710464   dF: -1.160e-07   |Residual|: 8.609e-05   |deigs|: 2.475e-04  t[s]:   1412.70
	FillingsUpdate:  mu: -0.156637576  nElectrons: 318.000000
SCF: Cycle: 27   F: -527.284698043350886   dF: -3.064e-08   |Residual|: 5.883e-05   |deigs|: 2.912e-04  t[s]:   1453.29
	FillingsUpdate:  mu: -0.156619405  nElectrons: 318.000000
SCF: Cycle: 28   F: -527.284698048118912   dF: -4.768e-09   |Residual|: 4.181e-05   |deigs|: 3.179e-04  t[s]:   1493.88
	FillingsUpdate:  mu: -0.156596263  nElectrons: 318.000000
SCF: Cycle: 29   F: -527.284698059321045   dF: -1.120e-08   |Residual|: 2.535e-05   |deigs|: 3.300e-04  t[s]:   1534.93
	FillingsUpdate:  mu: -0.156592400  nElectrons: 318.000000
SCF: Cycle: 30   F: -527.284698061613767   dF: -2.293e-09   |Residual|: 2.074e-05   |deigs|: 8.210e-05  t[s]:   1575.52
	FillingsUpdate:  mu: -0.156594137  nElectrons: 318.000000
SCF: Cycle: 31   F: -527.284698066918054   dF: -5.304e-09   |Residual|: 1.414e-05   |deigs|: 1.423e-04  t[s]:   1616.11
SCF: Converged (|Delta E|<1.000000e-08 for 2 iters).

Setting wave functions to eigenvectors of Hamiltonian

Computing DFT-D3 correction:
# coordination-number C 3.301 3.301 3.302 3.301 3.301 3.303 3.301 3.301 3.316 3.301 3.301 3.802 3.301 3.301 3.684 3.301 3.304 3.328 3.301 3.303 3.996 3.302 3.366 3.347 3.301 3.318 3.301 3.302 3.362 3.302 3.301 3.313 3.301 3.301 3.663 3.302 3.301 3.301 3.301 3.302 3.309 3.301 3.302 3.323 3.301 3.301 3.442 3.301 3.303 3.767 3.301 3.302 3.301 3.301 3.306 3.671 3.301 3.304 3.638 3.330 3.302 3.301 3.304 3.301 3.301 3.753 3.301 3.301 3.624 3.313 3.301 3.302
# coordination-number S 2.908 2.910
# coordination-number Na 3.972 4.774
# diagonal-C6 C 24.27 24.27 24.27 24.27 24.27 24.25 24.27 24.27 24.12 24.27 24.27 18.74 24.27 24.27 19.43 24.27 24.24 23.99 24.27 24.26 18.33 24.26 23.55 23.79 24.27 24.10 24.27 24.26 23.61 24.26 24.27 24.16 24.27 24.28 19.62 24.26 24.27 24.27 24.27 24.26 24.20 24.28 24.26 24.05 24.27 24.27 22.51 24.27 24.25 18.90 24.27 24.26 24.27 24.27 24.22 19.54 24.28 24.25 19.86 23.98 24.26 24.27 24.24 24.27 24.27 18.97 24.27 24.27 20.00 24.15 24.27 24.26
# diagonal-C6 S 125.81 125.81
# diagonal-C6 Na 186.11 186.11
EvdW_6 =   -0.059294
EvdW_8 =   -0.049669

# Ionic positions in cartesian coordinates:
ion C  27.960435777659406  -0.000836748455272  18.967225597257869 1
ion C  16.293008899767823  20.209797818350172  18.966954068896204 1
ion C   2.284526133009872   4.038629794641428  18.934239832000621 1
ion C  23.293968583788732   0.000941593104949  18.988483786505867 1
ion C   4.620187559141830  -0.004185110706158  18.974117291140171 1
ion C  11.627560536053156  20.213154638204099  18.967304909614739 1
ion C  25.625941413530906   4.040548605123029  18.955298098082878 1
ion C  18.627480249730962  16.167709166067187  18.950015520065069 1
ion C   4.615956082724603   8.079909848275026  18.896953368656547 1
ion C  18.626446949877966   0.000162812578174  19.010914262498648 1
ion C   9.289070653340683  -0.005353821550489  18.997438721945013 1
ion C   9.297113137201020  16.171240444484461  18.938669194607488 1
ion C  23.293264777450027   8.081901879774755  18.955538789338135 1
ion C  20.960326159519393  12.124734040103963  18.951442873129604 1
ion C   6.954149710801754  12.123018290895926  18.894940078206229 1
ion C  13.959195578054858  -0.003503869475525  19.013004502691942 1
ion C  13.963913688698817  16.169595368214839  18.930557232059289 1
ion C   6.949729310028082   4.034923904670982  18.963252426295515 1
ion C  20.960762362008971   4.040739903593209  18.991824194138175 1
ion C  16.296245335738078  12.126362840736908  18.937754720481976 1
ion C   9.288487391865697   8.083108277810224  18.928755141026979 1
ion C  16.296237611893119   4.038849861673149  19.009360886585707 1
ion C  11.627796924776030   4.034873551514135  19.004690324589568 1
ion C  11.633134782020216  12.127706416554956  18.909506242801843 1
ion C  18.629123922330365   8.082769217958322  18.976651349751837 1
ion C   6.957091755434060  20.217963047978820  18.997496910933123 1
ion C  -7.047173622534926  20.208263710488335  18.980044334342434 1
ion C  -0.048846044232072   8.080835967187035  18.913469953671758 1
ion C  13.965297480126354   8.082876268602098  18.968139483295257 1
ion C   2.286881538680777  20.211505620374140  19.003023982715341 1
ion C  -4.713923797317030  16.166425829072896  18.960636484269507 1
ion C   2.281482994827999  12.121416683375426  18.913149728523106 1
ion C  -2.381235064716932  12.123335617806838  18.933759171557206 1
ion C  -2.380075329613396  20.208546083604062  18.990540698142738 1
ion C   4.616409455129544  16.169330606127787  18.965622841086176 1
ion C  -0.049224545911491  16.166808426348918  18.960549182889963 1
ion C  13.960653081190188  21.558352386049371  18.969129729085548 1
ion C   2.287549938125089   1.344516669434774  18.959543572007075 1
ion C  25.627555583909476   1.346872438882805  18.969691679842246 1
ion C  16.295578375260369  17.516068280870449  18.949073348904975 1
ion C   4.617067997802534   5.385007789594122  18.923885529928061 1
ion C  20.960020952102226   1.346881707733130  18.999903205868755 1
ion C   6.953882482319247   1.340808181606315  18.981165777431993 1
ion C  11.633032580511689  17.519491951855379  18.945542632478222 1
ion C  23.293488285979549   5.388230726884447  18.968117479379519 1
ion C  18.628265252806123  13.473560025167183  18.944403945495484 1
ion C   6.948863572035097   9.427349551862886  18.898788170181216 1
ion C  16.292302727322841   1.344655705695604  19.015263235265216 1
ion C  11.624195539227365   1.339935664392244  19.009432389050122 1
ion C   9.295036430975749  13.471116916913431  18.902594768963869 1
ion C  20.961174019546110   9.430536093169314  18.962552490490722 1
ion C   9.292565761706586  21.561217770899230  18.986271724930294 1
ion C  -9.380045295317339  21.555523111877413  18.977659266896840 1
ion C  -0.047611671352562   5.386811635680852  18.929042782846576 1
ion C  13.964345214096095  13.474572797645095  18.918823780904837 1
ion C   9.287815540479658   5.381462335956552  18.976295710854576 1
ion C  18.628339012006826   5.387939138514611  18.995890530057867 1
ion C  16.297617932255939   9.432088091065840  18.961561793808269 1
ion C  11.630620864159033   9.432695880471982  18.933435077362457 1
ion C  13.962759059998787   5.385213755273272  18.999203935408552 1
ion C   4.620938218825678  21.560161759453038  19.007559832741958 1
ion C  -7.046177052724487  17.514550011849263  18.965403199590025 1
ion C   2.283181057403024   9.427800625538129  18.897566342268348 1
ion C  -2.380528007451757   9.429250644626755  18.930463840681305 1
ion C  -4.713747236126427  21.554927788417448  18.992077672594331 1
ion C   6.955886532903662  17.520898321589701  18.975724491903382 1
ion C  -0.046943402481569  21.556137201721889  19.004497191178505 1
ion C  -4.713426187126700  13.472449621325163  18.948371448053731 1
ion C   4.615634273068003  13.469658487804836  18.919470679709526 1
ion C   2.281420186845015  17.517271005454010  18.982853017410299 1
ion C  -2.381486664243415  17.514482330999062  18.970307959902918 1
ion C  -0.049161937562907  13.470985110226032  18.932387958963570 1
ion S  10.171556359516019  12.006086899690814  26.820140956471057 1
ion S   6.507488340341624  10.627912342006763  26.552053258557091 1
ion Na   9.881779741931272   7.713632329873738  24.028357432749679 1
ion Na   7.219240068380776  14.874746855818364  23.762443623306204 1

# Forces in Cartesian coordinates:
force C  -0.000023400540493  -0.000046443481055   0.000005846286995 1
force C  -0.000094007819433   0.000076800469244  -0.000163595367396 1
force C   0.000045116595256  -0.000050359623765   0.000127893732658 1
force C   0.000029497685473  -0.000074814244509  -0.000068082661154 1
force C   0.000007465685885   0.000022478699651  -0.000030443438909 1
force C  -0.000088974060180  -0.000035859356257   0.000131344346118 1
force C  -0.000006373477562  -0.000080945341935   0.000038237921697 1
force C   0.000002635015301  -0.000134950063714   0.000070386749648 1
force C   0.000201407640997   0.000147528459632   0.000387226202907 1
force C  -0.000030137359037  -0.000048229753883   0.000069468944837 1
force C   0.000010951207529   0.000055526410615   0.000067386946961 1
force C   0.000050261504235  -0.000116100656498  -0.000145995615428 1
force C  -0.000122312796329  -0.000002117559544  -0.000135683386500 1
force C  -0.000012573102614   0.000000133022636   0.000004023788822 1
force C   0.000148553728703  -0.000410516132185  -0.000400244570890 1
force C  -0.000013945023985   0.000007650835212   0.000094619322814 1
force C  -0.000228520787852  -0.000102458836204   0.000275814119663 1
force C  -0.000070991291984  -0.000013324664398   0.000126185094778 1
force C  -0.000013115774172   0.000061114195174  -0.000062774210589 1
force C  -0.000034881384268  -0.000055216276415   0.000171421292372 1
force C  -0.000219704342815   0.000148591349001  -0.000241941974117 1
force C  -0.000020108997486   0.000026415935096  -0.000007095227312 1
force C   0.000152435124690  -0.000167705836292  -0.000169660275447 1
force C  -0.000245801418412   0.000126418991781   0.000208851085881 1
force C   0.000000037917244  -0.000004546325295  -0.000040242858417 1
force C   0.000017592555464   0.000011285826398   0.000021643469125 1
force C  -0.000004004522245   0.000052519336009  -0.000076711045992 1
force C   0.000110200094831   0.000063200685084   0.000180123562105 1
force C   0.000175239628884  -0.000049723737395  -0.000095649522162 1
force C   0.000015130966179   0.000039632317311  -0.000068590111946 1
force C   0.000034406883455  -0.000073767525675  -0.000064102445120 1
force C   0.000037094456234  -0.000043295262609   0.000223564224811 1
force C  -0.000010269271764   0.000106827331940   0.000139068631062 1
force C   0.000053046566428   0.000008072096613   0.000082244308746 1
force C  -0.000182783873696   0.000100498003783  -0.000491661589684 1
force C  -0.000022717641202  -0.000023435772641   0.000163223164664 1
force C  -0.000014789466111   0.000100101912287  -0.000029312208816 1
force C   0.000043740883908  -0.000006153784085  -0.000031131227921 1
force C   0.000074692101081  -0.000073353373367   0.000089569594736 1
force C  -0.000024209931972  -0.000019391978842   0.000011579517219 1
force C   0.000121963401703   0.000097676620796   0.000410481131386 1
force C   0.000019012034041  -0.000020846301955   0.000032253270306 1
force C   0.000015281505496   0.000055060713002   0.000114659867777 1
force C  -0.000094346853209  -0.000064183409789   0.000229751651366 1
force C  -0.000008905825463   0.000055653011326  -0.000054804412399 1
force C   0.000080425964911  -0.000012825098905   0.000167091559231 1
force C  -0.000345246657379   0.000359198154936  -0.000415708300663 1
force C  -0.000012964992345   0.000018829037352   0.000006747808988 1
force C  -0.000014871149073   0.000017748108191   0.000212913133171 1
force C   0.000137997219820  -0.000135086254226  -0.000146841064808 1
force C  -0.000036602696510   0.000012361792322  -0.000104389537963 1
force C  -0.000019227772631  -0.000055262432150   0.000066104426772 1
force C   0.000023533980916   0.000120329960904  -0.000132872192350 1
force C   0.000126843666760   0.000034471336252   0.000091665481600 1
force C  -0.000254866619550  -0.000024059450391   0.000318075348774 1
force C  -0.000077685263933  -0.000372702670138  -0.000529442274150 1
force C  -0.000033511944073   0.000051329125146  -0.000029506754440 1
force C   0.000033688010307  -0.000077615582430   0.000158175148485 1
force C   0.000258559166451   0.000429783989059  -0.000528540045096 1
force C   0.000075983377181  -0.000047481235399   0.000012773538807 1
force C   0.000010680113672  -0.000072956816741   0.000120577305224 1
force C   0.000095312819608  -0.000055591963014  -0.000032703445755 1
force C   0.000166931913620   0.000024956010888   0.000334510267133 1
force C   0.000040893073187   0.000094317932346   0.000107379396553 1
force C   0.000015383041637   0.000041632454536  -0.000009957732738 1
force C   0.000164678464392   0.000168169237543  -0.000374947431154 1
force C   0.000028593744085   0.000012737697162   0.000013254764843 1
force C   0.000040410832441   0.000045160832777  -0.000005336116774 1
force C  -0.000111150624835  -0.000246947461869  -0.000412534177222 1
force C  -0.000088429282933   0.000044173825557  -0.000013687049951 1
force C   0.000022725428258  -0.000080316603122   0.000158280486218 1
force C   0.000005347449947   0.000081128948386   0.000203104577628 1
force S   0.000522447198830  -0.000115520237564  -0.001084960637672 1
force S  -0.000378286774434  -0.000328086447254  -0.000633947423262 1
force Na   0.000044844880041  -0.000344723690804   0.000627356354836 1
force Na  -0.000318312384892   0.000790453640740   0.000995900848289 1

# Energy components:
   Eewald =    -1199.7804867255279078
       EH =     -798.5990872015555624
     Eloc =     1439.6507304843566999
      Enl =      -82.0250446960288713
     EvdW =       -0.1089626349333153
      Exc =     -153.5463661899379701
 Exc_core =        5.9601299662371678
       KE =      261.2391265363211232
-------------------------------------
     Etot =     -527.2099604610687038
       TS =        0.0747376058492949
-------------------------------------
        F =     -527.2846980669180539

IonicMinimize: Iter:   0  F: -527.284698066918054  |grad|_K:  1.993e-04  alpha:  1.000e+00

#--- Lowdin population analysis ---
# oxidation-state C +0.040 +0.041 +0.040 +0.038 +0.039 +0.036 +0.041 +0.041 +0.037 +0.038 +0.037 -0.006 +0.041 +0.041 +0.007 +0.038 +0.039 +0.026 +0.040 +0.040 -0.019 +0.035 +0.015 +0.032 +0.039 +0.028 +0.041 +0.042 +0.020 +0.035 +0.040 +0.037 +0.041 +0.040 -0.001 +0.038 +0.040 +0.040 +0.040 +0.041 +0.035 +0.040 +0.035 +0.031 +0.041 +0.041 +0.023 +0.038 +0.033 +0.001 +0.041 +0.035 +0.040 +0.041 +0.040 -0.006 +0.039 +0.037 +0.004 +0.022 +0.035 +0.041 +0.041 +0.041 +0.039 -0.008 +0.038 +0.041 +0.008 +0.030 +0.039 +0.039
# oxidation-state S -0.414 -0.413
# oxidation-state Na +0.839 +0.837


Computing DFT-D3 correction:
# coordination-number C 3.301 3.301 3.302 3.301 3.301 3.303 3.301 3.301 3.316 3.301 3.301 3.801 3.301 3.301 3.683 3.301 3.304 3.328 3.301 3.303 3.996 3.302 3.366 3.347 3.301 3.318 3.301 3.302 3.361 3.302 3.301 3.313 3.301 3.301 3.662 3.302 3.301 3.301 3.301 3.302 3.309 3.301 3.302 3.323 3.301 3.301 3.442 3.301 3.303 3.766 3.301 3.302 3.301 3.301 3.306 3.670 3.301 3.304 3.637 3.330 3.302 3.301 3.304 3.301 3.301 3.752 3.301 3.301 3.623 3.313 3.301 3.302
# coordination-number S 2.908 2.910
# coordination-number Na 3.969 4.769
# diagonal-C6 C 24.27 24.27 24.27 24.27 24.27 24.25 24.27 24.27 24.12 24.27 24.27 18.75 24.27 24.27 19.44 24.27 24.24 23.99 24.27 24.26 18.33 24.26 23.55 23.79 24.27 24.10 24.27 24.26 23.61 24.26 24.27 24.16 24.27 24.28 19.62 24.26 24.27 24.27 24.27 24.26 24.20 24.28 24.26 24.05 24.27 24.27 22.51 24.27 24.25 18.90 24.27 24.26 24.27 24.27 24.22 19.55 24.27 24.25 19.87 23.98 24.26 24.27 24.24 24.27 24.27 18.98 24.27 24.27 20.01 24.15 24.27 24.26
# diagonal-C6 S 125.81 125.81
# diagonal-C6 Na 186.11 186.11
EvdW_6 =   -0.059298
EvdW_8 =   -0.049672

-------- Electronic minimization -----------
Will mix electronic density at each iteration.
	FillingsUpdate:  mu: -0.156594137  nElectrons: 318.000000
	FillingsUpdate:  mu: -0.156574574  nElectrons: 318.000000
SCF: Cycle:  0   F: -527.284704122314338   dF: +1.334e-06   |Residual|: 5.626e-04   |deigs|: 3.829e-06  t[s]:   1678.38
	FillingsUpdate:  mu: -0.156559779  nElectrons: 318.000000
SCF: Cycle:  1   F: -527.284705853153127   dF: -1.731e-06   |Residual|: 2.893e-04   |deigs|: 1.881e-05  t[s]:   1707.25
	FillingsUpdate:  mu: -0.156568406  nElectrons: 318.000000
SCF: Cycle:  2   F: -527.284706256857476   dF: -4.037e-07   |Residual|: 1.153e-04   |deigs|: 8.981e-06  t[s]:   1736.12
	FillingsUpdate:  mu: -0.156567944  nElectrons: 318.000000
SCF: Cycle:  3   F: -527.284706361212784   dF: -1.044e-07   |Residual|: 4.539e-05   |deigs|: 9.481e-06  t[s]:   1764.98
	FillingsUpdate:  mu: -0.156569127  nElectrons: 318.000000
SCF: Cycle:  4   F: -527.284706370893105   dF: -9.680e-09   |Residual|: 1.687e-05   |deigs|: 1.403e-05  t[s]:   1793.85
	FillingsUpdate:  mu: -0.156570389  nElectrons: 318.000000
SCF: Cycle:  5   F: -527.284706377067550   dF: -6.174e-09   |Residual|: 9.783e-06   |deigs|: 1.978e-05  t[s]:   1822.73
SCF: Converged (|Delta E|<1.000000e-08 for 2 iters).

Setting wave functions to eigenvectors of Hamiltonian
IonicMinimize: 	Predicted alpha/alphaT>3.000000, increasing alphaT to 3.000000e+00.

Computing DFT-D3 correction:
# coordination-number C 3.301 3.301 3.302 3.301 3.301 3.303 3.301 3.301 3.316 3.301 3.301 3.800 3.301 3.301 3.681 3.301 3.304 3.328 3.301 3.303 3.995 3.302 3.366 3.347 3.301 3.318 3.301 3.302 3.361 3.302 3.301 3.313 3.301 3.300 3.660 3.302 3.301 3.301 3.301 3.302 3.309 3.300 3.303 3.323 3.301 3.301 3.441 3.301 3.303 3.764 3.301 3.303 3.301 3.301 3.306 3.669 3.301 3.304 3.635 3.330 3.302 3.301 3.305 3.301 3.301 3.751 3.301 3.301 3.622 3.313 3.301 3.303
# coordination-number S 2.908 2.910
# coordination-number Na 3.963 4.758
# diagonal-C6 C 24.27 24.27 24.27 24.27 24.27 24.25 24.27 24.27 24.12 24.27 24.27 18.75 24.27 24.27 19.46 24.27 24.24 23.99 24.27 24.26 18.33 24.26 23.56 23.79 24.27 24.10 24.28 24.27 23.61 24.26 24.27 24.16 24.27 24.28 19.64 24.26 24.27 24.27 24.27 24.27 24.20 24.28 24.26 24.05 24.27 24.27 22.52 24.27 24.25 18.91 24.27 24.26 24.27 24.27 24.22 19.56 24.27 24.25 19.88 23.98 24.26 24.27 24.24 24.27 24.27 18.98 24.27 24.27 20.03 24.15 24.27 24.26
# diagonal-C6 S 125.81 125.81
# diagonal-C6 Na 186.11 186.11
EvdW_6 =   -0.059305
EvdW_8 =   -0.049680

-------- Electronic minimization -----------
Will mix electronic density at each iteration.
	FillingsUpdate:  mu: -0.156570389  nElectrons: 318.000000
	FillingsUpdate:  mu: -0.156571350  nElectrons: 318.000000
SCF: Cycle:  0   F: -527.284713784151108   dF: +1.054e-06   |Residual|: 1.004e-03   |deigs|: 4.331e-07  t[s]:   1874.56
	FillingsUpdate:  mu: -0.156552087  nElectrons: 318.000000
SCF: Cycle:  1   F: -527.284717462406320   dF: -3.678e-06   |Residual|: 4.344e-04   |deigs|: 2.450e-05  t[s]:   1903.41
	FillingsUpdate:  mu: -0.156564584  nElectrons: 318.000000
SCF: Cycle:  2   F: -527.284718119638228   dF: -6.572e-07   |Residual|: 2.236e-04   |deigs|: 1.402e-05  t[s]:   1932.26
	FillingsUpdate:  mu: -0.156562030  nElectrons: 318.000000
SCF: Cycle:  3   F: -527.284718467258813   dF: -3.476e-07   |Residual|: 8.809e-05   |deigs|: 1.324e-05  t[s]:   1961.11
	FillingsUpdate:  mu: -0.156563787  nElectrons: 318.000000
SCF: Cycle:  4   F: -527.284718483101074   dF: -1.584e-08   |Residual|: 2.713e-05   |deigs|: 2.046e-05  t[s]:   1990.00
	FillingsUpdate:  mu: -0.156565066  nElectrons: 318.000000
SCF: Cycle:  5   F: -527.284718490985256   dF: -7.884e-09   |Residual|: 1.676e-05   |deigs|: 2.048e-05  t[s]:   2018.90
	FillingsUpdate:  mu: -0.156566987  nElectrons: 318.000000
SCF: Cycle:  6   F: -527.284718494735785   dF: -3.751e-09   |Residual|: 1.070e-05   |deigs|: 2.739e-05  t[s]:   2047.78
SCF: Converged (|Delta E|<1.000000e-08 for 2 iters).

Setting wave functions to eigenvectors of Hamiltonian

Computing DFT-D3 correction:
# coordination-number C 3.301 3.301 3.302 3.301 3.301 3.303 3.301 3.301 3.317 3.301 3.301 3.798 3.301 3.301 3.678 3.301 3.304 3.328 3.301 3.302 3.993 3.302 3.365 3.347 3.302 3.318 3.300 3.301 3.361 3.302 3.301 3.313 3.301 3.300 3.658 3.302 3.301 3.301 3.301 3.301 3.309 3.300 3.303 3.323 3.301 3.301 3.440 3.301 3.303 3.761 3.301 3.303 3.301 3.301 3.306 3.666 3.301 3.304 3.633 3.329 3.302 3.301 3.305 3.301 3.301 3.749 3.301 3.301 3.619 3.313 3.301 3.303
# coordination-number S 2.909 2.910
# coordination-number Na 3.954 4.741
# diagonal-C6 C 24.27 24.27 24.27 24.27 24.27 24.25 24.27 24.27 24.12 24.27 24.27 18.76 24.27 24.27 19.48 24.27 24.24 23.99 24.27 24.26 18.33 24.26 23.56 23.78 24.27 24.10 24.28 24.27 23.62 24.26 24.27 24.16 24.27 24.28 19.66 24.26 24.27 24.27 24.28 24.27 24.20 24.28 24.26 24.05 24.28 24.27 22.54 24.27 24.25 18.93 24.27 24.26 24.27 24.27 24.22 19.59 24.27 24.24 19.91 23.98 24.26 24.27 24.24 24.27 24.27 18.99 24.27 24.27 20.06 24.16 24.27 24.26
# diagonal-C6 S 125.81 125.81
# diagonal-C6 Na 186.11 186.11
EvdW_6 =   -0.059316
EvdW_8 =   -0.049691

-------- Electronic minimization -----------
Will mix electronic density at each iteration.
	FillingsUpdate:  mu: -0.156566987  nElectrons: 318.000000
	FillingsUpdate:  mu: -0.156566968  nElectrons: 318.000000
SCF: Cycle:  0   F: -527.284712535770609   dF: +4.411e-06   |Residual|: 1.563e-03   |deigs|: 4.844e-07  t[s]:   2099.34
	FillingsUpdate:  mu: -0.156533758  nElectrons: 318.000000
SCF: Cycle:  1   F: -527.284722565389416   dF: -1.003e-05   |Residual|: 7.089e-04   |deigs|: 4.210e-05  t[s]:   2128.17
	FillingsUpdate:  mu: -0.156554383  nElectrons: 318.000000
SCF: Cycle:  2   F: -527.284724478421481   dF: -1.913e-06   |Residual|: 3.427e-04   |deigs|: 2.266e-05  t[s]:   2157.04
	FillingsUpdate:  mu: -0.156551046  nElectrons: 318.000000
SCF: Cycle:  3   F: -527.284725318861319   dF: -8.404e-07   |Residual|: 1.336e-04   |deigs|: 2.218e-05  t[s]:   2185.90
	FillingsUpdate:  mu: -0.156553818  nElectrons: 318.000000
SCF: Cycle:  4   F: -527.284725363259213   dF: -4.440e-08   |Residual|: 4.295e-05   |deigs|: 3.291e-05  t[s]:   2214.78
	FillingsUpdate:  mu: -0.156556119  nElectrons: 318.000000
SCF: Cycle:  5   F: -527.284725388392417   dF: -2.513e-08   |Residual|: 2.577e-05   |deigs|: 3.481e-05  t[s]:   2243.69
	FillingsUpdate:  mu: -0.156559198  nElectrons: 318.000000
SCF: Cycle:  6   F: -527.284725399516333   dF: -1.112e-08   |Residual|: 1.797e-05   |deigs|: 3.880e-05  t[s]:   2272.58
	FillingsUpdate:  mu: -0.156562582  nElectrons: 318.000000
SCF: Cycle:  7   F: -527.284725411740169   dF: -1.222e-08   |Residual|: 1.260e-05   |deigs|: 3.520e-05  t[s]:   2312.32
	FillingsUpdate:  mu: -0.156566220  nElectrons: 318.000000
SCF: Cycle:  8   F: -527.284725417717937   dF: -5.978e-09   |Residual|: 1.167e-05   |deigs|: 2.345e-05  t[s]:   2352.05
	FillingsUpdate:  mu: -0.156569288  nElectrons: 318.000000
SCF: Cycle:  9   F: -527.284725422163774   dF: -4.446e-09   |Residual|: 8.336e-06   |deigs|: 1.398e-05  t[s]:   2392.58
SCF: Converged (|Delta E|<1.000000e-08 for 2 iters).

Setting wave functions to eigenvectors of Hamiltonian

Computing DFT-D3 correction:
# coordination-number C 3.301 3.301 3.302 3.301 3.301 3.303 3.301 3.301 3.317 3.301 3.301 3.798 3.301 3.301 3.678 3.301 3.304 3.328 3.301 3.302 3.993 3.302 3.365 3.347 3.302 3.318 3.300 3.301 3.361 3.302 3.301 3.313 3.301 3.300 3.658 3.302 3.301 3.301 3.301 3.301 3.309 3.300 3.303 3.323 3.301 3.301 3.440 3.301 3.303 3.761 3.301 3.303 3.301 3.301 3.306 3.666 3.301 3.304 3.633 3.329 3.302 3.301 3.305 3.301 3.301 3.749 3.301 3.301 3.619 3.313 3.301 3.303
# coordination-number S 2.909 2.910
# coordination-number Na 3.954 4.741
# diagonal-C6 C 24.27 24.27 24.27 24.27 24.27 24.25 24.27 24.27 24.12 24.27 24.27 18.76 24.27 24.27 19.48 24.27 24.24 23.99 24.27 24.26 18.33 24.26 23.56 23.78 24.27 24.10 24.28 24.27 23.62 24.26 24.27 24.16 24.27 24.28 19.66 24.26 24.27 24.27 24.28 24.27 24.20 24.28 24.26 24.05 24.28 24.27 22.54 24.27 24.25 18.93 24.27 24.26 24.27 24.27 24.22 19.59 24.27 24.24 19.91 23.98 24.26 24.27 24.24 24.27 24.27 18.99 24.27 24.27 20.06 24.16 24.27 24.26
# diagonal-C6 S 125.81 125.81
# diagonal-C6 Na 186.11 186.11
EvdW_6 =   -0.059316
EvdW_8 =   -0.049691

# Ionic positions in cartesian coordinates:
ion C  27.960295659061359  -0.001119360282549  18.967242034525444 1
ion C  16.292441918850017  20.210260288323393  18.965946132207687 1
ion C   2.284800240592862   4.038323507439783  18.934994117497983 1
ion C  23.294148265922082   0.000487463410348  18.988053280019518 1
ion C   4.620234044944796  -0.004051047618605  18.973914335778328 1
ion C  11.627023987155738  20.212936013604928  18.968080056089729 1
ion C  25.625904233492321   4.040057409356638  18.955510361737431 1
ion C  18.627497531303394  16.166891480154707  18.950422142197713 1
ion C   4.617175061138814   8.080799910339341  18.899275470694931 1
ion C  18.626266103269511  -0.000130598313653  19.011315335964124 1
ion C   9.289138211161674  -0.005019965711018  18.997827208514963 1
ion C   9.297418348769524  16.170536714269051  18.937767658718791 1
ion C  23.292526676383147   8.081887244082026  18.954699596907904 1
ion C  20.960251499119412  12.124733010497527  18.951448292329221 1
ion C   6.955049156386647  12.120534646841456  18.892501458598208 1
ion C  13.959112623587364  -0.003459449505603  19.013557624909996 1
ion C  13.962533498171483  16.168974110786149  18.932205782857395 1
ion C   6.949301477487710   4.034841515471148  18.963996382077017 1
ion C  20.960684420841861   4.041107540860246  18.991425780341935 1
ion C  16.296035808720958  12.126027192227941  18.938772155549636 1
ion C   9.287160501907895   8.084004765662765  18.927273553253301 1
ion C  16.296117392598717   4.039007727652990  19.009299084826072 1
ion C  11.628719835671015   4.033857837788119  19.003645721982767 1
ion C  11.631650119968722  12.128468859533093  18.910749962874750 1
ion C  18.629125502925252   8.082739898955346  18.976389151164561 1
ion C   6.957199464089761  20.218029443597622  18.997608851411002 1
ion C  -7.047196480852338  20.208579386802107  18.979561664220505 1
ion C  -0.048178468808038   8.081216218506565  18.914539999052423 1
ion C  13.966358257594127   8.082573825705676  18.967542319002305 1
ion C   2.286974365588755  20.211743387118542  19.002590408391999 1
ion C  -4.713714436209075  16.165978027406172  18.960230040518258 1
ion C   2.281708603886134  12.121153104370952  18.914482398130794 1
ion C  -2.381295797111247  12.123979617736426  18.934581015854839 1
ion C  -2.379753280714146  20.208593050345677  18.991019006159039 1
ion C   4.615305771013002  16.169936341564810  18.962631552103367 1
ion C  -0.049360535983702  16.166664909582849  18.961517055478179 1
ion C  13.960565021575878  21.558955726881514  18.968933612671599 1
ion C   2.287815728727931   1.344477632402744  18.959336458558170 1
ion C  25.628008492732430   1.346427141009145  18.970214273499028 1
ion C  16.295433363417182  17.515949211204273  18.949124446904275 1
ion C   4.617806689300359   5.385596468119952  18.926348221617619 1
ion C  20.960137242336582   1.346753845832686  19.000079288803505 1
ion C   6.953976219325491   1.341139222031196  18.981840056471842 1
ion C  11.632463549936311  17.519102091777704  18.946912708700253 1
ion C  23.293435796415999   5.388565348099299  18.967767247677170 1
ion C  18.628752826191313  13.473480656133088  18.945395204792593 1
ion C   6.946777705319846   9.429519281101971  18.896256063277516 1
ion C  16.292225697720113   1.344767704438819  19.015285122760798 1
ion C  11.624106985791752   1.340041128286134  19.010700666575953 1
ion C   9.295872056286900  13.470298407649608  18.901688121838919 1
ion C  20.960954086189187   9.430608993631767  18.961902487687695 1
ion C   9.292450869932125  21.560881843351833  18.986652457915191 1
ion C  -9.379901667267930  21.556248743100671  18.976837069780323 1
ion C  -0.046843475796592   5.387018201274612  18.929578047365940 1
ion C  13.962805747598875  13.474425510382057  18.920727825563709 1
ion C   9.287347238961626   5.379207296408158  18.973076015525351 1
ion C  18.628137764057065   5.388247619307216  18.995693237501772 1
ion C  16.297822947355037   9.431617025644194  18.962499148184641 1
ion C  11.632185356989030   9.435292342384360  18.930220836535831 1
ion C  13.963219775341395   5.384924869613702  18.999262251967075 1
ion C   4.621004137725661  21.559718858996238  19.008269886153993 1
ion C  -7.045599479591040  17.514212092094954  18.965186581164268 1
ion C   2.284191609870447   9.427949665421806  18.899569745626223 1
ion C  -2.380279433531230   9.429819017915438  18.931094105012164 1
ion C  -4.713652885274796  21.555177647161841  18.991998565314290 1
ion C   6.956883461951806  17.521913169235230  18.973438808308661 1
ion C  -0.046769185202891  21.556212374749073  19.004558417030022 1
ion C  -4.713180528633684  13.472720811180789  18.948320281146710 1
ion C   4.614963653859775  13.468163712080921  18.916957762239491 1
ion C   2.280886931444849  17.517536228273404  18.982751364225351 1
ion C  -2.381347924367978  17.513994936326728  18.971245951107527 1
ion C  -0.049128257735753  13.471473748388640  18.933596938031297 1
ion S  10.174716209925972  12.005386678447520  26.813562827551412 1
ion S   6.505202726784080  10.625927033634598  26.548201768446269 1
ion Na   9.882052206836789   7.711546439628392  24.032131262077865 1
ion Na   7.217317035104333  14.879523776834864  23.768445519765301 1

# Forces in Cartesian coordinates:
force C   0.000252734927266   0.000202509935493   0.000001328709400 1
force C   0.000272932697709  -0.000135986863451  -0.000094297950308 1
force C   0.000254940721640   0.000307292729287   0.000220273862939 1
force C  -0.000015355536442   0.000087289938175   0.000074575298957 1
force C   0.000113697269940   0.000117374609370   0.000003231388825 1
force C   0.000151191619199   0.000018380440334   0.000117867538820 1
force C   0.000214339266098   0.000264174075005   0.000044305431833 1
force C   0.000053238475040   0.000413606727927   0.000068063479401 1
force C  -0.000797279036030  -0.000268247930842   0.000177062276251 1
force C   0.000078499694099   0.000043285414086   0.000081883603592 1
force C  -0.000096831047074  -0.000012334607066   0.000108381107625 1
force C  -0.000258225893958   0.000036599205801  -0.000077965165832 1
force C   0.000453797176769   0.000235186413610  -0.000063669535374 1
force C   0.000212208494425  -0.000001926596209   0.000019407153868 1
force C  -0.000591309563284   0.001668877005299  -0.000423799576629 1
force C   0.000030745023921  -0.000035063188391   0.000123430778726 1
force C   0.000459981856066   0.000169228636586   0.000274916213022 1
force C   0.000080698187402  -0.000219960872347   0.000028984884221 1
force C  -0.000020136091437  -0.000165031393039  -0.000026059938304 1
force C  -0.000238382703254   0.000163036300255   0.000244022767341 1
force C   0.000730853274241  -0.000289151372824  -0.000513485798037 1
force C   0.000187810581404  -0.000097292364909   0.000052301447802 1
force C  -0.000336905463907   0.000275799650025  -0.000129511291722 1
force C   0.000750975849477  -0.000005109647439  -0.000046094306469 1
force C   0.000053613045014   0.000008741643783   0.000029079771854 1
force C   0.000050268257723   0.000018716324796  -0.000018444579231 1
force C   0.000069185528765  -0.000164186516834  -0.000062620690908 1
force C  -0.000007789529225   0.000003294323415   0.000249572278697 1
force C  -0.000383309823794   0.000267603337023  -0.000132738239278 1
force C  -0.000070928593524  -0.000044061418173   0.000042767662228 1
force C   0.000042204958358   0.000194178179673   0.000050518450509 1
force C  -0.000219843746484   0.000013524581111   0.000080473459138 1
force C   0.000134645445955  -0.000091795148995   0.000147505584731 1
force C  -0.000122931243828  -0.000136792371016   0.000072469173048 1
force C   0.000590871190071  -0.000438310887431  -0.000348399295491 1
force C  -0.000017682338240   0.000050855957729   0.000155430876289 1
force C  -0.000269016925688  -0.000349253570213  -0.000007254433579 1
force C  -0.000106669065628  -0.000054392759992   0.000013604917283 1
force C  -0.000235331750837   0.000066671408421   0.000020842044188 1
force C  -0.000247297155263  -0.000110480756967   0.000070084079264 1
force C  -0.000207408791393   0.000056651654987   0.000314338934061 1
force C  -0.000014648077568   0.000054076172399  -0.000013108382164 1
force C  -0.000117052092684  -0.000187092286287   0.000080837763472 1
force C  -0.000009320189745   0.000091785878927   0.000168576212663 1
force C   0.000033632942122  -0.000192479285439  -0.000067507498188 1
force C  -0.000388617862402  -0.000243182609135   0.000118853090771 1
force C   0.001253582102338  -0.001273078609998  -0.000074418738762 1
force C   0.000013286602395  -0.000071111308902   0.000055465279049 1
force C   0.000223023002333  -0.000276697017296   0.000065208620137 1
force C  -0.000868615667333   0.000135722969160  -0.000130616140578 1
force C  -0.000034773083680   0.000025911863594  -0.000071060730929 1
force C   0.000065665529921   0.000125573188797   0.000062255464751 1
force C  -0.000169000539848  -0.000266274039812  -0.000115380346760 1
force C  -0.000267898656579  -0.000115803895181   0.000127431092536 1
force C   0.000499279026645   0.000029456040032   0.000321340849656 1
force C   0.000375188827409   0.001292310192383  -0.000169307894204 1
force C   0.000079933272127  -0.000084867664654  -0.000035791813669 1
force C   0.000161300471231   0.000166234941027   0.000059974085087 1
force C  -0.000986733018859  -0.001352996959397  -0.000106062891031 1
force C  -0.000135075843509   0.000098588780237  -0.000090569885835 1
force C  -0.000053698423066   0.000165053531289   0.000030942139874 1
force C  -0.000260683356168   0.000123065894853  -0.000045535358343 1
force C  -0.000174056459800  -0.000135308512705   0.000359813290270 1
force C  -0.000126682405057  -0.000139161012031   0.000075303174514 1
force C   0.000076645792880  -0.000014448852004   0.000025785497365 1
force C  -0.000575124219774  -0.000636011211914  -0.000289620137396 1
force C   0.000016924649760   0.000083427489267   0.000067913594542 1
force C  -0.000181922402796  -0.000194570210678   0.000016277546480 1
force C   0.000621850722948   0.000641338177273  -0.000260622218555 1
force C   0.000057758372657   0.000037666614047  -0.000110159990996 1
force C  -0.000050398371082   0.000226843183398   0.000097659859170 1
force C   0.000055030661505  -0.000168439531124   0.000218757673333 1
force S  -0.000152959679742  -0.000321733333589  -0.001055027481646 1
force S   0.000291784348362  -0.000034838798717  -0.000548221089417 1
force Na   0.000058168367770  -0.000408328727170   0.000561493688101 1
force Na  -0.000325101232976   0.000776251664505   0.001002012914797 1

# Energy components:
   Eewald =    -1199.8662924521702280
       EH =     -798.6813444997432043
     Eloc =     1439.8208648904990241
      Enl =      -82.0252224105007173
     EvdW =       -0.1090074051911311
      Exc =     -153.5452489891591483
 Exc_core =        5.9601299819475173
       KE =      261.2360957610418950
-------------------------------------
     Etot =     -527.2100251232759547
       TS =        0.0747002988878555
-------------------------------------
        F =     -527.2847254221637741

IonicMinimize: Iter:   1  F: -527.284725422163774  |grad|_K:  3.322e-04  alpha:  6.046e+00  linmin:  1.042e-03  t[s]:   2405.96

#--- Lowdin population analysis ---
# oxidation-state C +0.040 +0.041 +0.040 +0.038 +0.039 +0.036 +0.041 +0.041 +0.037 +0.038 +0.037 -0.006 +0.041 +0.041 +0.007 +0.038 +0.039 +0.026 +0.040 +0.040 -0.020 +0.035 +0.015 +0.032 +0.039 +0.028 +0.041 +0.041 +0.020 +0.035 +0.040 +0.037 +0.041 +0.040 -0.001 +0.038 +0.040 +0.040 +0.040 +0.041 +0.035 +0.040 +0.035 +0.031 +0.041 +0.041 +0.023 +0.038 +0.033 +0.002 +0.041 +0.035 +0.040 +0.041 +0.040 -0.006 +0.039 +0.037 +0.004 +0.022 +0.035 +0.041 +0.041 +0.041 +0.039 -0.008 +0.038 +0.041 +0.008 +0.030 +0.039 +0.039
# oxidation-state S -0.416 -0.414
# oxidation-state Na +0.839 +0.836


Computing DFT-D3 correction:
# coordination-number C 3.301 3.301 3.302 3.301 3.302 3.303 3.300 3.300 3.317 3.301 3.301 3.783 3.301 3.301 3.656 3.301 3.305 3.328 3.301 3.302 3.976 3.302 3.364 3.346 3.301 3.318 3.300 3.302 3.359 3.302 3.301 3.313 3.302 3.301 3.645 3.302 3.301 3.301 3.301 3.301 3.309 3.300 3.302 3.323 3.300 3.301 3.435 3.301 3.303 3.741 3.301 3.303 3.301 3.301 3.306 3.655 3.301 3.304 3.619 3.329 3.302 3.300 3.305 3.301 3.301 3.736 3.302 3.301 3.604 3.313 3.301 3.302
# coordination-number S 2.912 2.911
# coordination-number Na 3.900 4.631
# diagonal-C6 C 24.27 24.28 24.26 24.27 24.27 24.25 24.28 24.28 24.12 24.27 24.27 18.82 24.28 24.27 19.68 24.27 24.24 23.99 24.28 24.26 18.35 24.26 23.58 23.80 24.27 24.10 24.28 24.26 23.64 24.26 24.27 24.15 24.27 24.28 19.78 24.26 24.27 24.27 24.27 24.27 24.19 24.28 24.26 24.05 24.28 24.27 22.60 24.27 24.25 19.04 24.27 24.25 24.28 24.28 24.22 19.69 24.27 24.24 20.05 23.99 24.26 24.28 24.24 24.28 24.27 19.07 24.27 24.27 20.23 24.16 24.27 24.26
# diagonal-C6 S 125.81 125.81
# diagonal-C6 Na 186.11 186.11
EvdW_6 =   -0.059394
EvdW_8 =   -0.049752

-------- Electronic minimization -----------
Will mix electronic density at each iteration.
	FillingsUpdate:  mu: -0.156569288  nElectrons: 318.000000
	FillingsUpdate:  mu: -0.156651378  nElectrons: 318.000000
SCF: Cycle:  0   F: -527.279089983353174   dF: -2.235e-02   |Residual|: 7.773e-02   |deigs|: 3.417e-04  t[s]:   2472.68
	FillingsUpdate:  mu: -0.157077666  nElectrons: 318.000000
SCF: Cycle:  1   F: -527.283269356385404   dF: -4.179e-03   |Residual|: 3.753e-02   |deigs|: 5.581e-04  t[s]:   2520.56
	FillingsUpdate:  mu: -0.156697772  nElectrons: 318.000000
SCF: Cycle:  2   F: -527.283471544380177   dF: -2.022e-04   |Residual|: 1.272e-02   |deigs|: 5.844e-04  t[s]:   2568.41
	FillingsUpdate:  mu: -0.157035444  nElectrons: 318.000000
SCF: Cycle:  3   F: -527.284757779438678   dF: -1.286e-03   |Residual|: 5.727e-03   |deigs|: 3.410e-04  t[s]:   2609.37
	FillingsUpdate:  mu: -0.157067572  nElectrons: 318.000000
SCF: Cycle:  4   F: -527.284766633879826   dF: -8.854e-06   |Residual|: 2.010e-03   |deigs|: 2.870e-04  t[s]:   2649.83
	FillingsUpdate:  mu: -0.157093945  nElectrons: 318.000000
SCF: Cycle:  5   F: -527.284778160244286   dF: -1.153e-05   |Residual|: 1.255e-03   |deigs|: 1.713e-04  t[s]:   2689.53
	FillingsUpdate:  mu: -0.157129438  nElectrons: 318.000000
SCF: Cycle:  6   F: -527.284784130163303   dF: -5.970e-06   |Residual|: 6.796e-04   |deigs|: 3.234e-04  t[s]:   2730.04
	FillingsUpdate:  mu: -0.157140592  nElectrons: 318.000000
SCF: Cycle:  7   F: -527.284786377953765   dF: -2.248e-06   |Residual|: 4.900e-04   |deigs|: 2.127e-04  t[s]:   2770.54
	FillingsUpdate:  mu: -0.157137718  nElectrons: 318.000000
SCF: Cycle:  8   F: -527.284788165878695   dF: -1.788e-06   |Residual|: 3.561e-04   |deigs|: 2.674e-04  t[s]:   2811.06
	FillingsUpdate:  mu: -0.157102601  nElectrons: 318.000000
SCF: Cycle:  9   F: -527.284789266636949   dF: -1.101e-06   |Residual|: 2.423e-04   |deigs|: 2.174e-04  t[s]:   2851.42
	FillingsUpdate:  mu: -0.157061155  nElectrons: 318.000000
SCF: Cycle: 10   F: -527.284789756189298   dF: -4.896e-07   |Residual|: 1.995e-04   |deigs|: 1.392e-04  t[s]:   2891.91
	FillingsUpdate:  mu: -0.157001973  nElectrons: 318.000000
SCF: Cycle: 11   F: -527.284790125154359   dF: -3.690e-07   |Residual|: 1.503e-04   |deigs|: 1.887e-04  t[s]:   2932.50
	FillingsUpdate:  mu: -0.156914804  nElectrons: 318.000000
SCF: Cycle: 12   F: -527.284790658073007   dF: -5.329e-07   |Residual|: 1.234e-04   |deigs|: 3.420e-04  t[s]:   2973.06
	FillingsUpdate:  mu: -0.156864035  nElectrons: 318.000000
SCF: Cycle: 13   F: -527.284790973782606   dF: -3.157e-07   |Residual|: 1.134e-04   |deigs|: 2.055e-04  t[s]:   3013.64
	FillingsUpdate:  mu: -0.156826305  nElectrons: 318.000000
SCF: Cycle: 14   F: -527.284791152624166   dF: -1.788e-07   |Residual|: 8.496e-05   |deigs|: 2.458e-04  t[s]:   3054.22
	FillingsUpdate:  mu: -0.156768327  nElectrons: 318.000000
SCF: Cycle: 15   F: -527.284791280326544   dF: -1.277e-07   |Residual|: 9.232e-05   |deigs|: 1.585e-04  t[s]:   3094.87
	FillingsUpdate:  mu: -0.156730462  nElectrons: 318.000000
SCF: Cycle: 16   F: -527.284791339431649   dF: -5.911e-08   |Residual|: 7.085e-05   |deigs|: 1.787e-04  t[s]:   3135.52
	FillingsUpdate:  mu: -0.156694989  nElectrons: 318.000000
SCF: Cycle: 17   F: -527.284791352947536   dF: -1.352e-08   |Residual|: 5.161e-05   |deigs|: 1.308e-04  t[s]:   3176.16
	FillingsUpdate:  mu: -0.156668138  nElectrons: 318.000000
SCF: Cycle: 18   F: -527.284791348756698   dF: +4.191e-09   |Residual|: 4.092e-05   |deigs|: 1.059e-04  t[s]:   3216.76
	FillingsUpdate:  mu: -0.156647875  nElectrons: 318.000000
SCF: Cycle: 19   F: -527.284791361230759   dF: -1.247e-08   |Residual|: 3.093e-05   |deigs|: 1.086e-04  t[s]:   3257.40
	FillingsUpdate:  mu: -0.156624271  nElectrons: 318.000000
SCF: Cycle: 20   F: -527.284791369619143   dF: -8.388e-09   |Residual|: 2.715e-05   |deigs|: 1.040e-04  t[s]:   3298.06
	FillingsUpdate:  mu: -0.156602617  nElectrons: 318.000000
SCF: Cycle: 21   F: -527.284791377532542   dF: -7.913e-09   |Residual|: 2.160e-05   |deigs|: 9.091e-05  t[s]:   3338.68
SCF: Converged (|Delta E|<1.000000e-08 for 2 iters).

Setting wave functions to eigenvectors of Hamiltonian

Computing DFT-D3 correction:
# coordination-number C 3.301 3.301 3.302 3.301 3.302 3.303 3.300 3.301 3.317 3.301 3.301 3.785 3.301 3.301 3.658 3.301 3.305 3.328 3.301 3.302 3.978 3.302 3.364 3.346 3.301 3.318 3.300 3.302 3.359 3.302 3.301 3.313 3.302 3.301 3.647 3.302 3.301 3.301 3.301 3.301 3.309 3.300 3.302 3.323 3.300 3.301 3.436 3.301 3.303 3.743 3.301 3.303 3.301 3.301 3.306 3.657 3.301 3.304 3.621 3.329 3.302 3.301 3.305 3.301 3.301 3.738 3.302 3.301 3.606 3.313 3.301 3.302
# coordination-number S 2.912 2.911
# coordination-number Na 3.906 4.644
# diagonal-C6 C 24.27 24.28 24.26 24.27 24.27 24.25 24.28 24.28 24.12 24.27 24.27 18.81 24.28 24.27 19.66 24.27 24.24 23.99 24.28 24.26 18.35 24.26 23.58 23.79 24.27 24.10 24.28 24.27 23.64 24.26 24.27 24.16 24.27 24.28 19.77 24.26 24.27 24.27 24.27 24.27 24.19 24.28 24.26 24.05 24.28 24.27 22.60 24.27 24.25 19.03 24.27 24.25 24.28 24.27 24.22 19.67 24.27 24.24 20.04 23.99 24.26 24.28 24.24 24.28 24.27 19.06 24.27 24.27 20.21 24.16 24.27 24.26
# diagonal-C6 S 125.81 125.81
# diagonal-C6 Na 186.11 186.11
EvdW_6 =   -0.059385
EvdW_8 =   -0.049744

-------- Electronic minimization -----------
Will mix electronic density at each iteration.
	FillingsUpdate:  mu: -0.156602617  nElectrons: 318.000000
	FillingsUpdate:  mu: -0.156551946  nElectrons: 318.000000
SCF: Cycle:  0   F: -527.284789342506201   dF: -2.089e-07   |Residual|: 8.060e-04   |deigs|: 1.375e-05  t[s]:   3390.55
	FillingsUpdate:  mu: -0.156568540  nElectrons: 318.000000
SCF: Cycle:  1   F: -527.284791676980490   dF: -2.334e-06   |Residual|: 4.040e-04   |deigs|: 2.225e-05  t[s]:   3430.21
	FillingsUpdate:  mu: -0.156557955  nElectrons: 318.000000
SCF: Cycle:  2   F: -527.284792269247077   dF: -5.923e-07   |Residual|: 2.044e-04   |deigs|: 1.212e-05  t[s]:   3459.05
	FillingsUpdate:  mu: -0.156559235  nElectrons: 318.000000
SCF: Cycle:  3   F: -527.284792533163795   dF: -2.639e-07   |Residual|: 5.758e-05   |deigs|: 1.575e-05  t[s]:   3487.92
	FillingsUpdate:  mu: -0.156557793  nElectrons: 318.000000
SCF: Cycle:  4   F: -527.284792544887068   dF: -1.172e-08   |Residual|: 2.935e-05   |deigs|: 1.703e-05  t[s]:   3516.78
	FillingsUpdate:  mu: -0.156555641  nElectrons: 318.000000
SCF: Cycle:  5   F: -527.284792554624687   dF: -9.738e-09   |Residual|: 1.410e-05   |deigs|: 3.070e-05  t[s]:   3556.44
	FillingsUpdate:  mu: -0.156554119  nElectrons: 318.000000
SCF: Cycle:  6   F: -527.284792556405932   dF: -1.781e-09   |Residual|: 9.723e-06   |deigs|: 2.241e-05  t[s]:   3585.35
SCF: Converged (|Delta E|<1.000000e-08 for 2 iters).

Setting wave functions to eigenvectors of Hamiltonian

Computing DFT-D3 correction:
# coordination-number C 3.301 3.301 3.302 3.301 3.302 3.303 3.300 3.301 3.317 3.301 3.301 3.785 3.301 3.301 3.658 3.301 3.305 3.328 3.301 3.302 3.978 3.302 3.364 3.346 3.301 3.318 3.300 3.302 3.359 3.302 3.301 3.313 3.302 3.301 3.647 3.302 3.301 3.301 3.301 3.301 3.309 3.300 3.302 3.323 3.300 3.301 3.436 3.301 3.303 3.743 3.301 3.303 3.301 3.301 3.306 3.657 3.301 3.304 3.621 3.329 3.302 3.301 3.305 3.301 3.301 3.738 3.302 3.301 3.606 3.313 3.301 3.302
# coordination-number S 2.912 2.911
# coordination-number Na 3.906 4.644
# diagonal-C6 C 24.27 24.28 24.26 24.27 24.27 24.25 24.28 24.28 24.12 24.27 24.27 18.81 24.28 24.27 19.66 24.27 24.24 23.99 24.28 24.26 18.35 24.26 23.58 23.79 24.27 24.10 24.28 24.27 23.64 24.26 24.27 24.16 24.27 24.28 19.77 24.26 24.27 24.27 24.27 24.27 24.19 24.28 24.26 24.05 24.28 24.27 22.60 24.27 24.25 19.03 24.27 24.25 24.28 24.27 24.22 19.67 24.27 24.24 20.04 23.99 24.26 24.28 24.24 24.28 24.27 19.06 24.27 24.27 20.21 24.16 24.27 24.26
# diagonal-C6 S 125.81 125.81
# diagonal-C6 Na 186.11 186.11
EvdW_6 =   -0.059385
EvdW_8 =   -0.049744

# Ionic positions in cartesian coordinates:
ion C  27.961302867784511  -0.000732785560256  18.967199842053244 1
ion C  16.292508710930456  20.210668020566310  18.962877191776517 1
ion C   2.286836542544673   4.039211827793625  18.937933921449204 1
ion C  23.294508380572189  -0.000162856309916  18.987304810559259 1
ion C   4.620956613395667  -0.003096059402097  18.973343498939435 1
ion C  11.626515013450694  20.212495868734567  18.970523900766867 1
ion C  25.626959090001879   4.040261211030622  18.956178742866875 1
ion C  18.627825324336740  16.167091917751648  18.951694799873458 1
ion C   4.615909519627887   8.081551058766502  18.905834814359128 1
ion C  18.626242288455952  -0.000621336598592  19.012648212224320 1
ion C   9.288787605660053  -0.004267383148085  18.999270757623108 1
ion C   9.296789014024759  16.169002537298244  18.935047301962964 1
ion C  23.293139631927673   8.083106548763260  18.952208737249080 1
ion C  20.961202921364652  12.124718754332678  18.951475639692578 1
ion C   6.954099433085226  12.123350962927285  18.884158233015089 1
ion C  13.959074054550911  -0.003539145290065  19.015485921783341 1
ion C  13.961602579385669  16.168351165133473  18.937633804891000 1
ion C   6.948682831962685   4.033462414455123  18.965888694286285 1
ion C  20.960386288786026   4.041127176531634  18.990218399335713 1
ion C  16.294248345496776  12.126072591829820  18.942485132702352 1
ion C   9.287807844231873   8.084660001043792  18.920801498247712 1
ion C  16.296826559347124   4.038874134460832  19.009337108322690 1
ion C  11.629187109884221   4.032835584064001  19.000298575952602 1
ion C  11.632017508280455  12.130312623832140  18.913468482938573 1
ion C  18.629416737049155   8.082713170331973  18.975810934421411 1
ion C   6.957733468032982  20.218291080704542  18.997695551830915 1
ion C  -7.046882057640262  20.208475924924358  18.977951999637721 1
ion C  -0.046579698843909   8.082166255466621  18.918411835941630 1
ion C  13.966916166816066   8.083259513303847  18.965276803578238 1
ion C   2.286824224690481  20.212090455165448  19.001664445427931 1
ion C  -4.712973866821127  16.165914389443689  18.959412123230997 1
ion C   2.281088860647232  12.120576608492870  18.918095666335589 1
ion C  -2.380724614811641  12.125069304792248  18.937297912978355 1
ion C  -2.379618338473559  20.207976035238016  18.992491259860785 1
ion C   4.615753316924984  16.169080501325574  18.953333903639887 1
ion C  -0.049788120336560  16.166582751494921  18.964634934151714 1
ion C  13.958912183554906  21.558569869542126  18.968323542396863 1
ion C   2.287899399427263   1.344089688241566  18.958810839113237 1
ion C  25.627864222101348   1.345688339653776  18.971519427752284 1
ion C  16.293756711402803  17.515065015741129  18.949534762039363 1
ion C   4.618513480405934   5.387343492465674  18.933986358778220 1
ion C  20.960345451666143   1.346727341577071  19.000352031186384 1
ion C   6.953581859845118   1.340951099801061  18.983838315844746 1
ion C  11.631017134011561  17.518633636537146  18.951088607905930 1
ion C  23.293487477926512   5.388357235419263  18.966456729541939 1
ion C  18.627874628608744  13.471984890683936  18.948375071700884 1
ion C   6.948354180267128   9.428044035683159  18.889550102174415 1
ion C  16.292108393337504   1.344661359304632  19.015545585921888 1
ion C  11.625082073467956   1.338820218962208  19.014074227611449 1
ion C   9.293283853571111  13.469011994709536  18.898673880031165 1
ion C  20.960229022005237   9.430925054360319  18.959836769169915 1
ion C   9.292520457650594  21.560726379374110  18.987830499662028 1
ion C  -9.380451076682975  21.556606609497273  18.974111640633058 1
ion C  -0.046387443189698   5.386905297032827  18.931483862188138 1
ion C  13.961693637853733  13.474219745133349  18.927031383211038 1
ion C   9.288202769537683   5.380572921241866  18.964174365968272 1
ion C  18.628071505254564   5.388550313690149  18.994927793682386 1
ion C  16.299189211553777   9.431346943399824  18.965032018080471 1
ion C  11.630756053940971   9.434438087623302  18.921670522601641 1
ion C  13.963630378686151   5.384740749840086  18.998831865952333 1
ion C   4.620879979600714  21.559511635011262  19.010089395100948 1
ion C  -7.045573046825981  17.514038338080329  18.964321611420736 1
ion C   2.285744283101656   9.427591262685430  18.906322891897013 1
ion C  -2.380344983801663   9.430469879802066  18.932954694511249 1
ion C  -4.713010742809315  21.555712642330285  18.991852403975773 1
ion C   6.956259634220919  17.521005695595882  18.966188148412375 1
ion C  -0.046250007674100  21.556841342477867  19.004982007727346 1
ion C  -4.713548405262424  13.472345743540657  18.948191934915986 1
ion C   4.616640307408791  13.467918117792458  18.909303979672213 1
ion C   2.279886800354213  17.518387427252062  18.981823428440059 1
ion C  -2.381275606594252  17.514008601401592  18.973981753049522 1
ion C  -0.048750615610584  13.471772341886302  18.937645332095649 1
ion S  10.181660117154454  12.001946425294598  26.791680425085293 1
ion S   6.501149423166249  10.620863683723742  26.535723817151982 1
ion Na   9.883033052171010   7.704240383468407  24.044310082939035 1
ion Na   7.210857968403390  14.895401865451118  23.788450143869955 1

# Forces in Cartesian coordinates:
force C  -0.000528298489061  -0.000233854768625  -0.000077636358935 1
force C  -0.000404025056834  -0.000526636420294   0.000049286632393 1
force C  -0.000633852605121  -0.000066116731680   0.000381804468076 1
force C  -0.000195287176460   0.000423375690356   0.000326611676822 1
force C  -0.000475304711692  -0.000603659337375   0.000016399646752 1
force C   0.000006799472443  -0.000050387878996  -0.000000709290510 1
force C  -0.000354422565389  -0.000029051062515  -0.000020301852565 1
force C  -0.000579194413311  -0.000191769700089  -0.000020964792591 1
force C   0.001111392125743  -0.000395320549603  -0.000333207905736 1
force C   0.000115983378975   0.000302146536011   0.000022209417346 1
force C   0.000358950676650  -0.000489542056106   0.000114248970604 1
force C  -0.000531833427758   0.000490518039543   0.000031584093690 1
force C  -0.000004461567818  -0.000438860889187   0.000069532361776 1
force C  -0.000763714234309  -0.000155871708388  -0.000019859806961 1
force C  -0.000053664791801  -0.001156711124380  -0.000401210815216 1
force C   0.000344699694077  -0.000104888886934   0.000105025365414 1
force C   0.000288200060052   0.000479760711815   0.000189865293702 1
force C   0.000939913533110   0.001301688150335  -0.000218530289675 1
force C   0.000261019387736  -0.000138063921101  -0.000027201098732 1
force C   0.000640961790884  -0.000162958127851   0.000344583418040 1
force C   0.000404083726404  -0.000769447705703  -0.001029377545046 1
force C  -0.000112779653806  -0.000037255423791   0.000084274545499 1
force C  -0.000371895960282   0.000888779337871  -0.000041761147745 1
force C  -0.000475362183625  -0.001615476955558  -0.000635530609942 1
force C   0.000108941964144   0.000040490272098   0.000092448958767 1
force C  -0.000370393908316  -0.000415283047587  -0.000218995409181 1
force C  -0.000091823519107   0.000087843970108  -0.000086914811036 1
force C  -0.000785515593881  -0.000530394961800   0.000361738435508 1
force C  -0.000776880549730  -0.000210966694168  -0.000201584908712 1
force C  -0.000003486107449  -0.000087114794793   0.000216527175407 1
force C  -0.000481247328941   0.000143964499568   0.000252597623817 1
force C   0.000722058790476   0.000441844182775  -0.000295338159341 1
force C  -0.000184748797562  -0.000549096713782   0.000102504198294 1
force C   0.000107079097466   0.000496781591806  -0.000014167272254 1
force C  -0.000083885545074   0.000218496740216   0.000014456604991 1
force C   0.000311598434689   0.000344689587738   0.000022629428133 1
force C   0.000727590789697  -0.000138972362249  -0.000003126861882 1
force C   0.000431602566779   0.000642273298058   0.000098527604324 1
force C   0.000219198921271   0.000530675558477  -0.000185950004119 1
force C   0.000613013286504   0.000368734297343   0.000183464540730 1
force C  -0.000374304138249  -0.000841429599994  -0.000072689928965 1
force C  -0.000117215347158  -0.000126601150135  -0.000133690322863 1
force C   0.000165335874687  -0.000031533965903  -0.000070047249250 1
force C   0.000332150802977  -0.000167603562503  -0.000060327248974 1
force C   0.000281278973921   0.000214645370093  -0.000131150653395 1
force C  -0.000082806423331   0.000656572878661  -0.000032569778228 1
force C  -0.000056568766571   0.000384435089964   0.000494844589461 1
force C   0.000255102777822  -0.000075167434070   0.000155657977761 1
[...]

# Energy components:
   Eewald =    -1190.0090693116389957
       EH =     -788.1242566811408778
     Eloc =     1419.4091705614757757
      Enl =      -82.0219849445865634
     EvdW =       -0.1104040821486352
      Exc =     -153.5440246943278737
 Exc_core =        5.9601296037481228
       KE =      261.2291236684752107
-------------------------------------
     Etot =     -527.2113158801439567
       TS =        0.0740647559687993
-------------------------------------
        F =     -527.2853806361127909

IonicMinimize: Iter:  27  F: -527.285380636112791  |grad|_K:  1.039e-04  alpha:  3.095e+00  linmin: -2.298e-02  t[s]:  30345.78

#--- Lowdin population analysis ---
# oxidation-state C +0.040 +0.040 +0.039 +0.038 +0.039 +0.035 +0.040 +0.041 +0.037 +0.037 +0.036 -0.001 +0.041 +0.041 +0.017 +0.037 +0.039 +0.023 +0.039 +0.040 -0.017 +0.035 +0.013 +0.037 +0.039 +0.025 +0.040 +0.042 +0.021 +0.034 +0.040 +0.037 +0.040 +0.039 -0.003 +0.037 +0.039 +0.040 +0.040 +0.041 +0.034 +0.039 +0.034 +0.032 +0.041 +0.041 +0.026 +0.038 +0.032 +0.013 +0.040 +0.034 +0.040 +0.041 +0.042 -0.011 +0.039 +0.037 +0.010 +0.021 +0.034 +0.040 +0.041 +0.041 +0.038 -0.010 +0.037 +0.040 +0.012 +0.028 +0.039 +0.038
# oxidation-state S -0.426 -0.424
# oxidation-state Na +0.841 +0.840


Computing DFT-D3 correction:
# coordination-number C 3.301 3.301 3.302 3.301 3.301 3.303 3.301 3.301 3.318 3.301 3.301 3.693 3.301 3.301 3.518 3.301 3.304 3.342 3.301 3.302 4.002 3.302 3.390 3.334 3.301 3.322 3.301 3.302 3.359 3.302 3.301 3.311 3.301 3.301 3.650 3.302 3.301 3.301 3.301 3.302 3.311 3.300 3.303 3.319 3.301 3.301 3.436 3.301 3.304 3.572 3.301 3.303 3.301 3.301 3.305 3.768 3.301 3.304 3.595 3.334 3.303 3.301 3.304 3.301 3.301 3.743 3.301 3.301 3.540 3.315 3.301 3.302
# coordination-number S 2.918 2.914
# coordination-number Na 3.951 4.062
# diagonal-C6 C 24.27 24.27 24.27 24.27 24.27 24.25 24.27 24.27 24.10 24.27 24.27 19.36 24.27 24.27 21.37 24.27 24.24 23.84 24.27 24.26 18.32 24.26 23.25 23.93 24.27 24.06 24.28 24.26 23.64 24.26 24.28 24.17 24.27 24.28 19.74 24.26 24.27 24.27 24.28 24.27 24.17 24.28 24.25 24.09 24.28 24.27 22.60 24.28 24.24 20.62 24.27 24.26 24.27 24.27 24.23 18.90 24.27 24.25 20.34 23.93 24.26 24.27 24.24 24.27 24.27 19.03 24.27 24.27 21.06 24.13 24.27 24.26
# diagonal-C6 S 125.81 125.81
# diagonal-C6 Na 186.11 186.11
EvdW_6 =   -0.060035
EvdW_8 =   -0.050371

-------- Electronic minimization -----------
Will mix electronic density at each iteration.
	FillingsUpdate:  mu: -0.154311770  nElectrons: 318.000000
	FillingsUpdate:  mu: -0.154301364  nElectrons: 318.000000
SCF: Cycle:  0   F: -527.285379539048904   dF: -8.580e-06   |Residual|: 1.422e-03   |deigs|: 3.957e-07  t[s]:  30405.28
	FillingsUpdate:  mu: -0.154314227  nElectrons: 318.000000
SCF: Cycle:  1   F: -527.285383859247418   dF: -4.320e-06   |Residual|: 6.609e-04   |deigs|: 1.567e-05  t[s]:  30433.87
	FillingsUpdate:  mu: -0.154304597  nElectrons: 318.000000
SCF: Cycle:  2   F: -527.285385141246593   dF: -1.282e-06   |Residual|: 2.938e-04   |deigs|: 1.510e-05  t[s]:  30462.45
	FillingsUpdate:  mu: -0.154311420  nElectrons: 318.000000
SCF: Cycle:  3   F: -527.285385633937381   dF: -4.927e-07   |Residual|: 1.168e-04   |deigs|: 9.465e-06  t[s]:  30491.20
	FillingsUpdate:  mu: -0.154311188  nElectrons: 318.000000
SCF: Cycle:  4   F: -527.285385706028137   dF: -7.209e-08   |Residual|: 5.714e-05   |deigs|: 9.057e-06  t[s]:  30520.02
	FillingsUpdate:  mu: -0.154311529  nElectrons: 318.000000
SCF: Cycle:  5   F: -527.285385735275668   dF: -2.925e-08   |Residual|: 3.365e-05   |deigs|: 1.062e-05  t[s]:  30559.60
	FillingsUpdate:  mu: -0.154311631  nElectrons: 318.000000
SCF: Cycle:  6   F: -527.285385751195008   dF: -1.592e-08   |Residual|: 2.394e-05   |deigs|: 1.134e-05  t[s]:  30598.89
	FillingsUpdate:  mu: -0.154311771  nElectrons: 318.000000
SCF: Cycle:  7   F: -527.285385760697750   dF: -9.503e-09   |Residual|: 1.519e-05   |deigs|: 1.266e-05  t[s]:  30639.07
	FillingsUpdate:  mu: -0.154311731  nElectrons: 318.000000
SCF: Cycle:  8   F: -527.285385766225204   dF: -5.527e-09   |Residual|: 1.244e-05   |deigs|: 1.089e-05  t[s]:  30679.55
SCF: Converged (|Delta E|<1.000000e-08 for 2 iters).

Setting wave functions to eigenvectors of Hamiltonian

Computing DFT-D3 correction:
# coordination-number C 3.301 3.301 3.302 3.301 3.301 3.303 3.301 3.301 3.318 3.301 3.301 3.694 3.301 3.301 3.519 3.301 3.304 3.342 3.301 3.302 4.002 3.302 3.390 3.334 3.301 3.322 3.301 3.302 3.359 3.302 3.301 3.311 3.301 3.301 3.651 3.302 3.301 3.301 3.301 3.302 3.311 3.300 3.303 3.319 3.301 3.301 3.436 3.301 3.304 3.573 3.301 3.303 3.301 3.301 3.305 3.768 3.301 3.304 3.595 3.334 3.303 3.301 3.305 3.301 3.301 3.745 3.301 3.301 3.541 3.315 3.301 3.302
# coordination-number S 2.918 2.914
# coordination-number Na 3.952 4.068
# diagonal-C6 C 24.27 24.27 24.27 24.27 24.27 24.25 24.27 24.27 24.10 24.27 24.27 19.35 24.27 24.27 21.36 24.27 24.24 23.84 24.27 24.26 18.32 24.26 23.25 23.93 24.27 24.06 24.28 24.26 23.64 24.26 24.28 24.17 24.27 24.28 19.72 24.26 24.27 24.27 24.28 24.27 24.17 24.28 24.25 24.09 24.28 24.27 22.59 24.28 24.24 20.61 24.27 24.26 24.27 24.27 24.23 18.89 24.27 24.25 20.34 23.93 24.26 24.27 24.24 24.27 24.27 19.02 24.27 24.27 21.05 24.13 24.27 24.26
# diagonal-C6 S 125.81 125.81
# diagonal-C6 Na 186.11 186.11
EvdW_6 =   -0.060034
EvdW_8 =   -0.050373

-------- Electronic minimization -----------
Will mix electronic density at each iteration.
	FillingsUpdate:  mu: -0.154311731  nElectrons: 318.000000
	FillingsUpdate:  mu: -0.154301954  nElectrons: 318.000000
SCF: Cycle:  0   F: -527.285384202471505   dF: +3.630e-07   |Residual|: 5.656e-04   |deigs|: 1.370e-06  t[s]:  30731.16
	FillingsUpdate:  mu: -0.154316801  nElectrons: 318.000000
SCF: Cycle:  1   F: -527.285385788178473   dF: -1.586e-06   |Residual|: 3.253e-04   |deigs|: 1.734e-05  t[s]:  30759.73
	FillingsUpdate:  mu: -0.154309210  nElectrons: 318.000000
SCF: Cycle:  2   F: -527.285386227848448   dF: -4.397e-07   |Residual|: 1.421e-04   |deigs|: 7.784e-06  t[s]:  30788.32
	FillingsUpdate:  mu: -0.154310370  nElectrons: 318.000000
SCF: Cycle:  3   F: -527.285386340772561   dF: -1.129e-07   |Residual|: 3.835e-05   |deigs|: 5.131e-06  t[s]:  30817.07
	FillingsUpdate:  mu: -0.154310229  nElectrons: 318.000000
SCF: Cycle:  4   F: -527.285386346759651   dF: -5.987e-09   |Residual|: 2.139e-05   |deigs|: 3.975e-06  t[s]:  30845.89
	FillingsUpdate:  mu: -0.154310024  nElectrons: 318.000000
SCF: Cycle:  5   F: -527.285386351173884   dF: -4.414e-09   |Residual|: 1.143e-05   |deigs|: 7.824e-06  t[s]:  30885.36
SCF: Converged (|Delta E|<1.000000e-08 for 2 iters).

Setting wave functions to eigenvectors of Hamiltonian

Computing DFT-D3 correction:
# coordination-number C 3.301 3.301 3.302 3.301 3.301 3.303 3.301 3.301 3.318 3.301 3.301 3.694 3.301 3.301 3.519 3.301 3.304 3.342 3.301 3.302 4.002 3.302 3.390 3.334 3.301 3.322 3.301 3.302 3.359 3.302 3.301 3.311 3.301 3.301 3.651 3.302 3.301 3.301 3.301 3.302 3.311 3.300 3.303 3.319 3.301 3.301 3.436 3.301 3.304 3.573 3.301 3.303 3.301 3.301 3.305 3.768 3.301 3.304 3.595 3.334 3.303 3.301 3.305 3.301 3.301 3.745 3.301 3.301 3.541 3.315 3.301 3.302
# coordination-number S 2.918 2.914
# coordination-number Na 3.952 4.068
# diagonal-C6 C 24.27 24.27 24.27 24.27 24.27 24.25 24.27 24.27 24.10 24.27 24.27 19.35 24.27 24.27 21.36 24.27 24.24 23.84 24.27 24.26 18.32 24.26 23.25 23.93 24.27 24.06 24.28 24.26 23.64 24.26 24.28 24.17 24.27 24.28 19.72 24.26 24.27 24.27 24.28 24.27 24.17 24.28 24.25 24.09 24.28 24.27 22.59 24.28 24.24 20.61 24.27 24.26 24.27 24.27 24.23 18.89 24.27 24.25 20.34 23.93 24.26 24.27 24.24 24.27 24.27 19.02 24.27 24.27 21.05 24.13 24.27 24.26
# diagonal-C6 S 125.81 125.81
# diagonal-C6 Na 186.11 186.11
EvdW_6 =   -0.060034
EvdW_8 =   -0.050373

# Ionic positions in cartesian coordinates:
ion C  27.962335914315940  -0.001769463218393  18.997292717605230 1
ion C  16.294468692030708  20.209054935488847  18.990268141202147 1
ion C   2.287019718970346   4.038678481929088  18.976592694003951 1
ion C  23.295881840251116   0.000002405241653  19.006007333397161 1
ion C   4.622179727057690  -0.004432833683947  19.001663422840185 1
ion C  11.629056825320665  20.211630551590378  18.985788810898352 1
ion C  25.627954879725802   4.039959569554116  18.991008809249639 1
ion C  18.628874706986068  16.166474657415034  18.978319015314913 1
ion C   4.618714120006158   8.080647681548756  18.908789778560408 1
ion C  18.628267155992646  -0.000675987896162  19.013391934026071 1
ion C   9.290776346356449  -0.005793805879835  19.008545836133955 1
ion C   9.299058524221172  16.168059051201666  18.921069475537802 1
ion C  23.295168939698936   8.081721468429246  18.987326215164714 1
ion C  20.962073939067977  12.123987502899642  18.981968692170142 1
ion C   6.956895642958899  12.122053941580011  18.852011677206349 1
ion C  13.961024442776539  -0.004362139850341  19.015270699596993 1
ion C  13.964627223435286  16.167840774997693  18.950430894492790 1
ion C   6.951355638680933   4.034899965143950  18.966407783053686 1
ion C  20.962508084867146   4.040304129800457  19.002791026105474 1
ion C  16.296991885011991  12.125711754944351  18.950537853669530 1
ion C   9.290768265335346   8.084444850916997  18.871455105841576 1
ion C  16.298115692872518   4.038484967561753  18.998172903489579 1
ion C  11.630209576354293   4.034279831745303  18.977100948167784 1
ion C  11.633317036050720  12.127448431156381  18.877200972669485 1
ion C  18.630729697029668   8.082461896531097  18.984298949978459 1
ion C   6.959334642644265  20.216844222039292  18.997022797035232 1
ion C  -7.045083709478142  20.207878643400047  19.002986878414777 1
ion C  -0.045930171472412   8.081009293814786  18.964953019907416 1
ion C  13.966801559146447   8.083248509846328  18.932626625584202 1
ion C   2.289035957805686  20.210857205575163  19.007858030508491 1
ion C  -4.711590728388569  16.165542363124271  18.993999310093770 1
ion C   2.284424774161561  12.120852343017601  18.934017660795067 1
ion C  -2.378692626493680  12.123113314048563  18.979505319440278 1
ion C  -2.377957708025320  20.207858007650120  19.009731324834252 1
ion C   4.618087326263202  16.167375057491547  18.948993998103916 1
ion C  -0.047314984314006  16.165686654987486  18.986562999153609 1
ion C  13.962088271033608  21.557151454541312  18.992851764760509 1
ion C   2.289472366323620   1.344405206270262  18.993642510602069 1
ion C  25.629585579660116   1.346019484742202  18.999540840229280 1
ion C  16.296594747044360  17.514954531364651  18.974678165518462 1
ion C   4.619293893248512   5.386036185447165  18.949094928148895 1
ion C  20.961765458609189   1.345986042826211  19.009507235125547 1
ion C   6.955709771327852   1.340297411541919  18.998443207623705 1
ion C  11.633819688088705  17.517339684334480  18.955434077282352 1
ion C  23.295194180998795   5.388226602576820  18.993830763811044 1
ion C  18.629500879486148  13.472409544805302  18.971634797720810 1
ion C   6.950926012280192   9.428483229531444  18.859922287187132 1
ion C  16.294104143414248   1.344168526492362  19.012109799739960 1
ion C  11.626222901881388   1.339162681095249  19.007307057486823 1
ion C   9.296302161707903  13.469238911524476  18.862739014622367 1
ion C  20.962690255898163   9.429886445394770  18.985977706017351 1
ion C   9.294617860987307  21.560010450943107  18.999605900991366 1
ion C  -9.378142221550620  21.555095119043926  19.001369388542358 1
ion C  -0.045116246702255   5.386808121465748  18.976700643536386 1
ion C  13.964531340891208  13.473287020424721  18.923426273339441 1
ion C   9.289876110251114   5.382009866928257  18.940176719908280 1
ion C  18.630093087854814   5.387877691735093  18.997275662671502 1
ion C  16.298926758518398   9.431723867104051  18.957358216214605 1
ion C  11.632785833522172   9.433377565322091  18.877300407112145 1
ion C  13.965072260995367   5.385315117522326  18.969594446647370 1
ion C   4.622948978571074  21.559297350373470  19.009058674452639 1
ion C  -7.044289882765842  17.513607853317378  18.993993783540862 1
ion C   2.286223154503827   9.427463516521625  18.934107634946120 1
ion C  -2.378031405726318   9.429031408224711  18.976793772978198 1
ion C  -4.711787716733499  21.554487787728895  19.010705465980887 1
ion C   6.958669857276497  17.518976835428884  18.958998042315113 1
ion C  -0.044895498693050  21.555365263759768  19.014736403391055 1
ion C  -4.711503868613188  13.471641200561878  18.987445114920988 1
ion C   4.618574078828562  13.467414468144399  18.901048865946052 1
ion C   2.283362232820792  17.516501121755400  18.987506208487286 1
ion C  -2.379298957838051  17.513736944651267  19.000493049595669 1
ion C  -0.046646104042779  13.470075791393731  18.968784121788747 1
ion S  10.229816937479892  11.971655633491064  26.337690902544910 1
ion S   6.530837112060447  10.646637398013551  26.262485506899239 1
ion Na   9.816470151725399   7.481344634233367  23.947249914760658 1
ion Na   7.065622867681641  15.168080324279806  23.915688715684158 1

# Forces in Cartesian coordinates:
force C   0.000067802102410   0.000011546161246   0.000099327124221 1
force C   0.000080887410861  -0.000097428032157   0.000060669711732 1
force C  -0.000074650218589   0.000022753553134  -0.000011826673576 1
force C   0.000022787410748  -0.000026292068570   0.000062573849208 1
force C  -0.000061057950399  -0.000121316829139  -0.000135142179134 1
force C   0.000019816292394  -0.000163306791801  -0.000016922589108 1
force C   0.000045321772006   0.000082061174765   0.000153658928194 1
force C   0.000022188844030   0.000092482189601   0.000159036326604 1
force C   0.000118456030145   0.000018078645734  -0.000194758575651 1
force C  -0.000102942459162   0.000022250479594   0.000147072146112 1
force C   0.000126171442532  -0.000002737363295  -0.000020951719803 1
force C  -0.000013246813990  -0.000040174550460  -0.000017870049071 1
force C  -0.000047157233575   0.000037744637960   0.000032168536124 1
force C  -0.000092454763592   0.000089820907404   0.000109442140496 1
force C   0.000065088943067   0.000032456782964  -0.000094474088717 1
force C   0.000023644154878   0.000080112981583  -0.000017831422893 1
force C   0.000003456230121   0.000023158843619  -0.000135535499395 1
force C   0.000056043204030  -0.000056898237511  -0.000092048980111 1
force C  -0.000023765266185   0.000020981350170   0.000072403463075 1
force C  -0.000040366416899   0.000005452922025  -0.000096276210668 1
force C  -0.000054358653676   0.000008014905437  -0.000037358965462 1
force C   0.000015700942419   0.000024296212598   0.000040212067598 1
force C   0.000147523962391   0.000009335225605  -0.000028322482390 1
force C   0.000080314728049  -0.000025999249006  -0.000189842362737 1
force C  -0.000104614246403   0.000037072110957  -0.000143660454664 1
force C  -0.000077084827990  -0.000070118996950   0.000039650297710 1
force C  -0.000135462553475  -0.000195353740617   0.000046380303768 1
force C  -0.000041075177639  -0.000119277465886  -0.000047476351419 1
force C   0.000037817916770  -0.000096259669135  -0.000048517106395 1
force C  -0.000115245512616  -0.000031692991120  -0.000068444355688 1
force C  -0.000216173100660   0.000060251170030   0.000098375059410 1
force C  -0.000039408654876  -0.000121278281048  -0.000071370024997 1
force C  -0.000180644176224  -0.000028966770369   0.000004925916660 1
force C  -0.000035479388343   0.000006364418419   0.000149532659280 1
force C   0.000082732277883   0.000042156310664   0.000013746707283 1
force C   0.000057066189047   0.000158705275882  -0.000014980796323 1
force C  -0.000000432358018   0.000220943890920   0.000147074276262 1
force C   0.000003729711353  -0.000088799489005   0.000085346779175 1
force C  -0.000029747058204   0.000069402217665  -0.000088709093199 1
force C   0.000057927457454  -0.000073326344413   0.000071930852983 1
force C  -0.000016350689684  -0.000105236794384  -0.000007495574992 1
force C   0.000154633170468   0.000171136766936  -0.000043359611887 1
force C  -0.000008023737386   0.000237616087219  -0.000078471646589 1
force C   0.000004725620083   0.000045976861191  -0.000035482334289 1
force C   0.000172622728670  -0.000224772248293   0.000043294107227 1
force C   0.000081988587975   0.000037380195653   0.000091756709790 1
force C  -0.000062174858562  -0.000050394695260   0.000056089872545 1
force C   0.000060904116497   0.000022039101020   0.000011839957714 1
force C  -0.000057937458602   0.000082126208543  -0.000025946682152 1
force C   0.000028662936385  -0.000006492864747   0.000007463833476 1
force C   0.000114597476036   0.000046314590500   0.000028802035389 1
force C  -0.000011373948635   0.000119466207462  -0.000145210519020 1
force C  -0.000101029083443   0.000070749376425  -0.000021454410973 1
force C  -0.000041504827913  -0.000033272949288   0.000018229037805 1
force C  -0.000065008332134   0.000039438429670  -0.000128501028539 1
force C   0.000001759348932  -0.000195732710370   0.000074380740238 1
force C   0.000017147798387  -0.000140249281566  -0.000141773343237 1
force C   0.000098008887953  -0.000113802152090  -0.000022541735471 1
force C  -0.000003440941092   0.000065614868855   0.000069565620139 1
force C  -0.000058704731748  -0.000008686923331   0.000009931786367 1
force C   0.000095582811548  -0.000013928709337   0.000107495144832 1
force C   0.000059264827399   0.000007352830837  -0.000075563101793 1
force C  -0.000012648859518   0.000071524513477  -0.000101061356343 1
force C   0.000013371385144   0.000014501010208   0.000141431589011 1
force C   0.000071744755669  -0.000029418861078   0.000039442362779 1
force C  -0.000048573552187   0.000102256899786   0.000022687985957 1
force C   0.000039288755781   0.000042758738754   0.000070407279060 1
force C   0.000127138790632   0.000008938110845  -0.000066877664798 1
force C  -0.000045633079477   0.000084444961060   0.000002411615762 1
force C  -0.000097547559842  -0.000130056503132   0.000047073840266 1
force C  -0.000086731971997  -0.000119270858585  -0.000084576160718 1
force C   0.000052910371514   0.000081379488947  -0.000000646729351 1
force S   0.000189081607722   0.000086085779596  -0.000112927347041 1
force S  -0.000127865422552   0.000023174858931  -0.000123498500864 1
force Na  -0.000252829481780   0.000102912634922   0.000334277207602 1
force Na  -0.000006431567415  -0.000178498484664  -0.000007405872824 1

# Energy components:
   Eewald =    -1189.4493638587728128
       EH =     -787.5638513942760710
     Eloc =     1418.2890370913714833
      Enl =      -82.0222693938464431
     EvdW =       -0.1104071234680654
      Exc =     -153.5442833109486855
 Exc_core =        5.9601295527952010
       KE =      261.2296893284762973
-------------------------------------
     Etot =     -527.2113191086691586
       TS =        0.0740672425047570
-------------------------------------
        F =     -527.2853863511738837

IonicMinimize: Iter:  28  F: -527.285386351173884  |grad|_K:  9.055e-05  alpha:  4.169e+00  linmin: -6.162e-02  t[s]:  30898.66
IonicMinimize: Converged (|grad|_K<1.000000e-04).

#--- Lowdin population analysis ---
# oxidation-state C +0.040 +0.040 +0.039 +0.038 +0.039 +0.035 +0.040 +0.041 +0.037 +0.037 +0.036 -0.002 +0.040 +0.041 +0.017 +0.037 +0.039 +0.023 +0.039 +0.040 -0.017 +0.035 +0.013 +0.037 +0.039 +0.025 +0.040 +0.042 +0.022 +0.034 +0.040 +0.038 +0.040 +0.039 -0.003 +0.037 +0.039 +0.040 +0.040 +0.041 +0.033 +0.039 +0.034 +0.032 +0.041 +0.041 +0.026 +0.038 +0.032 +0.013 +0.040 +0.034 +0.040 +0.041 +0.042 -0.011 +0.039 +0.038 +0.010 +0.021 +0.034 +0.040 +0.041 +0.041 +0.038 -0.010 +0.037 +0.040 +0.011 +0.028 +0.039 +0.038
# oxidation-state S -0.426 -0.424
# oxidation-state Na +0.841 +0.840


Dumping 'Na2S2@graphene-vdw.fillings' ... done
Dumping 'Na2S2@graphene-vdw.wfns' ... done
Dumping 'Na2S2@graphene-vdw.ionpos' ... done
Dumping 'Na2S2@graphene-vdw.eigenvals' ... done
End date and time: Fri Sep 27 02:12:31 2024  (Duration: 0-8:35:03.72)
Done!
