
*************** JDFTx 1.7.0  ***************

Start date and time: Sat Sep 28 06:03:46 2024
Executable jdftx_gpu with command-line: -i /home/akim2/JDFTx/Na2S8@graphene-glyme/Na2S8@graphene-glyme.in -o /home/akim2/JDFTx/Na2S8@graphene-glyme/Na2S8@graphene-glyme.out
Running on hosts (process indices):  exp-4-60 (0)
Divided in process groups (process indices):  0 (0)
gpuInit: Found compatible cuda device 0 'Tesla V100-SXM2-32GB'
gpuInit: Selected device 0
Resource initialization completed at t[s]:      0.67
Run totals: 1 processes, 1 threads, 1 GPUs


Input parsed successfully to the following command list (including defaults):

basis kpoint-dependent
coords-type Cartesian
core-overlap-check vector
coulomb-interaction Slab 001
coulomb-truncation-embed 0 0 6
davidson-band-ratio 1.1
dump End State
dump Ionic State
dump-interval Ionic 5
dump-name Na2S8@graphene-glyme.$VAR
elec-cutoff 20 100
elec-eigen-algo Davidson
elec-ex-corr gga-PBE
elec-smearing Fermi 0.01
electronic-minimize  \
	dirUpdateScheme      FletcherReeves \
	linminMethod         DirUpdateRecommended \
	nIterations          100 \
	history              15 \
	knormThreshold       0 \
	energyDiffThreshold  1e-08 \
	nEnergyDiff          2 \
	alphaTstart          1 \
	alphaTmin            1e-10 \
	updateTestStepSize   yes \
	alphaTreduceFactor   0.1 \
	alphaTincreaseFactor 3 \
	nAlphaAdjustMax      3 \
	wolfeEnergy          0.0001 \
	wolfeGradient        0.9 \
	fdTest               no
electronic-scf  \
	nIterations	50 \
	energyDiffThreshold	1e-08 \
	residualThreshold	1e-07 \
	mixFraction	0.5 \
	qMetric	0.8 \
	history	10 \
	nEigSteps	2 \
	eigDiffThreshold	1e-08 \
	mixedVariable	Density \
	qKerker	0.8 \
	qKappa	-1 \
	verbose	no \
	mixFractionMag	1.5
exchange-regularization WignerSeitzTruncated
fluid LinearPCM 298.000000 1.013250
fluid-ex-corr lda-TF lda-PZ
fluid-gummel-loop 10 1.000000e-05
fluid-minimize  \
	dirUpdateScheme      PolakRibiere \
	linminMethod         DirUpdateRecommended \
	nIterations          400 \
	history              15 \
	knormThreshold       1e-11 \
	energyDiffThreshold  0 \
	nEnergyDiff          2 \
	alphaTstart          1 \
	alphaTmin            1e-10 \
	updateTestStepSize   yes \
	alphaTreduceFactor   0.1 \
	alphaTincreaseFactor 3 \
	nAlphaAdjustMax      6 \
	wolfeEnergy          0.0001 \
	wolfeGradient        0.9 \
	fdTest               no
fluid-solvent Glyme 9.62137 ScalarEOS \
	epsBulk 7.2 \
	pMol 0 \
	epsInf 1.9 \
	Pvap 0 \
	sigmaBulk 0 \
	Rvdw 0 \
	Res 0 \
	tauNuc 343133
forces-output-coords Positions
initial-state Na2S8@graphene-glyme.$VAR
ion C  28.005798599999999   0.000000000000000   0.897300000000001 0
ion C  16.336715849999997  20.211437139299999   0.897300000000001 0
ion C   2.333816549999999   4.042283648400000   0.897300000000001 0
ion C  23.338165499999999   0.000000000000000   0.897300000000001 0
ion C   4.667633100000000   0.000000000000000   0.897300000000001 0
ion C  11.669082749999999  20.211437139299999   0.897300000000001 0
ion C  25.671982050000000   4.042283648400000   0.897300000000001 0
ion C  18.670532399999999  16.169153490900001   0.897300000000001 0
ion C   4.667633099999997   8.084586194100000   0.897300000000001 0
ion C  18.670532399999999   0.000000000000000   0.897300000000001 0
ion C   9.335266200000000   0.000000000000000   0.897300000000001 0
ion C   9.335266200000001  16.169153490900001   0.897300000000001 0
ion C  23.338165500000002   8.084586194100000   0.897300000000001 0
ion C  21.004348950000001  12.126869842500000   0.897300000000001 0
ion C   7.001449649999998  12.126869842500000   0.897300000000001 0
ion C  14.002899299999999   0.000000000000000   0.897300000000001 0
ion C  14.002899299999997  16.169153490900001   0.897300000000001 0
ion C   7.001449650000000   4.042283648400000   0.897300000000001 0
ion C  21.004348950000001   4.042283648400000   0.897300000000001 0
ion C  16.336715849999997  12.126869842500000   0.897300000000001 0
ion C   9.335266200000000   8.084586194100000   0.897300000000001 0
ion C  16.336715849999994   4.042283648400000   0.897300000000001 0
ion C  11.669082749999999   4.042283648400000   0.897300000000001 0
ion C  11.669082749999999  12.126869842500000   0.897300000000001 0
ion C  18.670532399999988   8.084586194100000   0.897300000000001 0
ion C   7.001449650000000  20.211437139299999   0.897300000000001 0
ion C  -7.001449650000000  20.211437139299999   0.897300000000001 0
ion C   0.000000000000000   8.084586194100000   0.897300000000001 0
ion C  14.002899299999999   8.084586194100000   0.897300000000001 0
ion C   2.333816550000000  20.211437139299999   0.897300000000001 0
ion C  -4.667633100000000  16.169153490900001   0.897300000000001 0
ion C   2.333816550000000  12.126869842500000   0.897300000000001 0
ion C  -2.333816549999999  12.126869842500000   0.897300000000001 0
ion C  -2.333816549999998  20.211437139299999   0.897300000000001 0
ion C   4.667633099999998  16.169153490900001   0.897300000000001 0
ion C   0.000000000000000  16.169153490900001   0.897300000000001 0
ion C  14.002880402700006  21.558890218500000   0.897300000000001 0
ion C   2.333816549999999   1.347415284600000   0.897300000000001 0
ion C  25.672000947299999   1.347434181900000   0.897300000000001 0
ion C  16.336696952700002  17.516587672800000   0.897300000000001 0
ion C   4.667633100000000   5.389698933000000   0.897300000000001 0
ion C  21.004367847299999   1.347434181900000   0.897300000000001 0
ion C   7.001430752700000   1.347434181900000   0.897300000000001 0
ion C  11.669101647299998  17.516587672800000   0.897300000000001 0
ion C  23.338165499999999   5.389698933000000   0.897300000000001 0
ion C  18.670513502700000  13.474304024400000   0.897300000000001 0
ion C   7.001449649999999   9.432001478699998   0.897300000000001 0
ion C  16.336734747299996   1.347434181900000   0.897300000000001 0
ion C  11.669063852700001   1.347434181900000   0.897300000000001 0
ion C   9.335285097299998  13.474304024400000   0.897300000000001 0
ion C  21.004348950000001   9.432001478699998   0.897300000000001 0
ion C   9.335247302699999  21.558890218500000   0.897300000000001 0
ion C  -9.335266200000000  21.558871321199998   0.897300000000001 0
ion C   0.000018897300000   5.389717830300000   0.897300000000001 0
ion C  14.002880402699990  13.474304024400000   0.897300000000001 0
ion C   9.335266200000000   5.389698933000000   0.897300000000001 0
ion C  18.670551297300001   5.389717830300000   0.897300000000001 0
ion C  16.336696952699999   9.432020376000001   0.897300000000001 0
ion C  11.669082750000001   9.432001478699998   0.897300000000001 0
ion C  14.002918197299991   5.389717830300000   0.897300000000001 0
ion C   4.667614202699999  21.558890218500000   0.897300000000001 0
ion C  -7.001449650000000  17.516568775499998   0.897300000000001 0
ion C   2.333835447300000   9.432020376000001   0.897300000000001 0
ion C  -2.333835447300000   9.432020376000001   0.897300000000001 0
ion C  -4.667614202700001  21.558890218500000   0.897300000000001 0
ion C   7.001449650000000  17.516568775499998   0.897300000000001 0
ion C  -0.000018897300000  21.558890218500000   0.897300000000001 0
ion C  -4.667633100000000  13.474285127100000   0.897300000000001 0
ion C   4.667651997299994  13.474304024400000   0.897300000000001 0
ion C   2.333797652700000  17.516587672800000   0.897300000000001 0
ion C  -2.333816549999999  17.516568775499998   0.897300000000001 0
ion C   0.000018897299999  13.474304024400000   0.897300000000001 0
ion S   3.929850572824130  11.814798747351372   7.325971297811684 1
ion S   5.601093609367320   8.280912408167600   8.006838582411408 1
ion S   7.052252690923801   7.988495205876474  11.521072053322007 1
ion S  12.823427875649337   3.621370791650549   7.560084744374949 1
ion S  16.278343375092781   5.114348904305295   7.638793699636335 1
ion S  16.344516010384005   8.886334859286702   7.469973149165972 1
ion S   6.478141609309281  14.592036554984501   8.559684138030789 1
ion S  10.104018251767986  13.941727289874990   7.522273287891569 1
ion Na   9.459310629331469  12.649373499762268  13.062769751189078 1
ion Na  10.945239355032122   8.675085716668759   7.052012719576519 1
ion-species GBRV/$ID_pbe.uspp
ion-width Ecut
ionic-minimize  \
	dirUpdateScheme      FletcherReeves \
	linminMethod         DirUpdateRecommended \
	nIterations          200 \
	history              15 \
	knormThreshold       0.0001 \
	energyDiffThreshold  1e-06 \
	nEnergyDiff          2 \
	alphaTstart          1 \
	alphaTmin            1e-10 \
	updateTestStepSize   yes \
	alphaTreduceFactor   0.1 \
	alphaTincreaseFactor 3 \
	nAlphaAdjustMax      3 \
	wolfeEnergy          0.0001 \
	wolfeGradient        0.9 \
	fdTest               no
kpoint   0.000000000000   0.000000000000   0.000000000000  1.00000000000000
kpoint-folding 1 1 1 
latt-move-scale 1 1 1
latt-scale 1 1 1 
lattice Triclinic 28.0058 28.0058 37.7946 90 90 120
lattice-minimize  \
	dirUpdateScheme      L-BFGS \
	linminMethod         DirUpdateRecommended \
	nIterations          0 \
	history              15 \
	knormThreshold       0 \
	energyDiffThreshold  1e-06 \
	nEnergyDiff          2 \
	alphaTstart          1 \
	alphaTmin            1e-10 \
	updateTestStepSize   yes \
	alphaTreduceFactor   0.1 \
	alphaTincreaseFactor 3 \
	nAlphaAdjustMax      3 \
	wolfeEnergy          0.0001 \
	wolfeGradient        0.9 \
	fdTest               no
lcao-params -1 1e-06 0.01
pcm-variant GLSSA13
spintype no-spin
subspace-rotation-factor 1 yes
symmetries automatic
symmetry-threshold 0.0001
van-der-waals D3



---------- Setting up symmetries ----------

Found 24 point-group symmetries of the bravais lattice
Found 1 space-group symmetries with basis
Applied RMS atom displacement 0 bohrs to make symmetries exact.

---------- Initializing the Grid ----------
R = 
[      28.0058     -14.0029            0  ]
[            0      24.2537            0  ]
[            0            0      37.7946  ]
unit cell volume = 25671.8
G =
[   0.224353    0.12953         -0  ]
[          0   0.259061          0  ]
[          0         -0   0.166246  ]
Minimum fftbox size, Smin = [  128  128  172  ]
Chosen fftbox size, S = [  128  128  180  ]

---------- Initializing tighter grid for wavefunction operations ----------
R = 
[      28.0058     -14.0029            0  ]
[            0      24.2537            0  ]
[            0            0      37.7946  ]
unit cell volume = 25671.8
G =
[   0.224353    0.12953         -0  ]
[          0   0.259061          0  ]
[          0         -0   0.166246  ]
Minimum fftbox size, Smin = [  116  116  156  ]
Chosen fftbox size, S = [  120  120  160  ]

---------- Exchange Correlation functional ----------
Initalized PBE GGA exchange.
Initalized PBE GGA correlation.

---------- Setting up pseudopotentials ----------
Width of ionic core gaussian charges (only for fluid interactions / plotting) set to 0.397384

Reading pseudopotential file '/home/akim2/jdftx_install/build/pseudopotentials/GBRV/c_pbe.uspp':
  Title: C.  Created by USPP 7.3.6 on 3-2-2014
  Reference state energy: -5.406344.  4 valence electrons in orbitals:
    |200>  occupation: 2  eigenvalue: -0.504890
    |210>  occupation: 2  eigenvalue: -0.194356
  lMax: 1  lLocal: 2  QijEcut: 5
  4 projectors sampled on a log grid with 503 points:
    l: 0  eig: -0.504890  rCut: 1.3
    l: 0  eig: 0.000000  rCut: 1.3
    l: 1  eig: -0.194357  rCut: 1.3
    l: 1  eig: 0.000000  rCut: 1.3
  Partial core density with radius 1.1
  Transforming core density to a uniform radial grid of dG=0.02 with 1625 points.
  Transforming local potential to a uniform radial grid of dG=0.02 with 1625 points.
  Transforming nonlocal projectors to a uniform radial grid of dG=0.02 with 432 points.
  Transforming density augmentations to a uniform radial grid of dG=0.02 with 1625 points.
  Transforming atomic orbitals to a uniform radial grid of dG=0.02 with 432 points.
  Core radius for overlap checks: 1.30 bohrs.

Reading pseudopotential file '/home/akim2/jdftx_install/build/pseudopotentials/GBRV/s_pbe.uspp':
  Title: S.  Created by USPP 7.3.6 on 1-4-15
  Reference state energy: -11.898476.  6 valence electrons in orbitals:
    |300>  occupation: 2  eigenvalue: -0.634167
    |310>  occupation: 4  eigenvalue: -0.257568
  lMax: 2  lLocal: 3  QijEcut: 6
  6 projectors sampled on a log grid with 635 points:
    l: 0  eig: -0.634161  rCut: 1.5
    l: 0  eig: 1.500000  rCut: 1.5
    l: 1  eig: -0.257567  rCut: 1.5
    l: 1  eig: 1.500000  rCut: 1.5
    l: 2  eig: -1.000000  rCut: 1.5
    l: 2  eig: 1.500000  rCut: 1.5
  Partial core density with radius 1.15
  Transforming core density to a uniform radial grid of dG=0.02 with 1625 points.
  Transforming local potential to a uniform radial grid of dG=0.02 with 1625 points.
  Transforming nonlocal projectors to a uniform radial grid of dG=0.02 with 432 points.
  Transforming density augmentations to a uniform radial grid of dG=0.02 with 1625 points.
  Transforming atomic orbitals to a uniform radial grid of dG=0.02 with 432 points.
  Core radius for overlap checks: 1.50 bohrs.

Reading pseudopotential file '/home/akim2/jdftx_install/build/pseudopotentials/GBRV/na_pbe.uspp':
  Title: Na.  Created by USPP 7.3.6 on 23-9-15
  Reference state energy: -47.625620.  9 valence electrons in orbitals:
    |200>  occupation: 2  eigenvalue: -2.085638
    |210>  occupation: 6  eigenvalue: -1.053708
    |300>  occupation: 1  eigenvalue: -0.100838
  lMax: 2  lLocal: 0  QijEcut: 6
  5 projectors sampled on a log grid with 657 points:
    l: 0  eig: -2.085640  rCut: 1.37
    l: 0  eig: -0.100839  rCut: 1.37
    l: 1  eig: -1.053708  rCut: 1.47
    l: 1  eig: 0.500000  rCut: 1.47
    l: 2  eig: 0.750000  rCut: 2
  Transforming local potential to a uniform radial grid of dG=0.02 with 1625 points.
  Transforming nonlocal projectors to a uniform radial grid of dG=0.02 with 432 points.
  Transforming density augmentations to a uniform radial grid of dG=0.02 with 1625 points.
  Transforming atomic orbitals to a uniform radial grid of dG=0.02 with 432 points.
  Core radius for overlap checks: 2.00 bohrs.

Initialized 3 species with 82 total atoms.

Folded 1 k-points by 1x1x1 to 1 k-points.

---------- Setting up k-points, bands, fillings ----------
No reducable k-points. 
Computing the number of bands and number of electrons
Reading initial fillings from file Na2S8@graphene-glyme.fillings.
nElectrons: 354.000000   nBands: 330   nStates: 1

----- Setting up reduced wavefunction bases (one per k-point) -----
average nbasis = 109673.000 , ideal nbasis = 109671.883

---------- Setting up coulomb interaction ----------
Fluid mode embedding: using embedded box, but periodic Coulomb kernel.
(Fluid response is responsible for (approximate) separation between periodic images.)
Setting up double-sized grid for truncated Coulomb potentials:
R = 
[      28.0058     -14.0029            0  ]
[            0      24.2537            0  ]
[            0            0      75.5892  ]
unit cell volume = 51343.6
G =
[   0.224353    0.12953         -0  ]
[          0   0.259061          0  ]
[          0         -0  0.0831228  ]
Chosen fftbox size, S = [  128  128  360  ]
Integer grid location selected as the embedding center:
   Grid: [  0  0  29  ]
   Lattice: [  0  0  0.158753  ]
   Cartesian: [  0  0  6  ]
Constructing Wigner-Seitz cell: 8 faces (6 quadrilaterals, 2 hexagons)
Range-separation parameter for embedded mesh potentials due to point charges: 0.590105 bohrs.

Initializing DFT-D3 calculator:
	Parameters set for gga-PBE functional
	s6:  1.000  s_r6:  1.217
	s8:  0.722  s_r8:  1.000
	Per-atom parameters loaded for:
	 C:  sqrtQ[a0]:  3.105  Rcov[a0]:  1.417  CN: [ 0.00 0.99 2.00 3.00 3.98 ]
	 S:  sqrtQ[a0]:  4.041  Rcov[a0]:  1.928  CN: [ 0.00 0.99 1.99 ]
	Na:  sqrtQ[a0]:  6.586  Rcov[a0]:  2.646  CN: [ 0.00 0.97 ]

---------- Setting up ewald sum ----------
Optimum gaussian width for ewald sums = 7.113825 bohr.
Real space sum over 405 unit cells with max indices [  4  4  2  ]
Reciprocal space sum over 8325 terms with max indices [  7  7  18  ]

Computing DFT-D3 correction:
# coordination-number C 3.300 3.300 3.300 3.300 3.300 3.300 3.300 3.300 3.306 3.300 3.301 3.304 3.300 3.300 3.310 3.302 3.301 3.303 3.301 3.304 3.383 3.307 3.313 3.326 3.305 3.300 3.300 3.301 3.336 3.300 3.300 3.306 3.300 3.300 3.302 3.300 3.300 3.300 3.300 3.300 3.302 3.300 3.301 3.301 3.300 3.301 3.319 3.302 3.303 3.312 3.301 3.300 3.300 3.300 3.305 3.322 3.304 3.311 3.410 3.316 3.300 3.300 3.304 3.300 3.300 3.302 3.300 3.300 3.307 3.300 3.300 3.301
# coordination-number S 2.134 2.961 2.501 1.953 2.315 1.955 2.821 2.708
# coordination-number Na 2.738 5.178
# diagonal-C6 C 24.28 24.28 24.28 24.28 24.28 24.28 24.28 24.28 24.22 24.28 24.28 24.24 24.28 24.28 24.18 24.27 24.27 24.25 24.28 24.24 23.34 24.22 24.15 24.02 24.24 24.28 24.28 24.28 23.91 24.28 24.28 24.22 24.28 24.28 24.26 24.28 24.28 24.28 24.28 24.28 24.26 24.28 24.28 24.27 24.28 24.28 24.10 24.26 24.25 24.17 24.27 24.28 24.28 24.28 24.23 24.06 24.25 24.18 22.97 24.12 24.28 24.28 24.24 24.28 24.28 24.27 24.28 24.28 24.22 24.28 24.28 24.27
# diagonal-C6 S 125.84 125.81 125.81 125.94 125.82 125.94 125.81 125.81
# diagonal-C6 Na 186.11 186.11
EvdW_6 =   -0.076712
EvdW_8 =   -0.065125

---------- Allocating electronic variables ----------
Initializing wave functions:  reading from 'Na2S8@graphene-glyme.wfns'
----- createFluidSolver() ----- (Fluid-side solver setup)
   Initializing fluid molecule 'Glyme'
     Net charge: 0   dipole magnitude: 0
     Initializing spherical shell mfKernel with radius 0 Bohr
     deltaS corrections:

Correction to mu due to finite nuclear width = -0.00684095
   Cavity determined by nc: 8.36e-05 and sigma: 0.6
   Effective cavity tension: -8.03e-06 Eh/bohr^2 to account for cavitation and dispersion.
Reading fluid state from 'Na2S8@graphene-glyme.fluidState'


---- Citations for features of the code used in this run ----

   Software package:
      R. Sundararaman, K. Letchworth-Weaver, K.A. Schwarz, D. Gunceler, Y. Ozhabes and T.A. Arias, 'JDFTx: software for joint density-functional theory', SoftwareX 6, 278 (2017)

   gga-PBE exchange-correlation functional:
      J.P. Perdew, K. Burke and M. Ernzerhof, Phys. Rev. Lett. 77, 3865 (1996)

   Pseudopotentials:
      KF Garrity, JW Bennett, KM Rabe and D Vanderbilt, Comput. Mater. Sci. 81, 446 (2014)

   Truncated Coulomb potentials:
      R. Sundararaman and T.A. Arias, Phys. Rev. B 87, 165122 (2013)

   DFT-D3 dispersion correction:
      S. Grimme, J. Antony, S. Ehrlich and H. Krieg, J. Chem. Phys. 132, 154104 (2010)

   Linear/nonlinear dielectric/ionic fluid model with effective cavity tension:
      D. Gunceler, K. Letchworth-Weaver, R. Sundararaman, K.A. Schwarz and T.A. Arias, Modelling Simul. Mater. Sci. Eng. 21, 074005 (2013)

This list may not be complete. Please suggest additional citations or
report any other bugs at https://github.com/shankar1729/jdftx/issues

Initialization completed successfully at t[s]:     35.03


Computing DFT-D3 correction:
# coordination-number C 3.300 3.300 3.300 3.300 3.300 3.300 3.300 3.300 3.306 3.300 3.301 3.304 3.300 3.300 3.310 3.302 3.301 3.303 3.301 3.304 3.383 3.307 3.313 3.326 3.305 3.300 3.300 3.301 3.336 3.300 3.300 3.306 3.300 3.300 3.302 3.300 3.300 3.300 3.300 3.300 3.302 3.300 3.301 3.301 3.300 3.301 3.319 3.302 3.303 3.312 3.301 3.300 3.300 3.300 3.305 3.322 3.304 3.311 3.410 3.316 3.300 3.300 3.304 3.300 3.300 3.302 3.300 3.300 3.307 3.300 3.300 3.301
# coordination-number S 2.134 2.961 2.501 1.953 2.315 1.955 2.821 2.708
# coordination-number Na 2.738 5.178
# diagonal-C6 C 24.28 24.28 24.28 24.28 24.28 24.28 24.28 24.28 24.22 24.28 24.28 24.24 24.28 24.28 24.18 24.27 24.27 24.25 24.28 24.24 23.34 24.22 24.15 24.02 24.24 24.28 24.28 24.28 23.91 24.28 24.28 24.22 24.28 24.28 24.26 24.28 24.28 24.28 24.28 24.28 24.26 24.28 24.28 24.27 24.28 24.28 24.10 24.26 24.25 24.17 24.27 24.28 24.28 24.28 24.23 24.06 24.25 24.18 22.97 24.12 24.28 24.28 24.24 24.28 24.28 24.27 24.28 24.28 24.22 24.28 24.28 24.27
# diagonal-C6 S 125.84 125.81 125.81 125.94 125.82 125.94 125.81 125.81
# diagonal-C6 Na 186.11 186.11
EvdW_6 =   -0.076712
EvdW_8 =   -0.065125

-------- Electronic minimization -----------
Will mix electronic density at each iteration.
	Linear fluid (dielectric constant: 7.2) occupying 0.818542 of unit cell:	Completed after 0 iterations at t[s]:     37.87
	FillingsUpdate:  mu: -0.116708696  nElectrons: 354.000000
	Linear fluid (dielectric constant: 7.2) occupying 0.818542 of unit cell:	Completed after 3 iterations at t[s]:     40.86
SCF: Cycle:  0   F: -589.053141763008057   dF: +4.590e-07   |Residual|: 2.052e-04   |deigs|: 1.901e-06  t[s]:     41.02
	Linear fluid (dielectric constant: 7.2) occupying 0.818540 of unit cell:	Completed after 3 iterations at t[s]:     41.15
	FillingsUpdate:  mu: -0.116713715  nElectrons: 354.000000
	Linear fluid (dielectric constant: 7.2) occupying 0.818542 of unit cell:	Completed after 1 iterations at t[s]:     43.54
SCF: Cycle:  1   F: -589.053142225935403   dF: -4.629e-07   |Residual|: 5.954e-05   |deigs|: 8.975e-06  t[s]:     43.68
	Linear fluid (dielectric constant: 7.2) occupying 0.818540 of unit cell:	Completed after 1 iterations at t[s]:     43.78
	FillingsUpdate:  mu: -0.116712517  nElectrons: 354.000000
	Linear fluid (dielectric constant: 7.2) occupying 0.818542 of unit cell:	Completed after 1 iterations at t[s]:     46.13
SCF: Cycle:  2   F: -589.053142234608686   dF: -8.673e-09   |Residual|: 2.983e-05   |deigs|: 2.806e-06  t[s]:     46.27
	Linear fluid (dielectric constant: 7.2) occupying 0.818539 of unit cell:	Completed after 0 iterations at t[s]:     46.36
	FillingsUpdate:  mu: -0.116713949  nElectrons: 354.000000
	Linear fluid (dielectric constant: 7.2) occupying 0.818542 of unit cell:	Completed after 1 iterations at t[s]:     48.73
SCF: Cycle:  3   F: -589.053142222453630   dF: +1.216e-08   |Residual|: 5.666e-05   |deigs|: 4.277e-06  t[s]:     48.87
	Linear fluid (dielectric constant: 7.2) occupying 0.818539 of unit cell:	Completed after 1 iterations at t[s]:     48.98
	FillingsUpdate:  mu: -0.116712084  nElectrons: 354.000000
	Linear fluid (dielectric constant: 7.2) occupying 0.818542 of unit cell:	Completed after 1 iterations at t[s]:     51.34
SCF: Cycle:  4   F: -589.053142200240018   dF: +2.221e-08   |Residual|: 5.395e-05   |deigs|: 4.853e-06  t[s]:     51.48
	Linear fluid (dielectric constant: 7.2) occupying 0.818539 of unit cell:	Completed after 1 iterations at t[s]:     51.59
	FillingsUpdate:  mu: -0.116711901  nElectrons: 354.000000
	Linear fluid (dielectric constant: 7.2) occupying 0.818542 of unit cell:	Completed after 0 iterations at t[s]:     53.94
SCF: Cycle:  5   F: -589.053142239882050   dF: -3.964e-08   |Residual|: 1.443e-05   |deigs|: 6.290e-06  t[s]:     54.07
	Linear fluid (dielectric constant: 7.2) occupying 0.818539 of unit cell:	Completed after 0 iterations at t[s]:     54.17
	FillingsUpdate:  mu: -0.116713137  nElectrons: 354.000000
	Linear fluid (dielectric constant: 7.2) occupying 0.818542 of unit cell:	Completed after 0 iterations at t[s]:     56.53
SCF: Cycle:  6   F: -589.053142240835768   dF: -9.537e-10   |Residual|: 7.686e-06   |deigs|: 3.353e-06  t[s]:     56.66
	Linear fluid (dielectric constant: 7.2) occupying 0.818540 of unit cell:	Completed after 0 iterations at t[s]:     56.76
	FillingsUpdate:  mu: -0.116712409  nElectrons: 354.000000
	Linear fluid (dielectric constant: 7.2) occupying 0.818542 of unit cell:	Completed after 1 iterations at t[s]:     59.77
SCF: Cycle:  7   F: -589.053142233683502   dF: +7.152e-09   |Residual|: 3.038e-05   |deigs|: 4.795e-06  t[s]:     59.91
	Linear fluid (dielectric constant: 7.2) occupying 0.818541 of unit cell:	Completed after 1 iterations at t[s]:     60.02
	FillingsUpdate:  mu: -0.116711744  nElectrons: 354.000000
	Linear fluid (dielectric constant: 7.2) occupying 0.818542 of unit cell:	Completed after 1 iterations at t[s]:     62.94
SCF: Cycle:  8   F: -589.053142226763953   dF: +6.920e-09   |Residual|: 3.720e-05   |deigs|: 7.576e-06  t[s]:     63.08
	Linear fluid (dielectric constant: 7.2) occupying 0.818541 of unit cell:	Completed after 1 iterations at t[s]:     63.19
	FillingsUpdate:  mu: -0.116711547  nElectrons: 354.000000
	Linear fluid (dielectric constant: 7.2) occupying 0.818542 of unit cell:	Completed after 1 iterations at t[s]:     65.41
SCF: Cycle:  9   F: -589.053142232711707   dF: -5.948e-09   |Residual|: 2.934e-05   |deigs|: 1.829e-06  t[s]:     65.55
	Linear fluid (dielectric constant: 7.2) occupying 0.818542 of unit cell:	Completed after 1 iterations at t[s]:     65.66
	FillingsUpdate:  mu: -0.116711579  nElectrons: 354.000000
	Linear fluid (dielectric constant: 7.2) occupying 0.818542 of unit cell:	Completed after 1 iterations at t[s]:     68.44
SCF: Cycle: 10   F: -589.053142228017578   dF: +4.694e-09   |Residual|: 3.405e-05   |deigs|: 4.134e-06  t[s]:     68.59
	Linear fluid (dielectric constant: 7.2) occupying 0.818543 of unit cell:	Completed after 1 iterations at t[s]:     68.70
	FillingsUpdate:  mu: -0.116711672  nElectrons: 354.000000
	Linear fluid (dielectric constant: 7.2) occupying 0.818542 of unit cell:	Completed after 0 iterations at t[s]:     71.58
SCF: Cycle: 11   F: -589.053142237069892   dF: -9.052e-09   |Residual|: 2.404e-05   |deigs|: 1.042e-05  t[s]:     71.72
	Linear fluid (dielectric constant: 7.2) occupying 0.818543 of unit cell:	Completed after 0 iterations at t[s]:     71.82
	FillingsUpdate:  mu: -0.116714171  nElectrons: 354.000000
	Linear fluid (dielectric constant: 7.2) occupying 0.818542 of unit cell:	Completed after 1 iterations at t[s]:     74.21
SCF: Cycle: 12   F: -589.053142223134159   dF: +1.394e-08   |Residual|: 3.589e-05   |deigs|: 5.679e-06  t[s]:     74.35
	Linear fluid (dielectric constant: 7.2) occupying 0.818543 of unit cell:	Completed after 1 iterations at t[s]:     74.46
	FillingsUpdate:  mu: -0.116712243  nElectrons: 354.000000
	Linear fluid (dielectric constant: 7.2) occupying 0.818542 of unit cell:	Completed after 1 iterations at t[s]:     76.85
SCF: Cycle: 13   F: -589.053142231563129   dF: -8.429e-09   |Residual|: 2.866e-05   |deigs|: 3.706e-06  t[s]:     76.99
	Linear fluid (dielectric constant: 7.2) occupying 0.818543 of unit cell:	Completed after 1 iterations at t[s]:     77.10
	FillingsUpdate:  mu: -0.116711726  nElectrons: 354.000000
	Linear fluid (dielectric constant: 7.2) occupying 0.818542 of unit cell:	Completed after 0 iterations at t[s]:     79.36
SCF: Cycle: 14   F: -589.053142239303952   dF: -7.741e-09   |Residual|: 1.752e-05   |deigs|: 1.068e-06  t[s]:     79.50
SCF: Converged (|Delta E|<1.000000e-08 for 2 iters).

Setting wave functions to eigenvectors of Hamiltonian

Computing DFT-D3 correction:
# coordination-number C 3.300 3.300 3.300 3.300 3.300 3.300 3.300 3.300 3.306 3.300 3.301 3.304 3.300 3.300 3.310 3.302 3.301 3.303 3.301 3.304 3.383 3.307 3.313 3.326 3.305 3.300 3.300 3.301 3.336 3.300 3.300 3.306 3.300 3.300 3.302 3.300 3.300 3.300 3.300 3.300 3.302 3.300 3.301 3.301 3.300 3.301 3.319 3.302 3.303 3.312 3.301 3.300 3.300 3.300 3.305 3.322 3.304 3.311 3.410 3.316 3.300 3.300 3.304 3.300 3.300 3.302 3.300 3.300 3.307 3.300 3.300 3.301
# coordination-number S 2.134 2.961 2.501 1.953 2.315 1.955 2.821 2.708
# coordination-number Na 2.738 5.178
# diagonal-C6 C 24.28 24.28 24.28 24.28 24.28 24.28 24.28 24.28 24.22 24.28 24.28 24.24 24.28 24.28 24.18 24.27 24.27 24.25 24.28 24.24 23.34 24.22 24.15 24.02 24.24 24.28 24.28 24.28 23.91 24.28 24.28 24.22 24.28 24.28 24.26 24.28 24.28 24.28 24.28 24.28 24.26 24.28 24.28 24.27 24.28 24.28 24.10 24.26 24.25 24.17 24.27 24.28 24.28 24.28 24.23 24.06 24.25 24.18 22.97 24.12 24.28 24.28 24.24 24.28 24.28 24.27 24.28 24.28 24.22 24.28 24.28 24.27
# diagonal-C6 S 125.84 125.81 125.81 125.94 125.82 125.94 125.81 125.81
# diagonal-C6 Na 186.11 186.11
EvdW_6 =   -0.076712
EvdW_8 =   -0.065125

# Ionic positions in cartesian coordinates:
ion C  28.005798599999999   0.000000000000000   0.897300000000001 0
ion C  16.336715849999997  20.211437139299999   0.897300000000001 0
ion C   2.333816549999999   4.042283648400000   0.897300000000001 0
ion C  23.338165499999999   0.000000000000000   0.897300000000001 0
ion C   4.667633100000000   0.000000000000000   0.897300000000001 0
ion C  11.669082749999999  20.211437139299999   0.897300000000001 0
ion C  25.671982050000000   4.042283648400000   0.897300000000001 0
ion C  18.670532399999999  16.169153490900001   0.897300000000001 0
ion C   4.667633099999997   8.084586194100000   0.897300000000001 0
ion C  18.670532399999999   0.000000000000000   0.897300000000001 0
ion C   9.335266200000000   0.000000000000000   0.897300000000001 0
ion C   9.335266200000001  16.169153490900001   0.897300000000001 0
ion C  23.338165500000002   8.084586194100000   0.897300000000001 0
ion C  21.004348950000001  12.126869842500000   0.897300000000001 0
ion C   7.001449649999998  12.126869842500000   0.897300000000001 0
ion C  14.002899299999999   0.000000000000000   0.897300000000001 0
ion C  14.002899299999997  16.169153490900001   0.897300000000001 0
ion C   7.001449650000000   4.042283648400000   0.897300000000001 0
ion C  21.004348950000001   4.042283648400000   0.897300000000001 0
ion C  16.336715849999997  12.126869842500000   0.897300000000001 0
ion C   9.335266200000000   8.084586194100000   0.897300000000001 0
ion C  16.336715849999994   4.042283648400000   0.897300000000001 0
ion C  11.669082749999999   4.042283648400000   0.897300000000001 0
ion C  11.669082749999999  12.126869842500000   0.897300000000001 0
ion C  18.670532399999988   8.084586194100000   0.897300000000001 0
ion C   7.001449650000000  20.211437139299999   0.897300000000001 0
ion C  -7.001449650000000  20.211437139299999   0.897300000000001 0
ion C   0.000000000000000   8.084586194100000   0.897300000000001 0
ion C  14.002899299999999   8.084586194100000   0.897300000000001 0
ion C   2.333816550000000  20.211437139299999   0.897300000000001 0
ion C  -4.667633100000000  16.169153490900001   0.897300000000001 0
ion C   2.333816550000000  12.126869842500000   0.897300000000001 0
ion C  -2.333816549999999  12.126869842500000   0.897300000000001 0
ion C  -2.333816549999998  20.211437139299999   0.897300000000001 0
ion C   4.667633099999998  16.169153490900001   0.897300000000001 0
ion C   0.000000000000000  16.169153490900001   0.897300000000001 0
ion C  14.002880402700006  21.558890218500000   0.897300000000001 0
ion C   2.333816549999999   1.347415284600000   0.897300000000001 0
ion C  25.672000947299999   1.347434181900000   0.897300000000001 0
ion C  16.336696952700002  17.516587672800000   0.897300000000001 0
ion C   4.667633100000000   5.389698933000000   0.897300000000001 0
ion C  21.004367847299999   1.347434181900000   0.897300000000001 0
ion C   7.001430752700000   1.347434181900000   0.897300000000001 0
ion C  11.669101647299998  17.516587672800000   0.897300000000001 0
ion C  23.338165499999999   5.389698933000000   0.897300000000001 0
ion C  18.670513502700000  13.474304024400000   0.897300000000001 0
ion C   7.001449649999999   9.432001478699998   0.897300000000001 0
ion C  16.336734747299996   1.347434181900000   0.897300000000001 0
ion C  11.669063852700001   1.347434181900000   0.897300000000001 0
ion C   9.335285097299998  13.474304024400000   0.897300000000001 0
ion C  21.004348950000001   9.432001478699998   0.897300000000001 0
ion C   9.335247302699999  21.558890218500000   0.897300000000001 0
ion C  -9.335266200000000  21.558871321199998   0.897300000000001 0
ion C   0.000018897300000   5.389717830300000   0.897300000000001 0
ion C  14.002880402699990  13.474304024400000   0.897300000000001 0
ion C   9.335266200000000   5.389698933000000   0.897300000000001 0
ion C  18.670551297300001   5.389717830300000   0.897300000000001 0
ion C  16.336696952699999   9.432020376000001   0.897300000000001 0
ion C  11.669082750000001   9.432001478699998   0.897300000000001 0
ion C  14.002918197299991   5.389717830300000   0.897300000000001 0
ion C   4.667614202699999  21.558890218500000   0.897300000000001 0
ion C  -7.001449650000000  17.516568775499998   0.897300000000001 0
ion C   2.333835447300000   9.432020376000001   0.897300000000001 0
ion C  -2.333835447300000   9.432020376000001   0.897300000000001 0
ion C  -4.667614202700001  21.558890218500000   0.897300000000001 0
ion C   7.001449650000000  17.516568775499998   0.897300000000001 0
ion C  -0.000018897300000  21.558890218500000   0.897300000000001 0
ion C  -4.667633100000000  13.474285127100000   0.897300000000001 0
ion C   4.667651997299994  13.474304024400000   0.897300000000001 0
ion C   2.333797652700000  17.516587672800000   0.897300000000001 0
ion C  -2.333816549999999  17.516568775499998   0.897300000000001 0
ion C   0.000018897299999  13.474304024400000   0.897300000000001 0
ion S   3.929850572824130  11.814798747351372   7.325971297811684 1
ion S   5.601093609367320   8.280912408167600   8.006838582411408 1
ion S   7.052252690923801   7.988495205876474  11.521072053322007 1
ion S  12.823427875649337   3.621370791650549   7.560084744374949 1
ion S  16.278343375092781   5.114348904305295   7.638793699636335 1
ion S  16.344516010384005   8.886334859286702   7.469973149165972 1
ion S   6.478141609309281  14.592036554984501   8.559684138030789 1
ion S  10.104018251767986  13.941727289874990   7.522273287891569 1
ion Na   9.459310629331469  12.649373499762268  13.062769751189078 1
ion Na  10.945239355032122   8.675085716668759   7.052012719576519 1

# Forces in Cartesian coordinates:
force C  -0.000001114918613   0.000014669641509  -0.000168034359372 0
force C  -0.000024969916353   0.000101501663904  -0.000147863523960 0
force C   0.000041071023722   0.000019870840981  -0.000017916130229 0
force C  -0.000070233344403   0.000002055654401  -0.000149590109574 0
force C   0.000047817806600   0.000134739372805  -0.000157617402029 0
force C  -0.000047189476007  -0.000320048565162  -0.000369533287942 0
force C   0.000028423787925  -0.000044298083801  -0.000155353204057 0
force C  -0.000039216347892  -0.000058801368565  -0.000127614205069 0
force C  -0.000193872604917   0.000062893039028   0.000221099779863 0
force C  -0.000306493477398   0.000175628501566  -0.000280658514623 0
force C   0.000619811911229   0.000360422334470  -0.000308770580938 0
force C  -0.000052222090050  -0.000000478153557  -0.000191385420064 0
force C  -0.000155322539940   0.000104876857224  -0.000186604171721 0
force C  -0.000043075052304  -0.000205062072123  -0.000137866685359 0
force C   0.000086336752622   0.000489538022730  -0.000530211629536 0
force C  -0.000051639012744   0.000217176590525   0.000115297492572 0
force C  -0.000341586726032   0.000038786816640   0.000155020519782 0
force C  -0.000248200638225  -0.000095902883286   0.000361709599134 0
force C  -0.000110746989853   0.000113129391409  -0.000154236630997 0
force C   0.000051715192942  -0.000360376988531  -0.000456161115075 0
force C  -0.000904788735328  -0.000582400479047   0.000268339312361 0
force C  -0.000315397564428   0.000003231358505  -0.000016473473889 0
force C   0.000453879415736  -0.000242681888535  -0.000017064443464 0
force C  -0.000234260761966   0.001416833290187  -0.000366567713706 0
force C  -0.000024340754613  -0.000147690438704  -0.000430450651876 0
force C   0.000066655474932  -0.000178115977813  -0.000279697722545 0
force C   0.000056117418758   0.000043441712007  -0.000165690711871 0
force C   0.000238226609033   0.000037557884073  -0.000143341428229 0
force C   0.001052406554857  -0.000970740398320  -0.000306214039274 0
force C  -0.000021048177273   0.000001552420143  -0.000184271042986 0
force C   0.000016187231034   0.000038825926738  -0.000165393681283 0
force C   0.000136818854481   0.000284737244085  -0.000800047244830 0
force C   0.000033430186794  -0.000034562663177  -0.000224102495591 0
force C  -0.000031284752056   0.000080306614962  -0.000120937847604 0
force C   0.000061207073179  -0.000472833981927   0.000086780440564 0
force C   0.000068246198725   0.000021186905389  -0.000259923632942 0
force C   0.000000108884065  -0.000059265976804  -0.000160092136099 0
force C   0.000008187259529   0.000080654881402  -0.000149752886500 0
force C  -0.000001861365169   0.000044030993134  -0.000155953098122 0
force C  -0.000093442922523  -0.000177762322117  -0.000174634892599 0
force C  -0.000044838463498   0.000003169877318   0.000132001754697 0
force C   0.000026461451928   0.000056334974612  -0.000253783837167 0
force C   0.000036970531585   0.000025356137234  -0.000024485395572 0
force C  -0.000374347360238  -0.000246050820416  -0.000009056025494 0
force C  -0.000132721657910   0.000046493142632  -0.000122718086969 0
force C  -0.000171330393393  -0.000277290777808  -0.000127048071768 0
force C  -0.001009687824761   0.001104703101339   0.000428898366891 0
force C  -0.000237272828622   0.000061000146098   0.000007480810591 0
force C  -0.000169252580016  -0.000311284670973  -0.000272095417265 0
force C  -0.000309844245534   0.000090952938024  -0.000674950136052 0
force C  -0.000377629912406  -0.000125336027665  -0.000040390397481 0
force C  -0.000010973046238  -0.000096506151761  -0.000137256764349 0
force C  -0.000047650115376  -0.000060233092432  -0.000185488691860 0
force C   0.000032342586013   0.000073405577013  -0.000315505648072 0
force C   0.000048146754063  -0.000146380522812   0.000229081829699 0
force C   0.000130123830172  -0.000972453409077   0.000054942021232 0
force C   0.000034666878044   0.000676320071791   0.000000462367329 0
force C   0.000701354100806   0.000489201767853  -0.000439417593624 0
force C   0.000809210422643   0.000736894071235  -0.000019313743792 0
force C   0.000186589481683  -0.000245495951306  -0.000892576729020 0
force C  -0.000015527678394   0.000000532960116  -0.000137453688172 0
force C   0.000052465974921  -0.000066182047516  -0.000173225740904 0
force C  -0.000022562867535   0.000300407283831  -0.000017032532520 0
force C  -0.000063898884687   0.000047308634464  -0.000161650340870 0
force C   0.000081542104042  -0.000041439751278  -0.000138356326990 0
force C   0.000472071706676  -0.000411504686178   0.000148770333976 0
force C   0.000003975729585   0.000334950890372  -0.000398999408306 0
force C  -0.000083033012891  -0.000113558556408  -0.000156788687720 0
force C  -0.000011179765310   0.000052418458540  -0.000655313912643 0
force C   0.000161265683630  -0.000126295217664  -0.000085888366017 0
force C   0.000003057082081  -0.000017611052788  -0.000173023428778 0
force C   0.000410877533723  -0.000273611150775  -0.000120230804017 0
force S   0.000289306475819  -0.000429731436931  -0.000540700749983 1
force S  -0.000145010093094   0.001277953865314  -0.000065523920653 1
force S   0.000070157379724  -0.001150563895944   0.000556757209347 1
force S   0.000045994610628  -0.000011172258077  -0.000348863760051 1
force S   0.000145774193201   0.000878416146940  -0.000064432024392 1
force S  -0.000105762463364  -0.000893885588018   0.000570855052455 1
force S   0.000625020647212  -0.000400701699152   0.000011639822401 1
force S  -0.000876232343930  -0.000011839162506  -0.000047175290731 1
force Na   0.000394703626804   0.000427245996120   0.000214989686645 1
force Na  -0.000295214033718  -0.000288245347878   0.000437616003118 1

# Energy components:
   A_diel =       -0.0590289861393364
   Eewald =     5338.7577704958030154
       EH =     5811.0144240689878643
     Eloc =   -11788.7467614140659862
      Enl =      -71.5998433179489808
     EvdW =       -0.1418369849859813
      Exc =     -178.6175964133593936
 Exc_core =       16.5665071502359709
       KE =      283.8614069204056705
  MuShift =        0.0000000000002874
-------------------------------------
     Etot =     -588.9649584810675833
       TS =        0.0881837582364217
-------------------------------------
        F =     -589.0531422393039520

IonicMinimize: Iter:   0  F: -589.053142239303952  |grad|_K:  5.158e-04  alpha:  1.000e+00

#--- Lowdin population analysis ---
# oxidation-state C +0.043 +0.043 +0.043 +0.043 +0.043 +0.044 +0.044 +0.043 +0.041 +0.044 +0.045 +0.050 +0.044 +0.045 +0.045 +0.048 +0.045 +0.042 +0.044 +0.045 +0.023 +0.045 +0.045 +0.040 +0.049 +0.045 +0.043 +0.044 +0.037 +0.044 +0.043 +0.046 +0.044 +0.044 +0.045 +0.043 +0.044 +0.044 +0.043 +0.044 +0.043 +0.044 +0.044 +0.048 +0.044 +0.044 +0.038 +0.046 +0.048 +0.050 +0.046 +0.044 +0.043 +0.044 +0.044 +0.037 +0.045 +0.049 +0.020 +0.042 +0.044 +0.043 +0.044 +0.044 +0.044 +0.046 +0.045 +0.044 +0.047 +0.044 +0.043 +0.043
# oxidation-state S +0.015 +0.105 -0.436 -0.325 +0.327 -0.342 +0.097 -0.423
# oxidation-state Na +0.883 +0.676


Computing DFT-D3 correction:
# coordination-number C 3.300 3.300 3.300 3.300 3.300 3.300 3.300 3.300 3.306 3.300 3.301 3.304 3.300 3.300 3.310 3.302 3.301 3.303 3.301 3.304 3.382 3.307 3.313 3.326 3.305 3.300 3.300 3.301 3.336 3.300 3.300 3.306 3.300 3.300 3.302 3.300 3.300 3.300 3.300 3.300 3.302 3.300 3.301 3.301 3.300 3.301 3.319 3.302 3.303 3.312 3.301 3.300 3.300 3.300 3.305 3.322 3.304 3.311 3.410 3.316 3.300 3.300 3.304 3.300 3.300 3.302 3.300 3.300 3.307 3.300 3.300 3.301
# coordination-number S 2.134 2.961 2.500 1.953 2.315 1.955 2.821 2.708
# coordination-number Na 2.737 5.178
# diagonal-C6 C 24.28 24.28 24.28 24.28 24.28 24.28 24.28 24.28 24.22 24.28 24.28 24.24 24.28 24.28 24.18 24.27 24.27 24.25 24.28 24.24 23.34 24.22 24.15 24.02 24.24 24.28 24.28 24.28 23.91 24.28 24.28 24.22 24.28 24.28 24.26 24.28 24.28 24.28 24.28 24.28 24.26 24.28 24.28 24.27 24.28 24.28 24.10 24.26 24.25 24.17 24.27 24.28 24.28 24.28 24.23 24.06 24.25 24.18 22.97 24.12 24.28 24.28 24.24 24.28 24.28 24.27 24.28 24.28 24.22 24.28 24.28 24.27
# diagonal-C6 S 125.84 125.81 125.81 125.94 125.82 125.94 125.81 125.81
# diagonal-C6 Na 186.11 186.11
EvdW_6 =   -0.076712
EvdW_8 =   -0.065124

-------- Electronic minimization -----------
Will mix electronic density at each iteration.
	FillingsUpdate:  mu: -0.116711726  nElectrons: 354.000000
	Linear fluid (dielectric constant: 7.2) occupying 0.818543 of unit cell:	Completed after 2 iterations at t[s]:     86.09
	FillingsUpdate:  mu: -0.116709770  nElectrons: 354.000000
	Linear fluid (dielectric constant: 7.2) occupying 0.818545 of unit cell:	Completed after 2 iterations at t[s]:     89.01
SCF: Cycle:  0   F: -589.053148830526879   dF: -6.863e-07   |Residual|: 4.982e-04   |deigs|: 2.277e-07  t[s]:     89.16
	Linear fluid (dielectric constant: 7.2) occupying 0.818540 of unit cell:	Completed after 2 iterations at t[s]:     89.28
	FillingsUpdate:  mu: -0.116706888  nElectrons: 354.000000
	Linear fluid (dielectric constant: 7.2) occupying 0.818545 of unit cell:	Completed after 1 iterations at t[s]:     91.66
SCF: Cycle:  1   F: -589.053149480200545   dF: -6.497e-07   |Residual|: 2.066e-04   |deigs|: 6.387e-06  t[s]:     91.80
	Linear fluid (dielectric constant: 7.2) occupying 0.818538 of unit cell:	Completed after 1 iterations at t[s]:     91.91
	FillingsUpdate:  mu: -0.116707024  nElectrons: 354.000000
	Linear fluid (dielectric constant: 7.2) occupying 0.818544 of unit cell:	Completed after 1 iterations at t[s]:     94.27
SCF: Cycle:  2   F: -589.053149535281591   dF: -5.508e-08   |Residual|: 7.237e-05   |deigs|: 2.757e-06  t[s]:     94.41
	Linear fluid (dielectric constant: 7.2) occupying 0.818539 of unit cell:	Completed after 0 iterations at t[s]:     94.51
	FillingsUpdate:  mu: -0.116705203  nElectrons: 354.000000
	Linear fluid (dielectric constant: 7.2) occupying 0.818544 of unit cell:	Completed after 1 iterations at t[s]:     96.88
SCF: Cycle:  3   F: -589.053149531885197   dF: +3.396e-09   |Residual|: 5.549e-05   |deigs|: 2.835e-06  t[s]:     97.02
	Linear fluid (dielectric constant: 7.2) occupying 0.818539 of unit cell:	Completed after 1 iterations at t[s]:     97.13
	FillingsUpdate:  mu: -0.116706832  nElectrons: 354.000000
	Linear fluid (dielectric constant: 7.2) occupying 0.818544 of unit cell:	Completed after 1 iterations at t[s]:    100.12
SCF: Cycle:  4   F: -589.053149526118432   dF: +5.767e-09   |Residual|: 4.965e-05   |deigs|: 3.541e-06  t[s]:    100.26
	Linear fluid (dielectric constant: 7.2) occupying 0.818540 of unit cell:	Completed after 1 iterations at t[s]:    100.37
	FillingsUpdate:  mu: -0.116706794  nElectrons: 354.000000
	Linear fluid (dielectric constant: 7.2) occupying 0.818544 of unit cell:	Completed after 0 iterations at t[s]:    102.73
SCF: Cycle:  5   F: -589.053149548549300   dF: -2.243e-08   |Residual|: 1.649e-05   |deigs|: 2.098e-06  t[s]:    102.87
	Linear fluid (dielectric constant: 7.2) occupying 0.818540 of unit cell:	Completed after 0 iterations at t[s]:    102.97
	FillingsUpdate:  mu: -0.116705502  nElectrons: 354.000000
	Linear fluid (dielectric constant: 7.2) occupying 0.818544 of unit cell:	Completed after 0 iterations at t[s]:    105.34
SCF: Cycle:  6   F: -589.053149548813394   dF: -2.641e-10   |Residual|: 1.106e-05   |deigs|: 1.313e-06  t[s]:    105.47
	Linear fluid (dielectric constant: 7.2) occupying 0.818541 of unit cell:	Completed after 0 iterations at t[s]:    105.58
	FillingsUpdate:  mu: -0.116705767  nElectrons: 354.000000
	Linear fluid (dielectric constant: 7.2) occupying 0.818544 of unit cell:	Completed after 0 iterations at t[s]:    108.54
SCF: Cycle:  7   F: -589.053149547629687   dF: +1.184e-09   |Residual|: 1.924e-05   |deigs|: 1.380e-06  t[s]:    108.68
	Linear fluid (dielectric constant: 7.2) occupying 0.818542 of unit cell:	Completed after 0 iterations at t[s]:    108.78
	FillingsUpdate:  mu: -0.116704660  nElectrons: 354.000000
	Linear fluid (dielectric constant: 7.2) occupying 0.818543 of unit cell:	Completed after 1 iterations at t[s]:    111.16
SCF: Cycle:  8   F: -589.053149542340407   dF: +5.289e-09   |Residual|: 2.485e-05   |deigs|: 1.437e-06  t[s]:    111.30
	Linear fluid (dielectric constant: 7.2) occupying 0.818542 of unit cell:	Completed after 0 iterations at t[s]:    111.40
	FillingsUpdate:  mu: -0.116707581  nElectrons: 354.000000
	Linear fluid (dielectric constant: 7.2) occupying 0.818544 of unit cell:	Completed after 1 iterations at t[s]:    113.77
SCF: Cycle:  9   F: -589.053149514218376   dF: +2.812e-08   |Residual|: 5.737e-05   |deigs|: 3.214e-06  t[s]:    113.92
	Linear fluid (dielectric constant: 7.2) occupying 0.818542 of unit cell:	Completed after 1 iterations at t[s]:    114.03
	FillingsUpdate:  mu: -0.116706382  nElectrons: 354.000000
	Linear fluid (dielectric constant: 7.2) occupying 0.818544 of unit cell:	Completed after 0 iterations at t[s]:    116.41
SCF: Cycle: 10   F: -589.053149545947349   dF: -3.173e-08   |Residual|: 2.281e-05   |deigs|: 2.342e-06  t[s]:    116.54
	Linear fluid (dielectric constant: 7.2) occupying 0.818542 of unit cell:	Completed after 0 iterations at t[s]:    116.65
	FillingsUpdate:  mu: -0.116705814  nElectrons: 354.000000
	Linear fluid (dielectric constant: 7.2) occupying 0.818544 of unit cell:	Completed after 1 iterations at t[s]:    119.03
SCF: Cycle: 11   F: -589.053149538562707   dF: +7.385e-09   |Residual|: 2.999e-05   |deigs|: 2.112e-06  t[s]:    119.17
	Linear fluid (dielectric constant: 7.2) occupying 0.818542 of unit cell:	Completed after 1 iterations at t[s]:    119.29
	FillingsUpdate:  mu: -0.116706259  nElectrons: 354.000000
	Linear fluid (dielectric constant: 7.2) occupying 0.818544 of unit cell:	Completed after 0 iterations at t[s]:    121.65
SCF: Cycle: 12   F: -589.053149544664734   dF: -6.102e-09   |Residual|: 2.580e-05   |deigs|: 2.138e-06  t[s]:    121.79
	Linear fluid (dielectric constant: 7.2) occupying 0.818542 of unit cell:	Completed after 0 iterations at t[s]:    121.89
	FillingsUpdate:  mu: -0.116704889  nElectrons: 354.000000
	Linear fluid (dielectric constant: 7.2) occupying 0.818543 of unit cell:	Completed after 1 iterations at t[s]:    124.26
SCF: Cycle: 13   F: -589.053149537673789   dF: +6.991e-09   |Residual|: 2.924e-05   |deigs|: 2.563e-06  t[s]:    124.40
	Linear fluid (dielectric constant: 7.2) occupying 0.818543 of unit cell:	Completed after 1 iterations at t[s]:    124.52
	FillingsUpdate:  mu: -0.116706109  nElectrons: 354.000000
	Linear fluid (dielectric constant: 7.2) occupying 0.818544 of unit cell:	Completed after 1 iterations at t[s]:    126.88
SCF: Cycle: 14   F: -589.053149541476273   dF: -3.802e-09   |Residual|: 2.961e-05   |deigs|: 2.768e-06  t[s]:    127.03
	Linear fluid (dielectric constant: 7.2) occupying 0.818544 of unit cell:	Completed after 0 iterations at t[s]:    127.13
	FillingsUpdate:  mu: -0.116705386  nElectrons: 354.000000
	Linear fluid (dielectric constant: 7.2) occupying 0.818543 of unit cell:	Completed after 0 iterations at t[s]:    129.50
SCF: Cycle: 15   F: -589.053149548680949   dF: -7.205e-09   |Residual|: 1.276e-05   |deigs|: 2.130e-06  t[s]:    129.63
SCF: Converged (|Delta E|<1.000000e-08 for 2 iters).

Setting wave functions to eigenvectors of Hamiltonian
IonicMinimize: 	Predicted alpha/alphaT>3.000000, increasing alphaT to 3.000000e+00.

Computing DFT-D3 correction:
# coordination-number C 3.300 3.300 3.300 3.300 3.300 3.300 3.300 3.300 3.306 3.300 3.301 3.304 3.300 3.300 3.310 3.302 3.301 3.303 3.301 3.304 3.382 3.307 3.313 3.326 3.305 3.300 3.300 3.301 3.336 3.300 3.300 3.306 3.300 3.300 3.302 3.300 3.300 3.300 3.300 3.300 3.302 3.300 3.301 3.301 3.300 3.301 3.319 3.302 3.303 3.312 3.301 3.300 3.300 3.300 3.305 3.322 3.304 3.311 3.409 3.316 3.300 3.300 3.304 3.300 3.300 3.302 3.300 3.300 3.307 3.300 3.300 3.301
# coordination-number S 2.134 2.962 2.499 1.953 2.315 1.955 2.822 2.708
# coordination-number Na 2.736 5.178
# diagonal-C6 C 24.28 24.28 24.28 24.28 24.28 24.28 24.28 24.28 24.22 24.28 24.28 24.24 24.28 24.28 24.18 24.27 24.27 24.25 24.28 24.24 23.34 24.22 24.15 24.02 24.24 24.28 24.28 24.28 23.91 24.28 24.28 24.22 24.28 24.28 24.26 24.28 24.28 24.28 24.28 24.28 24.26 24.28 24.28 24.27 24.28 24.28 24.10 24.26 24.25 24.17 24.27 24.28 24.28 24.28 24.23 24.06 24.25 24.18 22.98 24.12 24.28 24.28 24.24 24.28 24.28 24.27 24.28 24.28 24.21 24.28 24.28 24.27
# diagonal-C6 S 125.84 125.81 125.81 125.94 125.82 125.94 125.81 125.81
# diagonal-C6 Na 186.11 186.11
EvdW_6 =   -0.076712
EvdW_8 =   -0.065124

-------- Electronic minimization -----------
Will mix electronic density at each iteration.
	FillingsUpdate:  mu: -0.116705386  nElectrons: 354.000000
	Linear fluid (dielectric constant: 7.2) occupying 0.818546 of unit cell:	Completed after 3 iterations at t[s]:    133.09
	FillingsUpdate:  mu: -0.116695932  nElectrons: 354.000000
	Linear fluid (dielectric constant: 7.2) occupying 0.818550 of unit cell:	Completed after 4 iterations at t[s]:    136.04
SCF: Cycle:  0   F: -589.053156413386318   dF: -2.079e-06   |Residual|: 1.070e-03   |deigs|: 9.250e-08  t[s]:    136.19
	Linear fluid (dielectric constant: 7.2) occupying 0.818537 of unit cell:	Completed after 3 iterations at t[s]:    136.32
	FillingsUpdate:  mu: -0.116697843  nElectrons: 354.000000
	Linear fluid (dielectric constant: 7.2) occupying 0.818549 of unit cell:	Completed after 2 iterations at t[s]:    138.72
SCF: Cycle:  1   F: -589.053159683179388   dF: -3.270e-06   |Residual|: 4.253e-04   |deigs|: 1.522e-05  t[s]:    138.87
	Linear fluid (dielectric constant: 7.2) occupying 0.818534 of unit cell:	Completed after 1 iterations at t[s]:    138.98
	FillingsUpdate:  mu: -0.116697839  nElectrons: 354.000000
	Linear fluid (dielectric constant: 7.2) occupying 0.818548 of unit cell:	Completed after 2 iterations at t[s]:    141.39
SCF: Cycle:  2   F: -589.053159888880600   dF: -2.057e-07   |Residual|: 1.716e-04   |deigs|: 7.389e-06  t[s]:    141.54
	Linear fluid (dielectric constant: 7.2) occupying 0.818534 of unit cell:	Completed after 1 iterations at t[s]:    141.65
	FillingsUpdate:  mu: -0.116696104  nElectrons: 354.000000
	Linear fluid (dielectric constant: 7.2) occupying 0.818547 of unit cell:	Completed after 1 iterations at t[s]:    144.01
SCF: Cycle:  3   F: -589.053159976833172   dF: -8.795e-08   |Residual|: 7.971e-05   |deigs|: 6.584e-06  t[s]:    144.15
	Linear fluid (dielectric constant: 7.2) occupying 0.818536 of unit cell:	Completed after 1 iterations at t[s]:    144.27
	FillingsUpdate:  mu: -0.116694556  nElectrons: 354.000000
	Linear fluid (dielectric constant: 7.2) occupying 0.818547 of unit cell:	Completed after 1 iterations at t[s]:    146.63
SCF: Cycle:  4   F: -589.053159954764624   dF: +2.207e-08   |Residual|: 5.239e-05   |deigs|: 6.412e-06  t[s]:    146.77
	Linear fluid (dielectric constant: 7.2) occupying 0.818537 of unit cell:	Completed after 1 iterations at t[s]:    146.88
	FillingsUpdate:  mu: -0.116695602  nElectrons: 354.000000
	Linear fluid (dielectric constant: 7.2) occupying 0.818547 of unit cell:	Completed after 1 iterations at t[s]:    149.26
SCF: Cycle:  5   F: -589.053159987659569   dF: -3.289e-08   |Residual|: 2.624e-05   |deigs|: 5.469e-06  t[s]:    149.40
	Linear fluid (dielectric constant: 7.2) occupying 0.818539 of unit cell:	Completed after 0 iterations at t[s]:    149.50
	FillingsUpdate:  mu: -0.116693256  nElectrons: 354.000000
	Linear fluid (dielectric constant: 7.2) occupying 0.818547 of unit cell:	Completed after 1 iterations at t[s]:    151.89
SCF: Cycle:  6   F: -589.053159959384402   dF: +2.828e-08   |Residual|: 4.733e-05   |deigs|: 6.465e-06  t[s]:    152.03
	Linear fluid (dielectric constant: 7.2) occupying 0.818542 of unit cell:	Completed after 1 iterations at t[s]:    152.15
	FillingsUpdate:  mu: -0.116694640  nElectrons: 354.000000
	Linear fluid (dielectric constant: 7.2) occupying 0.818547 of unit cell:	Completed after 0 iterations at t[s]:    154.51
SCF: Cycle:  7   F: -589.053159990850418   dF: -3.147e-08   |Residual|: 1.652e-05   |deigs|: 7.630e-06  t[s]:    154.64
	Linear fluid (dielectric constant: 7.2) occupying 0.818545 of unit cell:	Completed after 0 iterations at t[s]:    154.74
	FillingsUpdate:  mu: -0.116694234  nElectrons: 354.000000
	Linear fluid (dielectric constant: 7.2) occupying 0.818547 of unit cell:	Completed after 0 iterations at t[s]:    157.12
SCF: Cycle:  8   F: -589.053159991433745   dF: -5.833e-10   |Residual|: 1.584e-05   |deigs|: 1.041e-05  t[s]:    157.26
	Linear fluid (dielectric constant: 7.2) occupying 0.818547 of unit cell:	Completed after 0 iterations at t[s]:    157.36
	FillingsUpdate:  mu: -0.116694261  nElectrons: 354.000000
	Linear fluid (dielectric constant: 7.2) occupying 0.818547 of unit cell:	Completed after 0 iterations at t[s]:    160.40
SCF: Cycle:  9   F: -589.053159987968343   dF: +3.465e-09   |Residual|: 2.536e-05   |deigs|: 6.473e-06  t[s]:    160.54
	Linear fluid (dielectric constant: 7.2) occupying 0.818548 of unit cell:	Completed after 0 iterations at t[s]:    160.64
	FillingsUpdate:  mu: -0.116695023  nElectrons: 354.000000
	Linear fluid (dielectric constant: 7.2) occupying 0.818547 of unit cell:	Completed after 1 iterations at t[s]:    163.63
SCF: Cycle: 10   F: -589.053159963299436   dF: +2.467e-08   |Residual|: 5.060e-05   |deigs|: 6.380e-06  t[s]:    163.77
	Linear fluid (dielectric constant: 7.2) occupying 0.818549 of unit cell:	Completed after 1 iterations at t[s]:    163.88
	FillingsUpdate:  mu: -0.116694103  nElectrons: 354.000000
	Linear fluid (dielectric constant: 7.2) occupying 0.818547 of unit cell:	Completed after 0 iterations at t[s]:    166.25
SCF: Cycle: 11   F: -589.053159994646080   dF: -3.135e-08   |Residual|: 7.199e-06   |deigs|: 3.219e-06  t[s]:    166.38
	Linear fluid (dielectric constant: 7.2) occupying 0.818549 of unit cell:	Completed after 0 iterations at t[s]:    166.47
	FillingsUpdate:  mu: -0.116694092  nElectrons: 354.000000
	Linear fluid (dielectric constant: 7.2) occupying 0.818547 of unit cell:	Completed after 0 iterations at t[s]:    168.63
SCF: Cycle: 12   F: -589.053159994922680   dF: -2.766e-10   |Residual|: 6.521e-06   |deigs|: 1.195e-06  t[s]:    168.76
	Linear fluid (dielectric constant: 7.2) occupying 0.818549 of unit cell:	Completed after 0 iterations at t[s]:    168.85
	FillingsUpdate:  mu: -0.116694040  nElectrons: 354.000000
	Linear fluid (dielectric constant: 7.2) occupying 0.818547 of unit cell:	Completed after 0 iterations at t[s]:    171.78
SCF: Cycle: 13   F: -589.053159993662121   dF: +1.261e-09   |Residual|: 5.109e-06   |deigs|: 4.573e-06  t[s]:    171.91
	Linear fluid (dielectric constant: 7.2) occupying 0.818550 of unit cell:	Completed after 0 iterations at t[s]:    172.01
	FillingsUpdate:  mu: -0.116692664  nElectrons: 354.000000
	Linear fluid (dielectric constant: 7.2) occupying 0.818547 of unit cell:	Completed after 1 iterations at t[s]:    174.99
SCF: Cycle: 14   F: -589.053159985223374   dF: +8.439e-09   |Residual|: 3.815e-05   |deigs|: 3.686e-06  t[s]:    175.13
	Linear fluid (dielectric constant: 7.2) occupying 0.818549 of unit cell:	Completed after 1 iterations at t[s]:    175.24
	FillingsUpdate:  mu: -0.116693611  nElectrons: 354.000000
	Linear fluid (dielectric constant: 7.2) occupying 0.818547 of unit cell:	Completed after 1 iterations at t[s]:    177.56
SCF: Cycle: 15   F: -589.053159976775760   dF: +8.448e-09   |Residual|: 4.799e-05   |deigs|: 1.742e-06  t[s]:    177.71
	Linear fluid (dielectric constant: 7.2) occupying 0.818549 of unit cell:	Completed after 1 iterations at t[s]:    177.82
	FillingsUpdate:  mu: -0.116693690  nElectrons: 354.000000
	Linear fluid (dielectric constant: 7.2) occupying 0.818547 of unit cell:	Completed after 1 iterations at t[s]:    179.88
SCF: Cycle: 16   F: -589.053159976747679   dF: +2.808e-11   |Residual|: 4.894e-05   |deigs|: 2.025e-07  t[s]:    180.02
	Linear fluid (dielectric constant: 7.2) occupying 0.818550 of unit cell:	Completed after 1 iterations at t[s]:    180.14
	FillingsUpdate:  mu: -0.116693701  nElectrons: 354.000000
	Linear fluid (dielectric constant: 7.2) occupying 0.818547 of unit cell:	Completed after 1 iterations at t[s]:    182.81
SCF: Cycle: 17   F: -589.053159973646984   dF: +3.101e-09   |Residual|: 5.306e-05   |deigs|: 6.830e-07  t[s]:    182.95
	Linear fluid (dielectric constant: 7.2) occupying 0.818549 of unit cell:	Completed after 1 iterations at t[s]:    183.07
	FillingsUpdate:  mu: -0.116693789  nElectrons: 354.000000
	Linear fluid (dielectric constant: 7.2) occupying 0.818547 of unit cell:	Completed after 1 iterations at t[s]:    185.14
SCF: Cycle: 18   F: -589.053159979725137   dF: -6.078e-09   |Residual|: 4.615e-05   |deigs|: 1.613e-06  t[s]:    185.28
	Linear fluid (dielectric constant: 7.2) occupying 0.818549 of unit cell:	Completed after 1 iterations at t[s]:    185.39
	FillingsUpdate:  mu: -0.116693773  nElectrons: 354.000000
	Linear fluid (dielectric constant: 7.2) occupying 0.818547 of unit cell:	Completed after 1 iterations at t[s]:    187.33
SCF: Cycle: 19   F: -589.053159978150802   dF: +1.574e-09   |Residual|: 4.818e-05   |deigs|: 3.406e-07  t[s]:    187.47
	Linear fluid (dielectric constant: 7.2) occupying 0.818549 of unit cell:	Completed after 1 iterations at t[s]:    187.58
	FillingsUpdate:  mu: -0.116693827  nElectrons: 354.000000
	Linear fluid (dielectric constant: 7.2) occupying 0.818547 of unit cell:	Completed after 1 iterations at t[s]:    189.54
SCF: Cycle: 20   F: -589.053159976163215   dF: +1.988e-09   |Residual|: 5.117e-05   |deigs|: 6.182e-07  t[s]:    189.69
	Linear fluid (dielectric constant: 7.2) occupying 0.818549 of unit cell:	Completed after 1 iterations at t[s]:    189.80
	FillingsUpdate:  mu: -0.116693665  nElectrons: 354.000000
	Linear fluid (dielectric constant: 7.2) occupying 0.818547 of unit cell:	Completed after 1 iterations at t[s]:    191.94
SCF: Cycle: 21   F: -589.053159985489970   dF: -9.327e-09   |Residual|: 3.544e-05   |deigs|: 8.508e-07  t[s]:    192.08
	Linear fluid (dielectric constant: 7.2) occupying 0.818549 of unit cell:	Completed after 1 iterations at t[s]:    192.19
	FillingsUpdate:  mu: -0.116693499  nElectrons: 354.000000
	Linear fluid (dielectric constant: 7.2) occupying 0.818547 of unit cell:	Completed after 0 iterations at t[s]:    195.01
SCF: Cycle: 22   F: -589.053159990820177   dF: -5.330e-09   |Residual|: 2.541e-05   |deigs|: 5.909e-06  t[s]:    195.15
SCF: Converged (|Delta E|<1.000000e-08 for 2 iters).

Setting wave functions to eigenvectors of Hamiltonian

Computing DFT-D3 correction:
# coordination-number C 3.300 3.300 3.300 3.300 3.300 3.300 3.300 3.300 3.306 3.300 3.301 3.304 3.300 3.300 3.310 3.302 3.301 3.303 3.301 3.304 3.382 3.307 3.313 3.326 3.305 3.300 3.300 3.301 3.336 3.300 3.300 3.306 3.300 3.300 3.302 3.300 3.300 3.300 3.300 3.300 3.302 3.300 3.301 3.301 3.300 3.301 3.319 3.302 3.303 3.312 3.301 3.300 3.300 3.300 3.305 3.322 3.304 3.311 3.409 3.316 3.300 3.300 3.304 3.300 3.300 3.302 3.300 3.300 3.307 3.300 3.300 3.301
# coordination-number S 2.134 2.963 2.497 1.954 2.316 1.955 2.823 2.708
# coordination-number Na 2.735 5.178
# diagonal-C6 C 24.28 24.28 24.28 24.28 24.28 24.28 24.28 24.28 24.22 24.28 24.28 24.24 24.28 24.28 24.18 24.27 24.27 24.25 24.28 24.24 23.35 24.22 24.15 24.02 24.24 24.28 24.28 24.28 23.91 24.28 24.28 24.22 24.28 24.28 24.26 24.28 24.28 24.28 24.28 24.28 24.26 24.28 24.28 24.27 24.28 24.28 24.10 24.26 24.25 24.17 24.27 24.28 24.28 24.28 24.23 24.06 24.25 24.18 22.98 24.12 24.28 24.28 24.24 24.28 24.28 24.27 24.28 24.28 24.21 24.28 24.28 24.27
# diagonal-C6 S 125.84 125.81 125.81 125.94 125.82 125.94 125.81 125.81
# diagonal-C6 Na 186.11 186.11
EvdW_6 =   -0.076712
EvdW_8 =   -0.065124

-------- Electronic minimization -----------
Will mix electronic density at each iteration.
	FillingsUpdate:  mu: -0.116693499  nElectrons: 354.000000
	Linear fluid (dielectric constant: 7.2) occupying 0.818551 of unit cell:	Completed after 3 iterations at t[s]:    198.64
	FillingsUpdate:  mu: -0.116679033  nElectrons: 354.000000
	Linear fluid (dielectric constant: 7.2) occupying 0.818556 of unit cell:	Completed after 4 iterations at t[s]:    201.57
SCF: Cycle:  0   F: -589.053158345178190   dF: -4.226e-06   |Residual|: 1.488e-03   |deigs|: 4.422e-07  t[s]:    201.73
	Linear fluid (dielectric constant: 7.2) occupying 0.818539 of unit cell:	Completed after 4 iterations at t[s]:    201.87
	FillingsUpdate:  mu: -0.116684197  nElectrons: 354.000000
	Linear fluid (dielectric constant: 7.2) occupying 0.818554 of unit cell:	Completed after 2 iterations at t[s]:    204.28
SCF: Cycle:  1   F: -589.053164610296676   dF: -6.265e-06   |Residual|: 5.883e-04   |deigs|: 1.989e-05  t[s]:    204.43
	Linear fluid (dielectric constant: 7.2) occupying 0.818535 of unit cell:	Completed after 2 iterations at t[s]:    204.55
	FillingsUpdate:  mu: -0.116679804  nElectrons: 354.000000
	Linear fluid (dielectric constant: 7.2) occupying 0.818553 of unit cell:	Completed after 2 iterations at t[s]:    206.94
SCF: Cycle:  2   F: -589.053165017169022   dF: -4.069e-07   |Residual|: 2.338e-04   |deigs|: 8.932e-06  t[s]:    207.09
	Linear fluid (dielectric constant: 7.2) occupying 0.818535 of unit cell:	Completed after 2 iterations at t[s]:    207.20
	FillingsUpdate:  mu: -0.116680021  nElectrons: 354.000000
	Linear fluid (dielectric constant: 7.2) occupying 0.818552 of unit cell:	Completed after 1 iterations at t[s]:    209.59
SCF: Cycle:  3   F: -589.053165165419159   dF: -1.483e-07   |Residual|: 1.014e-04   |deigs|: 7.766e-06  t[s]:    209.73
	Linear fluid (dielectric constant: 7.2) occupying 0.818537 of unit cell:	Completed after 1 iterations at t[s]:    209.84
	FillingsUpdate:  mu: -0.116678168  nElectrons: 354.000000
	Linear fluid (dielectric constant: 7.2) occupying 0.818552 of unit cell:	Completed after 1 iterations at t[s]:    212.22
SCF: Cycle:  4   F: -589.053165179477219   dF: -1.406e-08   |Residual|: 3.699e-05   |deigs|: 8.677e-06  t[s]:    212.36
	Linear fluid (dielectric constant: 7.2) occupying 0.818540 of unit cell:	Completed after 1 iterations at t[s]:    212.47
	FillingsUpdate:  mu: -0.116678150  nElectrons: 354.000000
	Linear fluid (dielectric constant: 7.2) occupying 0.818552 of unit cell:	Completed after 1 iterations at t[s]:    215.47
SCF: Cycle:  5   F: -589.053165189763831   dF: -1.029e-08   |Residual|: 2.411e-05   |deigs|: 7.594e-06  t[s]:    215.61
	Linear fluid (dielectric constant: 7.2) occupying 0.818544 of unit cell:	Completed after 0 iterations at t[s]:    215.71
	FillingsUpdate:  mu: -0.116676435  nElectrons: 354.000000
	Linear fluid (dielectric constant: 7.2) occupying 0.818552 of unit cell:	Completed after 1 iterations at t[s]:    218.71
SCF: Cycle:  6   F: -589.053165185077205   dF: +4.687e-09   |Residual|: 2.844e-05   |deigs|: 8.784e-06  t[s]:    218.85
	Linear fluid (dielectric constant: 7.2) occupying 0.818548 of unit cell:	Completed after 1 iterations at t[s]:    218.96
	FillingsUpdate:  mu: -0.116677205  nElectrons: 354.000000
	Linear fluid (dielectric constant: 7.2) occupying 0.818552 of unit cell:	Completed after 0 iterations at t[s]:    221.96
SCF: Cycle:  7   F: -589.053165193595419   dF: -8.518e-09   |Residual|: 2.389e-05   |deigs|: 1.015e-05  t[s]:    222.10
	Linear fluid (dielectric constant: 7.2) occupying 0.818550 of unit cell:	Completed after 0 iterations at t[s]:    222.21
	FillingsUpdate:  mu: -0.116676982  nElectrons: 354.000000
	Linear fluid (dielectric constant: 7.2) occupying 0.818552 of unit cell:	Completed after 0 iterations at t[s]:    228.23
SCF: Cycle:  8   F: -589.053165195037309   dF: -1.442e-09   |Residual|: 2.159e-05   |deigs|: 8.043e-06  t[s]:    228.38
SCF: Converged (|Delta E|<1.000000e-08 for 2 iters).

Setting wave functions to eigenvectors of Hamiltonian

Computing DFT-D3 correction:
# coordination-number C 3.300 3.300 3.300 3.300 3.300 3.300 3.300 3.300 3.306 3.300 3.301 3.304 3.300 3.300 3.310 3.302 3.301 3.303 3.301 3.304 3.382 3.307 3.313 3.326 3.305 3.300 3.300 3.301 3.336 3.300 3.300 3.306 3.300 3.300 3.302 3.300 3.300 3.300 3.300 3.300 3.302 3.300 3.301 3.301 3.300 3.301 3.319 3.302 3.303 3.312 3.301 3.300 3.300 3.300 3.305 3.322 3.304 3.311 3.409 3.316 3.300 3.300 3.304 3.300 3.300 3.302 3.300 3.300 3.307 3.300 3.300 3.301
# coordination-number S 2.134 2.963 2.497 1.954 2.316 1.955 2.823 2.708
# coordination-number Na 2.735 5.178
# diagonal-C6 C 24.28 24.28 24.28 24.28 24.28 24.28 24.28 24.28 24.22 24.28 24.28 24.24 24.28 24.28 24.18 24.27 24.27 24.25 24.28 24.24 23.35 24.22 24.15 24.02 24.24 24.28 24.28 24.28 23.91 24.28 24.28 24.22 24.28 24.28 24.26 24.28 24.28 24.28 24.28 24.28 24.26 24.28 24.28 24.27 24.28 24.28 24.10 24.26 24.25 24.17 24.27 24.28 24.28 24.28 24.23 24.06 24.25 24.18 22.98 24.12 24.28 24.28 24.24 24.28 24.28 24.27 24.28 24.28 24.21 24.28 24.28 24.27
# diagonal-C6 S 125.84 125.81 125.81 125.94 125.82 125.94 125.81 125.81
# diagonal-C6 Na 186.11 186.11
EvdW_6 =   -0.076712
EvdW_8 =   -0.065124

# Ionic positions in cartesian coordinates:
ion C  28.005798599999999   0.000000000000000   0.897300000000001 0
ion C  16.336715849999997  20.211437139299999   0.897300000000001 0
ion C   2.333816549999999   4.042283648400000   0.897300000000001 0
ion C  23.338165499999999   0.000000000000000   0.897300000000001 0
ion C   4.667633100000000   0.000000000000000   0.897300000000001 0
ion C  11.669082749999999  20.211437139299999   0.897300000000001 0
ion C  25.671982050000000   4.042283648400000   0.897300000000001 0
ion C  18.670532399999999  16.169153490900001   0.897300000000001 0
ion C   4.667633099999997   8.084586194100000   0.897300000000001 0
ion C  18.670532399999999   0.000000000000000   0.897300000000001 0
ion C   9.335266200000000   0.000000000000000   0.897300000000001 0
ion C   9.335266200000001  16.169153490900001   0.897300000000001 0
ion C  23.338165500000002   8.084586194100000   0.897300000000001 0
ion C  21.004348950000001  12.126869842500000   0.897300000000001 0
ion C   7.001449649999998  12.126869842500000   0.897300000000001 0
ion C  14.002899299999999   0.000000000000000   0.897300000000001 0
ion C  14.002899299999997  16.169153490900001   0.897300000000001 0
ion C   7.001449650000000   4.042283648400000   0.897300000000001 0
ion C  21.004348950000001   4.042283648400000   0.897300000000001 0
ion C  16.336715849999997  12.126869842500000   0.897300000000001 0
ion C   9.335266200000000   8.084586194100000   0.897300000000001 0
ion C  16.336715849999994   4.042283648400000   0.897300000000001 0
ion C  11.669082749999999   4.042283648400000   0.897300000000001 0
ion C  11.669082749999999  12.126869842500000   0.897300000000001 0
ion C  18.670532399999988   8.084586194100000   0.897300000000001 0
ion C   7.001449650000000  20.211437139299999   0.897300000000001 0
ion C  -7.001449650000000  20.211437139299999   0.897300000000001 0
ion C   0.000000000000000   8.084586194100000   0.897300000000001 0
ion C  14.002899299999999   8.084586194100000   0.897300000000001 0
ion C   2.333816550000000  20.211437139299999   0.897300000000001 0
ion C  -4.667633100000000  16.169153490900001   0.897300000000001 0
ion C   2.333816550000000  12.126869842500000   0.897300000000001 0
ion C  -2.333816549999999  12.126869842500000   0.897300000000001 0
ion C  -2.333816549999998  20.211437139299999   0.897300000000001 0
ion C   4.667633099999998  16.169153490900001   0.897300000000001 0
ion C   0.000000000000000  16.169153490900001   0.897300000000001 0
ion C  14.002880402700006  21.558890218500000   0.897300000000001 0
ion C   2.333816549999999   1.347415284600000   0.897300000000001 0
ion C  25.672000947299999   1.347434181900000   0.897300000000001 0
ion C  16.336696952700002  17.516587672800000   0.897300000000001 0
ion C   4.667633100000000   5.389698933000000   0.897300000000001 0
ion C  21.004367847299999   1.347434181900000   0.897300000000001 0
ion C   7.001430752700000   1.347434181900000   0.897300000000001 0
ion C  11.669101647299998  17.516587672800000   0.897300000000001 0
ion C  23.338165499999999   5.389698933000000   0.897300000000001 0
ion C  18.670513502700000  13.474304024400000   0.897300000000001 0
ion C   7.001449649999999   9.432001478699998   0.897300000000001 0
ion C  16.336734747299996   1.347434181900000   0.897300000000001 0
ion C  11.669063852700001   1.347434181900000   0.897300000000001 0
ion C   9.335285097299998  13.474304024400000   0.897300000000001 0
ion C  21.004348950000001   9.432001478699998   0.897300000000001 0
ion C   9.335247302699999  21.558890218500000   0.897300000000001 0
ion C  -9.335266200000000  21.558871321199998   0.897300000000001 0
ion C   0.000018897300000   5.389717830300000   0.897300000000001 0
ion C  14.002880402699990  13.474304024400000   0.897300000000001 0
ion C   9.335266200000000   5.389698933000000   0.897300000000001 0
ion C  18.670551297300001   5.389717830300000   0.897300000000001 0
ion C  16.336696952699999   9.432020376000001   0.897300000000001 0
ion C  11.669082750000001   9.432001478699998   0.897300000000001 0
ion C  14.002918197299991   5.389717830300000   0.897300000000001 0
ion C   4.667614202699999  21.558890218500000   0.897300000000001 0
ion C  -7.001449650000000  17.516568775499998   0.897300000000001 0
ion C   2.333835447300000   9.432020376000001   0.897300000000001 0
ion C  -2.333835447300000   9.432020376000001   0.897300000000001 0
ion C  -4.667614202700001  21.558890218500000   0.897300000000001 0
ion C   7.001449650000000  17.516568775499998   0.897300000000001 0
ion C  -0.000018897300000  21.558890218500000   0.897300000000001 0
ion C  -4.667633100000000  13.474285127100000   0.897300000000001 0
ion C   4.667651997299994  13.474304024400000   0.897300000000001 0
ion C   2.333797652700000  17.516587672800000   0.897300000000001 0
ion C  -2.333816549999999  17.516568775499998   0.897300000000001 0
ion C   0.000018897299999  13.474304024400000   0.897300000000001 0
ion S   3.931527673755682  11.812307607147355   7.322836871840328 1
ion S   5.600252990222783   8.288320668255569   8.006458742215798 1
ion S   7.052659391142169   7.981825421606220  11.524299558104962 1
ion S  12.823694505022605   3.621306026406788   7.558062391659511 1
ion S  16.279188423702642   5.119441056266822   7.638420189130480 1
ion S  16.343902908567568   8.881153031440908   7.473282378721048 1
ion S   6.481764835186654  14.589713699296532   8.559751613730866 1
ion S  10.098938759246765  13.941658658606329   7.521999814151285 1
ion Na   9.461598714374592  12.651850231940722  13.064016039930891 1
ion Na  10.943528008165259   8.673414767063939   7.054549566373377 1

# Forces in Cartesian coordinates:
force C  -0.000001442632707   0.000014626692506  -0.000166693275313 0
force C  -0.000023934805898   0.000102700454921  -0.000146858463038 0
force C   0.000042615508830   0.000018075321771  -0.000014791493225 0
force C  -0.000071750604520   0.000003388034497  -0.000148134036974 0
force C   0.000049939726643   0.000134431926082  -0.000156109263617 0
force C  -0.000047219986873  -0.000317048211853  -0.000367364850109 0
force C   0.000026902469820  -0.000045585453239  -0.000154097684577 0
force C  -0.000038570287666  -0.000056946145900  -0.000126784515845 0
force C  -0.000194192696291   0.000058323023048   0.000218392672845 0
force C  -0.000310832746628   0.000178816761294  -0.000279885142293 0
force C   0.000624085276271   0.000362815025245  -0.000305106605413 0
force C  -0.000051546729987   0.000003999665157  -0.000190838095893 0
force C  -0.000155550319456   0.000102716839358  -0.000184291371809 0
force C  -0.000043366297841  -0.000204910569533  -0.000137953460903 0
force C   0.000088236968534   0.000485688703589  -0.000531223907743 0
force C  -0.000051662394019   0.000222316482195   0.000119444825406 0
force C  -0.000339474012774   0.000040470306740   0.000154356692224 0
force C  -0.000243944097272  -0.000098222497855   0.000362924927020 0
force C  -0.000111614507945   0.000110230504489  -0.000150857155339 0
force C   0.000053727512154  -0.000359992150701  -0.000449575065577 0
force C  -0.000897867551420  -0.000589337057116   0.000272506335356 0
force C  -0.000322403125662  -0.000000745914133  -0.000008816674008 0
force C   0.000457957383420  -0.000245892141893  -0.000012429823573 0
force C  -0.000231615180333   0.001411297721938  -0.000362875607078 0
force C  -0.000026997707821  -0.000150487461410  -0.000421539232097 0
force C   0.000065023461437  -0.000174343855612  -0.000278114938199 0
force C   0.000057558883862   0.000045244625988  -0.000164232165332 0
force C   0.000235510634983   0.000035950175927  -0.000142504218058 0
force C   0.001051768760834  -0.000979093778923  -0.000293604288219 0
force C  -0.000022449460575   0.000006244285718  -0.000182657069173 0
force C   0.000016206149453   0.000040300522099  -0.000164432786165 0
force C   0.000132461921929   0.000284675843571  -0.000806247804800 0
force C   0.000029749198234  -0.000034429561416  -0.000223570862438 0
force C  -0.000030716331886   0.000084323406905  -0.000118216887509 0
force C   0.000058582214814  -0.000465315730861   0.000086790324995 0
force C   0.000066132084495   0.000025252113003  -0.000259035834416 0
force C   0.000000388844527  -0.000058562891509  -0.000158895573111 0
force C   0.000009074153793   0.000079031903339  -0.000148264130000 0
force C  -0.000003427162015   0.000042801652665  -0.000154498911312 0
force C  -0.000091499465868  -0.000176141955941  -0.000173109149798 0
force C  -0.000042478808384  -0.000000389062169   0.000131354762837 0
force C   0.000022398444912   0.000056642693065  -0.000251604574325 0
force C   0.000041678255763   0.000024787869325  -0.000019787203160 0
force C  -0.000373596482150  -0.000243137500862  -0.000008826099250 0
force C  -0.000136038187795   0.000044241621938  -0.000121577812593 0
force C  -0.000169489337310  -0.000275848675572  -0.000128291705231 0
force C  -0.001006033998124   0.001100555776218   0.000427281302452 0
force C  -0.000241983536154   0.000061947590874   0.000014786962448 0
force C  -0.000164072256475  -0.000306810274019  -0.000265532967982 0
force C  -0.000307614557709   0.000092133350743  -0.000675535990343 0
force C  -0.000375561509753  -0.000124731074977  -0.000037631936669 0
force C  -0.000012793270589  -0.000095282510861  -0.000136220041038 0
force C  -0.000045933314860  -0.000059590305929  -0.000184120958201 0
force C   0.000031020407344   0.000071242456394  -0.000313356650846 0
force C   0.000048800605673  -0.000145275012778   0.000231114446685 0
force C   0.000138886906182  -0.000977886559669   0.000058474890341 0
force C   0.000028805055805   0.000668022600568   0.000009601627120 0
force C   0.000700093685970   0.000485204665913  -0.000432887812314 0
force C   0.000807972621333   0.000730361539929  -0.000008363377755 0
force C   0.000185908786812  -0.000255726982030  -0.000885754512606 0
force C  -0.000018424137603   0.000003207525427  -0.000135341136031 0
force C   0.000053633472955  -0.000064486002188  -0.000172207744188 0
force C  -0.000023737193871   0.000297320702776  -0.000019789916440 0
force C  -0.000065676776091   0.000047456866988  -0.000160212960845 0
force C   0.000084285813787  -0.000038906623485  -0.000136616778321 0
force C   0.000470009504316  -0.000406021836861   0.000150305376125 0
force C   0.000004083889788   0.000340553615570  -0.000397181917698 0
force C  -0.000081730122080  -0.000111195266134  -0.000155626860476 0
force C  -0.000013324433906   0.000057141754441  -0.000658852736249 0
force C   0.000159607062635  -0.000121564949973  -0.000085989696379 0
force C   0.000002974059731  -0.000014401023552  -0.000171615172664 0
force C   0.000407604817467  -0.000269134784049  -0.000119280123505 0
force S  -0.000025464063594   0.000082822758147  -0.000244844682528 1
force S   0.000416334636647   0.000267462514209   0.000283160994655 1
force S  -0.000226365657629  -0.000797473883731   0.000003322197343 1
force S   0.000359102901775   0.000164822207274  -0.000341161448738 1
force S  -0.000172366019095  -0.001078731321716   0.000004897920306 1
force S  -0.000075454525613   0.000877855482494   0.000475789320284 1
force S  -0.000573930466694   0.000121681730747   0.000253750573302 1
force S   0.000425693557764  -0.000276050827665  -0.000365287845569 1
force Na   0.000336043476804   0.000333099700964   0.000182952199204 1
force Na  -0.000311257646208  -0.000336960982513   0.000435170830915 1

# Energy components:
   A_diel =       -0.0590979635163894
   Eewald =     5338.7294063528497645
       EH =     5810.9875130680720758
     Eloc =   -11788.6978865697801666
      Enl =      -71.5986548071694102
     EvdW =       -0.1418365245348535
      Exc =     -178.6208429842465932
 Exc_core =       16.5665073260342979
       KE =      283.8698821313441840
  MuShift =        0.0000000000002874
-------------------------------------
     Etot =     -588.9650099709465394
       TS =        0.0881552240907564
-------------------------------------
        F =     -589.0531651950373089

IonicMinimize: Iter:   1  F: -589.053165195037309  |grad|_K:  4.084e-04  alpha:  5.797e+00  linmin:  1.061e-02  t[s]:    232.24

#--- Lowdin population analysis ---
# oxidation-state C +0.043 +0.043 +0.043 +0.043 +0.043 +0.044 +0.044 +0.043 +0.041 +0.044 +0.045 +0.050 +0.044 +0.045 +0.045 +0.048 +0.045 +0.042 +0.044 +0.045 +0.023 +0.045 +0.045 +0.040 +0.048 +0.044 +0.043 +0.044 +0.037 +0.044 +0.043 +0.046 +0.044 +0.044 +0.045 +0.043 +0.043 +0.044 +0.043 +0.044 +0.043 +0.044 +0.044 +0.048 +0.044 +0.044 +0.038 +0.046 +0.048 +0.050 +0.046 +0.044 +0.043 +0.044 +0.044 +0.037 +0.045 +0.049 +0.020 +0.042 +0.044 +0.043 +0.044 +0.044 +0.044 +0.046 +0.045 +0.044 +0.047 +0.044 +0.043 +0.043
# oxidation-state S +0.016 +0.105 -0.438 -0.327 +0.329 -0.339 +0.097 -0.421
# oxidation-state Na +0.883 +0.676


Computing DFT-D3 correction:
# coordination-number C 3.300 3.300 3.300 3.300 3.300 3.300 3.300 3.300 3.306 3.300 3.301 3.304 3.300 3.300 3.310 3.302 3.301 3.303 3.301 3.304 3.382 3.307 3.313 3.325 3.305 3.300 3.300 3.301 3.336 3.300 3.300 3.306 3.300 3.300 3.302 3.300 3.300 3.300 3.300 3.300 3.302 3.300 3.301 3.301 3.300 3.301 3.319 3.302 3.303 3.312 3.301 3.300 3.300 3.300 3.305 3.322 3.304 3.311 3.408 3.316 3.300 3.300 3.304 3.300 3.300 3.302 3.300 3.300 3.307 3.300 3.300 3.301
# coordination-number S 2.134 2.966 2.493 1.955 2.315 1.954 2.823 2.707
# coordination-number Na 2.728 5.178
[...]
	Linear fluid (dielectric constant: 7.2) occupying 0.818429 of unit cell:	Completed after 1 iterations at t[s]:   1748.98
SCF: Cycle:  9   F: -589.053253363038948   dF: -5.980e-09   |Residual|: 1.574e-05   |deigs|: 7.016e-06  t[s]:   1749.12
SCF: Converged (|Delta E|<1.000000e-08 for 2 iters).

Setting wave functions to eigenvectors of Hamiltonian

Computing DFT-D3 correction:
# coordination-number C 3.300 3.300 3.300 3.300 3.300 3.300 3.300 3.300 3.306 3.300 3.301 3.304 3.300 3.300 3.310 3.302 3.301 3.303 3.301 3.304 3.375 3.307 3.313 3.323 3.304 3.300 3.300 3.301 3.333 3.300 3.300 3.306 3.300 3.300 3.302 3.300 3.300 3.300 3.300 3.300 3.302 3.300 3.301 3.301 3.300 3.301 3.318 3.302 3.304 3.311 3.301 3.300 3.300 3.300 3.305 3.321 3.304 3.310 3.396 3.316 3.300 3.300 3.304 3.300 3.300 3.302 3.300 3.300 3.307 3.300 3.300 3.301
# coordination-number S 2.133 2.974 2.487 1.958 2.318 1.953 2.815 2.703
# coordination-number Na 2.699 5.192
# diagonal-C6 C 24.28 24.28 24.28 24.28 24.28 24.28 24.28 24.28 24.22 24.28 24.28 24.24 24.28 24.28 24.19 24.27 24.27 24.25 24.28 24.25 23.44 24.22 24.15 24.05 24.24 24.28 24.28 24.28 23.95 24.28 24.28 24.22 24.28 24.28 24.26 24.28 24.28 24.28 24.28 24.28 24.26 24.28 24.28 24.27 24.28 24.28 24.11 24.26 24.25 24.17 24.27 24.28 24.28 24.28 24.24 24.07 24.25 24.19 23.16 24.13 24.28 24.28 24.24 24.28 24.28 24.27 24.28 24.28 24.22 24.28 24.28 24.27
# diagonal-C6 S 125.84 125.81 125.81 125.93 125.82 125.94 125.81 125.81
# diagonal-C6 Na 186.11 186.11
EvdW_6 =   -0.076721
EvdW_8 =   -0.064997

-------- Electronic minimization -----------
Will mix electronic density at each iteration.
	FillingsUpdate:  mu: -0.116669247  nElectrons: 354.000000
	Linear fluid (dielectric constant: 7.2) occupying 0.818434 of unit cell:	Completed after 2 iterations at t[s]:   1752.65
	FillingsUpdate:  mu: -0.116656454  nElectrons: 354.000000
	Linear fluid (dielectric constant: 7.2) occupying 0.818436 of unit cell:	Completed after 4 iterations at t[s]:   1755.60
SCF: Cycle:  0   F: -589.053253376010389   dF: -6.609e-06   |Residual|: 1.661e-03   |deigs|: 1.605e-06  t[s]:   1755.75
	Linear fluid (dielectric constant: 7.2) occupying 0.818429 of unit cell:	Completed after 4 iterations at t[s]:   1755.89
	FillingsUpdate:  mu: -0.116654190  nElectrons: 354.000000
	Linear fluid (dielectric constant: 7.2) occupying 0.818436 of unit cell:	Completed after 2 iterations at t[s]:   1758.31
SCF: Cycle:  1   F: -589.053259767122313   dF: -6.391e-06   |Residual|: 6.690e-04   |deigs|: 1.432e-05  t[s]:   1758.45
	Linear fluid (dielectric constant: 7.2) occupying 0.818427 of unit cell:	Completed after 2 iterations at t[s]:   1758.57
	FillingsUpdate:  mu: -0.116655735  nElectrons: 354.000000
	Linear fluid (dielectric constant: 7.2) occupying 0.818435 of unit cell:	Completed after 2 iterations at t[s]:   1760.95
SCF: Cycle:  2   F: -589.053260362309970   dF: -5.952e-07   |Residual|: 2.393e-04   |deigs|: 1.038e-05  t[s]:   1761.10
	Linear fluid (dielectric constant: 7.2) occupying 0.818428 of unit cell:	Completed after 2 iterations at t[s]:   1761.22
	FillingsUpdate:  mu: -0.116654053  nElectrons: 354.000000
	Linear fluid (dielectric constant: 7.2) occupying 0.818435 of unit cell:	Completed after 2 iterations at t[s]:   1763.64
SCF: Cycle:  3   F: -589.053260472360762   dF: -1.101e-07   |Residual|: 1.145e-04   |deigs|: 8.222e-06  t[s]:   1763.78
	Linear fluid (dielectric constant: 7.2) occupying 0.818429 of unit cell:	Completed after 2 iterations at t[s]:   1763.90
	FillingsUpdate:  mu: -0.116653827  nElectrons: 354.000000
	Linear fluid (dielectric constant: 7.2) occupying 0.818435 of unit cell:	Completed after 2 iterations at t[s]:   1766.29
SCF: Cycle:  4   F: -589.053260492049731   dF: -1.969e-08   |Residual|: 4.732e-05   |deigs|: 1.159e-05  t[s]:   1766.44
	Linear fluid (dielectric constant: 7.2) occupying 0.818430 of unit cell:	Completed after 2 iterations at t[s]:   1766.56
	FillingsUpdate:  mu: -0.116652924  nElectrons: 354.000000
	Linear fluid (dielectric constant: 7.2) occupying 0.818435 of unit cell:	Completed after 1 iterations at t[s]:   1769.57
SCF: Cycle:  5   F: -589.053260509794654   dF: -1.774e-08   |Residual|: 2.814e-05   |deigs|: 1.043e-05  t[s]:   1769.71
	Linear fluid (dielectric constant: 7.2) occupying 0.818432 of unit cell:	Completed after 1 iterations at t[s]:   1769.82
	FillingsUpdate:  mu: -0.116650106  nElectrons: 354.000000
	Linear fluid (dielectric constant: 7.2) occupying 0.818435 of unit cell:	Completed after 1 iterations at t[s]:   1772.83
SCF: Cycle:  6   F: -589.053260520479398   dF: -1.068e-08   |Residual|: 1.976e-05   |deigs|: 2.004e-05  t[s]:   1772.97
	Linear fluid (dielectric constant: 7.2) occupying 0.818434 of unit cell:	Completed after 0 iterations at t[s]:   1773.07
	FillingsUpdate:  mu: -0.116650723  nElectrons: 354.000000
	Linear fluid (dielectric constant: 7.2) occupying 0.818435 of unit cell:	Completed after 0 iterations at t[s]:   1776.07
SCF: Cycle:  7   F: -589.053260523556219   dF: -3.077e-09   |Residual|: 1.813e-05   |deigs|: 1.917e-05  t[s]:   1776.20
	Linear fluid (dielectric constant: 7.2) occupying 0.818435 of unit cell:	Completed after 0 iterations at t[s]:   1776.30
	FillingsUpdate:  mu: -0.116651965  nElectrons: 354.000000
	Linear fluid (dielectric constant: 7.2) occupying 0.818435 of unit cell:	Completed after 0 iterations at t[s]:   1779.31
SCF: Cycle:  8   F: -589.053260526697045   dF: -3.141e-09   |Residual|: 1.509e-05   |deigs|: 1.089e-05  t[s]:   1779.44
SCF: Converged (|Delta E|<1.000000e-08 for 2 iters).

Setting wave functions to eigenvectors of Hamiltonian

Computing DFT-D3 correction:
# coordination-number C 3.300 3.300 3.300 3.300 3.300 3.300 3.300 3.300 3.306 3.300 3.301 3.304 3.300 3.300 3.310 3.302 3.301 3.303 3.301 3.304 3.375 3.307 3.313 3.323 3.304 3.300 3.300 3.301 3.333 3.300 3.300 3.306 3.300 3.300 3.302 3.300 3.300 3.300 3.300 3.300 3.302 3.300 3.301 3.301 3.300 3.301 3.318 3.302 3.304 3.311 3.301 3.300 3.300 3.300 3.305 3.321 3.304 3.310 3.396 3.316 3.300 3.300 3.304 3.300 3.300 3.302 3.300 3.300 3.307 3.300 3.300 3.301
# coordination-number S 2.133 2.974 2.487 1.958 2.318 1.953 2.815 2.703
# coordination-number Na 2.699 5.192
# diagonal-C6 C 24.28 24.28 24.28 24.28 24.28 24.28 24.28 24.28 24.22 24.28 24.28 24.24 24.28 24.28 24.19 24.27 24.27 24.25 24.28 24.25 23.44 24.22 24.15 24.05 24.24 24.28 24.28 24.28 23.95 24.28 24.28 24.22 24.28 24.28 24.26 24.28 24.28 24.28 24.28 24.28 24.26 24.28 24.28 24.27 24.28 24.28 24.11 24.26 24.25 24.17 24.27 24.28 24.28 24.28 24.24 24.07 24.25 24.19 23.16 24.13 24.28 24.28 24.24 24.28 24.28 24.27 24.28 24.28 24.22 24.28 24.28 24.27
# diagonal-C6 S 125.84 125.81 125.81 125.93 125.82 125.94 125.81 125.81
# diagonal-C6 Na 186.11 186.11
EvdW_6 =   -0.076721
EvdW_8 =   -0.064997

# Ionic positions in cartesian coordinates:
ion C  28.005798599999999   0.000000000000000   0.897300000000001 0
ion C  16.336715849999997  20.211437139299999   0.897300000000001 0
ion C   2.333816549999999   4.042283648400000   0.897300000000001 0
ion C  23.338165499999999   0.000000000000000   0.897300000000001 0
ion C   4.667633100000000   0.000000000000000   0.897300000000001 0
ion C  11.669082749999999  20.211437139299999   0.897300000000001 0
ion C  25.671982050000000   4.042283648400000   0.897300000000001 0
ion C  18.670532399999999  16.169153490900001   0.897300000000001 0
ion C   4.667633099999997   8.084586194100000   0.897300000000001 0
ion C  18.670532399999999   0.000000000000000   0.897300000000001 0
ion C   9.335266200000000   0.000000000000000   0.897300000000001 0
ion C   9.335266200000001  16.169153490900001   0.897300000000001 0
ion C  23.338165500000002   8.084586194100000   0.897300000000001 0
ion C  21.004348950000001  12.126869842500000   0.897300000000001 0
ion C   7.001449649999998  12.126869842500000   0.897300000000001 0
ion C  14.002899299999999   0.000000000000000   0.897300000000001 0
ion C  14.002899299999997  16.169153490900001   0.897300000000001 0
ion C   7.001449650000000   4.042283648400000   0.897300000000001 0
ion C  21.004348950000001   4.042283648400000   0.897300000000001 0
ion C  16.336715849999997  12.126869842500000   0.897300000000001 0
ion C   9.335266200000000   8.084586194100000   0.897300000000001 0
ion C  16.336715849999994   4.042283648400000   0.897300000000001 0
ion C  11.669082749999999   4.042283648400000   0.897300000000001 0
ion C  11.669082749999999  12.126869842500000   0.897300000000001 0
ion C  18.670532399999988   8.084586194100000   0.897300000000001 0
ion C   7.001449650000000  20.211437139299999   0.897300000000001 0
ion C  -7.001449650000000  20.211437139299999   0.897300000000001 0
ion C   0.000000000000000   8.084586194100000   0.897300000000001 0
ion C  14.002899299999999   8.084586194100000   0.897300000000001 0
ion C   2.333816550000000  20.211437139299999   0.897300000000001 0
ion C  -4.667633100000000  16.169153490900001   0.897300000000001 0
ion C   2.333816550000000  12.126869842500000   0.897300000000001 0
ion C  -2.333816549999999  12.126869842500000   0.897300000000001 0
ion C  -2.333816549999998  20.211437139299999   0.897300000000001 0
ion C   4.667633099999998  16.169153490900001   0.897300000000001 0
ion C   0.000000000000000  16.169153490900001   0.897300000000001 0
ion C  14.002880402700006  21.558890218500000   0.897300000000001 0
ion C   2.333816549999999   1.347415284600000   0.897300000000001 0
ion C  25.672000947299999   1.347434181900000   0.897300000000001 0
ion C  16.336696952700002  17.516587672800000   0.897300000000001 0
ion C   4.667633100000000   5.389698933000000   0.897300000000001 0
ion C  21.004367847299999   1.347434181900000   0.897300000000001 0
ion C   7.001430752700000   1.347434181900000   0.897300000000001 0
ion C  11.669101647299998  17.516587672800000   0.897300000000001 0
ion C  23.338165499999999   5.389698933000000   0.897300000000001 0
ion C  18.670513502700000  13.474304024400000   0.897300000000001 0
ion C   7.001449649999999   9.432001478699998   0.897300000000001 0
ion C  16.336734747299996   1.347434181900000   0.897300000000001 0
ion C  11.669063852700001   1.347434181900000   0.897300000000001 0
ion C   9.335285097299998  13.474304024400000   0.897300000000001 0
ion C  21.004348950000001   9.432001478699998   0.897300000000001 0
ion C   9.335247302699999  21.558890218500000   0.897300000000001 0
ion C  -9.335266200000000  21.558871321199998   0.897300000000001 0
ion C   0.000018897300000   5.389717830300000   0.897300000000001 0
ion C  14.002880402699990  13.474304024400000   0.897300000000001 0
ion C   9.335266200000000   5.389698933000000   0.897300000000001 0
ion C  18.670551297300001   5.389717830300000   0.897300000000001 0
ion C  16.336696952699999   9.432020376000001   0.897300000000001 0
ion C  11.669082750000001   9.432001478699998   0.897300000000001 0
ion C  14.002918197299991   5.389717830300000   0.897300000000001 0
ion C   4.667614202699999  21.558890218500000   0.897300000000001 0
ion C  -7.001449650000000  17.516568775499998   0.897300000000001 0
ion C   2.333835447300000   9.432020376000001   0.897300000000001 0
ion C  -2.333835447300000   9.432020376000001   0.897300000000001 0
ion C  -4.667614202700001  21.558890218500000   0.897300000000001 0
ion C   7.001449650000000  17.516568775499998   0.897300000000001 0
ion C  -0.000018897300000  21.558890218500000   0.897300000000001 0
ion C  -4.667633100000000  13.474285127100000   0.897300000000001 0
ion C   4.667651997299994  13.474304024400000   0.897300000000001 0
ion C   2.333797652700000  17.516587672800000   0.897300000000001 0
ion C  -2.333816549999999  17.516568775499998   0.897300000000001 0
ion C   0.000018897299999  13.474304024400000   0.897300000000001 0
ion S   3.933807834628050  11.806102508357096   7.332341231618018 1
ion S   5.608992452877948   8.285443851619860   8.009087700146788 1
ion S   7.033829934352725   7.941989527131514  11.536229416293212 1
ion S  12.842866597332405   3.602086631484374   7.517309206686205 1
ion S  16.288872421600566   5.117182586084091   7.635128636993494 1
ion S  16.327740469844535   8.886940305192004   7.552772117117045 1
ion S   6.485613638068370  14.585849939326051   8.562588170662911 1
ion S  10.099642773221476  13.920816597381748   7.514566617310397 1
ion Na   9.491410323777288  12.671814000184240  13.075854424670641 1
ion Na  10.928845803322416   8.638014840750747   7.113463384913572 1

# Forces in Cartesian coordinates:
force C   0.000001552751842   0.000013070429359  -0.000165295765399 0
force C  -0.000020282756476   0.000100129368245  -0.000145470263851 0
force C   0.000046987180043   0.000021503778276  -0.000002683068770 0
force C  -0.000074524529892   0.000000474015512  -0.000147594512763 0
force C   0.000058778974007   0.000137523279123  -0.000154816245871 0
force C  -0.000046276478887  -0.000320758437232  -0.000362404752276 0
force C   0.000031086122549  -0.000041237171955  -0.000153775877948 0
force C  -0.000037433213478  -0.000060312100866  -0.000125437794041 0
force C  -0.000180147458654   0.000072336678650   0.000223400838303 0
force C  -0.000319052261657   0.000178039388936  -0.000275438524074 0
force C   0.000638096504106   0.000364395297353  -0.000307752814203 0
force C  -0.000054278628417  -0.000018578735274  -0.000192958662132 0
force C  -0.000143859616245   0.000100673215013  -0.000180674450309 0
force C  -0.000055022955927  -0.000199511618453  -0.000145065382589 0
force C   0.000099968534787   0.000470921400596  -0.000519116966380 0
force C  -0.000051358609018   0.000214777075894   0.000101165734853 0
force C  -0.000338369578267   0.000029540558650   0.000156138275317 0
force C  -0.000238498087663  -0.000086932535547   0.000362207927701 0
force C  -0.000106828903984   0.000103599338329  -0.000146599569276 0
force C   0.000046013717770  -0.000364761628487  -0.000385018289282 0
force C  -0.000847857370930  -0.000550179628344   0.000307972811125 0
force C  -0.000348698536270   0.000017219483483  -0.000044634688575 0
force C   0.000459069388848  -0.000220829221887  -0.000043251544845 0
force C  -0.000232910612421   0.001317738344850  -0.000352844511096 0
force C  -0.000078501024747  -0.000107346129206  -0.000358407342593 0
force C   0.000060064262140  -0.000181837191425  -0.000279746044200 0
force C   0.000061586391336   0.000041474936643  -0.000162744000469 0
force C   0.000243670692121   0.000044741794016  -0.000131298721907 0
force C   0.001033590099057  -0.000923542123770  -0.000197987930783 0
force C  -0.000025232313730   0.000003338664255  -0.000175369447817 0
force C   0.000016382364977   0.000032731954541  -0.000162818241885 0
force C   0.000143795019921   0.000277713948563  -0.000776356560359 0
force C   0.000032275302707  -0.000029821018022  -0.000218642730827 0
force C  -0.000029639967202   0.000079257934139  -0.000116639113091 0
force C   0.000058210315820  -0.000461116617591   0.000093200135114 0
force C   0.000066670718427   0.000019165323269  -0.000261512557690 0
force C  -0.000003763697048  -0.000056958433602  -0.000157596342021 0
force C   0.000005162288194   0.000085248540681  -0.000146637795197 0
force C  -0.000004574186510   0.000044762735470  -0.000154173645508 0
force C  -0.000098193754684  -0.000178112657933  -0.000169782172944 0
force C  -0.000042084714776   0.000008250242530   0.000134503530035 0
force C   0.000025119246508   0.000061613682589  -0.000264878261780 0
force C   0.000024739200715   0.000029670624452   0.000000820599691 0
force C  -0.000372787626557  -0.000248549470144  -0.000007071814461 0
force C  -0.000137068163088   0.000045579815073  -0.000124603114531 0
force C  -0.000169157221464  -0.000279528146605  -0.000128485831205 0
force C  -0.000962077567666   0.001088076827800   0.000440916171400 0
force C  -0.000245212099312   0.000065149092628   0.000019305628160 0
force C  -0.000161844120740  -0.000318966502771  -0.000297655626867 0
force C  -0.000305234276446   0.000076829126027  -0.000668325311533 0
force C  -0.000371600131569  -0.000115505322248  -0.000012875430232 0
force C  -0.000013905151992  -0.000094184827960  -0.000134251176144 0
force C  -0.000051338749643  -0.000058987071413  -0.000183160992299 0
force C   0.000033298271119   0.000071352349211  -0.000308296194063 0
force C   0.000015766793464  -0.000163166945438   0.000227367023400 0
force C   0.000143737927797  -0.000919882849164   0.000045667706463 0
force C   0.000017014568418   0.000638914522034   0.000031788916414 0
force C   0.000701088633266   0.000446962083584  -0.000356629098175 0
force C   0.000768649406745   0.000753677132728   0.000057995575086 0
force C   0.000204193290588  -0.000258850963999  -0.000914935439230 0
force C  -0.000010536618362   0.000004293025450  -0.000138355224599 0
force C   0.000046628940431  -0.000065041341290  -0.000170232543900 0
force C  -0.000020763255575   0.000292483799865  -0.000014831428077 0
force C  -0.000059957844382   0.000044400354564  -0.000142752925991 0
force C   0.000082986634000  -0.000040587485372  -0.000134638061679 0
force C   0.000468999240797  -0.000407678641656   0.000157668017549 0
force C   0.000007582806873   0.000353162989365  -0.000393088087061 0
force C  -0.000074500946191  -0.000110737556601  -0.000154568974090 0
force C   0.000001710381456   0.000037638473853  -0.000632527087767 0
force C   0.000166972738456  -0.000126559201027  -0.000086509630381 0
force C   0.000004829645777  -0.000012953004420  -0.000169462779019 0
force C   0.000405155269557  -0.000271310632702  -0.000112699266457 0
force S  -0.000021411430785  -0.000105687664712  -0.000069013325336 1
force S  -0.000076838829428  -0.000044861862149   0.000183947015970 1
force S   0.000051661791697   0.000084745475308  -0.000091074901955 1
force S   0.000231328086944  -0.000069103746069  -0.000051965592844 1
force S  -0.000057832491394  -0.000142173193312  -0.000007062666567 1
force S  -0.000032909151913   0.000087963118241   0.000130883787092 1
force S   0.000079876904464   0.000046505671721   0.000064631295351 1
force S  -0.000000982634641  -0.000176574232107   0.000010751147326 1
force Na   0.000006394211022  -0.000068093120184   0.000044677791035 1
force Na   0.000013646047343  -0.000113839448384   0.000129385868451 1

# Energy components:
   A_diel =       -0.0597083086949583
   Eewald =     5336.5771745469410234
       EH =     5808.8786647704328061
     Eloc =   -11784.4313207692084688
      Enl =      -71.5999157201126621
     EvdW =       -0.1417186942102536
      Exc =     -178.6183037753790472
 Exc_core =       16.5665069633730369
       KE =      283.8635909315193544
  MuShift =        0.0000000000002874
-------------------------------------
     Etot =     -588.9650300553397528
       TS =        0.0882304713572695
-------------------------------------
        F =     -589.0532605266970450

IonicMinimize: Iter:  12  F: -589.053260526697045  |grad|_K:  9.441e-05  alpha:  4.022e+00  linmin: -1.042e-02  t[s]:   1782.86
IonicMinimize: Converged (|grad|_K<1.000000e-04).

#--- Lowdin population analysis ---
# oxidation-state C +0.043 +0.043 +0.044 +0.043 +0.043 +0.044 +0.044 +0.043 +0.041 +0.044 +0.045 +0.050 +0.044 +0.045 +0.045 +0.048 +0.045 +0.042 +0.044 +0.046 +0.023 +0.045 +0.045 +0.041 +0.048 +0.044 +0.043 +0.044 +0.037 +0.044 +0.043 +0.046 +0.044 +0.044 +0.045 +0.043 +0.043 +0.044 +0.043 +0.044 +0.043 +0.044 +0.044 +0.048 +0.044 +0.044 +0.039 +0.046 +0.048 +0.050 +0.046 +0.044 +0.043 +0.044 +0.044 +0.037 +0.045 +0.049 +0.022 +0.042 +0.044 +0.043 +0.044 +0.044 +0.044 +0.046 +0.045 +0.044 +0.047 +0.044 +0.043 +0.043
# oxidation-state S +0.016 +0.104 -0.438 -0.326 +0.328 -0.341 +0.096 -0.421
# oxidation-state Na +0.885 +0.675


Dumping 'Na2S8@graphene-glyme.fillings' ... done
Dumping 'Na2S8@graphene-glyme.wfns' ... done
Dumping 'Na2S8@graphene-glyme.fluidState' ... done
Dumping 'Na2S8@graphene-glyme.ionpos' ... done
Dumping 'Na2S8@graphene-glyme.eigenvals' ... done
End date and time: Sat Sep 28 06:33:31 2024  (Duration: 0-0:29:44.90)
Done!
