
*************** JDFTx 1.7.0  ***************

Start date and time: Fri Jan  3 15:34:33 2025
Executable jdftx_gpu with command-line: -i /home/akim2/JDFTx/Na2S2@graphene_vdw-PC/Na2S2@graphene_vdw-PC.in -o /home/akim2/JDFTx/Na2S2@graphene_vdw-PC/Na2S2@graphene_vdw-PC.out
Running on hosts (process indices):  exp-3-57 (0)
Divided in process groups (process indices):  0 (0)
gpuInit: Found compatible cuda device 0 'Tesla V100-SXM2-32GB'
gpuInit: Selected device 0
Resource initialization completed at t[s]:      0.72
Run totals: 1 processes, 1 threads, 1 GPUs


Input parsed successfully to the following command list (including defaults):

basis kpoint-dependent
coords-type Cartesian
core-overlap-check vector
coulomb-interaction Slab 001
coulomb-truncation-embed 0 0 18.8973
davidson-band-ratio 1.1
dump End State
dump-name Na2S2@graphene_vdw-PC.$VAR
elec-cutoff 20 100
elec-eigen-algo Davidson
elec-ex-corr gga-PBE
elec-smearing Fermi 0.01
electronic-minimize  \
	dirUpdateScheme      FletcherReeves \
	linminMethod         DirUpdateRecommended \
	nIterations          100 \
	history              15 \
	knormThreshold       0 \
	energyDiffThreshold  1e-08 \
	nEnergyDiff          2 \
	alphaTstart          1 \
	alphaTmin            1e-10 \
	updateTestStepSize   yes \
	alphaTreduceFactor   0.1 \
	alphaTincreaseFactor 3 \
	nAlphaAdjustMax      3 \
	wolfeEnergy          0.0001 \
	wolfeGradient        0.9 \
	fdTest               no
electronic-scf  \
	nIterations	50 \
	energyDiffThreshold	1e-08 \
	residualThreshold	1e-07 \
	mixFraction	0.5 \
	qMetric	0.8 \
	history	10 \
	nEigSteps	2 \
	eigDiffThreshold	1e-08 \
	mixedVariable	Density \
	qKerker	0.8 \
	qKappa	-1 \
	verbose	no \
	mixFractionMag	1.5
exchange-regularization WignerSeitzTruncated
fluid LinearPCM 298.000000 1.013250
fluid-ex-corr lda-TF lda-PZ
fluid-gummel-loop 10 1.000000e-05
fluid-minimize  \
	dirUpdateScheme      PolakRibiere \
	linminMethod         DirUpdateRecommended \
	nIterations          400 \
	history              15 \
	knormThreshold       1e-11 \
	energyDiffThreshold  0 \
	nEnergyDiff          2 \
	alphaTstart          1 \
	alphaTmin            1e-10 \
	updateTestStepSize   yes \
	alphaTreduceFactor   0.1 \
	alphaTincreaseFactor 3 \
	nAlphaAdjustMax      6 \
	wolfeEnergy          0.0001 \
	wolfeGradient        0.9 \
	fdTest               no
fluid-solvent PC 11.6429 ScalarEOS \
	epsBulk 64 \
	pMol 2.95 \
	epsInf 2.02 \
	Pvap 1.53277e-13 \
	sigmaBulk 2.88e-05 \
	Rvdw 0 \
	Res 0 \
	tauNuc 343133
forces-output-coords Positions
ion C  27.962335914315943  -0.001769463218393  18.997292717605230 1
ion C  16.294468692030708  20.209054935488847  18.990268141202147 1
ion C   2.287019718970346   4.038678481929088  18.976592694003951 1
ion C  23.295881840251120   0.000002405241653  19.006007333397161 1
ion C   4.622179727057690  -0.004432833683947  19.001663422840185 1
ion C  11.629056825320662  20.211630551590378  18.985788810898352 1
ion C  25.627954879725802   4.039959569554116  18.991008809249639 1
ion C  18.628874706986075  16.166474657415034  18.978319015314913 1
ion C   4.618714120006158   8.080647681548756  18.908789778560408 1
ion C  18.628267155992646  -0.000675987896162  19.013391934026071 1
ion C   9.290776346356447  -0.005793805879835  19.008545836133955 1
ion C   9.299058524221172  16.168059051201666  18.921069475537802 1
ion C  23.295168939698932   8.081721468429246  18.987326215164714 1
ion C  20.962073939067977  12.123987502899642  18.981968692170142 1
ion C   6.956895642958899  12.122053941580011  18.852011677206349 1
ion C  13.961024442776539  -0.004362139850341  19.015270699596993 1
ion C  13.964627223435283  16.167840774997693  18.950430894492790 1
ion C   6.951355638680933   4.034899965143950  18.966407783053686 1
ion C  20.962508084867146   4.040304129800457  19.002791026105474 1
ion C  16.296991885011991  12.125711754944351  18.950537853669530 1
ion C   9.290768265335348   8.084444850916997  18.871455105841576 1
ion C  16.298115692872518   4.038484967561753  18.998172903489579 1
ion C  11.630209576354293   4.034279831745303  18.977100948167784 1
ion C  11.633317036050723  12.127448431156381  18.877200972669485 1
ion C  18.630729697029668   8.082461896531097  18.984298949978459 1
ion C   6.959334642644263  20.216844222039292  18.997022797035232 1
ion C  -7.045083709478139  20.207878643400047  19.002986878414777 1
ion C  -0.045930171472412   8.081009293814786  18.964953019907416 1
ion C  13.966801559146447   8.083248509846328  18.932626625584202 1
ion C   2.289035957805686  20.210857205575163  19.007858030508491 1
ion C  -4.711590728388570  16.165542363124271  18.993999310093770 1
ion C   2.284424774161561  12.120852343017601  18.934017660795067 1
ion C  -2.378692626493680  12.123113314048563  18.979505319440278 1
ion C  -2.377957708025320  20.207858007650120  19.009731324834252 1
ion C   4.618087326263202  16.167375057491547  18.948993998103916 1
ion C  -0.047314984314006  16.165686654987486  18.986562999153609 1
ion C  13.962088271033611  21.557151454541312  18.992851764760509 1
ion C   2.289472366323620   1.344405206270262  18.993642510602069 1
ion C  25.629585579660116   1.346019484742202  18.999540840229280 1
ion C  16.296594747044360  17.514954531364651  18.974678165518462 1
ion C   4.619293893248512   5.386036185447165  18.949094928148895 1
ion C  20.961765458609189   1.345986042826211  19.009507235125547 1
ion C   6.955709771327852   1.340297411541919  18.998443207623705 1
ion C  11.633819688088707  17.517339684334480  18.955434077282352 1
ion C  23.295194180998795   5.388226602576820  18.993830763811044 1
ion C  18.629500879486152  13.472409544805302  18.971634797720810 1
ion C   6.950926012280193   9.428483229531444  18.859922287187132 1
ion C  16.294104143414248   1.344168526492362  19.012109799739960 1
ion C  11.626222901881388   1.339162681095249  19.007307057486823 1
ion C   9.296302161707903  13.469238911524476  18.862739014622367 1
ion C  20.962690255898163   9.429886445394770  18.985977706017351 1
ion C   9.294617860987307  21.560010450943107  18.999605900991366 1
ion C  -9.378142221550620  21.555095119043926  19.001369388542358 1
ion C  -0.045116246702255   5.386808121465748  18.976700643536386 1
ion C  13.964531340891208  13.473287020424721  18.923426273339441 1
ion C   9.289876110251114   5.382009866928257  18.940176719908280 1
ion C  18.630093087854817   5.387877691735093  18.997275662671502 1
ion C  16.298926758518398   9.431723867104051  18.957358216214605 1
ion C  11.632785833522174   9.433377565322091  18.877300407112145 1
ion C  13.965072260995367   5.385315117522326  18.969594446647370 1
ion C   4.622948978571074  21.559297350373470  19.009058674452639 1
ion C  -7.044289882765842  17.513607853317378  18.993993783540862 1
ion C   2.286223154503827   9.427463516521625  18.934107634946120 1
ion C  -2.378031405726318   9.429031408224711  18.976793772978198 1
ion C  -4.711787716733499  21.554487787728895  19.010705465980887 1
ion C   6.958669857276497  17.518976835428884  18.958998042315113 1
ion C  -0.044895498693050  21.555365263759768  19.014736403391055 1
ion C  -4.711503868613189  13.471641200561878  18.987445114920988 1
ion C   4.618574078828560  13.467414468144399  18.901048865946052 1
ion C   2.283362232820791  17.516501121755400  18.987506208487286 1
ion C  -2.379298957838053  17.513736944651267  19.000493049595669 1
ion C  -0.046646104042781  13.470075791393731  18.968784121788747 1
ion S  10.229816937479892  11.971655633491064  26.337690902544910 1
ion S   6.530837112060447  10.646637398013551  26.262485506899239 1
ion Na   9.816470151725399   7.481344634233367  23.947249914760658 1
ion Na   7.065622867681638  15.168080324279806  23.915688715684158 1
ion-species GBRV/$ID_pbe.uspp
ion-width Ecut
ionic-minimize  \
	dirUpdateScheme      FletcherReeves \
	linminMethod         DirUpdateRecommended \
	nIterations          200 \
	history              15 \
	knormThreshold       0.0001 \
	energyDiffThreshold  1e-06 \
	nEnergyDiff          2 \
	alphaTstart          1 \
	alphaTmin            1e-10 \
	updateTestStepSize   yes \
	alphaTreduceFactor   0.1 \
	alphaTincreaseFactor 3 \
	nAlphaAdjustMax      3 \
	wolfeEnergy          0.0001 \
	wolfeGradient        0.9 \
	fdTest               no
kpoint   0.000000000000   0.000000000000   0.000000000000  1.00000000000000
kpoint-folding 1 1 1 
latt-move-scale 1 1 1
latt-scale 1 1 1 
lattice Triclinic 28.0058 28.0058 37.7946 90 90 120
lattice-minimize  \
	dirUpdateScheme      L-BFGS \
	linminMethod         DirUpdateRecommended \
	nIterations          0 \
	history              15 \
	knormThreshold       0 \
	energyDiffThreshold  1e-06 \
	nEnergyDiff          2 \
	alphaTstart          1 \
	alphaTmin            1e-10 \
	updateTestStepSize   yes \
	alphaTreduceFactor   0.1 \
	alphaTincreaseFactor 3 \
	nAlphaAdjustMax      3 \
	wolfeEnergy          0.0001 \
	wolfeGradient        0.9 \
	fdTest               no
lcao-params -1 1e-06 0.01
pcm-variant GLSSA13
spintype no-spin
subspace-rotation-factor 1 yes
symmetries automatic
symmetry-threshold 0.0001
van-der-waals D3



---------- Setting up symmetries ----------

Found 24 point-group symmetries of the bravais lattice
Found 1 space-group symmetries with basis
Applied RMS atom displacement 0 bohrs to make symmetries exact.

---------- Initializing the Grid ----------
R = 
[      28.0058     -14.0029            0  ]
[            0      24.2537            0  ]
[            0            0      37.7946  ]
unit cell volume = 25671.8
G =
[   0.224353    0.12953         -0  ]
[          0   0.259061          0  ]
[          0         -0   0.166246  ]
Minimum fftbox size, Smin = [  128  128  172  ]
Chosen fftbox size, S = [  128  128  180  ]

---------- Initializing tighter grid for wavefunction operations ----------
R = 
[      28.0058     -14.0029            0  ]
[            0      24.2537            0  ]
[            0            0      37.7946  ]
unit cell volume = 25671.8
G =
[   0.224353    0.12953         -0  ]
[          0   0.259061          0  ]
[          0         -0   0.166246  ]
Minimum fftbox size, Smin = [  116  116  156  ]
Chosen fftbox size, S = [  120  120  160  ]

---------- Exchange Correlation functional ----------
Initalized PBE GGA exchange.
Initalized PBE GGA correlation.

---------- Setting up pseudopotentials ----------
Width of ionic core gaussian charges (only for fluid interactions / plotting) set to 0.397384

Reading pseudopotential file '/home/akim2/jdftx_install/build/pseudopotentials/GBRV/c_pbe.uspp':
  Title: C.  Created by USPP 7.3.6 on 3-2-2014
  Reference state energy: -5.406344.  4 valence electrons in orbitals:
    |200>  occupation: 2  eigenvalue: -0.504890
    |210>  occupation: 2  eigenvalue: -0.194356
  lMax: 1  lLocal: 2  QijEcut: 5
  4 projectors sampled on a log grid with 503 points:
    l: 0  eig: -0.504890  rCut: 1.3
    l: 0  eig: 0.000000  rCut: 1.3
    l: 1  eig: -0.194357  rCut: 1.3
    l: 1  eig: 0.000000  rCut: 1.3
  Partial core density with radius 1.1
  Transforming core density to a uniform radial grid of dG=0.02 with 1625 points.
  Transforming local potential to a uniform radial grid of dG=0.02 with 1625 points.
  Transforming nonlocal projectors to a uniform radial grid of dG=0.02 with 432 points.
  Transforming density augmentations to a uniform radial grid of dG=0.02 with 1625 points.
  Transforming atomic orbitals to a uniform radial grid of dG=0.02 with 432 points.
  Core radius for overlap checks: 1.30 bohrs.

Reading pseudopotential file '/home/akim2/jdftx_install/build/pseudopotentials/GBRV/s_pbe.uspp':
  Title: S.  Created by USPP 7.3.6 on 1-4-15
  Reference state energy: -11.898476.  6 valence electrons in orbitals:
    |300>  occupation: 2  eigenvalue: -0.634167
    |310>  occupation: 4  eigenvalue: -0.257568
  lMax: 2  lLocal: 3  QijEcut: 6
  6 projectors sampled on a log grid with 635 points:
    l: 0  eig: -0.634161  rCut: 1.5
    l: 0  eig: 1.500000  rCut: 1.5
    l: 1  eig: -0.257567  rCut: 1.5
    l: 1  eig: 1.500000  rCut: 1.5
    l: 2  eig: -1.000000  rCut: 1.5
    l: 2  eig: 1.500000  rCut: 1.5
  Partial core density with radius 1.15
  Transforming core density to a uniform radial grid of dG=0.02 with 1625 points.
  Transforming local potential to a uniform radial grid of dG=0.02 with 1625 points.
  Transforming nonlocal projectors to a uniform radial grid of dG=0.02 with 432 points.
  Transforming density augmentations to a uniform radial grid of dG=0.02 with 1625 points.
  Transforming atomic orbitals to a uniform radial grid of dG=0.02 with 432 points.
  Core radius for overlap checks: 1.50 bohrs.

Reading pseudopotential file '/home/akim2/jdftx_install/build/pseudopotentials/GBRV/na_pbe.uspp':
  Title: Na.  Created by USPP 7.3.6 on 23-9-15
  Reference state energy: -47.625620.  9 valence electrons in orbitals:
    |200>  occupation: 2  eigenvalue: -2.085638
    |210>  occupation: 6  eigenvalue: -1.053708
    |300>  occupation: 1  eigenvalue: -0.100838
  lMax: 2  lLocal: 0  QijEcut: 6
  5 projectors sampled on a log grid with 657 points:
    l: 0  eig: -2.085640  rCut: 1.37
    l: 0  eig: -0.100839  rCut: 1.37
    l: 1  eig: -1.053708  rCut: 1.47
    l: 1  eig: 0.500000  rCut: 1.47
    l: 2  eig: 0.750000  rCut: 2
  Transforming local potential to a uniform radial grid of dG=0.02 with 1625 points.
  Transforming nonlocal projectors to a uniform radial grid of dG=0.02 with 432 points.
  Transforming density augmentations to a uniform radial grid of dG=0.02 with 1625 points.
  Transforming atomic orbitals to a uniform radial grid of dG=0.02 with 432 points.
  Core radius for overlap checks: 2.00 bohrs.

Initialized 3 species with 76 total atoms.

Folded 1 k-points by 1x1x1 to 1 k-points.

---------- Setting up k-points, bands, fillings ----------
No reducable k-points. 
Computing the number of bands and number of electrons
Calculating initial fillings.
nElectrons: 318.000000   nBands: 306   nStates: 1

----- Setting up reduced wavefunction bases (one per k-point) -----
average nbasis = 109673.000 , ideal nbasis = 109671.883

---------- Setting up coulomb interaction ----------
Fluid mode embedding: using embedded box, but periodic Coulomb kernel.
(Fluid response is responsible for (approximate) separation between periodic images.)
Setting up double-sized grid for truncated Coulomb potentials:
R = 
[      28.0058     -14.0029            0  ]
[            0      24.2537            0  ]
[            0            0      75.5892  ]
unit cell volume = 51343.6
G =
[   0.224353    0.12953         -0  ]
[          0   0.259061          0  ]
[          0         -0  0.0831228  ]
Chosen fftbox size, S = [  128  128  360  ]
Integer grid location selected as the embedding center:
   Grid: [  0  0  90  ]
   Lattice: [  0  0  0.5  ]
   Cartesian: [  0  0  18.8973  ]
Constructing Wigner-Seitz cell: 8 faces (6 quadrilaterals, 2 hexagons)
Range-separation parameter for embedded mesh potentials due to point charges: 0.590105 bohrs.

Initializing DFT-D3 calculator:
	Parameters set for gga-PBE functional
	s6:  1.000  s_r6:  1.217
	s8:  0.722  s_r8:  1.000
	Per-atom parameters loaded for:
	 C:  sqrtQ[a0]:  3.105  Rcov[a0]:  1.417  CN: [ 0.00 0.99 2.00 3.00 3.98 ]
	 S:  sqrtQ[a0]:  4.041  Rcov[a0]:  1.928  CN: [ 0.00 0.99 1.99 ]
	Na:  sqrtQ[a0]:  6.586  Rcov[a0]:  2.646  CN: [ 0.00 0.97 ]

---------- Setting up ewald sum ----------
Optimum gaussian width for ewald sums = 7.204490 bohr.
Real space sum over 405 unit cells with max indices [  4  4  2  ]
Reciprocal space sum over 7875 terms with max indices [  7  7  17  ]

Computing DFT-D3 correction:
# coordination-number C 3.301 3.301 3.302 3.301 3.301 3.303 3.301 3.301 3.318 3.301 3.301 3.694 3.301 3.301 3.519 3.301 3.304 3.342 3.301 3.302 4.002 3.302 3.390 3.334 3.301 3.322 3.301 3.302 3.359 3.302 3.301 3.311 3.301 3.301 3.651 3.302 3.301 3.301 3.301 3.302 3.311 3.300 3.303 3.319 3.301 3.301 3.436 3.301 3.304 3.573 3.301 3.303 3.301 3.301 3.305 3.768 3.301 3.304 3.595 3.334 3.303 3.301 3.305 3.301 3.301 3.745 3.301 3.301 3.541 3.315 3.301 3.302
# coordination-number S 2.918 2.914
# coordination-number Na 3.952 4.068
# diagonal-C6 C 24.27 24.27 24.27 24.27 24.27 24.25 24.27 24.27 24.10 24.27 24.27 19.35 24.27 24.27 21.36 24.27 24.24 23.84 24.27 24.26 18.32 24.26 23.25 23.93 24.27 24.06 24.28 24.26 23.64 24.26 24.28 24.17 24.27 24.28 19.72 24.26 24.27 24.27 24.28 24.27 24.17 24.28 24.25 24.09 24.28 24.27 22.59 24.28 24.24 20.61 24.27 24.26 24.27 24.27 24.23 18.89 24.27 24.25 20.34 23.93 24.26 24.27 24.24 24.27 24.27 19.02 24.27 24.27 21.05 24.13 24.27 24.26
# diagonal-C6 S 125.81 125.81
# diagonal-C6 Na 186.11 186.11
EvdW_6 =   -0.060034
EvdW_8 =   -0.050373

---------- Allocating electronic variables ----------
Initializing wave functions:  linear combination of atomic orbitals
C pseudo-atom occupations:   s ( 2 )  p ( 2 )
S pseudo-atom occupations:   s ( 2 )  p ( 4 )
Na pseudo-atom occupations:   s ( 2 1 )  p ( 6 )
	FillingsUpdate:  mu: -0.182048527  nElectrons: 318.000000
LCAOMinimize: Iter:   0  F: -522.2121452857531949  |grad|_K:  1.100e-02  alpha:  1.000e+00
LCAOMinimize: 	Step increased F by 1.240551e+00, reducing alpha to 3.318219e-02.
	FillingsUpdate:  mu: -0.196881390  nElectrons: 318.000000
LCAOMinimize: Iter:   1  F: -522.6643315513512107  |grad|_K:  9.738e-03  alpha:  3.318e-02  linmin: -1.510e-01  cgtest:  7.096e-01  t[s]:     10.31
	FillingsUpdate:  mu: -0.205498620  nElectrons: 318.000000
LCAOMinimize: Iter:   2  F: -522.9135785317972704  |grad|_K:  4.179e-03  alpha:  6.658e-02  linmin:  1.465e-01  cgtest: -9.909e-01  t[s]:     11.85
LCAOMinimize: 	Bad step direction: g.d > 0.
LCAOMinimize: 	Undoing step.
LCAOMinimize: 	Step failed: resetting search direction.
	FillingsUpdate:  mu: -0.205498620  nElectrons: 318.000000
LCAOMinimize: Iter:   3  F: -522.9135785317972704  |grad|_K:  4.179e-03  alpha:  0.000e+00
	FillingsUpdate:  mu: -0.235075701  nElectrons: 318.000000
LCAOMinimize: Iter:   4  F: -522.9690186212493472  |grad|_K:  7.676e-04  alpha:  6.774e-02  linmin:  2.231e-01  cgtest: -7.233e-01  t[s]:     14.46
	FillingsUpdate:  mu: -0.233654205  nElectrons: 318.000000
LCAOMinimize: Iter:   5  F: -522.9698539286273444  |grad|_K:  1.067e-03  alpha:  1.795e-01  linmin:  1.749e-04  cgtest:  9.556e-01  t[s]:     15.98
	FillingsUpdate:  mu: -0.232109921  nElectrons: 318.000000
LCAOMinimize: Iter:   6  F: -522.9733346853565763  |grad|_K:  2.647e-04  alpha:  6.738e-02  linmin:  1.644e-02  cgtest: -3.589e-01  t[s]:     17.52
LCAOMinimize: 	Predicted alpha/alphaT>3.000000, increasing alphaT to 2.021470e-01.
	FillingsUpdate:  mu: -0.232389355  nElectrons: 318.000000
LCAOMinimize: Iter:   7  F: -522.9750398807268539  |grad|_K:  7.746e-05  alpha:  5.695e-01  linmin:  8.019e-03  cgtest:  3.062e-01  t[s]:     19.48
LCAOMinimize: Encountered beta<0, resetting CG.
	FillingsUpdate:  mu: -0.232979611  nElectrons: 318.000000
LCAOMinimize: Iter:   8  F: -522.9750636475667989  |grad|_K:  5.021e-05  alpha:  8.337e-02  linmin: -1.726e-03  cgtest:  1.245e-02  t[s]:     21.02
LCAOMinimize: 	Predicted alpha/alphaT>3.000000, increasing alphaT to 2.501170e-01.
	FillingsUpdate:  mu: -0.232858109  nElectrons: 318.000000
LCAOMinimize: Iter:   9  F: -522.9751009656797578  |grad|_K:  2.576e-05  alpha:  3.118e-01  linmin: -2.549e-05  cgtest: -3.859e-02  t[s]:     23.01
	FillingsUpdate:  mu: -0.232983485  nElectrons: 318.000000
LCAOMinimize: Iter:  10  F: -522.9751114367575155  |grad|_K:  1.141e-05  alpha:  3.347e-01  linmin:  1.619e-05  cgtest:  4.838e-03  t[s]:     24.55
	FillingsUpdate:  mu: -0.232900958  nElectrons: 318.000000
LCAOMinimize: Iter:  11  F: -522.9751120526733530  |grad|_K:  8.710e-06  alpha:  1.005e-01  linmin:  4.580e-05  cgtest: -7.320e-04  t[s]:     26.09
	FillingsUpdate:  mu: -0.232948906  nElectrons: 318.000000
LCAOMinimize: Iter:  12  F: -522.9751128947771122  |grad|_K:  2.882e-06  alpha:  2.357e-01  linmin:  1.014e-04  cgtest:  2.279e-03  t[s]:     27.63
LCAOMinimize: Converged (|Delta F|<1.000000e-06 for 2 iters).
----- createFluidSolver() ----- (Fluid-side solver setup)
   Initializing fluid molecule 'PC'
     Net charge: 0   dipole magnitude: 0
     Initializing spherical shell mfKernel with radius 0 Bohr
     deltaS corrections:

Correction to mu due to finite nuclear width = -0.00614526
   Cavity determined by nc: 0.00098 and sigma: 0.6
   Effective cavity tension: 9.53e-06 Eh/bohr^2 to account for cavitation and dispersion.


---- Citations for features of the code used in this run ----

   Software package:
      R. Sundararaman, K. Letchworth-Weaver, K.A. Schwarz, D. Gunceler, Y. Ozhabes and T.A. Arias, 'JDFTx: software for joint density-functional theory', SoftwareX 6, 278 (2017)

   gga-PBE exchange-correlation functional:
      J.P. Perdew, K. Burke and M. Ernzerhof, Phys. Rev. Lett. 77, 3865 (1996)

   Pseudopotentials:
      KF Garrity, JW Bennett, KM Rabe and D Vanderbilt, Comput. Mater. Sci. 81, 446 (2014)

   Truncated Coulomb potentials:
      R. Sundararaman and T.A. Arias, Phys. Rev. B 87, 165122 (2013)

   DFT-D3 dispersion correction:
      S. Grimme, J. Antony, S. Ehrlich and H. Krieg, J. Chem. Phys. 132, 154104 (2010)

   Linear/nonlinear dielectric/ionic fluid model with effective cavity tension:
      D. Gunceler, K. Letchworth-Weaver, R. Sundararaman, K.A. Schwarz and T.A. Arias, Modelling Simul. Mater. Sci. Eng. 21, 074005 (2013)

This list may not be complete. Please suggest additional citations or
report any other bugs at https://github.com/shankar1729/jdftx/issues

Initialization completed successfully at t[s]:     27.79


Computing DFT-D3 correction:
# coordination-number C 3.301 3.301 3.302 3.301 3.301 3.303 3.301 3.301 3.318 3.301 3.301 3.694 3.301 3.301 3.519 3.301 3.304 3.342 3.301 3.302 4.002 3.302 3.390 3.334 3.301 3.322 3.301 3.302 3.359 3.302 3.301 3.311 3.301 3.301 3.651 3.302 3.301 3.301 3.301 3.302 3.311 3.300 3.303 3.319 3.301 3.301 3.436 3.301 3.304 3.573 3.301 3.303 3.301 3.301 3.305 3.768 3.301 3.304 3.595 3.334 3.303 3.301 3.305 3.301 3.301 3.745 3.301 3.301 3.541 3.315 3.301 3.302
# coordination-number S 2.918 2.914
# coordination-number Na 3.952 4.068
# diagonal-C6 C 24.27 24.27 24.27 24.27 24.27 24.25 24.27 24.27 24.10 24.27 24.27 19.35 24.27 24.27 21.36 24.27 24.24 23.84 24.27 24.26 18.32 24.26 23.25 23.93 24.27 24.06 24.28 24.26 23.64 24.26 24.28 24.17 24.27 24.28 19.72 24.26 24.27 24.27 24.28 24.27 24.17 24.28 24.25 24.09 24.28 24.27 22.59 24.28 24.24 20.61 24.27 24.26 24.27 24.27 24.23 18.89 24.27 24.25 20.34 23.93 24.26 24.27 24.24 24.27 24.27 19.02 24.27 24.27 21.05 24.13 24.27 24.26
# diagonal-C6 S 125.81 125.81
# diagonal-C6 Na 186.11 186.11
EvdW_6 =   -0.060034
EvdW_8 =   -0.050373
Fluid solver invoked on fresh (random / LCAO) wavefunctions
Running a vacuum solve first:

-------- Initial electronic minimization -----------
Will mix electronic density at each iteration.
	FillingsUpdate:  mu: -0.232948906  nElectrons: 318.000000
	FillingsUpdate:  mu: -0.240164547  nElectrons: 318.000000
SCF: Cycle:  0   F: -526.413553999192914   dF: -3.438e+00   |Residual|: 9.488e-01   |deigs|: 1.257e-01  t[s]:     33.94
	FillingsUpdate:  mu: -0.214071429  nElectrons: 318.000000
SCF: Cycle:  1   F: -526.897664519192858   dF: -4.841e-01   |Residual|: 4.892e-01   |deigs|: 3.576e-02  t[s]:     37.02
	FillingsUpdate:  mu: -0.180913635  nElectrons: 318.000000
SCF: Cycle:  2   F: -527.223110368351627   dF: -3.254e-01   |Residual|: 1.362e-01   |deigs|: 3.091e-02  t[s]:     40.09
	FillingsUpdate:  mu: -0.173684794  nElectrons: 318.000000
SCF: Cycle:  3   F: -527.233475020685887   dF: -1.036e-02   |Residual|: 8.363e-02   |deigs|: 9.473e-03  t[s]:     43.16
	FillingsUpdate:  mu: -0.163025048  nElectrons: 318.000000
SCF: Cycle:  4   F: -527.269272609338714   dF: -3.580e-02   |Residual|: 4.826e-02   |deigs|: 8.808e-03  t[s]:     46.19
	FillingsUpdate:  mu: -0.154064470  nElectrons: 318.000000
SCF: Cycle:  5   F: -527.273753844240559   dF: -4.481e-03   |Residual|: 3.364e-02   |deigs|: 8.927e-03  t[s]:     49.26
	FillingsUpdate:  mu: -0.147181129  nElectrons: 318.000000
SCF: Cycle:  6   F: -527.280927475706562   dF: -7.174e-03   |Residual|: 1.873e-02   |deigs|: 5.888e-03  t[s]:     52.21
	FillingsUpdate:  mu: -0.140210644  nElectrons: 318.000000
SCF: Cycle:  7   F: -527.283010782058000   dF: -2.083e-03   |Residual|: 1.473e-02   |deigs|: 6.732e-03  t[s]:     55.17
	FillingsUpdate:  mu: -0.136868801  nElectrons: 318.000000
SCF: Cycle:  8   F: -527.281315066652269   dF: +1.696e-03   |Residual|: 1.797e-02   |deigs|: 3.542e-03  t[s]:     58.09
	FillingsUpdate:  mu: -0.133341351  nElectrons: 318.000000
SCF: Cycle:  9   F: -527.284364899545608   dF: -3.050e-03   |Residual|: 1.056e-02   |deigs|: 2.721e-03  t[s]:     60.83
	FillingsUpdate:  mu: -0.131350264  nElectrons: 318.000000
SCF: Cycle: 10   F: -527.284327911182459   dF: +3.699e-05   |Residual|: 1.004e-02   |deigs|: 2.081e-03  t[s]:     63.55
	FillingsUpdate:  mu: -0.128116071  nElectrons: 318.000000
SCF: Cycle: 11   F: -527.284925028171187   dF: -5.971e-04   |Residual|: 7.861e-03   |deigs|: 2.483e-03  t[s]:     66.22
	FillingsUpdate:  mu: -0.125649230  nElectrons: 318.000000
SCF: Cycle: 12   F: -527.285306555527313   dF: -3.815e-04   |Residual|: 4.409e-03   |deigs|: 2.278e-03  t[s]:     68.90
	FillingsUpdate:  mu: -0.123769421  nElectrons: 318.000000
SCF: Cycle: 13   F: -527.285366163825984   dF: -5.961e-05   |Residual|: 3.961e-03   |deigs|: 1.766e-03  t[s]:     71.57
	FillingsUpdate:  mu: -0.121313389  nElectrons: 318.000000
SCF: Cycle: 14   F: -527.285339609501875   dF: +2.655e-05   |Residual|: 2.809e-03   |deigs|: 2.711e-03  t[s]:     74.26
	FillingsUpdate:  mu: -0.119544105  nElectrons: 318.000000
SCF: Cycle: 15   F: -527.285350371676714   dF: -1.076e-05   |Residual|: 2.233e-03   |deigs|: 2.144e-03  t[s]:     76.94
	FillingsUpdate:  mu: -0.118479170  nElectrons: 318.000000
SCF: Cycle: 16   F: -527.285361856326404   dF: -1.148e-05   |Residual|: 1.518e-03   |deigs|: 1.259e-03  t[s]:     79.60
	FillingsUpdate:  mu: -0.117728011  nElectrons: 318.000000
SCF: Cycle: 17   F: -527.285378935273684   dF: -1.708e-05   |Residual|: 1.138e-03   |deigs|: 9.106e-04  t[s]:     82.26
	FillingsUpdate:  mu: -0.117265219  nElectrons: 318.000000
SCF: Cycle: 18   F: -527.285387244496292   dF: -8.309e-06   |Residual|: 9.279e-04   |deigs|: 5.003e-04  t[s]:     84.94
	FillingsUpdate:  mu: -0.116469871  nElectrons: 318.000000
SCF: Cycle: 19   F: -527.285396943995352   dF: -9.699e-06   |Residual|: 8.277e-04   |deigs|: 8.457e-04  t[s]:     87.61
	FillingsUpdate:  mu: -0.115932617  nElectrons: 318.000000
SCF: Cycle: 20   F: -527.285401940926477   dF: -4.997e-06   |Residual|: 6.854e-04   |deigs|: 7.786e-04  t[s]:     90.27
	FillingsUpdate:  mu: -0.115758968  nElectrons: 318.000000
SCF: Cycle: 21   F: -527.285402342348107   dF: -4.014e-07   |Residual|: 4.811e-04   |deigs|: 5.894e-04  t[s]:     92.95
	FillingsUpdate:  mu: -0.115513383  nElectrons: 318.000000
SCF: Cycle: 22   F: -527.285404394363468   dF: -2.052e-06   |Residual|: 3.275e-04   |deigs|: 9.056e-04  t[s]:     95.62
	FillingsUpdate:  mu: -0.115370715  nElectrons: 318.000000
SCF: Cycle: 23   F: -527.285405360671461   dF: -9.663e-07   |Residual|: 2.364e-04   |deigs|: 5.014e-04  t[s]:     98.30
	FillingsUpdate:  mu: -0.115219843  nElectrons: 318.000000
SCF: Cycle: 24   F: -527.285405553528562   dF: -1.929e-07   |Residual|: 1.798e-04   |deigs|: 6.355e-04  t[s]:    100.97
	FillingsUpdate:  mu: -0.115122261  nElectrons: 318.000000
SCF: Cycle: 25   F: -527.285405782667794   dF: -2.291e-07   |Residual|: 1.351e-04   |deigs|: 2.749e-04  t[s]:    103.64
	FillingsUpdate:  mu: -0.115111783  nElectrons: 318.000000
SCF: Cycle: 26   F: -527.285405979007351   dF: -1.963e-07   |Residual|: 9.701e-05   |deigs|: 3.193e-04  t[s]:    106.31
	FillingsUpdate:  mu: -0.115101140  nElectrons: 318.000000
SCF: Cycle: 27   F: -527.285406007261258   dF: -2.825e-08   |Residual|: 7.020e-05   |deigs|: 3.776e-04  t[s]:    108.97
	FillingsUpdate:  mu: -0.115121484  nElectrons: 318.000000
SCF: Cycle: 28   F: -527.285406042737236   dF: -3.548e-08   |Residual|: 4.971e-05   |deigs|: 1.188e-04  t[s]:    111.62
	FillingsUpdate:  mu: -0.115124887  nElectrons: 318.000000
SCF: Cycle: 29   F: -527.285406053531801   dF: -1.079e-08   |Residual|: 2.887e-05   |deigs|: 2.398e-04  t[s]:    114.27
	FillingsUpdate:  mu: -0.115117536  nElectrons: 318.000000
SCF: Cycle: 30   F: -527.285406058157264   dF: -4.625e-09   |Residual|: 2.332e-05   |deigs|: 1.389e-04  t[s]:    116.94
	FillingsUpdate:  mu: -0.115112933  nElectrons: 318.000000
SCF: Cycle: 31   F: -527.285406060614150   dF: -2.457e-09   |Residual|: 1.625e-05   |deigs|: 1.219e-04  t[s]:    119.62
SCF: Converged (|Delta E|<1.000000e-08 for 2 iters).

Setting wave functions to eigenvectors of Hamiltonian
Vacuum energy after initial minimize, F = -527.285406060614150


-------- Electronic minimization -----------
Will mix electronic density at each iteration.
	FillingsUpdate:  mu: -0.115112933  nElectrons: 318.000000
	Linear fluid (dielectric constant: 64) occupying 0.891575 of unit cell:	Completed after 43 iterations at t[s]:    120.72
	FillingsUpdate:  mu: -0.105591548  nElectrons: 318.000000
	Linear fluid (dielectric constant: 64) occupying 0.891336 of unit cell:	Completed after 33 iterations at t[s]:    124.71
SCF: Cycle:  0   F: -527.410478149566643   dF: -2.660e-02   |Residual|: 6.071e-02   |deigs|: 2.873e-03  t[s]:    124.88
	Linear fluid (dielectric constant: 64) occupying 0.891608 of unit cell:	Completed after 32 iterations at t[s]:    125.35
	FillingsUpdate:  mu: -0.104589701  nElectrons: 318.000000
	Linear fluid (dielectric constant: 64) occupying 0.891343 of unit cell:	Completed after 33 iterations at t[s]:    128.87
SCF: Cycle:  1   F: -527.418634157490601   dF: -8.156e-03   |Residual|: 3.173e-02   |deigs|: 2.123e-03  t[s]:    129.04
	Linear fluid (dielectric constant: 64) occupying 0.891526 of unit cell:	Completed after 31 iterations at t[s]:    129.50
	FillingsUpdate:  mu: -0.104887115  nElectrons: 318.000000
	Linear fluid (dielectric constant: 64) occupying 0.891357 of unit cell:	Completed after 30 iterations at t[s]:    132.98
SCF: Cycle:  2   F: -527.421042958008798   dF: -2.409e-03   |Residual|: 2.134e-02   |deigs|: 1.078e-03  t[s]:    133.15
	Linear fluid (dielectric constant: 64) occupying 0.891415 of unit cell:	Completed after 27 iterations at t[s]:    133.57
	FillingsUpdate:  mu: -0.104419485  nElectrons: 318.000000
	Linear fluid (dielectric constant: 64) occupying 0.891360 of unit cell:	Completed after 29 iterations at t[s]:    137.01
SCF: Cycle:  3   F: -527.422166954029763   dF: -1.124e-03   |Residual|: 1.411e-02   |deigs|: 1.228e-03  t[s]:    137.18
	Linear fluid (dielectric constant: 64) occupying 0.891263 of unit cell:	Completed after 26 iterations at t[s]:    137.58
	FillingsUpdate:  mu: -0.104213044  nElectrons: 318.000000
	Linear fluid (dielectric constant: 64) occupying 0.891327 of unit cell:	Completed after 26 iterations at t[s]:    140.99
SCF: Cycle:  4   F: -527.422801994223619   dF: -6.350e-04   |Residual|: 9.349e-03   |deigs|: 1.189e-03  t[s]:    141.16
	Linear fluid (dielectric constant: 64) occupying 0.891153 of unit cell:	Completed after 23 iterations at t[s]:    141.53
	FillingsUpdate:  mu: -0.104152221  nElectrons: 318.000000
	Linear fluid (dielectric constant: 64) occupying 0.891280 of unit cell:	Completed after 22 iterations at t[s]:    144.91
SCF: Cycle:  5   F: -527.423185658458806   dF: -3.837e-04   |Residual|: 6.442e-03   |deigs|: 9.584e-04  t[s]:    145.08
	Linear fluid (dielectric constant: 64) occupying 0.891029 of unit cell:	Completed after 20 iterations at t[s]:    145.42
	FillingsUpdate:  mu: -0.104368313  nElectrons: 318.000000
	Linear fluid (dielectric constant: 64) occupying 0.891247 of unit cell:	Completed after 19 iterations at t[s]:    148.74
SCF: Cycle:  6   F: -527.423329832556533   dF: -1.442e-04   |Residual|: 3.581e-03   |deigs|: 7.049e-04  t[s]:    148.91
	Linear fluid (dielectric constant: 64) occupying 0.891017 of unit cell:	Completed after 17 iterations at t[s]:    149.22
	FillingsUpdate:  mu: -0.104479776  nElectrons: 318.000000
	Linear fluid (dielectric constant: 64) occupying 0.891248 of unit cell:	Completed after 17 iterations at t[s]:    152.12
SCF: Cycle:  7   F: -527.423358439449999   dF: -2.861e-05   |Residual|: 2.730e-03   |deigs|: 5.387e-04  t[s]:    152.28
	Linear fluid (dielectric constant: 64) occupying 0.891033 of unit cell:	Completed after 17 iterations at t[s]:    152.60
	FillingsUpdate:  mu: -0.104680049  nElectrons: 318.000000
	Linear fluid (dielectric constant: 64) occupying 0.891254 of unit cell:	Completed after 14 iterations at t[s]:    155.46
SCF: Cycle:  8   F: -527.423382873255150   dF: -2.443e-05   |Residual|: 1.980e-03   |deigs|: 7.689e-04  t[s]:    155.63
	Linear fluid (dielectric constant: 64) occupying 0.891121 of unit cell:	Completed after 15 iterations at t[s]:    155.92
	FillingsUpdate:  mu: -0.104768501  nElectrons: 318.000000
	Linear fluid (dielectric constant: 64) occupying 0.891265 of unit cell:	Completed after 15 iterations at t[s]:    158.79
SCF: Cycle:  9   F: -527.423390819821179   dF: -7.947e-06   |Residual|: 1.461e-03   |deigs|: 7.408e-04  t[s]:    158.95
	Linear fluid (dielectric constant: 64) occupying 0.891178 of unit cell:	Completed after 13 iterations at t[s]:    159.22
	FillingsUpdate:  mu: -0.104772488  nElectrons: 318.000000
	Linear fluid (dielectric constant: 64) occupying 0.891269 of unit cell:	Completed after 15 iterations at t[s]:    162.07
SCF: Cycle: 10   F: -527.423393781626714   dF: -2.962e-06   |Residual|: 1.038e-03   |deigs|: 5.458e-04  t[s]:    162.24
	Linear fluid (dielectric constant: 64) occupying 0.891220 of unit cell:	Completed after 13 iterations at t[s]:    162.51
	FillingsUpdate:  mu: -0.104806300  nElectrons: 318.000000
	Linear fluid (dielectric constant: 64) occupying 0.891276 of unit cell:	Completed after 13 iterations at t[s]:    165.35
SCF: Cycle: 11   F: -527.423394772939901   dF: -9.913e-07   |Residual|: 9.990e-04   |deigs|: 6.936e-04  t[s]:    165.51
	Linear fluid (dielectric constant: 64) occupying 0.891233 of unit cell:	Completed after 13 iterations at t[s]:    165.78
	FillingsUpdate:  mu: -0.104810624  nElectrons: 318.000000
	Linear fluid (dielectric constant: 64) occupying 0.891278 of unit cell:	Completed after 13 iterations at t[s]:    168.62
SCF: Cycle: 12   F: -527.423395431690665   dF: -6.588e-07   |Residual|: 8.846e-04   |deigs|: 4.302e-04  t[s]:    168.79
	Linear fluid (dielectric constant: 64) occupying 0.891247 of unit cell:	Completed after 10 iterations at t[s]:    169.02
	FillingsUpdate:  mu: -0.104820329  nElectrons: 318.000000
	Linear fluid (dielectric constant: 64) occupying 0.891281 of unit cell:	Completed after 8 iterations at t[s]:    171.84
SCF: Cycle: 13   F: -527.423395543794641   dF: -1.121e-07   |Residual|: 7.600e-04   |deigs|: 3.036e-04  t[s]:    172.01
	Linear fluid (dielectric constant: 64) occupying 0.891263 of unit cell:	Completed after 5 iterations at t[s]:    172.18
	FillingsUpdate:  mu: -0.104835652  nElectrons: 318.000000
	Linear fluid (dielectric constant: 64) occupying 0.891283 of unit cell:	Completed after 5 iterations at t[s]:    175.35
SCF: Cycle: 14   F: -527.423395419535950   dF: +1.243e-07   |Residual|: 7.076e-04   |deigs|: 4.011e-04  t[s]:    175.51
	Linear fluid (dielectric constant: 64) occupying 0.891275 of unit cell:	Completed after 5 iterations at t[s]:    175.67
	FillingsUpdate:  mu: -0.104826871  nElectrons: 318.000000
	Linear fluid (dielectric constant: 64) occupying 0.891284 of unit cell:	Completed after 5 iterations at t[s]:    178.42
SCF: Cycle: 15   F: -527.423396217629602   dF: -7.981e-07   |Residual|: 5.555e-04   |deigs|: 1.622e-04  t[s]:    178.59
	Linear fluid (dielectric constant: 64) occupying 0.891283 of unit cell:	Completed after 4 iterations at t[s]:    178.73
	FillingsUpdate:  mu: -0.104860151  nElectrons: 318.000000
	Linear fluid (dielectric constant: 64) occupying 0.891284 of unit cell:	Completed after 5 iterations at t[s]:    181.49
SCF: Cycle: 16   F: -527.423396733613572   dF: -5.160e-07   |Residual|: 5.508e-04   |deigs|: 3.871e-04  t[s]:    181.65
	Linear fluid (dielectric constant: 64) occupying 0.891284 of unit cell:	Completed after 3 iterations at t[s]:    181.79
	FillingsUpdate:  mu: -0.104843700  nElectrons: 318.000000
	Linear fluid (dielectric constant: 64) occupying 0.891285 of unit cell:	Completed after 4 iterations at t[s]:    184.53
SCF: Cycle: 17   F: -527.423397118262642   dF: -3.846e-07   |Residual|: 4.189e-04   |deigs|: 1.354e-04  t[s]:    184.69
	Linear fluid (dielectric constant: 64) occupying 0.891277 of unit cell:	Completed after 2 iterations at t[s]:    184.82
	FillingsUpdate:  mu: -0.104886695  nElectrons: 318.000000
	Linear fluid (dielectric constant: 64) occupying 0.891285 of unit cell:	Completed after 9 iterations at t[s]:    187.59
SCF: Cycle: 18   F: -527.423394032277884   dF: +3.086e-06   |Residual|: 7.856e-04   |deigs|: 2.549e-04  t[s]:    187.76
	Linear fluid (dielectric constant: 64) occupying 0.891277 of unit cell:	Completed after 7 iterations at t[s]:    187.95
	FillingsUpdate:  mu: -0.104866428  nElectrons: 318.000000
	Linear fluid (dielectric constant: 64) occupying 0.891286 of unit cell:	Completed after 4 iterations at t[s]:    190.67
SCF: Cycle: 19   F: -527.423397827462850   dF: -3.795e-06   |Residual|: 2.817e-04   |deigs|: 1.483e-04  t[s]:    190.83
	Linear fluid (dielectric constant: 64) occupying 0.891278 of unit cell:	Completed after 2 iterations at t[s]:    190.95
	FillingsUpdate:  mu: -0.104874385  nElectrons: 318.000000
	Linear fluid (dielectric constant: 64) occupying 0.891285 of unit cell:	Completed after 2 iterations at t[s]:    193.63
SCF: Cycle: 20   F: -527.423398100701775   dF: -2.732e-07   |Residual|: 1.974e-04   |deigs|: 3.256e-04  t[s]:    193.78
	Linear fluid (dielectric constant: 64) occupying 0.891278 of unit cell:	Completed after 1 iterations at t[s]:    193.89
	FillingsUpdate:  mu: -0.104865259  nElectrons: 318.000000
	Linear fluid (dielectric constant: 64) occupying 0.891286 of unit cell:	Completed after 3 iterations at t[s]:    196.60
SCF: Cycle: 21   F: -527.423397953017115   dF: +1.477e-07   |Residual|: 2.678e-04   |deigs|: 1.401e-04  t[s]:    196.75
	Linear fluid (dielectric constant: 64) occupying 0.891279 of unit cell:	Completed after 2 iterations at t[s]:    196.88
	FillingsUpdate:  mu: -0.104883930  nElectrons: 318.000000
	Linear fluid (dielectric constant: 64) occupying 0.891286 of unit cell:	Completed after 4 iterations at t[s]:    199.60
SCF: Cycle: 22   F: -527.423397208016809   dF: +7.450e-07   |Residual|: 4.282e-04   |deigs|: 1.206e-04  t[s]:    199.76
	Linear fluid (dielectric constant: 64) occupying 0.891281 of unit cell:	Completed after 2 iterations at t[s]:    199.88
	FillingsUpdate:  mu: -0.104859601  nElectrons: 318.000000
	Linear fluid (dielectric constant: 64) occupying 0.891285 of unit cell:	Completed after 4 iterations at t[s]:    202.62
SCF: Cycle: 23   F: -527.423397763649291   dF: -5.556e-07   |Residual|: 2.783e-04   |deigs|: 8.387e-05  t[s]:    202.78
	Linear fluid (dielectric constant: 64) occupying 0.891281 of unit cell:	Completed after 2 iterations at t[s]:    202.90
	FillingsUpdate:  mu: -0.104887921  nElectrons: 318.000000
	Linear fluid (dielectric constant: 64) occupying 0.891286 of unit cell:	Completed after 7 iterations at t[s]:    205.64
SCF: Cycle: 24   F: -527.423396013746014   dF: +1.750e-06   |Residual|: 6.021e-04   |deigs|: 8.910e-05  t[s]:    205.81
	Linear fluid (dielectric constant: 64) occupying 0.891282 of unit cell:	Completed after 4 iterations at t[s]:    205.96
	FillingsUpdate:  mu: -0.104865931  nElectrons: 318.000000
	Linear fluid (dielectric constant: 64) occupying 0.891287 of unit cell:	Completed after 4 iterations at t[s]:    208.68
SCF: Cycle: 25   F: -527.423398072283021   dF: -2.059e-06   |Residual|: 1.775e-04   |deigs|: 7.005e-05  t[s]:    208.83
	Linear fluid (dielectric constant: 64) occupying 0.891282 of unit cell:	Completed after 2 iterations at t[s]:    208.97
	FillingsUpdate:  mu: -0.104888503  nElectrons: 318.000000
	Linear fluid (dielectric constant: 64) occupying 0.891286 of unit cell:	Completed after 5 iterations at t[s]:    211.68
SCF: Cycle: 26   F: -527.423396399317085   dF: +1.673e-06   |Residual|: 5.432e-04   |deigs|: 7.833e-05  t[s]:    211.85
	Linear fluid (dielectric constant: 64) occupying 0.891283 of unit cell:	Completed after 3 iterations at t[s]:    211.99
	FillingsUpdate:  mu: -0.104858399  nElectrons: 318.000000
	Linear fluid (dielectric constant: 64) occupying 0.891286 of unit cell:	Completed after 3 iterations at t[s]:    214.69
SCF: Cycle: 27   F: -527.423397649882645   dF: -1.251e-06   |Residual|: 3.360e-04   |deigs|: 1.051e-04  t[s]:    214.84
	Linear fluid (dielectric constant: 64) occupying 0.891284 of unit cell:	Completed after 3 iterations at t[s]:    214.98
	FillingsUpdate:  mu: -0.104885398  nElectrons: 318.000000
	Linear fluid (dielectric constant: 64) occupying 0.891286 of unit cell:	Completed after 4 iterations at t[s]:    217.70
SCF: Cycle: 28   F: -527.423397535059280   dF: +1.148e-07   |Residual|: 3.832e-04   |deigs|: 2.824e-04  t[s]:    217.85
	Linear fluid (dielectric constant: 64) occupying 0.891284 of unit cell:	Completed after 2 iterations at t[s]:    217.99
	FillingsUpdate:  mu: -0.104862107  nElectrons: 318.000000
	Linear fluid (dielectric constant: 64) occupying 0.891286 of unit cell:	Completed after 4 iterations at t[s]:    220.72
SCF: Cycle: 29   F: -527.423398019612932   dF: -4.846e-07   |Residual|: 2.412e-04   |deigs|: 1.766e-04  t[s]:    220.88
	Linear fluid (dielectric constant: 64) occupying 0.891284 of unit cell:	Completed after 2 iterations at t[s]:    221.01
	FillingsUpdate:  mu: -0.104886200  nElectrons: 318.000000
	Linear fluid (dielectric constant: 64) occupying 0.891286 of unit cell:	Completed after 5 iterations at t[s]:    223.74
SCF: Cycle: 30   F: -527.423396903158960   dF: +1.116e-06   |Residual|: 4.769e-04   |deigs|: 3.920e-05  t[s]:    223.90
	Linear fluid (dielectric constant: 64) occupying 0.891285 of unit cell:	Completed after 4 iterations at t[s]:    224.06
	FillingsUpdate:  mu: -0.104868911  nElectrons: 318.000000
	Linear fluid (dielectric constant: 64) occupying 0.891286 of unit cell:	Completed after 3 iterations at t[s]:    226.77
SCF: Cycle: 31   F: -527.423398291202147   dF: -1.388e-06   |Residual|: 1.324e-04   |deigs|: 4.699e-05  t[s]:    226.92
	Linear fluid (dielectric constant: 64) occupying 0.891285 of unit cell:	Completed after 0 iterations at t[s]:    227.02
	FillingsUpdate:  mu: -0.104900352  nElectrons: 318.000000
	Linear fluid (dielectric constant: 64) occupying 0.891287 of unit cell:	Completed after 9 iterations at t[s]:    229.21
SCF: Cycle: 32   F: -527.423392831766364   dF: +5.459e-06   |Residual|: 8.474e-04   |deigs|: 4.975e-05  t[s]:    229.38
	Linear fluid (dielectric constant: 64) occupying 0.891285 of unit cell:	Completed after 7 iterations at t[s]:    229.57
	FillingsUpdate:  mu: -0.104882213  nElectrons: 318.000000
	Linear fluid (dielectric constant: 64) occupying 0.891287 of unit cell:	Completed after 1 iterations at t[s]:    231.71
SCF: Cycle: 33   F: -527.423398452303331   dF: -5.621e-06   |Residual|: 1.248e-04   |deigs|: 3.579e-05  t[s]:    231.85
	Linear fluid (dielectric constant: 64) occupying 0.891285 of unit cell:	Completed after 0 iterations at t[s]:    231.95
	FillingsUpdate:  mu: -0.104875424  nElectrons: 318.000000
	Linear fluid (dielectric constant: 64) occupying 0.891287 of unit cell:	Completed after 0 iterations at t[s]:    234.03
SCF: Cycle: 34   F: -527.423398491272110   dF: -3.897e-08   |Residual|: 7.230e-05   |deigs|: 9.787e-06  t[s]:    234.16
	Linear fluid (dielectric constant: 64) occupying 0.891285 of unit cell:	Completed after 0 iterations at t[s]:    234.25
	FillingsUpdate:  mu: -0.104875375  nElectrons: 318.000000
	Linear fluid (dielectric constant: 64) occupying 0.891287 of unit cell:	Completed after 0 iterations at t[s]:    236.88
SCF: Cycle: 35   F: -527.423398494165212   dF: -2.893e-09   |Residual|: 7.534e-05   |deigs|: 2.551e-05  t[s]:    237.00
	Linear fluid (dielectric constant: 64) occupying 0.891286 of unit cell:	Completed after 0 iterations at t[s]:    237.10
	FillingsUpdate:  mu: -0.104875231  nElectrons: 318.000000
	Linear fluid (dielectric constant: 64) occupying 0.891287 of unit cell:	Completed after 0 iterations at t[s]:    239.74
SCF: Cycle: 36   F: -527.423398496008531   dF: -1.843e-09   |Residual|: 7.613e-05   |deigs|: 9.464e-05  t[s]:    239.87
SCF: Converged (|Delta E|<1.000000e-08 for 2 iters).

Setting wave functions to eigenvectors of Hamiltonian
Single-point solvation energy estimate, DeltaF = -0.137992435394381

Computing DFT-D3 correction:
# coordination-number C 3.301 3.301 3.302 3.301 3.301 3.303 3.301 3.301 3.318 3.301 3.301 3.694 3.301 3.301 3.519 3.301 3.304 3.342 3.301 3.302 4.002 3.302 3.390 3.334 3.301 3.322 3.301 3.302 3.359 3.302 3.301 3.311 3.301 3.301 3.651 3.302 3.301 3.301 3.301 3.302 3.311 3.300 3.303 3.319 3.301 3.301 3.436 3.301 3.304 3.573 3.301 3.303 3.301 3.301 3.305 3.768 3.301 3.304 3.595 3.334 3.303 3.301 3.305 3.301 3.301 3.745 3.301 3.301 3.541 3.315 3.301 3.302
# coordination-number S 2.918 2.914
# coordination-number Na 3.952 4.068
# diagonal-C6 C 24.27 24.27 24.27 24.27 24.27 24.25 24.27 24.27 24.10 24.27 24.27 19.35 24.27 24.27 21.36 24.27 24.24 23.84 24.27 24.26 18.32 24.26 23.25 23.93 24.27 24.06 24.28 24.26 23.64 24.26 24.28 24.17 24.27 24.28 19.72 24.26 24.27 24.27 24.28 24.27 24.17 24.28 24.25 24.09 24.28 24.27 22.59 24.28 24.24 20.61 24.27 24.26 24.27 24.27 24.23 18.89 24.27 24.25 20.34 23.93 24.26 24.27 24.24 24.27 24.27 19.02 24.27 24.27 21.05 24.13 24.27 24.26
# diagonal-C6 S 125.81 125.81
# diagonal-C6 Na 186.11 186.11
EvdW_6 =   -0.060034
EvdW_8 =   -0.050373

# Ionic positions in cartesian coordinates:
ion C  27.962335914315943  -0.001769463218393  18.997292717605230 1
ion C  16.294468692030708  20.209054935488847  18.990268141202147 1
ion C   2.287019718970346   4.038678481929088  18.976592694003951 1
ion C  23.295881840251120   0.000002405241653  19.006007333397161 1
ion C   4.622179727057690  -0.004432833683947  19.001663422840185 1
ion C  11.629056825320662  20.211630551590378  18.985788810898352 1
ion C  25.627954879725802   4.039959569554116  18.991008809249639 1
ion C  18.628874706986075  16.166474657415034  18.978319015314913 1
ion C   4.618714120006158   8.080647681548756  18.908789778560408 1
ion C  18.628267155992646  -0.000675987896162  19.013391934026071 1
ion C   9.290776346356447  -0.005793805879835  19.008545836133955 1
ion C   9.299058524221172  16.168059051201666  18.921069475537802 1
ion C  23.295168939698932   8.081721468429246  18.987326215164714 1
ion C  20.962073939067977  12.123987502899642  18.981968692170142 1
ion C   6.956895642958899  12.122053941580011  18.852011677206349 1
ion C  13.961024442776539  -0.004362139850341  19.015270699596993 1
ion C  13.964627223435283  16.167840774997693  18.950430894492790 1
ion C   6.951355638680933   4.034899965143950  18.966407783053686 1
ion C  20.962508084867146   4.040304129800457  19.002791026105474 1
ion C  16.296991885011991  12.125711754944351  18.950537853669530 1
ion C   9.290768265335348   8.084444850916997  18.871455105841576 1
ion C  16.298115692872518   4.038484967561753  18.998172903489579 1
ion C  11.630209576354293   4.034279831745303  18.977100948167784 1
ion C  11.633317036050723  12.127448431156381  18.877200972669485 1
ion C  18.630729697029668   8.082461896531097  18.984298949978459 1
ion C   6.959334642644263  20.216844222039292  18.997022797035232 1
ion C  -7.045083709478139  20.207878643400047  19.002986878414777 1
ion C  -0.045930171472412   8.081009293814786  18.964953019907416 1
ion C  13.966801559146447   8.083248509846328  18.932626625584202 1
ion C   2.289035957805686  20.210857205575163  19.007858030508491 1
ion C  -4.711590728388570  16.165542363124271  18.993999310093770 1
ion C   2.284424774161561  12.120852343017601  18.934017660795067 1
ion C  -2.378692626493680  12.123113314048563  18.979505319440278 1
ion C  -2.377957708025320  20.207858007650120  19.009731324834252 1
ion C   4.618087326263202  16.167375057491547  18.948993998103916 1
ion C  -0.047314984314006  16.165686654987486  18.986562999153609 1
ion C  13.962088271033611  21.557151454541312  18.992851764760509 1
ion C   2.289472366323620   1.344405206270262  18.993642510602069 1
ion C  25.629585579660116   1.346019484742202  18.999540840229280 1
ion C  16.296594747044360  17.514954531364651  18.974678165518462 1
ion C   4.619293893248512   5.386036185447165  18.949094928148895 1
ion C  20.961765458609189   1.345986042826211  19.009507235125547 1
ion C   6.955709771327852   1.340297411541919  18.998443207623705 1
ion C  11.633819688088707  17.517339684334480  18.955434077282352 1
ion C  23.295194180998795   5.388226602576820  18.993830763811044 1
ion C  18.629500879486152  13.472409544805302  18.971634797720810 1
ion C   6.950926012280193   9.428483229531444  18.859922287187132 1
ion C  16.294104143414248   1.344168526492362  19.012109799739960 1
ion C  11.626222901881388   1.339162681095249  19.007307057486823 1
ion C   9.296302161707903  13.469238911524476  18.862739014622367 1
ion C  20.962690255898163   9.429886445394770  18.985977706017351 1
ion C   9.294617860987307  21.560010450943107  18.999605900991366 1
ion C  -9.378142221550620  21.555095119043926  19.001369388542358 1
ion C  -0.045116246702255   5.386808121465748  18.976700643536386 1
ion C  13.964531340891208  13.473287020424721  18.923426273339441 1
ion C   9.289876110251114   5.382009866928257  18.940176719908280 1
ion C  18.630093087854817   5.387877691735093  18.997275662671502 1
ion C  16.298926758518398   9.431723867104051  18.957358216214605 1
ion C  11.632785833522174   9.433377565322091  18.877300407112145 1
ion C  13.965072260995367   5.385315117522326  18.969594446647370 1
ion C   4.622948978571074  21.559297350373470  19.009058674452639 1
ion C  -7.044289882765842  17.513607853317378  18.993993783540862 1
ion C   2.286223154503827   9.427463516521625  18.934107634946120 1
ion C  -2.378031405726318   9.429031408224711  18.976793772978198 1
ion C  -4.711787716733499  21.554487787728895  19.010705465980887 1
ion C   6.958669857276497  17.518976835428884  18.958998042315113 1
ion C  -0.044895498693050  21.555365263759768  19.014736403391055 1
ion C  -4.711503868613189  13.471641200561878  18.987445114920988 1
ion C   4.618574078828560  13.467414468144399  18.901048865946052 1
ion C   2.283362232820791  17.516501121755400  18.987506208487286 1
ion C  -2.379298957838053  17.513736944651267  19.000493049595669 1
ion C  -0.046646104042781  13.470075791393731  18.968784121788747 1
ion S  10.229816937479892  11.971655633491064  26.337690902544910 1
ion S   6.530837112060447  10.646637398013551  26.262485506899239 1
ion Na   9.816470151725399   7.481344634233367  23.947249914760658 1
ion Na   7.065622867681638  15.168080324279806  23.915688715684158 1

# Forces in Cartesian coordinates:
force C   0.000249336911621  -0.000168609237202   0.000100909450028 1
force C   0.000265332235711  -0.000084445748160   0.000055980215556 1
force C   0.000243725028160   0.000097212238971  -0.000056732487509 1
force C   0.000162122887559  -0.000137243779459   0.000043811808577 1
force C   0.000232095567282  -0.000187662341781  -0.000119765435848 1
force C  -0.000267563117828  -0.000296391178118   0.000106557167591 1
force C   0.000155347981841   0.000161380334956   0.000151454145150 1
force C   0.000192470482877   0.000204121986874   0.000153659866428 1
force C   0.000601633139865  -0.000204105606925  -0.000147295684043 1
force C  -0.000379513267139  -0.000231097270731   0.000127091238519 1
force C   0.000063286822204   0.000273008301223   0.000105203115583 1
force C  -0.001720367295737   0.000750894563526  -0.003746508283694 1
force C   0.000004538055117   0.000250336975215   0.000025591525172 1
force C  -0.000068248824813   0.000229649670605   0.000101119418656 1
force C  -0.000323599225224   0.000361393235620  -0.002032285578632 1
force C  -0.000385476098161  -0.000082324845496   0.000044314167703 1
force C   0.000033164330434   0.000069119070343  -0.000061368814697 1
force C   0.002231894422449   0.001139640135246  -0.000807478617055 1
force C   0.000004688787588   0.000126645689146   0.000070125827201 1
force C   0.000033525882341  -0.000021200608124  -0.000063697664416 1
force C   0.000749226361083  -0.001880025943415  -0.004334463304913 1
force C  -0.000741018381075   0.000286109378960  -0.000049229611794 1
force C  -0.001746010661315   0.001264518370029  -0.001403085418645 1
force C  -0.000987991900437  -0.001046432066891  -0.000547828037739 1
force C  -0.000193676075396   0.000053240437690  -0.000096304969959 1
force C  -0.000263185132129  -0.002583652381262  -0.000334377329080 1
force C   0.000089325722983  -0.000091186824479   0.000054580219597 1
force C   0.000043412366795  -0.000150640411008  -0.000033697071200 1
force C  -0.001232021839587  -0.000504622254473  -0.000779403484349 1
force C  -0.000088290671417  -0.000383775681036   0.000056583231427 1
force C  -0.000146606115803   0.000293643956448   0.000097284221982 1
force C   0.001153858306029   0.000641906098686  -0.000282867005258 1
force C  -0.000205789288250   0.000153323984088  -0.000033547290103 1
force C  -0.000159825558478   0.000040682229290   0.000159956791653 1
force C   0.001223594957097   0.000315069951723  -0.003675023629102 1
force C   0.000147195955676   0.000112092356244   0.000058394765862 1
force C  -0.000304805458475   0.000363031027581   0.000114357910745 1
force C  -0.000089856344399  -0.000023612252879   0.000094864994675 1
force C  -0.000278093352994   0.000024562781851  -0.000079390813176 1
force C  -0.000071541200477  -0.000153710465208   0.000077967515857 1
force C   0.000569560034256  -0.000238253146711   0.000040729565970 1
force C   0.000154085314597   0.000109884015616  -0.000032633151137 1
force C   0.000140901241020   0.000788228524075  -0.000050644735023 1
force C  -0.001947722217075  -0.000784671273788  -0.000358269379120 1
force C   0.000031860579573  -0.000461880839211   0.000041446464562 1
force C   0.000034908146724  -0.000030789679258   0.000074471118301 1
force C   0.001984220053828  -0.000430031344752  -0.001382351950066 1
force C   0.000279546466309   0.000188946389435   0.000072038854322 1
force C   0.000068409929065   0.001344017186466  -0.000119635113439 1
force C  -0.000355086961469   0.001386943104812  -0.002325148286323 1
force C   0.000122619837325  -0.000122483616386   0.000024756114915 1
force C  -0.000180059756777  -0.000250465711744  -0.000040335887657 1
force C  -0.000295356439647   0.000134569419649  -0.000010191894625 1
force C  -0.000233134920608  -0.000106758463785   0.000018870318169 1
force C   0.000077749231780   0.000370579713751   0.000018259543186 1
force C   0.000673040758716   0.000902297533925  -0.004279673315763 1
force C   0.000013710338309  -0.000200772148619  -0.000096753375535 1
force C  -0.000450630185486  -0.000568147364448  -0.000143126967400 1
force C  -0.001158711686748  -0.001489487735161  -0.002631260240752 1
force C  -0.000940311992714   0.000428479512815  -0.000375334997000 1
force C   0.000529132776918  -0.000253579436254   0.000213652462807 1
force C  -0.000051232683772  -0.000101266610621  -0.000077431556080 1
force C  -0.000069135550186  -0.000056722963316  -0.000103443414230 1
force C  -0.000137288891938  -0.000079614168260   0.000126412615185 1
force C   0.000043064262603  -0.000040624390494   0.000008033670906 1
force C  -0.000040430786597  -0.000863319163330  -0.004232039095807 1
force C   0.000452406774866   0.000255135009292   0.000056559339294 1
force C   0.000145049841275  -0.000217179350483  -0.000070003558367 1
force C   0.000248248760671   0.001906617232725  -0.002728886606303 1
force C   0.002039910424914  -0.000984246959880  -0.000236313877138 1
force C   0.000021632945197  -0.000275609756415  -0.000087921798374 1
force C   0.000078457181591   0.000443990910109   0.000094532199566 1
force S  -0.002262144493764  -0.000775986387670   0.011139356058784 1
force S   0.001881225380524   0.000678270769859   0.011032277456590 1
force Na   0.006246983926186  -0.017886963041626   0.005186023954635 1
force Na  -0.006041758543004   0.018213298877218   0.007807555516904 1

# Energy components:
   A_diel =       -0.1923180578549919
   Eewald =     4741.3640303782613046
       EH =     5152.7514751797389181
     Eloc =   -10452.4936199868225231
      Enl =      -82.3773799784630540
     EvdW =       -0.1104071234680654
      Exc =     -153.6058050168902582
 Exc_core =        5.9601295527952001
       KE =      261.3552349396068166
-------------------------------------
     Etot =     -527.3486601130958888
       TS =        0.0747383829126239
-------------------------------------
        F =     -527.4233984960085309

IonicMinimize: Iter:   0  F: -527.423398496008531  |grad|_K:  2.342e-03  alpha:  1.000e+00

#--- Lowdin population analysis ---
# oxidation-state C +0.033 +0.033 +0.033 +0.033 +0.033 +0.032 +0.033 +0.033 +0.032 +0.033 +0.032 +0.026 +0.033 +0.033 +0.024 +0.032 +0.033 +0.031 +0.033 +0.033 +0.017 +0.033 +0.030 +0.032 +0.033 +0.032 +0.033 +0.033 +0.030 +0.032 +0.033 +0.032 +0.033 +0.032 +0.027 +0.032 +0.033 +0.033 +0.033 +0.033 +0.032 +0.032 +0.032 +0.032 +0.033 +0.033 +0.031 +0.032 +0.032 +0.023 +0.033 +0.032 +0.033 +0.033 +0.032 +0.028 +0.033 +0.032 +0.028 +0.030 +0.032 +0.033 +0.033 +0.033 +0.033 +0.025 +0.033 +0.033 +0.028 +0.032 +0.033 +0.032
# oxidation-state S -0.479 -0.479
# oxidation-state Na +0.890 +0.890


Computing DFT-D3 correction:
# coordination-number C 3.301 3.301 3.301 3.301 3.301 3.303 3.301 3.301 3.318 3.301 3.301 3.689 3.301 3.301 3.511 3.301 3.304 3.343 3.301 3.302 3.995 3.302 3.392 3.333 3.301 3.322 3.301 3.302 3.359 3.302 3.301 3.311 3.301 3.301 3.650 3.302 3.301 3.301 3.301 3.301 3.311 3.300 3.303 3.320 3.301 3.301 3.432 3.301 3.304 3.565 3.301 3.303 3.301 3.301 3.305 3.768 3.301 3.303 3.589 3.335 3.303 3.301 3.304 3.301 3.301 3.744 3.301 3.301 3.536 3.316 3.301 3.302
# coordination-number S 2.913 2.909
# coordination-number Na 3.923 4.027
# diagonal-C6 C 24.28 24.27 24.27 24.28 24.27 24.25 24.27 24.27 24.10 24.28 24.27 19.39 24.27 24.27 21.47 24.28 24.25 23.83 24.27 24.26 18.33 24.27 23.22 23.94 24.27 24.06 24.28 24.27 23.64 24.26 24.27 24.17 24.27 24.28 19.74 24.26 24.27 24.27 24.28 24.27 24.17 24.28 24.25 24.09 24.27 24.27 22.65 24.28 24.24 20.72 24.27 24.25 24.27 24.27 24.24 18.90 24.28 24.25 20.40 23.92 24.26 24.27 24.25 24.27 24.28 19.02 24.27 24.27 21.12 24.13 24.27 24.26
# diagonal-C6 S 125.81 125.81
# diagonal-C6 Na 186.11 186.11
EvdW_6 =   -0.060046
EvdW_8 =   -0.050387

-------- Electronic minimization -----------
Will mix electronic density at each iteration.
	FillingsUpdate:  mu: -0.104875231  nElectrons: 318.000000
	Linear fluid (dielectric constant: 64) occupying 0.891285 of unit cell:	Completed after 20 iterations at t[s]:    246.05
	FillingsUpdate:  mu: -0.104099126  nElectrons: 318.000000
	Linear fluid (dielectric constant: 64) occupying 0.891222 of unit cell:	Completed after 23 iterations at t[s]:    249.91
SCF: Cycle:  0   F: -527.422270086800154   dF: -1.381e-02   |Residual|: 5.731e-02   |deigs|: 1.999e-04  t[s]:    250.07
	Linear fluid (dielectric constant: 64) occupying 0.891329 of unit cell:	Completed after 22 iterations at t[s]:    250.45
	FillingsUpdate:  mu: -0.104615708  nElectrons: 318.000000
	Linear fluid (dielectric constant: 64) occupying 0.891231 of unit cell:	Completed after 23 iterations at t[s]:    253.82
SCF: Cycle:  1   F: -527.424088503463736   dF: -1.818e-03   |Residual|: 2.793e-02   |deigs|: 5.822e-04  t[s]:    253.99
	Linear fluid (dielectric constant: 64) occupying 0.891363 of unit cell:	Completed after 23 iterations at t[s]:    254.36
	FillingsUpdate:  mu: -0.104425823  nElectrons: 318.000000
	Linear fluid (dielectric constant: 64) occupying 0.891243 of unit cell:	Completed after 20 iterations at t[s]:    257.71
SCF: Cycle:  2   F: -527.424263342033214   dF: -1.748e-04   |Residual|: 9.627e-03   |deigs|: 6.489e-04  t[s]:    257.88
	Linear fluid (dielectric constant: 64) occupying 0.891341 of unit cell:	Completed after 20 iterations at t[s]:    258.22
	FillingsUpdate:  mu: -0.104631800  nElectrons: 318.000000
	Linear fluid (dielectric constant: 64) occupying 0.891249 of unit cell:	Completed after 20 iterations at t[s]:    261.13
SCF: Cycle:  3   F: -527.424523225205348   dF: -2.599e-04   |Residual|: 4.142e-03   |deigs|: 3.627e-04  t[s]:    261.29
	Linear fluid (dielectric constant: 64) occupying 0.891291 of unit cell:	Completed after 15 iterations at t[s]:    261.58
	FillingsUpdate:  mu: -0.104689753  nElectrons: 318.000000
	Linear fluid (dielectric constant: 64) occupying 0.891255 of unit cell:	Completed after 15 iterations at t[s]:    264.86
SCF: Cycle:  4   F: -527.424570669651416   dF: -4.744e-05   |Residual|: 2.125e-03   |deigs|: 3.788e-04  t[s]:    265.03
	Linear fluid (dielectric constant: 64) occupying 0.891260 of unit cell:	Completed after 12 iterations at t[s]:    265.29
	FillingsUpdate:  mu: -0.104703765  nElectrons: 318.000000
	Linear fluid (dielectric constant: 64) occupying 0.891257 of unit cell:	Completed after 12 iterations at t[s]:    268.11
SCF: Cycle:  5   F: -527.424595732496414   dF: -2.506e-05   |Residual|: 1.382e-03   |deigs|: 1.983e-04  t[s]:    268.27
	Linear fluid (dielectric constant: 64) occupying 0.891225 of unit cell:	Completed after 10 iterations at t[s]:    268.51
	FillingsUpdate:  mu: -0.104717426  nElectrons: 318.000000
	Linear fluid (dielectric constant: 64) occupying 0.891257 of unit cell:	Completed after 10 iterations at t[s]:    271.74
SCF: Cycle:  6   F: -527.424610988103950   dF: -1.526e-05   |Residual|: 7.763e-04   |deigs|: 1.610e-04  t[s]:    271.90
	Linear fluid (dielectric constant: 64) occupying 0.891220 of unit cell:	Completed after 10 iterations at t[s]:    272.13
	FillingsUpdate:  mu: -0.104735111  nElectrons: 318.000000
	Linear fluid (dielectric constant: 64) occupying 0.891257 of unit cell:	Completed after 10 iterations at t[s]:    274.93
SCF: Cycle:  7   F: -527.424613487837519   dF: -2.500e-06   |Residual|: 5.651e-04   |deigs|: 9.661e-05  t[s]:    275.09
	Linear fluid (dielectric constant: 64) occupying 0.891221 of unit cell:	Completed after 7 iterations at t[s]:    275.29
	FillingsUpdate:  mu: -0.104756878  nElectrons: 318.000000
	Linear fluid (dielectric constant: 64) occupying 0.891256 of unit cell:	Completed after 5 iterations at t[s]:    278.04
SCF: Cycle:  8   F: -527.424615174742257   dF: -1.687e-06   |Residual|: 4.402e-04   |deigs|: 1.903e-04  t[s]:    278.20
	Linear fluid (dielectric constant: 64) occupying 0.891229 of unit cell:	Completed after 4 iterations at t[s]:    278.35
	FillingsUpdate:  mu: -0.104763245  nElectrons: 318.000000
	Linear fluid (dielectric constant: 64) occupying 0.891255 of unit cell:	Completed after 3 iterations at t[s]:    281.08
SCF: Cycle:  9   F: -527.424616362237884   dF: -1.187e-06   |Residual|: 3.264e-04   |deigs|: 2.002e-04  t[s]:    281.23
	Linear fluid (dielectric constant: 64) occupying 0.891233 of unit cell:	Completed after 4 iterations at t[s]:    281.38
	FillingsUpdate:  mu: -0.104767906  nElectrons: 318.000000
	Linear fluid (dielectric constant: 64) occupying 0.891255 of unit cell:	Completed after 2 iterations at t[s]:    284.09
SCF: Cycle: 10   F: -527.424616695741065   dF: -3.335e-07   |Residual|: 2.528e-04   |deigs|: 1.954e-04  t[s]:    284.24
	Linear fluid (dielectric constant: 64) occupying 0.891237 of unit cell:	Completed after 3 iterations at t[s]:    284.38
	FillingsUpdate:  mu: -0.104785705  nElectrons: 318.000000
	Linear fluid (dielectric constant: 64) occupying 0.891256 of unit cell:	Completed after 3 iterations at t[s]:    287.10
SCF: Cycle: 11   F: -527.424616776668699   dF: -8.093e-08   |Residual|: 2.318e-04   |deigs|: 2.866e-04  t[s]:    287.25
	Linear fluid (dielectric constant: 64) occupying 0.891239 of unit cell:	Completed after 1 iterations at t[s]:    287.37
	FillingsUpdate:  mu: -0.104788228  nElectrons: 318.000000
	Linear fluid (dielectric constant: 64) occupying 0.891256 of unit cell:	Completed after 3 iterations at t[s]:    290.51
SCF: Cycle: 12   F: -527.424616895605254   dF: -1.189e-07   |Residual|: 2.437e-04   |deigs|: 1.849e-04  t[s]:    290.67
	Linear fluid (dielectric constant: 64) occupying 0.891240 of unit cell:	Completed after 1 iterations at t[s]:    290.79
	FillingsUpdate:  mu: -0.104804788  nElectrons: 318.000000
	Linear fluid (dielectric constant: 64) occupying 0.891257 of unit cell:	Completed after 4 iterations at t[s]:    293.51
SCF: Cycle: 13   F: -527.424616087567415   dF: +8.080e-07   |Residual|: 4.191e-04   |deigs|: 1.839e-04  t[s]:    293.67
	Linear fluid (dielectric constant: 64) occupying 0.891243 of unit cell:	Completed after 3 iterations at t[s]:    293.81
	FillingsUpdate:  mu: -0.104779029  nElectrons: 318.000000
	Linear fluid (dielectric constant: 64) occupying 0.891256 of unit cell:	Completed after 4 iterations at t[s]:    296.54
SCF: Cycle: 14   F: -527.424616403410823   dF: -3.158e-07   |Residual|: 3.399e-04   |deigs|: 2.554e-04  t[s]:    296.70
	Linear fluid (dielectric constant: 64) occupying 0.891247 of unit cell:	Completed after 2 iterations at t[s]:    296.83
	FillingsUpdate:  mu: -0.104806329  nElectrons: 318.000000
	Linear fluid (dielectric constant: 64) occupying 0.891257 of unit cell:	Completed after 5 iterations at t[s]:    299.56
SCF: Cycle: 15   F: -527.424615783496620   dF: +6.199e-07   |Residual|: 4.643e-04   |deigs|: 1.908e-04  t[s]:    299.72
	Linear fluid (dielectric constant: 64) occupying 0.891252 of unit cell:	Completed after 3 iterations at t[s]:    299.86
	FillingsUpdate:  mu: -0.104788260  nElectrons: 318.000000
	Linear fluid (dielectric constant: 64) occupying 0.891258 of unit cell:	Completed after 3 iterations at t[s]:    302.58
SCF: Cycle: 16   F: -527.424616502492086   dF: -7.190e-07   |Residual|: 3.229e-04   |deigs|: 1.619e-04  t[s]:    302.73
	Linear fluid (dielectric constant: 64) occupying 0.891257 of unit cell:	Completed after 3 iterations at t[s]:    302.87
	FillingsUpdate:  mu: -0.104808819  nElectrons: 318.000000
	Linear fluid (dielectric constant: 64) occupying 0.891259 of unit cell:	Completed after 4 iterations at t[s]:    305.60
SCF: Cycle: 17   F: -527.424616102453228   dF: +4.000e-07   |Residual|: 4.116e-04   |deigs|: 2.108e-04  t[s]:    305.76
	Linear fluid (dielectric constant: 64) occupying 0.891259 of unit cell:	Completed after 4 iterations at t[s]:    305.92
	FillingsUpdate:  mu: -0.104794721  nElectrons: 318.000000
	Linear fluid (dielectric constant: 64) occupying 0.891259 of unit cell:	Completed after 2 iterations at t[s]:    308.62
SCF: Cycle: 18   F: -527.424617002446212   dF: -9.000e-07   |Residual|: 1.640e-04   |deigs|: 1.538e-04  t[s]:    308.77
	Linear fluid (dielectric constant: 64) occupying 0.891259 of unit cell:	Completed after 1 iterations at t[s]:    308.89
	FillingsUpdate:  mu: -0.104812192  nElectrons: 318.000000
	Linear fluid (dielectric constant: 64) occupying 0.891260 of unit cell:	Completed after 3 iterations at t[s]:    311.58
SCF: Cycle: 19   F: -527.424616522342262   dF: +4.801e-07   |Residual|: 3.267e-04   |deigs|: 6.306e-05  t[s]:    311.74
	Linear fluid (dielectric constant: 64) occupying 0.891260 of unit cell:	Completed after 3 iterations at t[s]:    311.87
	FillingsUpdate:  mu: -0.104790855  nElectrons: 318.000000
	Linear fluid (dielectric constant: 64) occupying 0.891259 of unit cell:	Completed after 4 iterations at t[s]:    314.60
SCF: Cycle: 20   F: -527.424616694838619   dF: -1.725e-07   |Residual|: 2.401e-04   |deigs|: 1.422e-04  t[s]:    314.76
	Linear fluid (dielectric constant: 64) occupying 0.891260 of unit cell:	Completed after 2 iterations at t[s]:    314.89
	FillingsUpdate:  mu: -0.104814200  nElectrons: 318.000000
	Linear fluid (dielectric constant: 64) occupying 0.891259 of unit cell:	Completed after 4 iterations at t[s]:    317.62
SCF: Cycle: 21   F: -527.424616343119055   dF: +3.517e-07   |Residual|: 3.685e-04   |deigs|: 9.346e-05  t[s]:    317.78
	Linear fluid (dielectric constant: 64) occupying 0.891260 of unit cell:	Completed after 3 iterations at t[s]:    317.91
	FillingsUpdate:  mu: -0.104792992  nElectrons: 318.000000
	Linear fluid (dielectric constant: 64) occupying 0.891259 of unit cell:	Completed after 2 iterations at t[s]:    320.61
SCF: Cycle: 22   F: -527.424617046070694   dF: -7.030e-07   |Residual|: 1.394e-04   |deigs|: 4.511e-05  t[s]:    320.75
	Linear fluid (dielectric constant: 64) occupying 0.891259 of unit cell:	Completed after 0 iterations at t[s]:    320.86
	FillingsUpdate:  mu: -0.104821816  nElectrons: 318.000000
	Linear fluid (dielectric constant: 64) occupying 0.891260 of unit cell:	Completed after 5 iterations at t[s]:    323.58
SCF: Cycle: 23   F: -527.424615384140225   dF: +1.662e-06   |Residual|: 4.959e-04   |deigs|: 1.056e-04  t[s]:    323.75
	Linear fluid (dielectric constant: 64) occupying 0.891259 of unit cell:	Completed after 3 iterations at t[s]:    323.89
	FillingsUpdate:  mu: -0.104795820  nElectrons: 318.000000
	Linear fluid (dielectric constant: 64) occupying 0.891260 of unit cell:	Completed after 4 iterations at t[s]:    326.03
SCF: Cycle: 24   F: -527.424616690534890   dF: -1.306e-06   |Residual|: 2.493e-04   |deigs|: 6.510e-05  t[s]:    326.19
	Linear fluid (dielectric constant: 64) occupying 0.891259 of unit cell:	Completed after 2 iterations at t[s]:    326.32
	FillingsUpdate:  mu: -0.104814704  nElectrons: 318.000000
	Linear fluid (dielectric constant: 64) occupying 0.891259 of unit cell:	Completed after 4 iterations at t[s]:    328.48
SCF: Cycle: 25   F: -527.424616526020031   dF: +1.645e-07   |Residual|: 3.089e-04   |deigs|: 3.607e-05  t[s]:    328.64
	Linear fluid (dielectric constant: 64) occupying 0.891259 of unit cell:	Completed after 2 iterations at t[s]:    328.77
	FillingsUpdate:  mu: -0.104797184  nElectrons: 318.000000
	Linear fluid (dielectric constant: 64) occupying 0.891259 of unit cell:	Completed after 4 iterations at t[s]:    331.47
SCF: Cycle: 26   F: -527.424616646879485   dF: -1.209e-07   |Residual|: 2.703e-04   |deigs|: 3.376e-05  t[s]:    331.63
	Linear fluid (dielectric constant: 64) occupying 0.891259 of unit cell:	Completed after 2 iterations at t[s]:    331.76
	FillingsUpdate:  mu: -0.104812697  nElectrons: 318.000000
	Linear fluid (dielectric constant: 64) occupying 0.891259 of unit cell:	Completed after 4 iterations at t[s]:    334.46
SCF: Cycle: 27   F: -527.424616637155054   dF: +9.724e-09   |Residual|: 2.827e-04   |deigs|: 2.785e-05  t[s]:    334.62
	Linear fluid (dielectric constant: 64) occupying 0.891259 of unit cell:	Completed after 2 iterations at t[s]:    334.75
	FillingsUpdate:  mu: -0.104797587  nElectrons: 318.000000
	Linear fluid (dielectric constant: 64) occupying 0.891259 of unit cell:	Completed after 2 iterations at t[s]:    337.74
SCF: Cycle: 28   F: -527.424616921976394   dF: -2.848e-07   |Residual|: 2.049e-04   |deigs|: 3.014e-05  t[s]:    337.89
	Linear fluid (dielectric constant: 64) occupying 0.891259 of unit cell:	Completed after 2 iterations at t[s]:    338.01
	FillingsUpdate:  mu: -0.104817449  nElectrons: 318.000000
	Linear fluid (dielectric constant: 64) occupying 0.891259 of unit cell:	Completed after 4 iterations at t[s]:    340.73
SCF: Cycle: 29   F: -527.424616297809280   dF: +6.242e-07   |Residual|: 3.510e-04   |deigs|: 5.188e-05  t[s]:    340.88
	Linear fluid (dielectric constant: 64) occupying 0.891259 of unit cell:	Completed after 2 iterations at t[s]:    341.01
	FillingsUpdate:  mu: -0.104796099  nElectrons: 318.000000
	Linear fluid (dielectric constant: 64) occupying 0.891259 of unit cell:	Completed after 4 iterations at t[s]:    343.15
SCF: Cycle: 30   F: -527.424616541408341   dF: -2.436e-07   |Residual|: 2.890e-04   |deigs|: 2.373e-05  t[s]:    343.31
	Linear fluid (dielectric constant: 64) occupying 0.891259 of unit cell:	Completed after 2 iterations at t[s]:    343.44
	FillingsUpdate:  mu: -0.104812812  nElectrons: 318.000000
	Linear fluid (dielectric constant: 64) occupying 0.891259 of unit cell:	Completed after 4 iterations at t[s]:    346.14
SCF: Cycle: 31   F: -527.424616653672160   dF: -1.123e-07   |Residual|: 2.802e-04   |deigs|: 2.345e-05  t[s]:    346.30
	Linear fluid (dielectric constant: 64) occupying 0.891259 of unit cell:	Completed after 2 iterations at t[s]:    346.42
	FillingsUpdate:  mu: -0.104796179  nElectrons: 318.000000
	Linear fluid (dielectric constant: 64) occupying 0.891259 of unit cell:	Completed after 2 iterations at t[s]:    348.56
SCF: Cycle: 32   F: -527.424616944066088   dF: -2.904e-07   |Residual|: 1.915e-04   |deigs|: 1.932e-05  t[s]:    348.71
	Linear fluid (dielectric constant: 64) occupying 0.891259 of unit cell:	Completed after 2 iterations at t[s]:    348.83
	FillingsUpdate:  mu: -0.104815915  nElectrons: 318.000000
	Linear fluid (dielectric constant: 64) occupying 0.891260 of unit cell:	Completed after 4 iterations at t[s]:    350.97
SCF: Cycle: 33   F: -527.424616153540683   dF: +7.905e-07   |Residual|: 3.789e-04   |deigs|: 2.127e-05  t[s]:    351.13
	Linear fluid (dielectric constant: 64) occupying 0.891259 of unit cell:	Completed after 2 iterations at t[s]:    351.26
	FillingsUpdate:  mu: -0.104794364  nElectrons: 318.000000
	Linear fluid (dielectric constant: 64) occupying 0.891259 of unit cell:	Completed after 4 iterations at t[s]:    353.40
SCF: Cycle: 34   F: -527.424616423648104   dF: -2.701e-07   |Residual|: 3.122e-04   |deigs|: 3.079e-05  t[s]:    353.56
	Linear fluid (dielectric constant: 64) occupying 0.891259 of unit cell:	Completed after 2 iterations at t[s]:    353.69
	FillingsUpdate:  mu: -0.104814115  nElectrons: 318.000000
	Linear fluid (dielectric constant: 64) occupying 0.891259 of unit cell:	Completed after 4 iterations at t[s]:    355.84
SCF: Cycle: 35   F: -527.424616578254359   dF: -1.546e-07   |Residual|: 2.981e-04   |deigs|: 3.575e-05  t[s]:    356.00
	Linear fluid (dielectric constant: 64) occupying 0.891259 of unit cell:	Completed after 2 iterations at t[s]:    356.13
	FillingsUpdate:  mu: -0.104796983  nElectrons: 318.000000
	Linear fluid (dielectric constant: 64) occupying 0.891259 of unit cell:	Completed after 2 iterations at t[s]:    358.82
SCF: Cycle: 36   F: -527.424616995079532   dF: -4.168e-07   |Residual|: 1.645e-04   |deigs|: 3.354e-05  t[s]:    358.96
	Linear fluid (dielectric constant: 64) occupying 0.891259 of unit cell:	Completed after 2 iterations at t[s]:    359.09
	FillingsUpdate:  mu: -0.104814956  nElectrons: 318.000000
	Linear fluid (dielectric constant: 64) occupying 0.891259 of unit cell:	Completed after 4 iterations at t[s]:    361.25
SCF: Cycle: 37   F: -527.424616386955222   dF: +6.081e-07   |Residual|: 3.336e-04   |deigs|: 1.797e-05  t[s]:    361.40
	Linear fluid (dielectric constant: 64) occupying 0.891259 of unit cell:	Completed after 2 iterations at t[s]:    361.53
	FillingsUpdate:  mu: -0.104794980  nElectrons: 318.000000
	Linear fluid (dielectric constant: 64) occupying 0.891259 of unit cell:	Completed after 3 iterations at t[s]:    363.67
SCF: Cycle: 38   F: -527.424616634510357   dF: -2.476e-07   |Residual|: 2.727e-04   |deigs|: 3.120e-05  t[s]:    363.83
	Linear fluid (dielectric constant: 64) occupying 0.891259 of unit cell:	Completed after 3 iterations at t[s]:    363.97
	FillingsUpdate:  mu: -0.104812870  nElectrons: 318.000000
	Linear fluid (dielectric constant: 64) occupying 0.891259 of unit cell:	Completed after 2 iterations at t[s]:    366.67
SCF: Cycle: 39   F: -527.424616928836599   dF: -2.943e-07   |Residual|: 2.060e-04   |deigs|: 3.361e-05  t[s]:    366.81
	Linear fluid (dielectric constant: 64) occupying 0.891259 of unit cell:	Completed after 2 iterations at t[s]:    366.94
	FillingsUpdate:  mu: -0.104793493  nElectrons: 318.000000
	Linear fluid (dielectric constant: 64) occupying 0.891259 of unit cell:	Completed after 4 iterations at t[s]:    369.10
SCF: Cycle: 40   F: -527.424616367093563   dF: +5.617e-07   |Residual|: 3.231e-04   |deigs|: 1.940e-05  t[s]:    369.26
	Linear fluid (dielectric constant: 64) occupying 0.891259 of unit cell:	Completed after 2 iterations at t[s]:    369.38
	FillingsUpdate:  mu: -0.104816272  nElectrons: 318.000000
	Linear fluid (dielectric constant: 64) occupying 0.891259 of unit cell:	Completed after 4 iterations at t[s]:    371.53
SCF: Cycle: 41   F: -527.424616317627965   dF: +4.947e-08   |Residual|: 3.525e-04   |deigs|: 2.722e-05  t[s]:    371.68
	Linear fluid (dielectric constant: 64) occupying 0.891259 of unit cell:	Completed after 2 iterations at t[s]:    371.81
	FillingsUpdate:  mu: -0.104796105  nElectrons: 318.000000
	Linear fluid (dielectric constant: 64) occupying 0.891259 of unit cell:	Completed after 3 iterations at t[s]:    374.50
SCF: Cycle: 42   F: -527.424616845581113   dF: -5.280e-07   |Residual|: 2.155e-04   |deigs|: 2.554e-05  t[s]:    374.65
	Linear fluid (dielectric constant: 64) occupying 0.891259 of unit cell:	Completed after 2 iterations at t[s]:    374.78
	FillingsUpdate:  mu: -0.104809723  nElectrons: 318.000000
	Linear fluid (dielectric constant: 64) occupying 0.891259 of unit cell:	Completed after 3 iterations at t[s]:    376.92
SCF: Cycle: 43   F: -527.424616845714581   dF: -1.335e-10   |Residual|: 2.257e-04   |deigs|: 2.383e-05  t[s]:    377.07
	Linear fluid (dielectric constant: 64) occupying 0.891259 of unit cell:	Completed after 3 iterations at t[s]:    377.20
	FillingsUpdate:  mu: -0.104795107  nElectrons: 318.000000
	Linear fluid (dielectric constant: 64) occupying 0.891259 of unit cell:	Completed after 2 iterations at t[s]:    380.34
SCF: Cycle: 44   F: -527.424616904542177   dF: -5.883e-08   |Residual|: 2.045e-04   |deigs|: 1.598e-05  t[s]:    380.48
	Linear fluid (dielectric constant: 64) occupying 0.891259 of unit cell:	Completed after 2 iterations at t[s]:    380.61
	FillingsUpdate:  mu: -0.104815897  nElectrons: 318.000000
	Linear fluid (dielectric constant: 64) occupying 0.891260 of unit cell:	Completed after 4 iterations at t[s]:    382.76
SCF: Cycle: 45   F: -527.424616273427205   dF: +6.311e-07   |Residual|: 3.527e-04   |deigs|: 2.001e-05  t[s]:    382.92
	Linear fluid (dielectric constant: 64) occupying 0.891259 of unit cell:	Completed after 2 iterations at t[s]:    383.04
	FillingsUpdate:  mu: -0.104794707  nElectrons: 318.000000
	Linear fluid (dielectric constant: 64) occupying 0.891259 of unit cell:	Completed after 3 iterations at t[s]:    385.18
SCF: Cycle: 46   F: -527.424616643400213   dF: -3.700e-07   |Residual|: 2.725e-04   |deigs|: 2.491e-05  t[s]:    385.33
	Linear fluid (dielectric constant: 64) occupying 0.891259 of unit cell:	Completed after 2 iterations at t[s]:    385.46
	FillingsUpdate:  mu: -0.104811002  nElectrons: 318.000000
	Linear fluid (dielectric constant: 64) occupying 0.891259 of unit cell:	Completed after 3 iterations at t[s]:    387.60
SCF: Cycle: 47   F: -527.424616819978269   dF: -1.766e-07   |Residual|: 2.352e-04   |deigs|: 2.415e-05  t[s]:    387.75
	Linear fluid (dielectric constant: 64) occupying 0.891259 of unit cell:	Completed after 2 iterations at t[s]:    387.87
	FillingsUpdate:  mu: -0.104795326  nElectrons: 318.000000
	Linear fluid (dielectric constant: 64) occupying 0.891259 of unit cell:	Completed after 4 iterations at t[s]:    390.01
SCF: Cycle: 48   F: -527.424616414841580   dF: +4.051e-07   |Residual|: 3.162e-04   |deigs|: 2.008e-05  t[s]:    390.17
	Linear fluid (dielectric constant: 64) occupying 0.891259 of unit cell:	Completed after 2 iterations at t[s]:    390.29
	FillingsUpdate:  mu: -0.104816059  nElectrons: 318.000000
	Linear fluid (dielectric constant: 64) occupying 0.891259 of unit cell:	Completed after 3 iterations at t[s]:    392.44
[...]
	Linear fluid (dielectric constant: 64) occupying 0.889620 of unit cell:	Completed after 2 iterations at t[s]:  14626.73
	FillingsUpdate:  mu: -0.101938331  nElectrons: 318.000000
	Linear fluid (dielectric constant: 64) occupying 0.889620 of unit cell:	Completed after 4 iterations at t[s]:  14628.88
SCF: Cycle: 20   F: -527.481745168869224   dF: +5.971e-07   |Residual|: 3.612e-04   |deigs|: 1.771e-05  t[s]:  14629.04
	Linear fluid (dielectric constant: 64) occupying 0.889620 of unit cell:	Completed after 3 iterations at t[s]:  14629.18
	FillingsUpdate:  mu: -0.101916221  nElectrons: 318.000000
	Linear fluid (dielectric constant: 64) occupying 0.889620 of unit cell:	Completed after 2 iterations at t[s]:  14631.33
SCF: Cycle: 21   F: -527.481745785280282   dF: -6.164e-07   |Residual|: 1.829e-04   |deigs|: 1.747e-05  t[s]:  14631.48
	Linear fluid (dielectric constant: 64) occupying 0.889620 of unit cell:	Completed after 2 iterations at t[s]:  14631.61
	FillingsUpdate:  mu: -0.101938261  nElectrons: 318.000000
	Linear fluid (dielectric constant: 64) occupying 0.889620 of unit cell:	Completed after 4 iterations at t[s]:  14633.77
SCF: Cycle: 22   F: -527.481745195664189   dF: +5.896e-07   |Residual|: 3.547e-04   |deigs|: 1.730e-05  t[s]:  14633.93
	Linear fluid (dielectric constant: 64) occupying 0.889620 of unit cell:	Completed after 3 iterations at t[s]:  14634.07
	FillingsUpdate:  mu: -0.101916280  nElectrons: 318.000000
	Linear fluid (dielectric constant: 64) occupying 0.889620 of unit cell:	Completed after 2 iterations at t[s]:  14636.20
SCF: Cycle: 23   F: -527.481745788101421   dF: -5.924e-07   |Residual|: 1.816e-04   |deigs|: 1.723e-05  t[s]:  14636.35
	Linear fluid (dielectric constant: 64) occupying 0.889620 of unit cell:	Completed after 2 iterations at t[s]:  14636.48
	FillingsUpdate:  mu: -0.101937593  nElectrons: 318.000000
	Linear fluid (dielectric constant: 64) occupying 0.889620 of unit cell:	Completed after 4 iterations at t[s]:  14638.63
SCF: Cycle: 24   F: -527.481745249010260   dF: +5.391e-07   |Residual|: 3.436e-04   |deigs|: 1.688e-05  t[s]:  14638.79
	Linear fluid (dielectric constant: 64) occupying 0.889620 of unit cell:	Completed after 3 iterations at t[s]:  14638.93
	FillingsUpdate:  mu: -0.101916770  nElectrons: 318.000000
	Linear fluid (dielectric constant: 64) occupying 0.889620 of unit cell:	Completed after 2 iterations at t[s]:  14641.06
SCF: Cycle: 25   F: -527.481745819933280   dF: -5.709e-07   |Residual|: 1.680e-04   |deigs|: 1.644e-05  t[s]:  14641.21
	Linear fluid (dielectric constant: 64) occupying 0.889620 of unit cell:	Completed after 0 iterations at t[s]:  14641.32
	FillingsUpdate:  mu: -0.101952147  nElectrons: 318.000000
	Linear fluid (dielectric constant: 64) occupying 0.889620 of unit cell:	Completed after 8 iterations at t[s]:  14643.51
SCF: Cycle: 26   F: -527.481741252140750   dF: +4.568e-06   |Residual|: 7.904e-04   |deigs|: 3.018e-05  t[s]:  14643.68
	Linear fluid (dielectric constant: 64) occupying 0.889620 of unit cell:	Completed after 7 iterations at t[s]:  14643.86
	FillingsUpdate:  mu: -0.101930746  nElectrons: 318.000000
	Linear fluid (dielectric constant: 64) occupying 0.889621 of unit cell:	Completed after 0 iterations at t[s]:  14646.01
SCF: Cycle: 27   F: -527.481746069918358   dF: -4.818e-06   |Residual|: 6.679e-05   |deigs|: 2.853e-05  t[s]:  14646.15
	Linear fluid (dielectric constant: 64) occupying 0.889620 of unit cell:	Completed after 0 iterations at t[s]:  14646.25
	FillingsUpdate:  mu: -0.101932226  nElectrons: 318.000000
	Linear fluid (dielectric constant: 64) occupying 0.889620 of unit cell:	Completed after 0 iterations at t[s]:  14648.34
SCF: Cycle: 28   F: -527.481746075415572   dF: -5.497e-09   |Residual|: 5.495e-05   |deigs|: 2.250e-06  t[s]:  14648.47
	Linear fluid (dielectric constant: 64) occupying 0.889620 of unit cell:	Completed after 0 iterations at t[s]:  14648.57
	FillingsUpdate:  mu: -0.101932225  nElectrons: 318.000000
	Linear fluid (dielectric constant: 64) occupying 0.889620 of unit cell:	Completed after 0 iterations at t[s]:  14650.65
SCF: Cycle: 29   F: -527.481746075529372   dF: -1.138e-10   |Residual|: 5.345e-05   |deigs|: 3.259e-07  t[s]:  14650.78
SCF: Converged (|Delta E|<1.000000e-08 for 2 iters).

Setting wave functions to eigenvectors of Hamiltonian
IonicMinimize: 	Wrong curvature in test step, increasing alphaT to 6.545400e-02.

Computing DFT-D3 correction:
# coordination-number C 3.299 3.299 3.300 3.300 3.300 3.301 3.299 3.299 3.302 3.301 3.304 3.312 3.299 3.299 3.306 3.302 3.300 3.311 3.299 3.300 3.315 3.302 3.355 3.303 3.300 3.327 3.299 3.299 3.307 3.307 3.299 3.301 3.299 3.300 3.331 3.301 3.299 3.299 3.299 3.299 3.302 3.300 3.303 3.303 3.299 3.299 3.305 3.301 3.313 3.306 3.299 3.304 3.299 3.299 3.301 3.347 3.300 3.300 3.307 3.317 3.310 3.299 3.300 3.299 3.300 3.352 3.301 3.299 3.307 3.311 3.299 3.300
# coordination-number S 1.132 1.125
# coordination-number Na 0.321 0.308
# diagonal-C6 C 24.29 24.29 24.29 24.28 24.28 24.27 24.29 24.29 24.26 24.27 24.25 24.16 24.29 24.29 24.23 24.26 24.28 24.18 24.29 24.28 24.13 24.26 23.69 24.25 24.29 24.01 24.29 24.29 24.22 24.22 24.29 24.27 24.29 24.29 23.97 24.27 24.29 24.29 24.29 24.29 24.26 24.28 24.25 24.26 24.29 24.29 24.23 24.27 24.15 24.23 24.29 24.24 24.29 24.29 24.27 23.79 24.28 24.28 24.21 24.11 24.19 24.29 24.28 24.29 24.29 23.72 24.28 24.29 24.22 24.18 24.29 24.28
# diagonal-C6 S 130.74 130.75
# diagonal-C6 Na 1159.55 1192.63
EvdW_6 =   -0.063678
EvdW_8 =   -0.054672

-------- Electronic minimization -----------
Will mix electronic density at each iteration.
	FillingsUpdate:  mu: -0.101932225  nElectrons: 318.000000
	Linear fluid (dielectric constant: 64) occupying 0.889620 of unit cell:	Completed after 0 iterations at t[s]:  14653.81
	FillingsUpdate:  mu: -0.101932870  nElectrons: 318.000000
	Linear fluid (dielectric constant: 64) occupying 0.889620 of unit cell:	Completed after 0 iterations at t[s]:  14656.11
SCF: Cycle:  0   F: -527.481746077819253   dF: -2.290e-09   |Residual|: 2.595e-05   |deigs|: 1.141e-08  t[s]:  14656.24
	Linear fluid (dielectric constant: 64) occupying 0.889620 of unit cell:	Completed after 0 iterations at t[s]:  14656.34
	FillingsUpdate:  mu: -0.101932965  nElectrons: 318.000000
	Linear fluid (dielectric constant: 64) occupying 0.889620 of unit cell:	Completed after 0 iterations at t[s]:  14658.43
SCF: Cycle:  1   F: -527.481746078310152   dF: -4.909e-10   |Residual|: 2.279e-05   |deigs|: 2.067e-07  t[s]:  14658.56
SCF: Converged (|Delta E|<1.000000e-08 for 2 iters).

Setting wave functions to eigenvectors of Hamiltonian

Computing DFT-D3 correction:
# coordination-number C 3.299 3.299 3.300 3.300 3.300 3.301 3.299 3.299 3.302 3.301 3.304 3.312 3.299 3.299 3.306 3.302 3.300 3.311 3.299 3.300 3.315 3.302 3.355 3.303 3.300 3.327 3.299 3.299 3.307 3.307 3.299 3.301 3.299 3.300 3.331 3.301 3.299 3.299 3.299 3.299 3.302 3.300 3.303 3.303 3.299 3.299 3.305 3.301 3.313 3.306 3.299 3.304 3.299 3.299 3.301 3.347 3.300 3.300 3.307 3.317 3.310 3.299 3.300 3.299 3.300 3.352 3.301 3.299 3.307 3.311 3.299 3.300
# coordination-number S 1.132 1.125
# coordination-number Na 0.321 0.308
# diagonal-C6 C 24.29 24.29 24.29 24.28 24.28 24.27 24.29 24.29 24.26 24.27 24.25 24.16 24.29 24.29 24.23 24.26 24.28 24.18 24.29 24.28 24.13 24.26 23.69 24.25 24.29 24.01 24.29 24.29 24.22 24.22 24.29 24.27 24.29 24.29 23.97 24.27 24.29 24.29 24.29 24.29 24.26 24.28 24.25 24.26 24.29 24.29 24.23 24.27 24.15 24.23 24.29 24.24 24.29 24.29 24.27 23.79 24.28 24.28 24.21 24.11 24.19 24.29 24.28 24.29 24.29 23.72 24.28 24.29 24.22 24.18 24.29 24.28
# diagonal-C6 S 130.74 130.75
# diagonal-C6 Na 1159.55 1192.63
EvdW_6 =   -0.063678
EvdW_8 =   -0.054672

# Ionic positions in cartesian coordinates:
ion C  27.964305168500534  -0.005193803777294  18.912737505356688 1
ion C  16.295506428737799  20.206359761567072  18.920587120374265 1
ion C   2.293758982539655   4.038080073129687  18.935028414255061 1
ion C  23.296826389026673  -0.006518285448219  18.899837713118064 1
ion C   4.627517623988084  -0.004206097933880  18.916609197565073 1
ion C  11.626973614246719  20.204756397576890  18.919692036131430 1
ion C  25.630842894818862   4.036907818687736  18.912811182096789 1
ion C  18.629155654449789  16.164696449376397  18.925386390450985 1
ion C   4.628845613522531   8.080272905717617  18.957705623354958 1
ion C  18.629078199445111  -0.006431554751074  18.907879096155920 1
ion C   9.295130371762921  -0.003127826711413  18.908785332062518 1
ion C   9.293685364428573  16.161544774365158  18.940575555734316 1
ion C  23.297151728075786   8.079348794897397  18.910699406564522 1
ion C  20.963118590597130  12.122515876031533  18.920382075374850 1
ion C   6.961657528447281  12.121280458520348  18.958732447088774 1
ion C  13.961987454514205  -0.004089008207145  18.918195334210171 1
ion C  13.960749221056533  16.163541753050758  18.950996340827189 1
ion C   6.961390998245624   4.038768323068839  18.934006588356283 1
ion C  20.962502681433008   4.037357917746596  18.903295056699243 1
ion C  16.294369086177745  12.122235600874408  18.951006207584889 1
ion C   9.294226903367589   8.080988017244186  18.958250514927236 1
ion C  16.294471990873564   4.038098398538977  18.925102568570292 1
ion C  11.628068444145345   4.038691816028788  18.921382292802011 1
ion C  11.626846815725552  12.121275313165466  18.964160491960197 1
ion C  18.628423564179741   8.079646709409156  18.927468515862035 1
ion C   6.960230229833991  20.204222685332159  18.905763074871125 1
ion C  -7.042348339999895  20.207313115122709  18.905261414576643 1
ion C  -0.039836864562205   8.079297559411545  18.941351680274163 1
ion C  13.959868748167652   8.080066487240476  18.952799383010859 1
ion C   2.293986342470028  20.205155356791799  18.914529676026341 1
ion C  -4.708036726947257  16.164847980639152  18.907589950443978 1
ion C   2.295196624370147  12.121618358937777  18.950437449977592 1
ion C  -2.373821453510992  12.121974821967115  18.923000060611255 1
ion C  -2.373797593254576  20.206870552149649  18.907882596143715 1
ion C   4.627531578680454  16.162003134756084  18.930590617107914 1
ion C  -0.039545430120024  16.164093580362351  18.923217746293641 1
ion C  13.961025461143974  21.553310189972994  18.917039055491465 1
ion C   2.292913513479257   1.342804406883136  18.921710603010641 1
ion C  25.630555490301919   1.341966916243760  18.905969235263097 1
ion C  16.294781811930328  17.511158251631763  18.934029401702446 1
ion C   4.627909050395723   5.385701901808707  18.945142512936101 1
ion C  20.962700010508161   1.341834645704548  18.900339030571850 1
ion C   6.961088405281178   1.344183191282873  18.916922230247010 1
ion C  11.627066135306087  17.509847881459383  18.939154687010877 1
ion C  23.296874906222527   5.384491866699343  18.904657503528885 1
ion C  18.628854907026742  13.470116827095845  18.931584592268720 1
ion C   6.961571932549658   9.427652057476005  18.960409514617734 1
ion C  16.294923534757718   1.342732823225397  18.917664467288855 1
ion C  11.628507735694654   1.344370463712737  18.914505086184203 1
ion C   9.293365974203313  13.467238607762575  18.956554318992634 1
ion C  20.962948921081118   9.427364257600169  18.916655825351874 1
ion C   9.293344145635588  21.552083202216892  18.905119583026657 1
ion C  -9.375841776571665  21.554652000244836  18.910542780042412 1
ion C  -0.040710719570035   5.384798114627367  18.931422168778237 1
ion C  13.959436073990704  13.468660546711217  18.959661104909600 1
ion C   9.294686962863523   5.386127232046508  18.934782799535906 1
ion C  18.628670576865836   5.384891149849916  18.918044613827099 1
ion C  16.294062601918611   9.426865645708789  18.948430389569864 1
ion C  11.627417816800147   9.427355620872467  18.963027670752037 1
ion C  13.960910043140247   5.385915741660154  18.932346244544803 1
ion C   4.626992265236142  21.552167217582813  18.907284350710007 1
ion C  -7.042315617133296  17.512529352730652  18.909751468177873 1
ion C   2.294772910484800   9.426359340885398  18.955899735237892 1
ion C  -2.373973063408539   9.426808513133523  18.924843255451904 1
ion C  -4.708227502355673  21.555283815129322  18.901993628856445 1
ion C   6.960642941446901  17.509678325536797  18.920740793986838 1
ion C  -0.039865945274537  21.554215667924741  18.914452878739365 1
ion C  -4.708198871580503  13.469990053560966  18.912516833291992 1
ion C   4.629331687046731  13.467902402116675  18.950153726699270 1
ion C   2.294357998569732  17.510090505083195  18.921473315452985 1
ion C  -2.373233613384513  17.511389540503068  18.910429641502343 1
ion C  -0.038976690832649  13.469279199813402  18.932208342690842 1
ion S  10.146715880067806  12.000105110959312  26.422310671789429 1
ion S   6.521213582136800  10.693919310847303  26.360167242707266 1
ion Na  10.790998748369375   4.758744475943047  25.418212453643246 1
ion Na   6.028159227752273  17.987115939873753  25.456387232108142 1

# Forces in Cartesian coordinates:
force C   0.000224296672792  -0.000030212840709   0.000065465128624 1
force C  -0.000047776103696   0.000069346860883  -0.000008917674315 1
force C  -0.000121099775863  -0.000206387735769  -0.000061467839701 1
force C  -0.000176046552072   0.000276756277334   0.000031734397489 1
force C  -0.000242440196982   0.000074291354891  -0.000169176133118 1
force C   0.000236771723636   0.000111439224572   0.000011247641844 1
force C   0.000039226541954   0.000080707286089  -0.000174123271583 1
force C   0.000082769700851   0.000041670135450  -0.000005957039604 1
force C  -0.000136184367151  -0.000077288636516  -0.000266019577694 1
force C  -0.000042314630711   0.000413551734576  -0.000031175672414 1
force C  -0.000219081535483  -0.000266289858406   0.000050436155694 1
force C   0.000067999961801   0.000128964008259  -0.000164782962690 1
force C   0.000034159408394   0.000233665738847   0.000235387919132 1
force C   0.000022947694489  -0.000001046313611  -0.000217332588145 1
force C   0.000033401206106  -0.000258574174193  -0.000279401522699 1
force C  -0.000057329802096  -0.000247326662434  -0.000299092957885 1
force C   0.000040443840211  -0.000114886866182  -0.000307897939343 1
force C  -0.000088406854852  -0.000119079480344  -0.000152836520260 1
force C   0.000087193751727  -0.000221709809349   0.000148729427862 1
force C  -0.000016877300243  -0.000110612714066  -0.000039562874782 1
force C  -0.000083627078940  -0.000224711620696  -0.000567975200100 1
force C   0.000247271632593  -0.000218482834077  -0.000275014980350 1
force C  -0.000021673831055  -0.000075403586557  -0.000094497797206 1
force C   0.000098723971338   0.000007513106838  -0.000214311351863 1
force C   0.000092206542694   0.000215161974271  -0.000054830839384 1
force C   0.000103459032886   0.000210552453482   0.000049635922550 1
force C   0.000207873766212   0.000077262927764  -0.000011969020135 1
force C  -0.000034540514986   0.000206363930033  -0.000269058392452 1
force C   0.000399520765626   0.000182942971282  -0.000225835489815 1
force C  -0.000343130809508   0.000123078967005   0.000001322235083 1
force C   0.000007249326137  -0.000022957690257   0.000160188546264 1
force C  -0.000214421084770  -0.000214902433096  -0.000041563769709 1
force C   0.000037864925798   0.000081345246600  -0.000038190980261 1
force C  -0.000132454993770   0.000039364514998  -0.000044873286477 1
force C   0.000091791563006   0.000080148061543  -0.000309023241840 1
force C  -0.000071571969324  -0.000223090818554  -0.000141380510082 1
force C   0.000067246950969  -0.000036652778387   0.000037515058589 1
force C   0.000073544445468   0.000012693864653  -0.000037089830940 1
force C  -0.000043217758986  -0.000069596454937   0.000134459441243 1
force C   0.000080010004549   0.000205006265713  -0.000057134873064 1
force C  -0.000154569777001   0.000104082628165   0.000121129100329 1
force C   0.000072750168207  -0.000122227094230   0.000134946371139 1
force C   0.000006323202231  -0.000239884239991   0.000212952984740 1
force C  -0.000065388222974   0.000127215517390   0.000083679804774 1
force C  -0.000021057475098  -0.000005311968479   0.000263463151710 1
force C  -0.000038228807968  -0.000337202678710   0.000198623793481 1
force C  -0.000076082037360  -0.000028118980906   0.000019928698722 1
force C   0.000431470075430  -0.000005046539966   0.000021313181650 1
force C   0.000022673799409  -0.000354980643953  -0.000008580393472 1
force C   0.000246804504172   0.000248120217973  -0.000058706780624 1
force C  -0.000026244337534  -0.000097187015267   0.000148959032384 1
force C   0.000184286360163   0.000172272139971   0.000169746285236 1
force C  -0.000270752627318  -0.000106506976984   0.000197739765349 1
force C   0.000056061692568  -0.000152115811650   0.000012412646769 1
force C   0.000357474368642  -0.000048985780843  -0.000139762027295 1
force C  -0.000194902501058   0.000275210384732  -0.000101772055012 1
force C  -0.000000629353706  -0.000003765513088   0.000067192571526 1
force C   0.000249618161285   0.000270727763790  -0.000082958475070 1
force C  -0.000136660786371   0.000238515711006  -0.000162556567972 1
force C   0.000185093900392  -0.000180549866663   0.000207844115432 1
force C  -0.000004141034016   0.000263938722556   0.000107472040616 1
force C   0.000014447079034  -0.000188017447690  -0.000019429251323 1
force C  -0.000118004858930   0.000316070041795  -0.000144363985994 1
force C  -0.000094282242295   0.000052313299914   0.000016105422934 1
force C   0.000205510218193  -0.000180165478920   0.000384858033901 1
force C   0.000148378330118  -0.000174708095641  -0.000153566912998 1
force C  -0.000098534507233  -0.000121200389676  -0.000040086683505 1
force C   0.000038695085035  -0.000227049640562   0.000242451685021 1
force C  -0.000462242654190   0.000033995806715  -0.000182603636603 1
force C  -0.000142553714939   0.000211381047793   0.000182934189094 1
force C  -0.000307864871119   0.000298223342196   0.000033679810659 1
force C  -0.000150685245506  -0.000270606782416   0.000162791743571 1
force S  -0.000784016919095  -0.000251474354184  -0.000017463275759 1
force S   0.000743712627241   0.000313137349793   0.000107762179760 1
force Na  -0.000171343035206   0.000496654377592   0.000050764991004 1
force Na   0.000062575964074  -0.000427616178314  -0.000192714606863 1

# Energy components:
   A_diel =       -0.3103034089046399
   Eewald =     4662.4632981816303072
       EH =     5081.6485335602556006
     Eloc =   -10302.3997268375806016
      Enl =      -82.3432856431640516
     EvdW =       -0.1183494055225751
      Exc =     -153.5583356514010802
 Exc_core =        5.9601296526246372
       KE =      261.2524965044418650
-------------------------------------
     Etot =     -527.4055430476213360
       TS =        0.0762030306888272
-------------------------------------
        F =     -527.4817460783101524

IonicMinimize: Iter:  83  F: -527.481746078310152  |grad|_K:  1.903e-04  alpha: -3.717e-01  linmin: -5.019e-01  t[s]:  14661.76
IonicMinimize: Converged (|Delta F|<1.000000e-06 for 2 iters).

#--- Lowdin population analysis ---
# oxidation-state C +0.030 +0.030 +0.030 +0.029 +0.029 +0.029 +0.030 +0.030 +0.031 +0.029 +0.028 +0.028 +0.030 +0.030 +0.034 +0.028 +0.030 +0.028 +0.029 +0.030 +0.029 +0.028 +0.027 +0.033 +0.029 +0.027 +0.030 +0.030 +0.028 +0.027 +0.030 +0.030 +0.030 +0.029 +0.027 +0.029 +0.030 +0.029 +0.030 +0.030 +0.029 +0.029 +0.028 +0.029 +0.030 +0.030 +0.034 +0.028 +0.027 +0.033 +0.030 +0.028 +0.030 +0.030 +0.030 +0.028 +0.029 +0.029 +0.030 +0.028 +0.027 +0.030 +0.030 +0.030 +0.029 +0.027 +0.029 +0.030 +0.030 +0.028 +0.029 +0.029
# oxidation-state S -0.472 -0.471
# oxidation-state Na +0.969 +0.969


Dumping 'Na2S2@graphene_vdw-PC.fillings' ... done
Dumping 'Na2S2@graphene_vdw-PC.wfns' ... done
Dumping 'Na2S2@graphene_vdw-PC.fluidState' ... done
Dumping 'Na2S2@graphene_vdw-PC.ionpos' ... done
Dumping 'Na2S2@graphene_vdw-PC.eigenvals' ... done
End date and time: Fri Jan  3 19:38:57 2025  (Duration: 0-4:04:23.63)
Done!
