
*************** JDFTx 1.7.0  ***************

Start date and time: Fri Jan  3 15:34:33 2025
Executable jdftx_gpu with command-line: -i /home/akim2/JDFTx/Na2S6@graphene_vdw-PC/Na2S6@graphene_vdw-PC.in -o /home/akim2/JDFTx/Na2S6@graphene_vdw-PC/Na2S6@graphene_vdw-PC.out
Running on hosts (process indices):  exp-7-57 (0)
Divided in process groups (process indices):  0 (0)
gpuInit: Found compatible cuda device 0 'Tesla V100-SXM2-32GB'
gpuInit: Selected device 0
Resource initialization completed at t[s]:      0.72
Run totals: 1 processes, 1 threads, 1 GPUs


Input parsed successfully to the following command list (including defaults):

basis kpoint-dependent
coords-type Cartesian
core-overlap-check vector
coulomb-interaction Slab 001
coulomb-truncation-embed 0 0 18.8973
davidson-band-ratio 1.1
dump End State
dump-name Na2S6@graphene_vdw-PC.$VAR
elec-cutoff 20 100
elec-eigen-algo Davidson
elec-ex-corr gga-PBE
elec-smearing Fermi 0.01
electronic-minimize  \
	dirUpdateScheme      FletcherReeves \
	linminMethod         DirUpdateRecommended \
	nIterations          100 \
	history              15 \
	knormThreshold       0 \
	energyDiffThreshold  1e-08 \
	nEnergyDiff          2 \
	alphaTstart          1 \
	alphaTmin            1e-10 \
	updateTestStepSize   yes \
	alphaTreduceFactor   0.1 \
	alphaTincreaseFactor 3 \
	nAlphaAdjustMax      3 \
	wolfeEnergy          0.0001 \
	wolfeGradient        0.9 \
	fdTest               no
electronic-scf  \
	nIterations	50 \
	energyDiffThreshold	1e-08 \
	residualThreshold	1e-07 \
	mixFraction	0.5 \
	qMetric	0.8 \
	history	10 \
	nEigSteps	2 \
	eigDiffThreshold	1e-08 \
	mixedVariable	Density \
	qKerker	0.8 \
	qKappa	-1 \
	verbose	no \
	mixFractionMag	1.5
exchange-regularization WignerSeitzTruncated
fluid LinearPCM 298.000000 1.013250
fluid-ex-corr lda-TF lda-PZ
fluid-gummel-loop 10 1.000000e-05
fluid-minimize  \
	dirUpdateScheme      PolakRibiere \
	linminMethod         DirUpdateRecommended \
	nIterations          400 \
	history              15 \
	knormThreshold       1e-11 \
	energyDiffThreshold  0 \
	nEnergyDiff          2 \
	alphaTstart          1 \
	alphaTmin            1e-10 \
	updateTestStepSize   yes \
	alphaTreduceFactor   0.1 \
	alphaTincreaseFactor 3 \
	nAlphaAdjustMax      6 \
	wolfeEnergy          0.0001 \
	wolfeGradient        0.9 \
	fdTest               no
fluid-solvent PC 11.6429 ScalarEOS \
	epsBulk 64 \
	pMol 2.95 \
	epsInf 2.02 \
	Pvap 1.53277e-13 \
	sigmaBulk 2.88e-05 \
	Rvdw 0 \
	Res 0 \
	tauNuc 343133
forces-output-coords Positions
ion C  28.011910236849264   0.002219763580138  18.682854412394537 1
ion C  16.343420281457064  20.215529840309792  18.682312019708569 1
ion C   2.339822181400544   4.042564294635056  18.664577991150388 1
ion C  23.344788688113091   0.002097944444792  18.680137570154951 1
ion C   4.673510582583059   0.001811926900847  18.676322909213503 1
ion C  11.675792538736948  20.215438235776229  18.663066135725625 1
ion C  25.677413408362217   4.042495453272838  18.686899079342080 1
ion C  18.677099035458252  16.173148171823758  18.685403528179492 1
ion C   4.673487420914283   8.082412064665133  18.611819215557823 1
ion C  18.677856985569925   0.002083928203987  18.680033279348404 1
ion C   9.340995715742576   0.001468680763731  18.672857248819060 1
ion C   9.342034925866171  16.176353753350615  18.611294411820769 1
ion C  23.343972355677941   8.085000631929171  18.690044008210808 1
ion C  21.010223156926127  12.129008674169796  18.690163021531578 1
ion C   7.010512740386218  12.128720830013085  18.570366099083241 1
ion C  14.009388087962492   0.001906040235317  18.680631035749016 1
ion C  14.010436070003792  16.175811440612570  18.656912995663266 1
ion C   7.006885479245672   4.041052607342899  18.643267721572780 1
ion C  21.011268752338793   4.043004030142968  18.693706847049114 1
ion C  16.345638638030920  12.130586722533257  18.673078885474609 1
ion C   9.338321362063933   8.081716254791615  18.598503948868046 1
ion C  16.344784378988400   4.041863585363015  18.691514908720226 1
ion C  11.674750981729126   4.041470537104368  18.660936585897762 1
ion C  11.676936610095854  12.134527684742556  18.614266143451228 1
ion C  18.679366663611244   8.085068545724013  18.695161820156130 1
ion C   7.008658957547139  20.216379292680088  18.653031715813221 1
ion C  -6.995713872213307  20.214703171211188  18.688477215253005 1
ion C   0.003348208513086   8.082482261229762  18.669436205521798 1
ion C  14.013719130527859   8.082877211286972  18.666738482175969 1
ion C   2.340405315289189  20.216617070754740  18.670542854467943 1
ion C  -4.662670112690889  16.173015132550599  18.693222387616760 1
ion C   2.337843775133630  12.127796393942413  18.640114111376839 1
ion C  -2.331620585801025  12.128377975048737  18.685961572814122 1
ion C  -2.328390195481717  20.215570699478960  18.686933806651240 1
ion C   4.675560676954575  16.177799457582839  18.626028906602791 1
ion C   0.004396126023920  16.174919789695490  18.678526509016976 1
ion C  14.009667092769647  21.561897211726262  18.678236418493206 1
ion C   2.339975233489926   1.348700411170866  18.676563105892225 1
ion C  25.678138720632976   1.348492482747284  18.684947587863604 1
ion C  16.344041333530967  17.521538857806590  18.677472752415042 1
ion C   4.673725458900750   5.388232415772075  18.638660383948409 1
ion C  21.011344400627163   1.348893438463100  18.686684053275581 1
ion C   7.007274620361919   1.347885698147265  18.666137575032067 1
ion C  11.676074924128731  17.521845888449882  18.641993863649990 1
ion C  23.344474331440505   5.390308092323213  18.691783116726938 1
ion C  18.678124307730791  13.478622060503485  18.683577630943212 1
ion C   7.006457771552991   9.432752629092036  18.577646700814473 1
ion C  16.343775003794505   1.347826600224892  18.685231305918876 1
ion C  11.674910052517296   1.347762477910186  18.671724103254160 1
ion C   9.341473498850080  13.481563465305443  18.585178285281202 1
ion C  21.011666714338382   9.434100928516692  18.692081040625723 1
ion C   9.342482323691250  21.562172975682746  18.665020875655312 1
ion C  -9.328954236705073  21.561780709011305  18.684888934651983 1
ion C   0.005300106435699   5.388491090450849  18.674572248064244 1
ion C  14.012834121286176  13.481674844521114  18.650446678840453 1
ion C   9.340241551693328   5.387149672731647  18.631494852239872 1
ion C  18.678237946447190   5.390176928543078  18.695799757929610 1
ion C  16.347060516622719   9.434287354562358  18.682297281373945 1
ion C  11.675195483957204   9.432756706535526  18.624085661588719 1
ion C  14.010370291847531   5.387097250625039  18.676384691981855 1
ion C   4.674488235644843  21.562176275056768  18.665762752961211 1
ion C  -6.995769635550399  17.520447348468473  18.690714188320783 1
ion C   2.338001080571558   9.428200048716308  18.639008612505936 1
ion C  -2.329402888135192   9.432702777540239  18.681537585436061 1
ion C  -4.662059564340674  21.561494861485521  18.684533450935447 1
ion C   7.009099631332127  17.523609454223557  18.624711802658275 1
ion C   0.005795293934511  21.562077222982087  18.680782045941559 1
ion C  -4.663484447779537  13.477949755459957  18.692601377861322 1
ion C   4.676614008547157  13.479772118627142  18.602733685502557 1
ion C   2.340091731986849  17.522361130276995  18.660125212203958 1
ion C  -2.329514900926092  17.521177084792019  18.691798288248290 1
ion C   0.000975118338195  13.479052558435429  18.674446562176019 1
ion S   3.835766165859495  14.739701471156863  28.995441707094283 1
ion S   7.511523834878576  14.040276560367904  28.602018175044005 1
ion S   8.635057213065766  14.519886329276712  24.991243288268290 1
ion S   6.375960294455316   8.012770307949213  25.106876454318460 1
ion S   7.548100766465572   8.603094502127380  28.685454833334742 1
ion S  11.234466375204438   7.934102030188154  29.050857519947979 1
ion Na   3.709882600781138  12.533143250516401  24.268227425962376 1
ion Na  11.287421196737338   9.970663024836618  24.243920316053924 1
ion-species GBRV/$ID_pbe.uspp
ion-width Ecut
ionic-minimize  \
	dirUpdateScheme      FletcherReeves \
	linminMethod         DirUpdateRecommended \
	nIterations          200 \
	history              15 \
	knormThreshold       0.0001 \
	energyDiffThreshold  1e-06 \
	nEnergyDiff          2 \
	alphaTstart          1 \
	alphaTmin            1e-10 \
	updateTestStepSize   yes \
	alphaTreduceFactor   0.1 \
	alphaTincreaseFactor 3 \
	nAlphaAdjustMax      3 \
	wolfeEnergy          0.0001 \
	wolfeGradient        0.9 \
	fdTest               no
kpoint   0.000000000000   0.000000000000   0.000000000000  1.00000000000000
kpoint-folding 1 1 1 
latt-move-scale 1 1 1
latt-scale 1 1 1 
lattice Triclinic 28.0058 28.0058 37.7946 90 90 120
lattice-minimize  \
	dirUpdateScheme      L-BFGS \
	linminMethod         DirUpdateRecommended \
	nIterations          0 \
	history              15 \
	knormThreshold       0 \
	energyDiffThreshold  1e-06 \
	nEnergyDiff          2 \
	alphaTstart          1 \
	alphaTmin            1e-10 \
	updateTestStepSize   yes \
	alphaTreduceFactor   0.1 \
	alphaTincreaseFactor 3 \
	nAlphaAdjustMax      3 \
	wolfeEnergy          0.0001 \
	wolfeGradient        0.9 \
	fdTest               no
lcao-params -1 1e-06 0.01
pcm-variant GLSSA13
spintype no-spin
subspace-rotation-factor 1 yes
symmetries automatic
symmetry-threshold 0.0001
van-der-waals D3



---------- Setting up symmetries ----------

Found 24 point-group symmetries of the bravais lattice
Found 1 space-group symmetries with basis
Applied RMS atom displacement 0 bohrs to make symmetries exact.

---------- Initializing the Grid ----------
R = 
[      28.0058     -14.0029            0  ]
[            0      24.2537            0  ]
[            0            0      37.7946  ]
unit cell volume = 25671.8
G =
[   0.224353    0.12953         -0  ]
[          0   0.259061          0  ]
[          0         -0   0.166246  ]
Minimum fftbox size, Smin = [  128  128  172  ]
Chosen fftbox size, S = [  128  128  180  ]

---------- Initializing tighter grid for wavefunction operations ----------
R = 
[      28.0058     -14.0029            0  ]
[            0      24.2537            0  ]
[            0            0      37.7946  ]
unit cell volume = 25671.8
G =
[   0.224353    0.12953         -0  ]
[          0   0.259061          0  ]
[          0         -0   0.166246  ]
Minimum fftbox size, Smin = [  116  116  156  ]
Chosen fftbox size, S = [  120  120  160  ]

---------- Exchange Correlation functional ----------
Initalized PBE GGA exchange.
Initalized PBE GGA correlation.

---------- Setting up pseudopotentials ----------
Width of ionic core gaussian charges (only for fluid interactions / plotting) set to 0.397384

Reading pseudopotential file '/home/akim2/jdftx_install/build/pseudopotentials/GBRV/c_pbe.uspp':
  Title: C.  Created by USPP 7.3.6 on 3-2-2014
  Reference state energy: -5.406344.  4 valence electrons in orbitals:
    |200>  occupation: 2  eigenvalue: -0.504890
    |210>  occupation: 2  eigenvalue: -0.194356
  lMax: 1  lLocal: 2  QijEcut: 5
  4 projectors sampled on a log grid with 503 points:
    l: 0  eig: -0.504890  rCut: 1.3
    l: 0  eig: 0.000000  rCut: 1.3
    l: 1  eig: -0.194357  rCut: 1.3
    l: 1  eig: 0.000000  rCut: 1.3
  Partial core density with radius 1.1
  Transforming core density to a uniform radial grid of dG=0.02 with 1625 points.
  Transforming local potential to a uniform radial grid of dG=0.02 with 1625 points.
  Transforming nonlocal projectors to a uniform radial grid of dG=0.02 with 432 points.
  Transforming density augmentations to a uniform radial grid of dG=0.02 with 1625 points.
  Transforming atomic orbitals to a uniform radial grid of dG=0.02 with 432 points.
  Core radius for overlap checks: 1.30 bohrs.

Reading pseudopotential file '/home/akim2/jdftx_install/build/pseudopotentials/GBRV/s_pbe.uspp':
  Title: S.  Created by USPP 7.3.6 on 1-4-15
  Reference state energy: -11.898476.  6 valence electrons in orbitals:
    |300>  occupation: 2  eigenvalue: -0.634167
    |310>  occupation: 4  eigenvalue: -0.257568
  lMax: 2  lLocal: 3  QijEcut: 6
  6 projectors sampled on a log grid with 635 points:
    l: 0  eig: -0.634161  rCut: 1.5
    l: 0  eig: 1.500000  rCut: 1.5
    l: 1  eig: -0.257567  rCut: 1.5
    l: 1  eig: 1.500000  rCut: 1.5
    l: 2  eig: -1.000000  rCut: 1.5
    l: 2  eig: 1.500000  rCut: 1.5
  Partial core density with radius 1.15
  Transforming core density to a uniform radial grid of dG=0.02 with 1625 points.
  Transforming local potential to a uniform radial grid of dG=0.02 with 1625 points.
  Transforming nonlocal projectors to a uniform radial grid of dG=0.02 with 432 points.
  Transforming density augmentations to a uniform radial grid of dG=0.02 with 1625 points.
  Transforming atomic orbitals to a uniform radial grid of dG=0.02 with 432 points.
  Core radius for overlap checks: 1.50 bohrs.

Reading pseudopotential file '/home/akim2/jdftx_install/build/pseudopotentials/GBRV/na_pbe.uspp':
  Title: Na.  Created by USPP 7.3.6 on 23-9-15
  Reference state energy: -47.625620.  9 valence electrons in orbitals:
    |200>  occupation: 2  eigenvalue: -2.085638
    |210>  occupation: 6  eigenvalue: -1.053708
    |300>  occupation: 1  eigenvalue: -0.100838
  lMax: 2  lLocal: 0  QijEcut: 6
  5 projectors sampled on a log grid with 657 points:
    l: 0  eig: -2.085640  rCut: 1.37
    l: 0  eig: -0.100839  rCut: 1.37
    l: 1  eig: -1.053708  rCut: 1.47
    l: 1  eig: 0.500000  rCut: 1.47
    l: 2  eig: 0.750000  rCut: 2
  Transforming local potential to a uniform radial grid of dG=0.02 with 1625 points.
  Transforming nonlocal projectors to a uniform radial grid of dG=0.02 with 432 points.
  Transforming density augmentations to a uniform radial grid of dG=0.02 with 1625 points.
  Transforming atomic orbitals to a uniform radial grid of dG=0.02 with 432 points.
  Core radius for overlap checks: 2.00 bohrs.

Initialized 3 species with 80 total atoms.

Folded 1 k-points by 1x1x1 to 1 k-points.

---------- Setting up k-points, bands, fillings ----------
No reducable k-points. 
Computing the number of bands and number of electrons
Calculating initial fillings.
nElectrons: 342.000000   nBands: 322   nStates: 1

----- Setting up reduced wavefunction bases (one per k-point) -----
average nbasis = 109673.000 , ideal nbasis = 109671.883

---------- Setting up coulomb interaction ----------
Fluid mode embedding: using embedded box, but periodic Coulomb kernel.
(Fluid response is responsible for (approximate) separation between periodic images.)
Setting up double-sized grid for truncated Coulomb potentials:
R = 
[      28.0058     -14.0029            0  ]
[            0      24.2537            0  ]
[            0            0      75.5892  ]
unit cell volume = 51343.6
G =
[   0.224353    0.12953         -0  ]
[          0   0.259061          0  ]
[          0         -0  0.0831228  ]
Chosen fftbox size, S = [  128  128  360  ]
Integer grid location selected as the embedding center:
   Grid: [  0  0  90  ]
   Lattice: [  0  0  0.5  ]
   Cartesian: [  0  0  18.8973  ]
Constructing Wigner-Seitz cell: 8 faces (6 quadrilaterals, 2 hexagons)
Range-separation parameter for embedded mesh potentials due to point charges: 0.590105 bohrs.

Initializing DFT-D3 calculator:
	Parameters set for gga-PBE functional
	s6:  1.000  s_r6:  1.217
	s8:  0.722  s_r8:  1.000
	Per-atom parameters loaded for:
	 C:  sqrtQ[a0]:  3.105  Rcov[a0]:  1.417  CN: [ 0.00 0.99 2.00 3.00 3.98 ]
	 S:  sqrtQ[a0]:  4.041  Rcov[a0]:  1.928  CN: [ 0.00 0.99 1.99 ]
	Na:  sqrtQ[a0]:  6.586  Rcov[a0]:  2.646  CN: [ 0.00 0.97 ]

---------- Setting up ewald sum ----------
Optimum gaussian width for ewald sums = 7.143162 bohr.
Real space sum over 405 unit cells with max indices [  4  4  2  ]
Reciprocal space sum over 7875 terms with max indices [  7  7  17  ]

Computing DFT-D3 correction:
# coordination-number C 3.301 3.301 3.302 3.301 3.301 3.301 3.301 3.300 3.322 3.301 3.301 3.310 3.301 3.300 3.368 3.301 3.303 3.304 3.301 3.306 3.405 3.301 3.305 3.459 3.301 3.302 3.301 3.305 3.364 3.301 3.300 3.552 3.303 3.301 3.338 3.308 3.301 3.301 3.301 3.301 3.305 3.301 3.301 3.303 3.300 3.301 3.341 3.301 3.301 3.339 3.300 3.301 3.301 3.301 3.319 3.313 3.300 3.309 3.633 3.307 3.301 3.301 3.356 3.302 3.301 3.307 3.301 3.301 3.546 3.309 3.301 3.336
# coordination-number S 2.007 3.008 2.925 2.923 3.005 2.006
# coordination-number Na 4.360 4.388
# diagonal-C6 C 24.28 24.27 24.27 24.27 24.27 24.27 24.27 24.28 24.06 24.27 24.27 24.18 24.28 24.28 23.53 24.28 24.26 24.25 24.28 24.22 23.04 24.27 24.24 22.25 24.27 24.26 24.28 24.24 23.58 24.27 24.28 20.90 24.25 24.28 23.89 24.20 24.27 24.27 24.28 24.27 24.24 24.28 24.27 24.25 24.28 24.27 23.85 24.28 24.27 23.87 24.28 24.27 24.27 24.27 24.09 24.16 24.28 24.19 19.90 24.21 24.27 24.28 23.68 24.27 24.28 24.21 24.28 24.28 20.98 24.20 24.27 23.91
# diagonal-C6 S 125.89 125.81 125.81 125.81 125.81 125.90
# diagonal-C6 Na 186.11 186.11
EvdW_6 =   -0.066539
EvdW_8 =   -0.060781

---------- Allocating electronic variables ----------
Initializing wave functions:  linear combination of atomic orbitals
C pseudo-atom occupations:   s ( 2 )  p ( 2 )
S pseudo-atom occupations:   s ( 2 )  p ( 4 )
Na pseudo-atom occupations:   s ( 2 1 )  p ( 6 )
	FillingsUpdate:  mu: -0.141517746  nElectrons: 342.000000
LCAOMinimize: Iter:   0  F: -562.7267903895474319  |grad|_K:  1.165e-02  alpha:  1.000e+00
	FillingsUpdate:  mu: -0.287309448  nElectrons: 342.000000
LCAOMinimize: Iter:   1  F: -562.9823952660636905  |grad|_K:  9.697e-03  alpha:  1.972e-01  linmin:  8.038e-02  cgtest: -1.048e+00  t[s]:      9.60
LCAOMinimize: 	Bad step direction: g.d > 0.
LCAOMinimize: 	Undoing step.
LCAOMinimize: 	Step failed: resetting search direction.
	FillingsUpdate:  mu: -0.287309448  nElectrons: 342.000000
LCAOMinimize: Iter:   2  F: -562.9823952660636905  |grad|_K:  9.697e-03  alpha:  0.000e+00
	FillingsUpdate:  mu: -0.210026483  nElectrons: 342.000000
LCAOMinimize: Iter:   3  F: -563.7607115091572041  |grad|_K:  2.223e-03  alpha:  9.766e-02  linmin: -2.259e-01  cgtest:  4.881e-01  t[s]:     12.37
LCAOMinimize: Encountered beta<0, resetting CG.
	FillingsUpdate:  mu: -0.236368299  nElectrons: 342.000000
LCAOMinimize: Iter:   4  F: -563.7887948089399970  |grad|_K:  1.013e-03  alpha:  1.177e-01  linmin:  1.694e-01  cgtest: -5.011e-01  t[s]:     14.01
	FillingsUpdate:  mu: -0.233966006  nElectrons: 342.000000
LCAOMinimize: Iter:   5  F: -563.7903922323519055  |grad|_K:  1.152e-03  alpha:  7.616e-02  linmin: -1.309e-04  cgtest:  9.218e-01  t[s]:     18.19
	FillingsUpdate:  mu: -0.237653769  nElectrons: 342.000000
LCAOMinimize: Iter:   6  F: -563.7966142210211729  |grad|_K:  2.923e-04  alpha:  8.964e-02  linmin: -1.416e-02  cgtest: -9.932e-02  t[s]:     19.85
LCAOMinimize: 	Predicted alpha/alphaT>3.000000, increasing alphaT to 2.689331e-01.
	FillingsUpdate:  mu: -0.237696472  nElectrons: 342.000000
LCAOMinimize: Iter:   7  F: -563.7987075384713762  |grad|_K:  2.158e-04  alpha:  4.711e-01  linmin:  9.624e-03  cgtest: -1.050e-01  t[s]:     24.92
	FillingsUpdate:  mu: -0.236886173  nElectrons: 342.000000
LCAOMinimize: Iter:   8  F: -563.7992698366432478  |grad|_K:  9.406e-05  alpha:  2.457e-01  linmin:  4.064e-04  cgtest:  1.976e-01  t[s]:     27.58
	FillingsUpdate:  mu: -0.236819463  nElectrons: 342.000000
LCAOMinimize: Iter:   9  F: -563.7993637830671787  |grad|_K:  5.209e-05  alpha:  2.034e-01  linmin:  7.302e-04  cgtest:  2.251e-03  t[s]:     29.24
	FillingsUpdate:  mu: -0.236868466  nElectrons: 342.000000
LCAOMinimize: Iter:  10  F: -563.7993785807352651  |grad|_K:  1.715e-05  alpha:  1.054e-01  linmin:  2.512e-03  cgtest: -2.002e-03  t[s]:     31.11
LCAOMinimize: 	Predicted alpha/alphaT>3.000000, increasing alphaT to 3.161524e-01.
	FillingsUpdate:  mu: -0.236884524  nElectrons: 342.000000
LCAOMinimize: Iter:  11  F: -563.7993857633238122  |grad|_K:  1.271e-05  alpha:  4.693e-01  linmin: -4.620e-04  cgtest:  2.217e-03  t[s]:     33.19
	FillingsUpdate:  mu: -0.236947770  nElectrons: 342.000000
LCAOMinimize: Iter:  12  F: -563.7993876540954261  |grad|_K:  4.475e-06  alpha:  2.240e-01  linmin: -2.894e-04  cgtest: -4.966e-03  t[s]:     34.84
	FillingsUpdate:  mu: -0.236947133  nElectrons: 342.000000
LCAOMinimize: Iter:  13  F: -563.7993877985705922  |grad|_K:  2.622e-06  alpha:  1.382e-01  linmin:  2.904e-06  cgtest: -2.651e-04  t[s]:     36.48
	FillingsUpdate:  mu: -0.236946716  nElectrons: 342.000000
LCAOMinimize: Iter:  14  F: -563.7993878565239356  |grad|_K:  9.939e-07  alpha:  1.616e-01  linmin:  3.767e-04  cgtest: -1.060e-03  t[s]:     38.10
LCAOMinimize: Converged (|Delta F|<1.000000e-06 for 2 iters).
----- createFluidSolver() ----- (Fluid-side solver setup)
   Initializing fluid molecule 'PC'
     Net charge: 0   dipole magnitude: 0
     Initializing spherical shell mfKernel with radius 0 Bohr
     deltaS corrections:

Correction to mu due to finite nuclear width = -0.00660906
   Cavity determined by nc: 0.00098 and sigma: 0.6
   Effective cavity tension: 9.53e-06 Eh/bohr^2 to account for cavitation and dispersion.


---- Citations for features of the code used in this run ----

   Software package:
      R. Sundararaman, K. Letchworth-Weaver, K.A. Schwarz, D. Gunceler, Y. Ozhabes and T.A. Arias, 'JDFTx: software for joint density-functional theory', SoftwareX 6, 278 (2017)

   gga-PBE exchange-correlation functional:
      J.P. Perdew, K. Burke and M. Ernzerhof, Phys. Rev. Lett. 77, 3865 (1996)

   Pseudopotentials:
      KF Garrity, JW Bennett, KM Rabe and D Vanderbilt, Comput. Mater. Sci. 81, 446 (2014)

   Truncated Coulomb potentials:
      R. Sundararaman and T.A. Arias, Phys. Rev. B 87, 165122 (2013)

   DFT-D3 dispersion correction:
      S. Grimme, J. Antony, S. Ehrlich and H. Krieg, J. Chem. Phys. 132, 154104 (2010)

   Linear/nonlinear dielectric/ionic fluid model with effective cavity tension:
      D. Gunceler, K. Letchworth-Weaver, R. Sundararaman, K.A. Schwarz and T.A. Arias, Modelling Simul. Mater. Sci. Eng. 21, 074005 (2013)

This list may not be complete. Please suggest additional citations or
report any other bugs at https://github.com/shankar1729/jdftx/issues

Initialization completed successfully at t[s]:     38.30


Computing DFT-D3 correction:
# coordination-number C 3.301 3.301 3.302 3.301 3.301 3.301 3.301 3.300 3.322 3.301 3.301 3.310 3.301 3.300 3.368 3.301 3.303 3.304 3.301 3.306 3.405 3.301 3.305 3.459 3.301 3.302 3.301 3.305 3.364 3.301 3.300 3.552 3.303 3.301 3.338 3.308 3.301 3.301 3.301 3.301 3.305 3.301 3.301 3.303 3.300 3.301 3.341 3.301 3.301 3.339 3.300 3.301 3.301 3.301 3.319 3.313 3.300 3.309 3.633 3.307 3.301 3.301 3.356 3.302 3.301 3.307 3.301 3.301 3.546 3.309 3.301 3.336
# coordination-number S 2.007 3.008 2.925 2.923 3.005 2.006
# coordination-number Na 4.360 4.388
# diagonal-C6 C 24.28 24.27 24.27 24.27 24.27 24.27 24.27 24.28 24.06 24.27 24.27 24.18 24.28 24.28 23.53 24.28 24.26 24.25 24.28 24.22 23.04 24.27 24.24 22.25 24.27 24.26 24.28 24.24 23.58 24.27 24.28 20.90 24.25 24.28 23.89 24.20 24.27 24.27 24.28 24.27 24.24 24.28 24.27 24.25 24.28 24.27 23.85 24.28 24.27 23.87 24.28 24.27 24.27 24.27 24.09 24.16 24.28 24.19 19.90 24.21 24.27 24.28 23.68 24.27 24.28 24.21 24.28 24.28 20.98 24.20 24.27 23.91
# diagonal-C6 S 125.89 125.81 125.81 125.81 125.81 125.90
# diagonal-C6 Na 186.11 186.11
EvdW_6 =   -0.066539
EvdW_8 =   -0.060781
Fluid solver invoked on fresh (random / LCAO) wavefunctions
Running a vacuum solve first:

-------- Initial electronic minimization -----------
Will mix electronic density at each iteration.
	FillingsUpdate:  mu: -0.236946716  nElectrons: 342.000000
	FillingsUpdate:  mu: -0.245544131  nElectrons: 342.000000
SCF: Cycle:  0   F: -567.417614611161980   dF: -3.618e+00   |Residual|: 9.861e-01   |deigs|: 1.268e-01  t[s]:     44.93
	FillingsUpdate:  mu: -0.217428213  nElectrons: 342.000000
SCF: Cycle:  1   F: -568.095036158788616   dF: -6.774e-01   |Residual|: 4.989e-01   |deigs|: 3.430e-02  t[s]:     48.37
	FillingsUpdate:  mu: -0.185386017  nElectrons: 342.000000
SCF: Cycle:  2   F: -568.362146656861000   dF: -2.671e-01   |Residual|: 1.139e-01   |deigs|: 3.335e-02  t[s]:     51.78
	FillingsUpdate:  mu: -0.178859889  nElectrons: 342.000000
SCF: Cycle:  3   F: -568.399576598817134   dF: -3.743e-02   |Residual|: 7.003e-02   |deigs|: 6.435e-03  t[s]:     55.18
	FillingsUpdate:  mu: -0.168333390  nElectrons: 342.000000
SCF: Cycle:  4   F: -568.424990018156905   dF: -2.541e-02   |Residual|: 3.683e-02   |deigs|: 9.902e-03  t[s]:     58.62
	FillingsUpdate:  mu: -0.160121976  nElectrons: 342.000000
SCF: Cycle:  5   F: -568.436334770574263   dF: -1.134e-02   |Residual|: 2.498e-02   |deigs|: 7.837e-03  t[s]:     61.98
	FillingsUpdate:  mu: -0.154797982  nElectrons: 342.000000
SCF: Cycle:  6   F: -568.441877687826945   dF: -5.543e-03   |Residual|: 1.787e-02   |deigs|: 5.186e-03  t[s]:     65.32
	FillingsUpdate:  mu: -0.148496917  nElectrons: 342.000000
SCF: Cycle:  7   F: -568.444807785199828   dF: -2.930e-03   |Residual|: 1.228e-02   |deigs|: 6.743e-03  t[s]:     68.49
	FillingsUpdate:  mu: -0.146114742  nElectrons: 342.000000
SCF: Cycle:  8   F: -568.445614184981991   dF: -8.064e-04   |Residual|: 8.852e-03   |deigs|: 2.374e-03  t[s]:     71.47
	FillingsUpdate:  mu: -0.143195414  nElectrons: 342.000000
SCF: Cycle:  9   F: -568.446746539244145   dF: -1.132e-03   |Residual|: 7.773e-03   |deigs|: 2.625e-03  t[s]:     74.51
	FillingsUpdate:  mu: -0.140155741  nElectrons: 342.000000
SCF: Cycle: 10   F: -568.447317832920135   dF: -5.713e-04   |Residual|: 7.920e-03   |deigs|: 2.606e-03  t[s]:     77.48
	FillingsUpdate:  mu: -0.138329739  nElectrons: 342.000000
SCF: Cycle: 11   F: -568.447508946425842   dF: -1.911e-04   |Residual|: 5.157e-03   |deigs|: 1.490e-03  t[s]:     80.38
	FillingsUpdate:  mu: -0.136425382  nElectrons: 342.000000
SCF: Cycle: 12   F: -568.447600461759180   dF: -9.152e-05   |Residual|: 4.330e-03   |deigs|: 1.676e-03  t[s]:     83.27
	FillingsUpdate:  mu: -0.133996252  nElectrons: 342.000000
SCF: Cycle: 13   F: -568.447611557178789   dF: -1.110e-05   |Residual|: 3.482e-03   |deigs|: 2.273e-03  t[s]:     86.21
	FillingsUpdate:  mu: -0.132714959  nElectrons: 342.000000
SCF: Cycle: 14   F: -568.447622415469255   dF: -1.086e-05   |Residual|: 3.128e-03   |deigs|: 1.389e-03  t[s]:     89.13
	FillingsUpdate:  mu: -0.129593365  nElectrons: 342.000000
SCF: Cycle: 15   F: -568.447643726154070   dF: -2.131e-05   |Residual|: 2.157e-03   |deigs|: 3.279e-03  t[s]:     92.06
	FillingsUpdate:  mu: -0.128856522  nElectrons: 342.000000
SCF: Cycle: 16   F: -568.447663021361905   dF: -1.930e-05   |Residual|: 1.722e-03   |deigs|: 6.738e-04  t[s]:     94.96
	FillingsUpdate:  mu: -0.127803014  nElectrons: 342.000000
SCF: Cycle: 17   F: -568.447693177791507   dF: -3.016e-05   |Residual|: 1.228e-03   |deigs|: 1.166e-03  t[s]:     97.86
	FillingsUpdate:  mu: -0.126969905  nElectrons: 342.000000
SCF: Cycle: 18   F: -568.447705806117369   dF: -1.263e-05   |Residual|: 9.700e-04   |deigs|: 1.139e-03  t[s]:    100.79
	FillingsUpdate:  mu: -0.126405986  nElectrons: 342.000000
SCF: Cycle: 19   F: -568.447715051073033   dF: -9.245e-06   |Residual|: 8.358e-04   |deigs|: 7.664e-04  t[s]:    103.69
	FillingsUpdate:  mu: -0.126066544  nElectrons: 342.000000
SCF: Cycle: 20   F: -568.447718253027574   dF: -3.202e-06   |Residual|: 6.454e-04   |deigs|: 8.162e-04  t[s]:    106.61
	FillingsUpdate:  mu: -0.125797750  nElectrons: 342.000000
SCF: Cycle: 21   F: -568.447721928129454   dF: -3.675e-06   |Residual|: 4.274e-04   |deigs|: 6.622e-04  t[s]:    109.54
	FillingsUpdate:  mu: -0.125758079  nElectrons: 342.000000
SCF: Cycle: 22   F: -568.447725487037587   dF: -3.559e-06   |Residual|: 3.197e-04   |deigs|: 5.510e-04  t[s]:    112.45
	FillingsUpdate:  mu: -0.125713062  nElectrons: 342.000000
SCF: Cycle: 23   F: -568.447727139255562   dF: -1.652e-06   |Residual|: 2.447e-04   |deigs|: 2.735e-04  t[s]:    115.41
	FillingsUpdate:  mu: -0.125719298  nElectrons: 342.000000
SCF: Cycle: 24   F: -568.447728208198555   dF: -1.069e-06   |Residual|: 1.853e-04   |deigs|: 2.619e-04  t[s]:    118.36
	FillingsUpdate:  mu: -0.125744483  nElectrons: 342.000000
SCF: Cycle: 25   F: -568.447728398514982   dF: -1.903e-07   |Residual|: 1.237e-04   |deigs|: 1.294e-04  t[s]:    121.27
	FillingsUpdate:  mu: -0.125726321  nElectrons: 342.000000
SCF: Cycle: 26   F: -568.447728441493041   dF: -4.298e-08   |Residual|: 7.678e-05   |deigs|: 1.602e-04  t[s]:    124.17
	FillingsUpdate:  mu: -0.125701877  nElectrons: 342.000000
SCF: Cycle: 27   F: -568.447728481801960   dF: -4.031e-08   |Residual|: 5.369e-05   |deigs|: 2.030e-04  t[s]:    127.10
	FillingsUpdate:  mu: -0.125686899  nElectrons: 342.000000
SCF: Cycle: 28   F: -568.447728519552584   dF: -3.775e-08   |Residual|: 3.894e-05   |deigs|: 2.021e-04  t[s]:    130.04
	FillingsUpdate:  mu: -0.125686788  nElectrons: 342.000000
SCF: Cycle: 29   F: -568.447728542666027   dF: -2.311e-08   |Residual|: 2.608e-05   |deigs|: 1.934e-04  t[s]:    132.96
	FillingsUpdate:  mu: -0.125685841  nElectrons: 342.000000
SCF: Cycle: 30   F: -568.447728552200033   dF: -9.534e-09   |Residual|: 1.807e-05   |deigs|: 1.985e-04  t[s]:    136.39
	FillingsUpdate:  mu: -0.125684143  nElectrons: 342.000000
SCF: Cycle: 31   F: -568.447728561479948   dF: -9.280e-09   |Residual|: 1.509e-05   |deigs|: 9.871e-05  t[s]:    139.56
SCF: Converged (|Delta E|<1.000000e-08 for 2 iters).

Setting wave functions to eigenvectors of Hamiltonian
Vacuum energy after initial minimize, F = -568.447728561479948


-------- Electronic minimization -----------
Will mix electronic density at each iteration.
	FillingsUpdate:  mu: -0.125684143  nElectrons: 342.000000
	Linear fluid (dielectric constant: 64) occupying 0.876653 of unit cell:	Completed after 47 iterations at t[s]:    140.78
	FillingsUpdate:  mu: -0.109179196  nElectrons: 342.000000
	Linear fluid (dielectric constant: 64) occupying 0.876146 of unit cell:	Completed after 32 iterations at t[s]:    145.18
SCF: Cycle:  0   F: -568.548147268874231   dF: -2.269e-02   |Residual|: 7.131e-02   |deigs|: 1.770e-03  t[s]:    145.35
	Linear fluid (dielectric constant: 64) occupying 0.876719 of unit cell:	Completed after 31 iterations at t[s]:    145.83
	FillingsUpdate:  mu: -0.109006294  nElectrons: 342.000000
	Linear fluid (dielectric constant: 64) occupying 0.876084 of unit cell:	Completed after 31 iterations at t[s]:    149.67
SCF: Cycle:  1   F: -568.563938106498540   dF: -1.579e-02   |Residual|: 3.340e-02   |deigs|: 2.709e-03  t[s]:    149.83
	Linear fluid (dielectric constant: 64) occupying 0.876596 of unit cell:	Completed after 29 iterations at t[s]:    150.27
	FillingsUpdate:  mu: -0.109103731  nElectrons: 342.000000
	Linear fluid (dielectric constant: 64) occupying 0.876102 of unit cell:	Completed after 28 iterations at t[s]:    154.06
SCF: Cycle:  2   F: -568.566703606554711   dF: -2.766e-03   |Residual|: 2.127e-02   |deigs|: 1.338e-03  t[s]:    154.24
	Linear fluid (dielectric constant: 64) occupying 0.876322 of unit cell:	Completed after 25 iterations at t[s]:    154.63
	FillingsUpdate:  mu: -0.109202278  nElectrons: 342.000000
	Linear fluid (dielectric constant: 64) occupying 0.876112 of unit cell:	Completed after 24 iterations at t[s]:    158.35
SCF: Cycle:  3   F: -568.567834527135005   dF: -1.131e-03   |Residual|: 1.344e-02   |deigs|: 1.283e-03  t[s]:    158.51
	Linear fluid (dielectric constant: 64) occupying 0.876000 of unit cell:	Completed after 23 iterations at t[s]:    158.88
	FillingsUpdate:  mu: -0.109215375  nElectrons: 342.000000
	Linear fluid (dielectric constant: 64) occupying 0.876062 of unit cell:	Completed after 24 iterations at t[s]:    162.60
SCF: Cycle:  4   F: -568.568432472917607   dF: -5.979e-04   |Residual|: 9.576e-03   |deigs|: 1.441e-03  t[s]:    162.77
	Linear fluid (dielectric constant: 64) occupying 0.875769 of unit cell:	Completed after 24 iterations at t[s]:    163.15
	FillingsUpdate:  mu: -0.109331875  nElectrons: 342.000000
	Linear fluid (dielectric constant: 64) occupying 0.876005 of unit cell:	Completed after 22 iterations at t[s]:    166.86
SCF: Cycle:  5   F: -568.568681444748108   dF: -2.490e-04   |Residual|: 7.083e-03   |deigs|: 8.505e-04  t[s]:    167.04
	Linear fluid (dielectric constant: 64) occupying 0.875598 of unit cell:	Completed after 22 iterations at t[s]:    167.40
	FillingsUpdate:  mu: -0.109539652  nElectrons: 342.000000
	Linear fluid (dielectric constant: 64) occupying 0.875974 of unit cell:	Completed after 20 iterations at t[s]:    171.13
SCF: Cycle:  6   F: -568.568813400564750   dF: -1.320e-04   |Residual|: 5.193e-03   |deigs|: 7.357e-04  t[s]:    171.30
	Linear fluid (dielectric constant: 64) occupying 0.875478 of unit cell:	Completed after 19 iterations at t[s]:    171.62
	FillingsUpdate:  mu: -0.109869517  nElectrons: 342.000000
	Linear fluid (dielectric constant: 64) occupying 0.875968 of unit cell:	Completed after 19 iterations at t[s]:    174.85
SCF: Cycle:  7   F: -568.568901308096088   dF: -8.791e-05   |Residual|: 4.058e-03   |deigs|: 1.030e-03  t[s]:    175.03
	Linear fluid (dielectric constant: 64) occupying 0.875618 of unit cell:	Completed after 19 iterations at t[s]:    175.35
	FillingsUpdate:  mu: -0.110147521  nElectrons: 342.000000
	Linear fluid (dielectric constant: 64) occupying 0.875994 of unit cell:	Completed after 18 iterations at t[s]:    178.56
SCF: Cycle:  8   F: -568.568959265617195   dF: -5.796e-05   |Residual|: 3.683e-03   |deigs|: 9.758e-04  t[s]:    178.72
	Linear fluid (dielectric constant: 64) occupying 0.875850 of unit cell:	Completed after 16 iterations at t[s]:    179.03
	FillingsUpdate:  mu: -0.110282036  nElectrons: 342.000000
	Linear fluid (dielectric constant: 64) occupying 0.876023 of unit cell:	Completed after 16 iterations at t[s]:    182.22
SCF: Cycle:  9   F: -568.568969235496525   dF: -9.970e-06   |Residual|: 3.336e-03   |deigs|: 9.182e-04  t[s]:    182.38
	Linear fluid (dielectric constant: 64) occupying 0.875982 of unit cell:	Completed after 14 iterations at t[s]:    182.66
	FillingsUpdate:  mu: -0.110281048  nElectrons: 342.000000
	Linear fluid (dielectric constant: 64) occupying 0.876031 of unit cell:	Completed after 13 iterations at t[s]:    185.77
SCF: Cycle: 10   F: -568.568978010041178   dF: -8.775e-06   |Residual|: 2.720e-03   |deigs|: 4.345e-04  t[s]:    185.94
	Linear fluid (dielectric constant: 64) occupying 0.876050 of unit cell:	Completed after 11 iterations at t[s]:    186.19
	FillingsUpdate:  mu: -0.110287492  nElectrons: 342.000000
	Linear fluid (dielectric constant: 64) occupying 0.876043 of unit cell:	Completed after 11 iterations at t[s]:    189.28
SCF: Cycle: 11   F: -568.568978778920382   dF: -7.689e-07   |Residual|: 2.229e-03   |deigs|: 3.489e-04  t[s]:    189.45
	Linear fluid (dielectric constant: 64) occupying 0.876043 of unit cell:	Completed after 8 iterations at t[s]:    189.65
	FillingsUpdate:  mu: -0.110305737  nElectrons: 342.000000
	Linear fluid (dielectric constant: 64) occupying 0.876051 of unit cell:	Completed after 6 iterations at t[s]:    192.80
SCF: Cycle: 12   F: -568.568977900800292   dF: +8.781e-07   |Residual|: 1.775e-03   |deigs|: 5.016e-04  t[s]:    192.97
	Linear fluid (dielectric constant: 64) occupying 0.876028 of unit cell:	Completed after 9 iterations at t[s]:    193.17
	FillingsUpdate:  mu: -0.110322592  nElectrons: 342.000000
	Linear fluid (dielectric constant: 64) occupying 0.876049 of unit cell:	Completed after 8 iterations at t[s]:    196.30
SCF: Cycle: 13   F: -568.568981707608145   dF: -3.807e-06   |Residual|: 1.282e-03   |deigs|: 5.271e-04  t[s]:    196.47
	Linear fluid (dielectric constant: 64) occupying 0.876014 of unit cell:	Completed after 6 iterations at t[s]:    196.64
	FillingsUpdate:  mu: -0.110337227  nElectrons: 342.000000
	Linear fluid (dielectric constant: 64) occupying 0.876047 of unit cell:	Completed after 6 iterations at t[s]:    199.68
SCF: Cycle: 14   F: -568.568987045235076   dF: -5.338e-06   |Residual|: 9.210e-04   |deigs|: 4.807e-04  t[s]:    199.85
	Linear fluid (dielectric constant: 64) occupying 0.876038 of unit cell:	Completed after 4 iterations at t[s]:    199.99
	FillingsUpdate:  mu: -0.110350155  nElectrons: 342.000000
	Linear fluid (dielectric constant: 64) occupying 0.876046 of unit cell:	Completed after 5 iterations at t[s]:    203.04
SCF: Cycle: 15   F: -568.568990044494171   dF: -2.999e-06   |Residual|: 6.133e-04   |deigs|: 3.281e-04  t[s]:    203.21
	Linear fluid (dielectric constant: 64) occupying 0.876038 of unit cell:	Completed after 4 iterations at t[s]:    203.35
	FillingsUpdate:  mu: -0.110359557  nElectrons: 342.000000
	Linear fluid (dielectric constant: 64) occupying 0.876046 of unit cell:	Completed after 3 iterations at t[s]:    206.36
SCF: Cycle: 16   F: -568.568991147917131   dF: -1.103e-06   |Residual|: 4.689e-04   |deigs|: 3.478e-04  t[s]:    206.51
	Linear fluid (dielectric constant: 64) occupying 0.876039 of unit cell:	Completed after 3 iterations at t[s]:    206.65
	FillingsUpdate:  mu: -0.110361370  nElectrons: 342.000000
	Linear fluid (dielectric constant: 64) occupying 0.876047 of unit cell:	Completed after 1 iterations at t[s]:    209.65
SCF: Cycle: 17   F: -568.568991974791970   dF: -8.269e-07   |Residual|: 3.288e-04   |deigs|: 1.964e-04  t[s]:    209.79
	Linear fluid (dielectric constant: 64) occupying 0.876039 of unit cell:	Completed after 1 iterations at t[s]:    209.91
	FillingsUpdate:  mu: -0.110371471  nElectrons: 342.000000
	Linear fluid (dielectric constant: 64) occupying 0.876048 of unit cell:	Completed after 1 iterations at t[s]:    212.90
SCF: Cycle: 18   F: -568.568992592975519   dF: -6.182e-07   |Residual|: 2.346e-04   |deigs|: 2.414e-04  t[s]:    213.04
	Linear fluid (dielectric constant: 64) occupying 0.876039 of unit cell:	Completed after 1 iterations at t[s]:    213.16
	FillingsUpdate:  mu: -0.110372731  nElectrons: 342.000000
	Linear fluid (dielectric constant: 64) occupying 0.876048 of unit cell:	Completed after 1 iterations at t[s]:    216.12
SCF: Cycle: 19   F: -568.568992888224670   dF: -2.952e-07   |Residual|: 2.114e-04   |deigs|: 1.653e-04  t[s]:    216.26
	Linear fluid (dielectric constant: 64) occupying 0.876041 of unit cell:	Completed after 2 iterations at t[s]:    216.38
	FillingsUpdate:  mu: -0.110375364  nElectrons: 342.000000
	Linear fluid (dielectric constant: 64) occupying 0.876048 of unit cell:	Completed after 1 iterations at t[s]:    219.37
SCF: Cycle: 20   F: -568.568992961411368   dF: -7.319e-08   |Residual|: 1.815e-04   |deigs|: 1.316e-04  t[s]:    219.51
	Linear fluid (dielectric constant: 64) occupying 0.876042 of unit cell:	Completed after 0 iterations at t[s]:    219.61
	FillingsUpdate:  mu: -0.110374031  nElectrons: 342.000000
	Linear fluid (dielectric constant: 64) occupying 0.876048 of unit cell:	Completed after 0 iterations at t[s]:    222.56
SCF: Cycle: 21   F: -568.568993022641394   dF: -6.123e-08   |Residual|: 1.388e-04   |deigs|: 2.448e-05  t[s]:    222.69
	Linear fluid (dielectric constant: 64) occupying 0.876043 of unit cell:	Completed after 0 iterations at t[s]:    222.78
	FillingsUpdate:  mu: -0.110373706  nElectrons: 342.000000
	Linear fluid (dielectric constant: 64) occupying 0.876048 of unit cell:	Completed after 0 iterations at t[s]:    225.72
SCF: Cycle: 22   F: -568.568993103809476   dF: -8.117e-08   |Residual|: 8.921e-05   |deigs|: 2.162e-04  t[s]:    225.85
	Linear fluid (dielectric constant: 64) occupying 0.876043 of unit cell:	Completed after 1 iterations at t[s]:    225.97
	FillingsUpdate:  mu: -0.110378491  nElectrons: 342.000000
	Linear fluid (dielectric constant: 64) occupying 0.876047 of unit cell:	Completed after 0 iterations at t[s]:    229.00
SCF: Cycle: 23   F: -568.568993140311818   dF: -3.650e-08   |Residual|: 1.175e-04   |deigs|: 2.123e-04  t[s]:    229.14
	Linear fluid (dielectric constant: 64) occupying 0.876044 of unit cell:	Completed after 0 iterations at t[s]:    229.24
	FillingsUpdate:  mu: -0.110377463  nElectrons: 342.000000
	Linear fluid (dielectric constant: 64) occupying 0.876048 of unit cell:	Completed after 0 iterations at t[s]:    232.17
SCF: Cycle: 24   F: -568.568993158999433   dF: -1.869e-08   |Residual|: 9.664e-05   |deigs|: 4.156e-05  t[s]:    232.30
	Linear fluid (dielectric constant: 64) occupying 0.876044 of unit cell:	Completed after 0 iterations at t[s]:    232.39
	FillingsUpdate:  mu: -0.110377461  nElectrons: 342.000000
	Linear fluid (dielectric constant: 64) occupying 0.876048 of unit cell:	Completed after 0 iterations at t[s]:    235.33
SCF: Cycle: 25   F: -568.568993203294099   dF: -4.429e-08   |Residual|: 8.434e-05   |deigs|: 7.021e-05  t[s]:    235.46
	Linear fluid (dielectric constant: 64) occupying 0.876046 of unit cell:	Completed after 0 iterations at t[s]:    235.56
	FillingsUpdate:  mu: -0.110377526  nElectrons: 342.000000
	Linear fluid (dielectric constant: 64) occupying 0.876047 of unit cell:	Completed after 0 iterations at t[s]:    238.54
SCF: Cycle: 26   F: -568.568993220962625   dF: -1.767e-08   |Residual|: 1.028e-04   |deigs|: 1.630e-04  t[s]:    238.67
	Linear fluid (dielectric constant: 64) occupying 0.876045 of unit cell:	Completed after 0 iterations at t[s]:    238.77
	FillingsUpdate:  mu: -0.110377934  nElectrons: 342.000000
	Linear fluid (dielectric constant: 64) occupying 0.876047 of unit cell:	Completed after 0 iterations at t[s]:    241.74
SCF: Cycle: 27   F: -568.568993207674112   dF: +1.329e-08   |Residual|: 5.813e-05   |deigs|: 2.001e-04  t[s]:    241.88
	Linear fluid (dielectric constant: 64) occupying 0.876045 of unit cell:	Completed after 0 iterations at t[s]:    241.97
	FillingsUpdate:  mu: -0.110383426  nElectrons: 342.000000
	Linear fluid (dielectric constant: 64) occupying 0.876047 of unit cell:	Completed after 0 iterations at t[s]:    244.88
SCF: Cycle: 28   F: -568.568993217209140   dF: -9.535e-09   |Residual|: 6.519e-05   |deigs|: 2.046e-05  t[s]:    245.01
	Linear fluid (dielectric constant: 64) occupying 0.876045 of unit cell:	Completed after 0 iterations at t[s]:    245.10
	FillingsUpdate:  mu: -0.110383480  nElectrons: 342.000000
	Linear fluid (dielectric constant: 64) occupying 0.876047 of unit cell:	Completed after 0 iterations at t[s]:    248.06
SCF: Cycle: 29   F: -568.568993232276284   dF: -1.507e-08   |Residual|: 3.973e-05   |deigs|: 5.749e-05  t[s]:    248.19
	Linear fluid (dielectric constant: 64) occupying 0.876045 of unit cell:	Completed after 0 iterations at t[s]:    248.28
	FillingsUpdate:  mu: -0.110383465  nElectrons: 342.000000
	Linear fluid (dielectric constant: 64) occupying 0.876048 of unit cell:	Completed after 0 iterations at t[s]:    251.25
SCF: Cycle: 30   F: -568.568993243963860   dF: -1.169e-08   |Residual|: 3.316e-05   |deigs|: 1.677e-04  t[s]:    251.37
	Linear fluid (dielectric constant: 64) occupying 0.876047 of unit cell:	Completed after 0 iterations at t[s]:    251.47
	FillingsUpdate:  mu: -0.110383504  nElectrons: 342.000000
	Linear fluid (dielectric constant: 64) occupying 0.876048 of unit cell:	Completed after 0 iterations at t[s]:    254.41
SCF: Cycle: 31   F: -568.568993255222722   dF: -1.126e-08   |Residual|: 3.868e-05   |deigs|: 1.953e-04  t[s]:    254.54
	Linear fluid (dielectric constant: 64) occupying 0.876047 of unit cell:	Completed after 1 iterations at t[s]:    254.65
	FillingsUpdate:  mu: -0.110378254  nElectrons: 342.000000
	Linear fluid (dielectric constant: 64) occupying 0.876048 of unit cell:	Completed after 0 iterations at t[s]:    258.07
SCF: Cycle: 32   F: -568.568993209235146   dF: +4.599e-08   |Residual|: 9.004e-05   |deigs|: 4.392e-05  t[s]:    258.21
	Linear fluid (dielectric constant: 64) occupying 0.876047 of unit cell:	Completed after 0 iterations at t[s]:    258.30
	FillingsUpdate:  mu: -0.110380333  nElectrons: 342.000000
	Linear fluid (dielectric constant: 64) occupying 0.876048 of unit cell:	Completed after 0 iterations at t[s]:    261.22
SCF: Cycle: 33   F: -568.568993208690586   dF: +5.446e-10   |Residual|: 5.208e-05   |deigs|: 2.462e-05  t[s]:    261.35
	Linear fluid (dielectric constant: 64) occupying 0.876047 of unit cell:	Completed after 0 iterations at t[s]:    261.45
	FillingsUpdate:  mu: -0.110380335  nElectrons: 342.000000
	Linear fluid (dielectric constant: 64) occupying 0.876048 of unit cell:	Completed after 0 iterations at t[s]:    264.14
SCF: Cycle: 34   F: -568.568993210145550   dF: -1.455e-09   |Residual|: 5.324e-05   |deigs|: 6.895e-06  t[s]:    264.26
	Linear fluid (dielectric constant: 64) occupying 0.876047 of unit cell:	Completed after 0 iterations at t[s]:    264.36
	FillingsUpdate:  mu: -0.110380315  nElectrons: 342.000000
	Linear fluid (dielectric constant: 64) occupying 0.876048 of unit cell:	Completed after 0 iterations at t[s]:    267.05
SCF: Cycle: 35   F: -568.568993210583130   dF: -4.376e-10   |Residual|: 5.873e-05   |deigs|: 1.671e-05  t[s]:    267.18
SCF: Converged (|Delta E|<1.000000e-08 for 2 iters).

Setting wave functions to eigenvectors of Hamiltonian
Single-point solvation energy estimate, DeltaF = -0.121264649103182

Computing DFT-D3 correction:
# coordination-number C 3.301 3.301 3.302 3.301 3.301 3.301 3.301 3.300 3.322 3.301 3.301 3.310 3.301 3.300 3.368 3.301 3.303 3.304 3.301 3.306 3.405 3.301 3.305 3.459 3.301 3.302 3.301 3.305 3.364 3.301 3.300 3.552 3.303 3.301 3.338 3.308 3.301 3.301 3.301 3.301 3.305 3.301 3.301 3.303 3.300 3.301 3.341 3.301 3.301 3.339 3.300 3.301 3.301 3.301 3.319 3.313 3.300 3.309 3.633 3.307 3.301 3.301 3.356 3.302 3.301 3.307 3.301 3.301 3.546 3.309 3.301 3.336
# coordination-number S 2.007 3.008 2.925 2.923 3.005 2.006
# coordination-number Na 4.360 4.388
# diagonal-C6 C 24.28 24.27 24.27 24.27 24.27 24.27 24.27 24.28 24.06 24.27 24.27 24.18 24.28 24.28 23.53 24.28 24.26 24.25 24.28 24.22 23.04 24.27 24.24 22.25 24.27 24.26 24.28 24.24 23.58 24.27 24.28 20.90 24.25 24.28 23.89 24.20 24.27 24.27 24.28 24.27 24.24 24.28 24.27 24.25 24.28 24.27 23.85 24.28 24.27 23.87 24.28 24.27 24.27 24.27 24.09 24.16 24.28 24.19 19.90 24.21 24.27 24.28 23.68 24.27 24.28 24.21 24.28 24.28 20.98 24.20 24.27 23.91
# diagonal-C6 S 125.89 125.81 125.81 125.81 125.81 125.90
# diagonal-C6 Na 186.11 186.11
EvdW_6 =   -0.066539
EvdW_8 =   -0.060781

# Ionic positions in cartesian coordinates:
ion C  28.011910236849264   0.002219763580138  18.682854412394537 1
ion C  16.343420281457064  20.215529840309792  18.682312019708569 1
ion C   2.339822181400544   4.042564294635056  18.664577991150388 1
ion C  23.344788688113091   0.002097944444792  18.680137570154951 1
ion C   4.673510582583059   0.001811926900847  18.676322909213503 1
ion C  11.675792538736948  20.215438235776229  18.663066135725625 1
ion C  25.677413408362217   4.042495453272838  18.686899079342080 1
ion C  18.677099035458252  16.173148171823758  18.685403528179492 1
ion C   4.673487420914283   8.082412064665133  18.611819215557823 1
ion C  18.677856985569925   0.002083928203987  18.680033279348404 1
ion C   9.340995715742576   0.001468680763731  18.672857248819060 1
ion C   9.342034925866171  16.176353753350615  18.611294411820769 1
ion C  23.343972355677941   8.085000631929171  18.690044008210808 1
ion C  21.010223156926127  12.129008674169796  18.690163021531578 1
ion C   7.010512740386218  12.128720830013085  18.570366099083241 1
ion C  14.009388087962492   0.001906040235317  18.680631035749016 1
ion C  14.010436070003792  16.175811440612570  18.656912995663266 1
ion C   7.006885479245672   4.041052607342899  18.643267721572780 1
ion C  21.011268752338793   4.043004030142968  18.693706847049114 1
ion C  16.345638638030920  12.130586722533257  18.673078885474609 1
ion C   9.338321362063933   8.081716254791615  18.598503948868046 1
ion C  16.344784378988400   4.041863585363015  18.691514908720226 1
ion C  11.674750981729126   4.041470537104368  18.660936585897762 1
ion C  11.676936610095854  12.134527684742556  18.614266143451228 1
ion C  18.679366663611244   8.085068545724013  18.695161820156130 1
ion C   7.008658957547139  20.216379292680088  18.653031715813221 1
ion C  -6.995713872213307  20.214703171211188  18.688477215253005 1
ion C   0.003348208513086   8.082482261229762  18.669436205521798 1
ion C  14.013719130527859   8.082877211286972  18.666738482175969 1
ion C   2.340405315289189  20.216617070754740  18.670542854467943 1
ion C  -4.662670112690889  16.173015132550599  18.693222387616760 1
ion C   2.337843775133630  12.127796393942413  18.640114111376839 1
ion C  -2.331620585801025  12.128377975048737  18.685961572814122 1
ion C  -2.328390195481717  20.215570699478960  18.686933806651240 1
ion C   4.675560676954575  16.177799457582839  18.626028906602791 1
ion C   0.004396126023920  16.174919789695490  18.678526509016976 1
ion C  14.009667092769647  21.561897211726262  18.678236418493206 1
ion C   2.339975233489926   1.348700411170866  18.676563105892225 1
ion C  25.678138720632976   1.348492482747284  18.684947587863604 1
ion C  16.344041333530967  17.521538857806590  18.677472752415042 1
ion C   4.673725458900750   5.388232415772075  18.638660383948409 1
ion C  21.011344400627163   1.348893438463100  18.686684053275581 1
ion C   7.007274620361919   1.347885698147265  18.666137575032067 1
ion C  11.676074924128731  17.521845888449882  18.641993863649990 1
ion C  23.344474331440505   5.390308092323213  18.691783116726938 1
ion C  18.678124307730791  13.478622060503485  18.683577630943212 1
ion C   7.006457771552991   9.432752629092036  18.577646700814473 1
ion C  16.343775003794505   1.347826600224892  18.685231305918876 1
ion C  11.674910052517296   1.347762477910186  18.671724103254160 1
ion C   9.341473498850080  13.481563465305443  18.585178285281202 1
ion C  21.011666714338382   9.434100928516692  18.692081040625723 1
ion C   9.342482323691250  21.562172975682746  18.665020875655312 1
ion C  -9.328954236705073  21.561780709011305  18.684888934651983 1
ion C   0.005300106435699   5.388491090450849  18.674572248064244 1
ion C  14.012834121286176  13.481674844521114  18.650446678840453 1
ion C   9.340241551693328   5.387149672731647  18.631494852239872 1
ion C  18.678237946447190   5.390176928543078  18.695799757929610 1
ion C  16.347060516622719   9.434287354562358  18.682297281373945 1
ion C  11.675195483957204   9.432756706535526  18.624085661588719 1
ion C  14.010370291847531   5.387097250625039  18.676384691981855 1
ion C   4.674488235644843  21.562176275056768  18.665762752961211 1
ion C  -6.995769635550399  17.520447348468473  18.690714188320783 1
ion C   2.338001080571558   9.428200048716308  18.639008612505936 1
ion C  -2.329402888135192   9.432702777540239  18.681537585436061 1
ion C  -4.662059564340674  21.561494861485521  18.684533450935447 1
ion C   7.009099631332127  17.523609454223557  18.624711802658275 1
ion C   0.005795293934511  21.562077222982087  18.680782045941559 1
ion C  -4.663484447779537  13.477949755459957  18.692601377861322 1
ion C   4.676614008547157  13.479772118627142  18.602733685502557 1
ion C   2.340091731986849  17.522361130276995  18.660125212203958 1
ion C  -2.329514900926092  17.521177084792019  18.691798288248290 1
ion C   0.000975118338195  13.479052558435429  18.674446562176019 1
ion S   3.835766165859495  14.739701471156863  28.995441707094283 1
ion S   7.511523834878576  14.040276560367904  28.602018175044005 1
ion S   8.635057213065766  14.519886329276712  24.991243288268290 1
ion S   6.375960294455316   8.012770307949213  25.106876454318460 1
ion S   7.548100766465572   8.603094502127380  28.685454833334742 1
ion S  11.234466375204438   7.934102030188154  29.050857519947979 1
ion Na   3.709882600781138  12.533143250516401  24.268227425962376 1
ion Na  11.287421196737338   9.970663024836618  24.243920316053924 1

# Forces in Cartesian coordinates:
force C   0.000084692947954  -0.000079983938837  -0.000063739438818 1
force C  -0.000008400506645  -0.000121338582520  -0.000076002317296 1
force C  -0.000123680810213  -0.000011805776857   0.000123493986519 1
force C   0.000042650550676  -0.000025509196082   0.000144376996507 1
force C   0.000007132972925  -0.000020881347431   0.000113007147086 1
force C   0.000113879452704   0.000022871001271   0.000047732128554 1
force C   0.000147230941510  -0.000023132493284  -0.000050082086675 1
force C  -0.000022340455212   0.000035420955207  -0.000064969836338 1
force C  -0.000625986863135   0.000594250602128  -0.000224992001760 1
force C  -0.000139618064537  -0.000027393396881   0.000161244049608 1
force C   0.000048362792363  -0.000016828864517   0.000142266894451 1
force C   0.000010556901417  -0.000262169031307  -0.000137670319859 1
force C   0.000033857763632   0.000194625586617   0.000066029261834 1
force C   0.000058299284066   0.000283791471311   0.000090903758264 1
force C  -0.001320224161739   0.000838110863916  -0.000739232583899 1
force C  -0.000090495938789   0.000022490402913   0.000004841442915 1
force C   0.000085317026163  -0.000316628630369  -0.000011738966812 1
force C   0.000056389573930  -0.000042351965771  -0.000014197645050 1
force C   0.000059056764207   0.000036506241377   0.000069894058743 1
force C  -0.000421754577232  -0.000016436010605   0.000209781551197 1
force C   0.001919092809401   0.001029445445528  -0.001484071095262 1
force C  -0.000162449964247   0.000022507585900  -0.000209595953789 1
force C   0.000174853810775   0.000254284189773   0.000036615520367 1
force C   0.000311603532522  -0.001689441497290  -0.002542860264342 1
force C  -0.000176048527704   0.000368956656181  -0.000183526065383 1
force C  -0.000032641793156  -0.000068645872432  -0.000064020079104 1
force C   0.000072243635294  -0.000071919373817  -0.000089618762430 1
force C   0.000499081498106   0.000658947451190  -0.000126224013539 1
force C  -0.001702662471619   0.001211583945403  -0.001127704818807 1
force C  -0.000183588156591  -0.000378121953441   0.000011710163095 1
force C   0.000081606076369  -0.000156134593510   0.000105695751313 1
force C   0.000204292428431   0.000625104521008  -0.003859334447854 1
force C   0.000727503190466   0.000371692708245   0.000081728122984 1
force C   0.000053843787425  -0.000214762540565   0.000022601162253 1
force C  -0.000362107192272  -0.001596603451543  -0.000636912674966 1
force C   0.000314799916792  -0.000592785758068   0.000008143203438 1
force C  -0.000089725659857   0.000066238560405   0.000046332977334 1
force C  -0.000016962834060  -0.000017125831426   0.000070292597879 1
force C   0.000009834566515   0.000120280574955  -0.000019308829441 1
force C  -0.000057778583104  -0.000056979568096   0.000063192806705 1
force C   0.000001007658453   0.000170393761266   0.000079282853933 1
force C  -0.000051679732706   0.000048264187409  -0.000183396336856 1
force C  -0.000034345984987   0.000053172090221  -0.000015920413496 1
force C   0.000035397726769  -0.000097898422553   0.000199855640150 1
force C  -0.000061468456367   0.000076096449528  -0.000032481538108 1
force C  -0.000150735595462  -0.000397788870594   0.000225532563045 1
force C   0.000271185078340  -0.000298624675536  -0.000195369432627 1
force C   0.000070214415993   0.000191453678581   0.000061799806662 1
force C   0.000064629977836   0.000052364782476   0.000279523681377 1
force C   0.001160197544075  -0.000723543666356  -0.000281100162734 1
force C  -0.000132270113266  -0.000221388106758   0.000185217820373 1
force C  -0.000114227909744   0.000108357568617   0.000071701024935 1
force C  -0.000024736666324   0.000037676597604  -0.000000169118883 1
force C  -0.000030399367950   0.000184077468176   0.000089542130262 1
force C  -0.000897922044526  -0.001210132878482  -0.000343032272017 1
force C   0.000261180649190   0.000693767294088  -0.000010585536824 1
force C  -0.000195355456864   0.000095646529021   0.000067027474791 1
force C  -0.000971880074097  -0.000330538380626  -0.000054207855695 1
force C   0.000723482590375   0.000186158415847  -0.004552789006236 1
force C  -0.000042832436129   0.001063601918043  -0.000025410703212 1
force C   0.000086696819533   0.000118467400178   0.000306011170006 1
force C   0.000041817565593  -0.000013841223948   0.000110900309511 1
force C  -0.000066414858055   0.001861664149937  -0.001156778844045 1
force C   0.000203945126561   0.000057660931062   0.000357588183058 1
force C  -0.000002198564372   0.000061958672625   0.000042340040155 1
force C  -0.000198090333392  -0.000133503779591  -0.000031907281394 1
force C   0.000069982350868  -0.000027219604848   0.000104598364587 1
force C   0.000088814663747  -0.000295081147272  -0.000041598624872 1
force C  -0.001658992207488  -0.000712186552865  -0.003216682041664 1
force C  -0.000074462779341  -0.000384723279734   0.000088395795058 1
force C   0.000256507898719  -0.000019432137059  -0.000231139782822 1
force C   0.001816866259624  -0.001120160857885  -0.000725416189090 1
force S  -0.005325139311160   0.005762748362462   0.010906147146347 1
force S   0.007156717672937   0.000154596340897  -0.002525162514967 1
force S   0.001002066456265   0.007666037980204   0.006704307217180 1
force S  -0.001056690510665  -0.007585224780221   0.006811041599137 1
force S  -0.006772509768305  -0.000232960302800  -0.002387479893378 1
force S   0.005156885595542  -0.005320340708661   0.010928772514050 1
force Na  -0.015566352288863   0.000652522029761  -0.005349293824058 1
force Na   0.015460950776969  -0.001164638739296  -0.005383333997540 1

# Energy components:
   A_diel =       -0.1897237248546705
   Eewald =     5099.7320913113389906
       EH =     5538.0876379005885610
     Eloc =   -11249.7851432547049626
      Enl =      -75.3393835782730577
     EvdW =       -0.1273196502707276
      Exc =     -170.3186348886169128
 Exc_core =       13.0310488434797236
       KE =      276.4134985036311036
-------------------------------------
     Etot =     -568.4959285376812659
       TS =        0.0730646729018899
-------------------------------------
        F =     -568.5689932105831303

IonicMinimize: Iter:   0  F: -568.568993210583130  |grad|_K:  2.341e-03  alpha:  1.000e+00

#--- Lowdin population analysis ---
# oxidation-state C +0.044 +0.044 +0.043 +0.044 +0.044 +0.044 +0.043 +0.043 +0.038 +0.044 +0.044 +0.041 +0.043 +0.043 +0.033 +0.043 +0.042 +0.043 +0.043 +0.041 +0.038 +0.043 +0.042 +0.036 +0.043 +0.044 +0.043 +0.042 +0.040 +0.043 +0.043 +0.038 +0.041 +0.043 +0.040 +0.041 +0.044 +0.044 +0.044 +0.043 +0.042 +0.043 +0.044 +0.043 +0.043 +0.043 +0.035 +0.043 +0.044 +0.036 +0.043 +0.044 +0.044 +0.043 +0.040 +0.041 +0.043 +0.040 +0.036 +0.041 +0.043 +0.043 +0.039 +0.042 +0.044 +0.043 +0.043 +0.043 +0.035 +0.041 +0.043 +0.040
# oxidation-state S -0.461 +0.330 -0.430 -0.432 +0.330 -0.462
# oxidation-state Na +0.816 +0.816


Computing DFT-D3 correction:
# coordination-number C 3.301 3.301 3.301 3.301 3.301 3.301 3.301 3.300 3.322 3.301 3.301 3.310 3.300 3.300 3.368 3.301 3.303 3.303 3.301 3.306 3.405 3.301 3.305 3.461 3.301 3.302 3.301 3.305 3.366 3.301 3.300 3.555 3.303 3.300 3.338 3.308 3.301 3.301 3.301 3.301 3.304 3.301 3.301 3.303 3.300 3.301 3.340 3.301 3.301 3.339 3.300 3.301 3.301 3.301 3.320 3.313 3.300 3.310 3.635 3.308 3.301 3.301 3.357 3.302 3.301 3.307 3.301 3.300 3.546 3.309 3.301 3.338
# coordination-number S 2.002 2.995 2.913 2.911 2.993 2.001
# coordination-number Na 4.332 4.360
# diagonal-C6 C 24.28 24.28 24.27 24.27 24.27 24.27 24.28 24.28 24.06 24.27 24.27 24.19 24.28 24.28 23.53 24.28 24.26 24.25 24.28 24.22 23.04 24.27 24.24 22.22 24.28 24.26 24.28 24.23 23.55 24.27 24.28 20.85 24.25 24.28 23.88 24.20 24.27 24.27 24.28 24.27 24.24 24.28 24.27 24.25 24.28 24.28 23.86 24.28 24.27 23.88 24.28 24.27 24.27 24.27 24.08 24.16 24.28 24.19 19.89 24.21 24.27 24.28 23.67 24.27 24.28 24.22 24.28 24.28 20.97 24.19 24.28 23.89
# diagonal-C6 S 125.90 125.81 125.81 125.81 125.81 125.90
# diagonal-C6 Na 186.11 186.11
EvdW_6 =   -0.066530
EvdW_8 =   -0.060811

-------- Electronic minimization -----------
Will mix electronic density at each iteration.
	FillingsUpdate:  mu: -0.110380315  nElectrons: 342.000000
	Linear fluid (dielectric constant: 64) occupying 0.876001 of unit cell:	Completed after 18 iterations at t[s]:    273.73
	FillingsUpdate:  mu: -0.110371083  nElectrons: 342.000000
	Linear fluid (dielectric constant: 64) occupying 0.875983 of unit cell:	Completed after 11 iterations at t[s]:    277.80
SCF: Cycle:  0   F: -568.570213116742252   dF: -9.556e-05   |Residual|: 4.346e-03   |deigs|: 7.244e-06  t[s]:    277.97
	Linear fluid (dielectric constant: 64) occupying 0.876002 of unit cell:	Completed after 9 iterations at t[s]:    278.18
	FillingsUpdate:  mu: -0.110400648  nElectrons: 342.000000
	Linear fluid (dielectric constant: 64) occupying 0.875990 of unit cell:	Completed after 5 iterations at t[s]:    280.57
SCF: Cycle:  1   F: -568.570235238542182   dF: -2.212e-05   |Residual|: 2.010e-03   |deigs|: 6.434e-05  t[s]:    280.74
	Linear fluid (dielectric constant: 64) occupying 0.876001 of unit cell:	Completed after 5 iterations at t[s]:    280.88
	FillingsUpdate:  mu: -0.110394585  nElectrons: 342.000000
	Linear fluid (dielectric constant: 64) occupying 0.875991 of unit cell:	Completed after 3 iterations at t[s]:    283.26
SCF: Cycle:  2   F: -568.570238864848193   dF: -3.626e-06   |Residual|: 5.500e-04   |deigs|: 8.419e-05  t[s]:    283.41
	Linear fluid (dielectric constant: 64) occupying 0.875998 of unit cell:	Completed after 2 iterations at t[s]:    283.53
	FillingsUpdate:  mu: -0.110403707  nElectrons: 342.000000
	Linear fluid (dielectric constant: 64) occupying 0.875992 of unit cell:	Completed after 3 iterations at t[s]:    285.90
SCF: Cycle:  3   F: -568.570239256276182   dF: -3.914e-07   |Residual|: 3.220e-04   |deigs|: 6.424e-05  t[s]:    286.06
	Linear fluid (dielectric constant: 64) occupying 0.875996 of unit cell:	Completed after 1 iterations at t[s]:    286.17
	FillingsUpdate:  mu: -0.110402945  nElectrons: 342.000000
	Linear fluid (dielectric constant: 64) occupying 0.875991 of unit cell:	Completed after 2 iterations at t[s]:    288.54
SCF: Cycle:  4   F: -568.570239301483184   dF: -4.521e-08   |Residual|: 2.343e-04   |deigs|: 7.143e-05  t[s]:    288.69
	Linear fluid (dielectric constant: 64) occupying 0.875993 of unit cell:	Completed after 1 iterations at t[s]:    288.80
	FillingsUpdate:  mu: -0.110405545  nElectrons: 342.000000
	Linear fluid (dielectric constant: 64) occupying 0.875992 of unit cell:	Completed after 3 iterations at t[s]:    291.79
SCF: Cycle:  5   F: -568.570239293581494   dF: +7.902e-09   |Residual|: 2.053e-04   |deigs|: 7.166e-05  t[s]:    291.94
	Linear fluid (dielectric constant: 64) occupying 0.875991 of unit cell:	Completed after 1 iterations at t[s]:    292.06
	FillingsUpdate:  mu: -0.110402375  nElectrons: 342.000000
	Linear fluid (dielectric constant: 64) occupying 0.875990 of unit cell:	Completed after 3 iterations at t[s]:    295.47
SCF: Cycle:  6   F: -568.570239037442207   dF: +2.561e-07   |Residual|: 2.792e-04   |deigs|: 6.643e-05  t[s]:    295.63
	Linear fluid (dielectric constant: 64) occupying 0.875989 of unit cell:	Completed after 2 iterations at t[s]:    295.75
	FillingsUpdate:  mu: -0.110403816  nElectrons: 342.000000
	Linear fluid (dielectric constant: 64) occupying 0.875991 of unit cell:	Completed after 4 iterations at t[s]:    298.74
SCF: Cycle:  7   F: -568.570239070588741   dF: -3.315e-08   |Residual|: 2.702e-04   |deigs|: 7.346e-05  t[s]:    298.90
	Linear fluid (dielectric constant: 64) occupying 0.875989 of unit cell:	Completed after 2 iterations at t[s]:    299.03
	FillingsUpdate:  mu: -0.110400001  nElectrons: 342.000000
	Linear fluid (dielectric constant: 64) occupying 0.875990 of unit cell:	Completed after 3 iterations at t[s]:    302.18
SCF: Cycle:  8   F: -568.570239292725205   dF: -2.221e-07   |Residual|: 1.893e-04   |deigs|: 2.698e-05  t[s]:    302.34
	Linear fluid (dielectric constant: 64) occupying 0.875988 of unit cell:	Completed after 1 iterations at t[s]:    302.45
	FillingsUpdate:  mu: -0.110414365  nElectrons: 342.000000
	Linear fluid (dielectric constant: 64) occupying 0.875992 of unit cell:	Completed after 3 iterations at t[s]:    305.43
SCF: Cycle:  9   F: -568.570238917127767   dF: +3.756e-07   |Residual|: 3.409e-04   |deigs|: 5.753e-05  t[s]:    305.58
	Linear fluid (dielectric constant: 64) occupying 0.875988 of unit cell:	Completed after 3 iterations at t[s]:    305.73
	FillingsUpdate:  mu: -0.110404419  nElectrons: 342.000000
	Linear fluid (dielectric constant: 64) occupying 0.875991 of unit cell:	Completed after 0 iterations at t[s]:    308.04
SCF: Cycle: 10   F: -568.570239598626927   dF: -6.815e-07   |Residual|: 1.044e-04   |deigs|: 1.816e-05  t[s]:    308.18
	Linear fluid (dielectric constant: 64) occupying 0.875987 of unit cell:	Completed after 0 iterations at t[s]:    308.27
	FillingsUpdate:  mu: -0.110410753  nElectrons: 342.000000
	Linear fluid (dielectric constant: 64) occupying 0.875991 of unit cell:	Completed after 0 iterations at t[s]:    310.57
SCF: Cycle: 11   F: -568.570239604989979   dF: -6.363e-09   |Residual|: 7.936e-05   |deigs|: 8.875e-06  t[s]:    310.70
	Linear fluid (dielectric constant: 64) occupying 0.875988 of unit cell:	Completed after 0 iterations at t[s]:    310.80
	FillingsUpdate:  mu: -0.110404365  nElectrons: 342.000000
	Linear fluid (dielectric constant: 64) occupying 0.875991 of unit cell:	Completed after 0 iterations at t[s]:    313.76
SCF: Cycle: 12   F: -568.570239633240817   dF: -2.825e-08   |Residual|: 1.170e-04   |deigs|: 2.451e-05  t[s]:    313.88
	Linear fluid (dielectric constant: 64) occupying 0.875988 of unit cell:	Completed after 0 iterations at t[s]:    313.99
	FillingsUpdate:  mu: -0.110404072  nElectrons: 342.000000
	Linear fluid (dielectric constant: 64) occupying 0.875991 of unit cell:	Completed after 0 iterations at t[s]:    316.91
SCF: Cycle: 13   F: -568.570239649626387   dF: -1.639e-08   |Residual|: 1.358e-04   |deigs|: 2.234e-05  t[s]:    317.05
	Linear fluid (dielectric constant: 64) occupying 0.875988 of unit cell:	Completed after 0 iterations at t[s]:    318.51
	FillingsUpdate:  mu: -0.110403853  nElectrons: 342.000000
	Linear fluid (dielectric constant: 64) occupying 0.875991 of unit cell:	Completed after 0 iterations at t[s]:    321.45
SCF: Cycle: 14   F: -568.570239664700921   dF: -1.507e-08   |Residual|: 1.472e-04   |deigs|: 3.181e-05  t[s]:    321.58
	Linear fluid (dielectric constant: 64) occupying 0.875989 of unit cell:	Completed after 2 iterations at t[s]:    321.72
	FillingsUpdate:  mu: -0.110415932  nElectrons: 342.000000
	Linear fluid (dielectric constant: 64) occupying 0.875992 of unit cell:	Completed after 5 iterations at t[s]:    326.37
SCF: Cycle: 15   F: -568.570238011424522   dF: +1.653e-06   |Residual|: 6.530e-04   |deigs|: 1.172e-04  t[s]:    326.54
	Linear fluid (dielectric constant: 64) occupying 0.875989 of unit cell:	Completed after 3 iterations at t[s]:    326.67
	FillingsUpdate:  mu: -0.110417962  nElectrons: 342.000000
	Linear fluid (dielectric constant: 64) occupying 0.875992 of unit cell:	Completed after 5 iterations at t[s]:    331.04
SCF: Cycle: 16   F: -568.570238193546288   dF: -1.821e-07   |Residual|: 6.110e-04   |deigs|: 8.106e-06  t[s]:    331.20
	Linear fluid (dielectric constant: 64) occupying 0.875989 of unit cell:	Completed after 3 iterations at t[s]:    331.34
	FillingsUpdate:  mu: -0.110417587  nElectrons: 342.000000
	Linear fluid (dielectric constant: 64) occupying 0.875992 of unit cell:	Completed after 5 iterations at t[s]:    334.44
SCF: Cycle: 17   F: -568.570238321081320   dF: -1.275e-07   |Residual|: 5.950e-04   |deigs|: 2.967e-06  t[s]:    334.60
	Linear fluid (dielectric constant: 64) occupying 0.875989 of unit cell:	Completed after 3 iterations at t[s]:    334.74
	FillingsUpdate:  mu: -0.110418120  nElectrons: 342.000000
	Linear fluid (dielectric constant: 64) occupying 0.875992 of unit cell:	Completed after 5 iterations at t[s]:    337.16
SCF: Cycle: 18   F: -568.570238364544480   dF: -4.346e-08   |Residual|: 5.869e-04   |deigs|: 2.849e-06  t[s]:    337.32
	Linear fluid (dielectric constant: 64) occupying 0.875989 of unit cell:	Completed after 3 iterations at t[s]:    337.45
	FillingsUpdate:  mu: -0.110418066  nElectrons: 342.000000
	Linear fluid (dielectric constant: 64) occupying 0.875992 of unit cell:	Completed after 5 iterations at t[s]:    339.73
SCF: Cycle: 19   F: -568.570238330897382   dF: +3.365e-08   |Residual|: 5.959e-04   |deigs|: 2.176e-06  t[s]:    339.90
	Linear fluid (dielectric constant: 64) occupying 0.875989 of unit cell:	Completed after 3 iterations at t[s]:    340.03
	FillingsUpdate:  mu: -0.110418397  nElectrons: 342.000000
	Linear fluid (dielectric constant: 64) occupying 0.875992 of unit cell:	Completed after 5 iterations at t[s]:    342.37
SCF: Cycle: 20   F: -568.570238221089198   dF: +1.098e-07   |Residual|: 6.265e-04   |deigs|: 2.320e-06  t[s]:    342.55
	Linear fluid (dielectric constant: 64) occupying 0.875988 of unit cell:	Completed after 3 iterations at t[s]:    342.68
	FillingsUpdate:  mu: -0.110419999  nElectrons: 342.000000
	Linear fluid (dielectric constant: 64) occupying 0.875992 of unit cell:	Completed after 5 iterations at t[s]:    345.05
SCF: Cycle: 21   F: -568.570238077493173   dF: +1.436e-07   |Residual|: 6.552e-04   |deigs|: 1.346e-05  t[s]:    345.21
	Linear fluid (dielectric constant: 64) occupying 0.875988 of unit cell:	Completed after 3 iterations at t[s]:    345.36
	FillingsUpdate:  mu: -0.110420314  nElectrons: 342.000000
	Linear fluid (dielectric constant: 64) occupying 0.875992 of unit cell:	Completed after 5 iterations at t[s]:    347.74
SCF: Cycle: 22   F: -568.570238224098375   dF: -1.466e-07   |Residual|: 6.297e-04   |deigs|: 6.230e-06  t[s]:    347.90
	Linear fluid (dielectric constant: 64) occupying 0.875988 of unit cell:	Completed after 3 iterations at t[s]:    348.04
	FillingsUpdate:  mu: -0.110419824  nElectrons: 342.000000
	Linear fluid (dielectric constant: 64) occupying 0.875992 of unit cell:	Completed after 4 iterations at t[s]:    350.41
SCF: Cycle: 23   F: -568.570238604211227   dF: -3.801e-07   |Residual|: 5.421e-04   |deigs|: 8.901e-06  t[s]:    350.56
	Linear fluid (dielectric constant: 64) occupying 0.875987 of unit cell:	Completed after 4 iterations at t[s]:    350.70
	FillingsUpdate:  mu: -0.110417694  nElectrons: 342.000000
	Linear fluid (dielectric constant: 64) occupying 0.875992 of unit cell:	Completed after 2 iterations at t[s]:    353.67
SCF: Cycle: 24   F: -568.570239373556092   dF: -7.693e-07   |Residual|: 2.843e-04   |deigs|: 7.584e-05  t[s]:    353.81
	Linear fluid (dielectric constant: 64) occupying 0.875986 of unit cell:	Completed after 2 iterations at t[s]:    353.94
	FillingsUpdate:  mu: -0.110410997  nElectrons: 342.000000
	Linear fluid (dielectric constant: 64) occupying 0.875991 of unit cell:	Completed after 1 iterations at t[s]:    356.26
SCF: Cycle: 25   F: -568.570239601490698   dF: -2.279e-07   |Residual|: 1.211e-04   |deigs|: 2.611e-05  t[s]:    356.40
	Linear fluid (dielectric constant: 64) occupying 0.875987 of unit cell:	Completed after 0 iterations at t[s]:    356.51
	FillingsUpdate:  mu: -0.110413644  nElectrons: 342.000000
	Linear fluid (dielectric constant: 64) occupying 0.875991 of unit cell:	Completed after 0 iterations at t[s]:    359.44
SCF: Cycle: 26   F: -568.570239630771653   dF: -2.928e-08   |Residual|: 1.014e-04   |deigs|: 3.581e-05  t[s]:    359.58
	Linear fluid (dielectric constant: 64) occupying 0.875988 of unit cell:	Completed after 0 iterations at t[s]:    359.67
	FillingsUpdate:  mu: -0.110414126  nElectrons: 342.000000
	Linear fluid (dielectric constant: 64) occupying 0.875991 of unit cell:	Completed after 0 iterations at t[s]:    362.59
SCF: Cycle: 27   F: -568.570239638561588   dF: -7.790e-09   |Residual|: 5.184e-05   |deigs|: 2.146e-05  t[s]:    362.72
	Linear fluid (dielectric constant: 64) occupying 0.875989 of unit cell:	Completed after 0 iterations at t[s]:    362.82
	FillingsUpdate:  mu: -0.110414049  nElectrons: 342.000000
	Linear fluid (dielectric constant: 64) occupying 0.875991 of unit cell:	Completed after 0 iterations at t[s]:    365.77
SCF: Cycle: 28   F: -568.570239647385279   dF: -8.824e-09   |Residual|: 5.494e-05   |deigs|: 7.508e-05  t[s]:    365.90
SCF: Converged (|Delta E|<1.000000e-08 for 2 iters).

Setting wave functions to eigenvectors of Hamiltonian
IonicMinimize: 	Predicted alpha/alphaT>3.000000, increasing alphaT to 3.000000e+00.

Computing DFT-D3 correction:
# coordination-number C 3.301 3.301 3.301 3.301 3.301 3.301 3.300 3.300 3.322 3.301 3.301 3.309 3.300 3.300 3.367 3.301 3.302 3.303 3.300 3.307 3.405 3.300 3.305 3.464 3.300 3.301 3.300 3.305 3.370 3.301 3.300 3.562 3.304 3.300 3.339 3.309 3.301 3.301 3.301 3.300 3.304 3.301 3.301 3.303 3.300 3.300 3.340 3.300 3.301 3.338 3.300 3.301 3.301 3.301 3.321 3.313 3.300 3.311 3.639 3.308 3.301 3.300 3.359 3.302 3.301 3.306 3.300 3.300 3.547 3.309 3.300 3.341
# coordination-number S 1.991 2.970 2.887 2.886 2.968 1.991
# coordination-number Na 4.275 4.304
# diagonal-C6 C 24.28 24.28 24.27 24.27 24.27 24.27 24.28 24.28 24.06 24.28 24.27 24.19 24.28 24.28 23.54 24.28 24.26 24.26 24.28 24.22 23.03 24.28 24.24 22.18 24.28 24.27 24.28 24.23 23.50 24.27 24.28 20.76 24.25 24.28 23.87 24.19 24.28 24.27 24.28 24.28 24.24 24.28 24.27 24.26 24.28 24.28 23.87 24.28 24.28 23.88 24.28 24.27 24.28 24.27 24.07 24.16 24.28 24.17 19.85 24.20 24.27 24.28 23.64 24.27 24.28 24.22 24.28 24.28 20.97 24.19 24.28 23.85
# diagonal-C6 S 125.91 125.81 125.81 125.81 125.81 125.91
# diagonal-C6 Na 186.11 186.11
EvdW_6 =   -0.066513
EvdW_8 =   -0.060872

-------- Electronic minimization -----------
Will mix electronic density at each iteration.
	FillingsUpdate:  mu: -0.110414049  nElectrons: 342.000000
	Linear fluid (dielectric constant: 64) occupying 0.875986 of unit cell:	Completed after 25 iterations at t[s]:    369.43
	FillingsUpdate:  mu: -0.109113261  nElectrons: 342.000000
	Linear fluid (dielectric constant: 64) occupying 0.875610 of unit cell:	Completed after 31 iterations at t[s]:    373.77
SCF: Cycle:  0   F: -568.559268599039569   dF: -3.502e-02   |Residual|: 1.046e-01   |deigs|: 5.266e-04  t[s]:    373.94
	Linear fluid (dielectric constant: 64) occupying 0.876177 of unit cell:	Completed after 30 iterations at t[s]:    374.41
	FillingsUpdate:  mu: -0.109465060  nElectrons: 342.000000
	Linear fluid (dielectric constant: 64) occupying 0.875740 of unit cell:	Completed after 28 iterations at t[s]:    378.19
SCF: Cycle:  1   F: -568.569451299188472   dF: -1.018e-02   |Residual|: 4.881e-02   |deigs|: 1.446e-03  t[s]:    378.36
	Linear fluid (dielectric constant: 64) occupying 0.876237 of unit cell:	Completed after 27 iterations at t[s]:    378.78
	FillingsUpdate:  mu: -0.109838385  nElectrons: 342.000000
	Linear fluid (dielectric constant: 64) occupying 0.875836 of unit cell:	Completed after 24 iterations at t[s]:    382.52
SCF: Cycle:  2   F: -568.571990523782915   dF: -2.539e-03   |Residual|: 1.219e-02   |deigs|: 1.257e-03  t[s]:    382.69
	Linear fluid (dielectric constant: 64) occupying 0.876113 of unit cell:	Completed after 22 iterations at t[s]:    383.06
	FillingsUpdate:  mu: -0.110001969  nElectrons: 342.000000
	Linear fluid (dielectric constant: 64) occupying 0.875844 of unit cell:	Completed after 22 iterations at t[s]:    386.72
SCF: Cycle:  3   F: -568.572121356453295   dF: -1.308e-04   |Residual|: 5.987e-03   |deigs|: 6.365e-04  t[s]:    386.88
	Linear fluid (dielectric constant: 64) occupying 0.875962 of unit cell:	Completed after 17 iterations at t[s]:    387.19
	FillingsUpdate:  mu: -0.110185716  nElectrons: 342.000000
	Linear fluid (dielectric constant: 64) occupying 0.875862 of unit cell:	Completed after 17 iterations at t[s]:    390.83
SCF: Cycle:  4   F: -568.572242780943611   dF: -1.214e-04   |Residual|: 3.073e-03   |deigs|: 4.333e-04  t[s]:    390.99
	Linear fluid (dielectric constant: 64) occupying 0.875818 of unit cell:	Completed after 14 iterations at t[s]:    391.28
	FillingsUpdate:  mu: -0.110291104  nElectrons: 342.000000
	Linear fluid (dielectric constant: 64) occupying 0.875869 of unit cell:	Completed after 13 iterations at t[s]:    394.89
SCF: Cycle:  5   F: -568.572303213584064   dF: -6.043e-05   |Residual|: 1.612e-03   |deigs|: 1.639e-04  t[s]:    395.06
	Linear fluid (dielectric constant: 64) occupying 0.875759 of unit cell:	Completed after 12 iterations at t[s]:    395.32
	FillingsUpdate:  mu: -0.110340516  nElectrons: 342.000000
	Linear fluid (dielectric constant: 64) occupying 0.875869 of unit cell:	Completed after 11 iterations at t[s]:    398.40
SCF: Cycle:  6   F: -568.572319268175647   dF: -1.605e-05   |Residual|: 1.185e-03   |deigs|: 2.035e-04  t[s]:    398.57
	Linear fluid (dielectric constant: 64) occupying 0.875749 of unit cell:	Completed after 11 iterations at t[s]:    398.81
	FillingsUpdate:  mu: -0.110367322  nElectrons: 342.000000
	Linear fluid (dielectric constant: 64) occupying 0.875867 of unit cell:	Completed after 11 iterations at t[s]:    401.92
SCF: Cycle:  7   F: -568.572325936038283   dF: -6.668e-06   |Residual|: 9.298e-04   |deigs|: 3.564e-04  t[s]:    402.09
	Linear fluid (dielectric constant: 64) occupying 0.875783 of unit cell:	Completed after 8 iterations at t[s]:    402.30
	FillingsUpdate:  mu: -0.110382509  nElectrons: 342.000000
	Linear fluid (dielectric constant: 64) occupying 0.875866 of unit cell:	Completed after 6 iterations at t[s]:    405.36
SCF: Cycle:  8   F: -568.572330151420829   dF: -4.215e-06   |Residual|: 7.048e-04   |deigs|: 3.572e-04  t[s]:    405.53
	Linear fluid (dielectric constant: 64) occupying 0.875814 of unit cell:	Completed after 8 iterations at t[s]:    405.72
	FillingsUpdate:  mu: -0.110400130  nElectrons: 342.000000
	Linear fluid (dielectric constant: 64) occupying 0.875866 of unit cell:	Completed after 5 iterations at t[s]:    408.73
SCF: Cycle:  9   F: -568.572332351935643   dF: -2.201e-06   |Residual|: 5.520e-04   |deigs|: 5.059e-04  t[s]:    408.89
	Linear fluid (dielectric constant: 64) occupying 0.875836 of unit cell:	Completed after 5 iterations at t[s]:    409.05
	FillingsUpdate:  mu: -0.110408708  nElectrons: 342.000000
	Linear fluid (dielectric constant: 64) occupying 0.875867 of unit cell:	Completed after 5 iterations at t[s]:    412.08
SCF: Cycle: 10   F: -568.572332929436698   dF: -5.775e-07   |Residual|: 4.658e-04   |deigs|: 3.237e-04  t[s]:    412.24
	Linear fluid (dielectric constant: 64) occupying 0.875845 of unit cell:	Completed after 3 iterations at t[s]:    412.38
	FillingsUpdate:  mu: -0.110433275  nElectrons: 342.000000
	Linear fluid (dielectric constant: 64) occupying 0.875870 of unit cell:	Completed after 4 iterations at t[s]:    415.43
SCF: Cycle: 11   F: -568.572333307828899   dF: -3.784e-07   |Residual|: 4.369e-04   |deigs|: 4.842e-04  t[s]:    415.60
	Linear fluid (dielectric constant: 64) occupying 0.875844 of unit cell:	Completed after 2 iterations at t[s]:    415.73
	FillingsUpdate:  mu: -0.110444914  nElectrons: 342.000000
	Linear fluid (dielectric constant: 64) occupying 0.875872 of unit cell:	Completed after 3 iterations at t[s]:    418.75
SCF: Cycle: 12   F: -568.572333494470740   dF: -1.866e-07   |Residual|: 3.657e-04   |deigs|: 2.417e-04  t[s]:    418.90
	Linear fluid (dielectric constant: 64) occupying 0.875850 of unit cell:	Completed after 4 iterations at t[s]:    419.04
	FillingsUpdate:  mu: -0.110448529  nElectrons: 342.000000
	Linear fluid (dielectric constant: 64) occupying 0.875873 of unit cell:	Completed after 2 iterations at t[s]:    422.05
SCF: Cycle: 13   F: -568.572333531870186   dF: -3.740e-08   |Residual|: 3.673e-04   |deigs|: 2.257e-04  t[s]:    422.20
	Linear fluid (dielectric constant: 64) occupying 0.875860 of unit cell:	Completed after 2 iterations at t[s]:    422.33
	FillingsUpdate:  mu: -0.110453787  nElectrons: 342.000000
	Linear fluid (dielectric constant: 64) occupying 0.875875 of unit cell:	Completed after 1 iterations at t[s]:    425.36
SCF: Cycle: 14   F: -568.572333577467361   dF: -4.560e-08   |Residual|: 2.605e-04   |deigs|: 1.033e-04  t[s]:    425.51
[...]
# coordination-number Na 0.392 0.392
# diagonal-C6 C 24.27 24.27 24.28 24.28 24.28 24.28 24.28 24.28 24.22 24.29 24.28 24.24 24.28 24.29 24.22 24.29 24.26 24.27 24.29 24.09 24.22 24.27 24.27 24.12 24.25 24.28 24.28 24.22 24.03 24.28 24.28 23.92 24.15 24.28 24.25 24.21 24.27 24.28 24.27 24.28 24.27 24.28 24.28 24.27 24.28 24.27 24.21 24.28 24.28 24.21 24.28 24.28 24.28 24.27 24.13 24.26 24.27 24.03 24.08 24.24 24.28 24.29 24.13 24.22 24.29 24.26 24.28 24.27 24.20 24.26 24.27 23.93
# diagonal-C6 S 130.73 125.81 130.48 130.46 125.81 130.74
# diagonal-C6 Na 966.85 967.94
EvdW_6 =   -0.069977
EvdW_8 =   -0.065229

-------- Electronic minimization -----------
Will mix electronic density at each iteration.
	FillingsUpdate:  mu: -0.108366549  nElectrons: 342.000000
	Linear fluid (dielectric constant: 64) occupying 0.873896 of unit cell:	Completed after 19 iterations at t[s]:  15181.49
	FillingsUpdate:  mu: -0.108398080  nElectrons: 342.000000
	Linear fluid (dielectric constant: 64) occupying 0.873905 of unit cell:	Completed after 10 iterations at t[s]:  15185.30
SCF: Cycle:  0   F: -568.632666115966003   dF: -8.904e-05   |Residual|: 3.362e-03   |deigs|: 2.982e-06  t[s]:  15185.47
	Linear fluid (dielectric constant: 64) occupying 0.873895 of unit cell:	Completed after 9 iterations at t[s]:  15185.68
	FillingsUpdate:  mu: -0.108388583  nElectrons: 342.000000
	Linear fluid (dielectric constant: 64) occupying 0.873901 of unit cell:	Completed after 5 iterations at t[s]:  15188.08
SCF: Cycle:  1   F: -568.632679487042992   dF: -1.337e-05   |Residual|: 1.527e-03   |deigs|: 2.454e-05  t[s]:  15188.24
	Linear fluid (dielectric constant: 64) occupying 0.873895 of unit cell:	Completed after 4 iterations at t[s]:  15188.39
	FillingsUpdate:  mu: -0.108383086  nElectrons: 342.000000
	Linear fluid (dielectric constant: 64) occupying 0.873900 of unit cell:	Completed after 3 iterations at t[s]:  15190.77
SCF: Cycle:  2   F: -568.632681465286169   dF: -1.978e-06   |Residual|: 4.211e-04   |deigs|: 2.497e-05  t[s]:  15190.93
	Linear fluid (dielectric constant: 64) occupying 0.873897 of unit cell:	Completed after 2 iterations at t[s]:  15191.05
	FillingsUpdate:  mu: -0.108384013  nElectrons: 342.000000
	Linear fluid (dielectric constant: 64) occupying 0.873899 of unit cell:	Completed after 1 iterations at t[s]:  15193.38
SCF: Cycle:  3   F: -568.632681890574531   dF: -4.253e-07   |Residual|: 2.067e-04   |deigs|: 2.080e-05  t[s]:  15193.51
	Linear fluid (dielectric constant: 64) occupying 0.873898 of unit cell:	Completed after 0 iterations at t[s]:  15193.63
	FillingsUpdate:  mu: -0.108382025  nElectrons: 342.000000
	Linear fluid (dielectric constant: 64) occupying 0.873899 of unit cell:	Completed after 0 iterations at t[s]:  15195.94
SCF: Cycle:  4   F: -568.632681958196599   dF: -6.762e-08   |Residual|: 1.261e-04   |deigs|: 1.453e-05  t[s]:  15196.08
	Linear fluid (dielectric constant: 64) occupying 0.873900 of unit cell:	Completed after 0 iterations at t[s]:  15196.18
	FillingsUpdate:  mu: -0.108378265  nElectrons: 342.000000
	Linear fluid (dielectric constant: 64) occupying 0.873900 of unit cell:	Completed after 0 iterations at t[s]:  15199.11
SCF: Cycle:  5   F: -568.632682009856239   dF: -5.166e-08   |Residual|: 7.638e-05   |deigs|: 2.580e-05  t[s]:  15199.24
	Linear fluid (dielectric constant: 64) occupying 0.873901 of unit cell:	Completed after 0 iterations at t[s]:  15199.33
	FillingsUpdate:  mu: -0.108378284  nElectrons: 342.000000
	Linear fluid (dielectric constant: 64) occupying 0.873900 of unit cell:	Completed after 0 iterations at t[s]:  15202.25
SCF: Cycle:  6   F: -568.632682037516815   dF: -2.766e-08   |Residual|: 5.611e-05   |deigs|: 2.646e-05  t[s]:  15202.38
	Linear fluid (dielectric constant: 64) occupying 0.873902 of unit cell:	Completed after 0 iterations at t[s]:  15202.48
	FillingsUpdate:  mu: -0.108378361  nElectrons: 342.000000
	Linear fluid (dielectric constant: 64) occupying 0.873900 of unit cell:	Completed after 0 iterations at t[s]:  15205.41
SCF: Cycle:  7   F: -568.632682054851443   dF: -1.733e-08   |Residual|: 4.263e-05   |deigs|: 3.326e-05  t[s]:  15205.53
	Linear fluid (dielectric constant: 64) occupying 0.873901 of unit cell:	Completed after 0 iterations at t[s]:  15205.63
	FillingsUpdate:  mu: -0.108378453  nElectrons: 342.000000
	Linear fluid (dielectric constant: 64) occupying 0.873899 of unit cell:	Completed after 0 iterations at t[s]:  15208.57
SCF: Cycle:  8   F: -568.632682067551286   dF: -1.270e-08   |Residual|: 2.779e-05   |deigs|: 1.452e-05  t[s]:  15208.70
	Linear fluid (dielectric constant: 64) occupying 0.873900 of unit cell:	Completed after 1 iterations at t[s]:  15208.82
	FillingsUpdate:  mu: -0.108378223  nElectrons: 342.000000
	Linear fluid (dielectric constant: 64) occupying 0.873900 of unit cell:	Completed after 0 iterations at t[s]:  15211.74
SCF: Cycle:  9   F: -568.632682034612571   dF: +3.294e-08   |Residual|: 7.706e-05   |deigs|: 1.536e-05  t[s]:  15211.87
	Linear fluid (dielectric constant: 64) occupying 0.873900 of unit cell:	Completed after 0 iterations at t[s]:  15211.97
	FillingsUpdate:  mu: -0.108378224  nElectrons: 342.000000
	Linear fluid (dielectric constant: 64) occupying 0.873900 of unit cell:	Completed after 0 iterations at t[s]:  15214.27
SCF: Cycle: 10   F: -568.632682035411563   dF: -7.990e-10   |Residual|: 7.679e-05   |deigs|: 2.334e-07  t[s]:  15214.40
	Linear fluid (dielectric constant: 64) occupying 0.873900 of unit cell:	Completed after 0 iterations at t[s]:  15214.50
	FillingsUpdate:  mu: -0.108378225  nElectrons: 342.000000
	Linear fluid (dielectric constant: 64) occupying 0.873900 of unit cell:	Completed after 0 iterations at t[s]:  15216.83
SCF: Cycle: 11   F: -568.632682036520237   dF: -1.109e-09   |Residual|: 7.774e-05   |deigs|: 6.519e-07  t[s]:  15216.96
SCF: Converged (|Delta E|<1.000000e-08 for 2 iters).

Setting wave functions to eigenvectors of Hamiltonian

Computing DFT-D3 correction:
# coordination-number C 3.301 3.301 3.300 3.300 3.300 3.300 3.300 3.300 3.306 3.300 3.300 3.305 3.300 3.300 3.306 3.300 3.302 3.301 3.299 3.319 3.306 3.301 3.301 3.317 3.303 3.300 3.300 3.307 3.325 3.300 3.301 3.335 3.314 3.300 3.304 3.308 3.301 3.301 3.301 3.300 3.302 3.300 3.300 3.301 3.300 3.302 3.308 3.300 3.300 3.308 3.300 3.300 3.301 3.301 3.316 3.302 3.301 3.325 3.320 3.304 3.300 3.299 3.315 3.306 3.300 3.302 3.300 3.301 3.309 3.302 3.301 3.334
# coordination-number S 1.133 2.427 1.217 1.221 2.430 1.130
# coordination-number Na 0.392 0.392
# diagonal-C6 C 24.27 24.27 24.28 24.28 24.28 24.28 24.28 24.28 24.22 24.29 24.28 24.24 24.28 24.29 24.22 24.29 24.26 24.27 24.29 24.09 24.22 24.27 24.27 24.12 24.25 24.28 24.28 24.22 24.03 24.28 24.28 23.92 24.15 24.28 24.25 24.21 24.27 24.28 24.27 24.28 24.27 24.28 24.28 24.27 24.28 24.27 24.21 24.28 24.28 24.21 24.28 24.28 24.28 24.27 24.13 24.26 24.27 24.03 24.08 24.24 24.28 24.29 24.13 24.22 24.29 24.26 24.28 24.27 24.20 24.26 24.27 23.93
# diagonal-C6 S 130.73 125.81 130.48 130.46 125.81 130.74
# diagonal-C6 Na 966.85 967.94
EvdW_6 =   -0.069977
EvdW_8 =   -0.065229

# Ionic positions in cartesian coordinates:
ion C  28.009987584981840  -0.000161560781335  18.585569691962469 1
ion C  16.341128868129545  20.213109179585302  18.599130696937102 1
ion C   2.337526258556532   4.040423385949873  18.591266999844827 1
ion C  23.344287274862342  -0.000621896727670  18.600041563226526 1
ion C   4.672274734332590  -0.001183171859956  18.592845785822757 1
ion C  11.675319027610227  20.213506686988211  18.593612212107093 1
ion C  25.678359926312623   4.040913305658281  18.612496104496916 1
ion C  18.674054858290816  16.171144130819300  18.639191388934382 1
ion C   4.672413191047981   8.085184827046673  18.543724009011097 1
ion C  18.676134156175923   0.000588851295362  18.617660253461651 1
ion C   9.339171698654793  -0.000471006217156  18.611608397957870 1
ion C   9.339524385736864  16.169560700075749  18.558818561625596 1
ion C  23.345170644341088   8.084755005607260  18.651969776019463 1
ion C  21.009115847581633  12.128051833119317  18.665958287279949 1
ion C   7.006214223734062  12.127606188050054  18.514125750266036 1
ion C  14.007516160419259   0.000042675002247  18.621152822061305 1
ion C  14.008463464860638  16.170551560805997  18.604049376384612 1
ion C   7.006945743119376   4.042522156329171  18.584056995238740 1
ion C  21.009408134669069   4.040806053806414  18.635864032753222 1
ion C  16.340153830907738  12.127956862390299  18.623410099165984 1
ion C   9.339376709318913   8.085808285667902  18.543178794197061 1
ion C  16.340343624236130   4.042680538289980  18.626711345001507 1
ion C  11.674367448642379   4.041511202013778  18.599743228442328 1
ion C  11.673427689258979  12.126727957554795  18.561582801509324 1
ion C  18.673967767470288   8.084232819047070  18.648217976893420 1
ion C   7.006315601542532  20.211518293596345  18.593649235995162 1
ion C  -6.998246483028894  20.213752965495338  18.617058126281627 1
ion C   0.004057393976768   8.084676546988955  18.601534503517048 1
ion C  14.009742807973842   8.084760499936710  18.598754665599444 1
ion C   2.338650164980711  20.210623995688152  18.604464862322857 1
ion C  -4.661068403854068  16.171042099518349  18.640677980941618 1
ion C   2.338919656516155  12.127599904280549  18.558183106118701 1
ion C  -2.328011329481898  12.128588789254513  18.623597409958066 1
ion C  -2.328936297612678  20.211519266036106  18.621502142625690 1
ion C   4.670586401592278  16.170580314969051  18.561278885118057 1
ion C   0.003019842891018  16.170036797597998  18.597241262064340 1
ion C  14.008682424908152  21.561008715605041  18.589308379650301 1
ion C   2.336895334512841   1.346125332096658  18.588876358201421 1
ion C  25.677661531531456   1.346852951629081  18.594826044785400 1
ion C  16.340030280793954  17.518969309756002  18.617547392023631 1
ion C   4.672329857708852   5.389952897069847  18.572875648981427 1
ion C  21.010155460043858   1.346764649743679  18.616998167609349 1
ion C   7.005834019217387   1.347046288297824  18.600784060075895 1
ion C  11.673980322737943  17.517837663414387  18.588267715293348 1
ion C  23.344332244284537   5.388154369842513  18.635892058225728 1
ion C  18.673456012619205  13.474684995867683  18.649072152229376 1
ion C   7.006895594052117   9.432460109584703  18.518939933552733 1
ion C  16.341338493235796   1.349052656972331  18.624015770038628 1
ion C  11.673855979247975   1.349231315215127  18.613524840758252 1
ion C   9.339136410550413  13.474301578039313  18.534520340409944 1
ion C  21.008102314666775   9.431637075639653  18.665600806020549 1
ion C   9.339872567808987  21.560977715691539  18.596160049327263 1
ion C  -9.331270817033735  21.560567549135040  18.598366815132131 1
ion C   0.003377209769960   5.389061640417047  18.603185260212975 1
ion C  14.008426530390269  13.474360466297304  18.599181341828970 1
ion C   9.340815963584699   5.389506597316407  18.575202927512510 1
ion C  18.674294541880105   5.389363566829760  18.641083431164663 1
ion C  16.340924385783790   9.431115958200259  18.623470828630964 1
ion C  11.674320984250691   9.432745615791134  18.564756695776506 1
ion C  14.009107019775566   5.388786471829539  18.609345239891990 1
ion C   4.672626933259634  21.559543779626868  18.604738420131319 1
ion C  -6.998137387142705  17.519170688966021  18.637692164462106 1
ion C   2.338991279703738   9.432142162305498  18.565343207976845 1
ion C  -2.327625210082781   9.431600867662667  18.627005530435866 1
ion C  -4.663185903329852  21.560129146070473  18.618061988671165 1
ion C   7.006003358413766  17.517292225952446  18.569091032906588 1
ion C   0.004819440709907  21.559296094294922  18.617944616619443 1
ion C  -4.660880674354988  13.475006112076924  18.650367650515708 1
ion C   4.672436617830003  13.473837324683979  18.536185287555885 1
ion C   2.338537760316179  17.518525204943995  18.586688885815150 1
ion C  -2.327853595557769  17.517184867317305  18.621175817617178 1
ion C   0.003123307624598  13.476046376539628  18.588801732661768 1
ion S   4.945559455216078  15.302020126464653  30.342379000164421 1
ion S   8.077168819851783  13.928285958800405  28.671009553134830 1
ion S   8.291256728360112  14.580736254553377  24.968689835778662 1
ion S   6.825553448387553   8.050618079020817  24.964233879669990 1
ion S   6.969127604764641   8.711122395728346  28.666949407154483 1
ion S  10.078677864323438   7.366127224419451  30.398068704335905 1
ion Na   0.922998222561906  12.153643949240466  25.247376745855103 1
ion Na  14.141623037005711  10.395728029370927  25.223314931449622 1

# Forces in Cartesian coordinates:
force C   0.000248836112352   0.000331057893028   0.000324047829120 1
force C  -0.000014925692164   0.000058778318150   0.000141335032333 1
force C   0.000460243215488   0.000932403815150  -0.000279934098378 1
force C  -0.000445751529606   0.000737489833788   0.000304710642679 1
force C  -0.000422879428372   0.001222892630874   0.000194994760989 1
force C  -0.000725702250626  -0.000460427000896  -0.000116971999866 1
force C  -0.000862358733373   0.000182109713074  -0.000066446790969 1
force C   0.000087106936295  -0.000392429802923  -0.000141765907243 1
force C   0.000191053780070  -0.000265845282767   0.000198751749926 1
force C  -0.000468945744267   0.000033299927337   0.000019757499811 1
force C   0.000552294336397   0.000905882435855  -0.000021345484646 1
force C   0.000272423209845   0.000030246836993   0.000148447897401 1
force C  -0.001207972872505  -0.000526963570965  -0.000248765689306 1
force C  -0.000157227426463  -0.000421723432578  -0.000472160445820 1
force C  -0.000157928167129  -0.000467470823422   0.000277104671813 1
force C   0.000119770702832   0.000575808066655  -0.000059499979895 1
force C  -0.000860127580530  -0.000268392208423   0.000004802388953 1
force C  -0.000297530995765  -0.000143860504375  -0.000259744961536 1
force C  -0.000061688511836   0.000763359769836  -0.000129139589231 1
force C   0.000573068494548  -0.000888240919550   0.000331319614204 1
force C   0.000829473919715  -0.000780835120677   0.000179087198912 1
force C   0.000758299612556  -0.000185682653029   0.000081444582960 1
force C  -0.000065279992982   0.001027818783330   0.000151595383152 1
force C   0.000177667451113   0.000417218370679  -0.000073371646013 1
force C   0.000668528047013  -0.000134660747234   0.000113603910440 1
force C   0.000056157369543   0.000380004497799  -0.000168504489026 1
force C   0.000545807778545  -0.000362253487704   0.000088524981583 1
force C   0.000942351465498  -0.000276154318588  -0.000089711619846 1
force C  -0.001452168412112  -0.000503734762630  -0.000059472840343 1
force C   0.000040995238315   0.001270140844442   0.000133979007445 1
force C  -0.001274923802435  -0.000312674313311  -0.000141508758060 1
force C  -0.000307495118039  -0.000150531288595  -0.000311310227706 1
force C  -0.000338768682270  -0.000985942112035   0.000102884094811 1
force C  -0.000028143228947   0.000623741428157  -0.000124875035998 1
force C   0.000949439647358  -0.000667674836418  -0.000138656464941 1
force C   0.001249942287070   0.000179868755734   0.000178380632431 1
force C  -0.000475002197986  -0.000871537261525   0.000245087878347 1
force C   0.000911496303678   0.000334545542966   0.000109314496090 1
force C  -0.000216077555205  -0.000042713033122   0.000346972088442 1
force C   0.000592414935385  -0.000302022450687  -0.000096741621728 1
force C  -0.000238127418694  -0.000297750116753  -0.000067108260309 1
force C  -0.000091509220690   0.000024292359441   0.000094765083321 1
force C  -0.000043039018536   0.000273099854067  -0.000254214109444 1
force C  -0.000022382784932  -0.000065142568258  -0.000243347240320 1
force C  -0.000336953181024   0.000584017533009   0.000054081992419 1
force C   0.000847812300651   0.000651293018926   0.000090418607422 1
force C  -0.000477188255395   0.000558408657323   0.000175875363322 1
force C   0.000123307877055  -0.001040751637054  -0.000057449562016 1
force C  -0.000199751224856  -0.001392375617954   0.000129569649877 1
force C   0.000282383272564   0.000158652149871   0.000098222195258 1
force C   0.000871687986918   0.000346000687080  -0.000446082482402 1
force C   0.000484977060922  -0.001315303279634  -0.000122247197864 1
force C   0.000081968242813  -0.000661821958187   0.000459577100046 1
force C   0.001087392119483   0.000114678714958   0.000046206195271 1
force C  -0.001108712013421   0.000539369406315  -0.000228199243891 1
force C  -0.000145700683688   0.000674541331863  -0.000243327553173 1
force C   0.000627223969779  -0.000092721563846  -0.000146366012766 1
force C   0.000398993466504   0.000962888420246   0.000018441855725 1
force C  -0.000217085703284  -0.000423469449956  -0.000353366880563 1
force C  -0.000984023539185   0.000730427492555   0.000071162493278 1
force C  -0.000067636070638  -0.000371937639808   0.000167127514784 1
force C   0.000836509319529  -0.000691001302789  -0.000125839190464 1
force C  -0.000331982185982   0.000129944787753  -0.000223638826225 1
force C  -0.000410904141748   0.000896302606970   0.000331879107030 1
force C   0.000052789057703  -0.000644470662420   0.000117432443673 1
force C  -0.000396295258877  -0.000227544052540  -0.000172200510893 1
force C  -0.000047464296201  -0.000289900024893  -0.000062635278551 1
force C  -0.001005286333818   0.000526395956082  -0.000063661028159 1
force C  -0.000000614750500   0.000824172464990  -0.000042342040864 1
force C  -0.000472556650153  -0.001163102519513   0.000104664518909 1
force C  -0.000709967987425   0.000358013225442   0.000061010062520 1
force C   0.001235525540863  -0.000290892668744   0.000021219260218 1
force S  -0.000703653883818   0.000881193288113  -0.000139746140732 1
force S  -0.000051887297592  -0.000134166313280   0.000042544821239 1
force S  -0.000284355537615  -0.000393659493674   0.000187330430422 1
force S   0.000373648987576   0.000428116359098   0.000102776395623 1
force S  -0.000218578781224   0.000355218802242   0.000234734560360 1
force S   0.000951065935300  -0.001069065814804  -0.000013504402567 1
force Na   0.000021837310044   0.000066278349245  -0.000195230485726 1
force Na  -0.000132970240097  -0.000120823073702  -0.000153648471605 1

# Energy components:
   A_diel =       -0.3187482475015582
   Eewald =     4998.5683671430297181
       EH =     5439.7174766194193580
     Eloc =   -11050.0809454572645336
      Enl =      -75.3467224034169476
     EvdW =       -0.1352068903258234
      Exc =     -170.2529215226892632
 Exc_core =       13.0310507016633519
       KE =      276.2572377833254222
-------------------------------------
     Etot =     -568.5604122737590842
       TS =        0.0722697627611286
-------------------------------------
        F =     -568.6326820365202366

IonicMinimize: Iter:  99  F: -568.632682036520237  |grad|_K:  5.043e-04  alpha:  1.112e-01  linmin:  1.797e-02  t[s]:  15220.44
IonicMinimize: Converged (|Delta F|<1.000000e-06 for 2 iters).

#--- Lowdin population analysis ---
# oxidation-state C +0.041 +0.041 +0.041 +0.041 +0.041 +0.041 +0.041 +0.040 +0.039 +0.041 +0.041 +0.039 +0.040 +0.039 +0.043 +0.041 +0.040 +0.040 +0.041 +0.038 +0.041 +0.040 +0.040 +0.038 +0.039 +0.041 +0.041 +0.039 +0.038 +0.041 +0.040 +0.038 +0.038 +0.041 +0.039 +0.039 +0.041 +0.041 +0.041 +0.040 +0.040 +0.041 +0.041 +0.040 +0.040 +0.039 +0.041 +0.041 +0.041 +0.040 +0.039 +0.041 +0.041 +0.040 +0.038 +0.040 +0.040 +0.038 +0.038 +0.040 +0.041 +0.040 +0.038 +0.038 +0.041 +0.041 +0.041 +0.039 +0.039 +0.040 +0.040 +0.038
# oxidation-state S -0.526 +0.333 -0.420 -0.419 +0.334 -0.526
# oxidation-state Na +0.939 +0.939


Dumping 'Na2S6@graphene_vdw-PC.fillings' ... done
Dumping 'Na2S6@graphene_vdw-PC.wfns' ... done
Dumping 'Na2S6@graphene_vdw-PC.fluidState' ... done
Dumping 'Na2S6@graphene_vdw-PC.ionpos' ... done
Dumping 'Na2S6@graphene_vdw-PC.eigenvals' ... done
End date and time: Fri Jan  3 19:48:16 2025  (Duration: 0-4:13:42.40)
Done!
