
*************** JDFTx 1.7.0  ***************

Start date and time: Fri Sep 27 05:26:44 2024
Executable ../../jdftx_install/build/jdftx_gpu with command-line: -i Na2S6@graphene-vdw.in -o Na2S6@graphene-vdw.out
Running on hosts (process indices):  ubaid-base (0)
Divided in process groups (process indices):  0 (0)
gpuInit: Found compatible cuda device 0 'NVIDIA GeForce RTX 3050'
gpuInit: Selected device 0
Resource initialization completed at t[s]:      0.15
Run totals: 1 processes, 16 threads, 1 GPUs


Input parsed successfully to the following command list (including defaults):

basis kpoint-dependent
coords-type Cartesian
core-overlap-check vector
coulomb-interaction Slab 001
coulomb-truncation-embed 0 0 18.8973
davidson-band-ratio 1.1
dump End State
dump-name Na2S6@graphene-vdw.$VAR
elec-cutoff 20 100
elec-eigen-algo Davidson
elec-ex-corr gga-PBE
elec-smearing Fermi 0.01
electronic-minimize  \
	dirUpdateScheme      FletcherReeves \
	linminMethod         DirUpdateRecommended \
	nIterations          100 \
	history              15 \
	knormThreshold       0 \
	energyDiffThreshold  1e-08 \
	nEnergyDiff          2 \
	alphaTstart          1 \
	alphaTmin            1e-10 \
	updateTestStepSize   yes \
	alphaTreduceFactor   0.1 \
	alphaTincreaseFactor 3 \
	nAlphaAdjustMax      3 \
	wolfeEnergy          0.0001 \
	wolfeGradient        0.9 \
	fdTest               no
electronic-scf  \
	nIterations	50 \
	energyDiffThreshold	1e-08 \
	residualThreshold	1e-07 \
	mixFraction	0.5 \
	qMetric	0.8 \
	history	10 \
	nEigSteps	2 \
	eigDiffThreshold	1e-08 \
	mixedVariable	Density \
	qKerker	0.8 \
	qKappa	-1 \
	verbose	no \
	mixFractionMag	1.5
exchange-regularization WignerSeitzTruncated
fluid None
fluid-ex-corr lda-TF lda-PZ
fluid-gummel-loop 10 1.000000e-05
fluid-minimize  \
	dirUpdateScheme      PolakRibiere \
	linminMethod         DirUpdateRecommended \
	nIterations          100 \
	history              15 \
	knormThreshold       0 \
	energyDiffThreshold  0 \
	nEnergyDiff          2 \
	alphaTstart          1 \
	alphaTmin            1e-10 \
	updateTestStepSize   yes \
	alphaTreduceFactor   0.1 \
	alphaTincreaseFactor 3 \
	nAlphaAdjustMax      3 \
	wolfeEnergy          0.0001 \
	wolfeGradient        0.9 \
	fdTest               no
fluid-solvent H2O 55.338 ScalarEOS \
	epsBulk 78.4 \
	pMol 0.92466 \
	epsInf 1.77 \
	Pvap 1.06736e-10 \
	sigmaBulk 4.62e-05 \
	Rvdw 2.61727 \
	Res 1.42 \
	tauNuc 343133 \
	poleEl 15 7 1
forces-output-coords Positions
ion C  28.010542013705631   0.002014969601156  18.635465203747167 1
ion C  16.341968157882292  20.214705522223607  18.636370795694031 1
ion C   2.338532027351695   4.042411505399060  18.630361847754816 1
ion C  23.343313188735969   0.002278716019722  18.640022467239564 1
ion C   4.672620934470559   0.001554156700161  18.632050616002299 1
ion C  11.674116326115334  20.215100669694028  18.619847495055026 1
ion C  25.676530282256284   4.042904097616445  18.653564930084006 1
ion C  18.675851376129700  16.172910511284943  18.662695583431347 1
ion C   4.671777948336020   8.082036709586005  18.612564386226396 1
ion C  18.676336142016090   0.002101964498535  18.651180333522273 1
ion C   9.339850970925752   0.001738039847832  18.641511836963307 1
ion C   9.341212652353347  16.175613291750459  18.599279306155555 1
ion C  23.342941439729614   8.084920466015539  18.683240254571249 1
ion C  21.009110272076708  12.128959849493356  18.688453340004553 1
ion C   7.009085367604252  12.128528685817338  18.597262204671189 1
ion C  14.008105470077210   0.001988816408382  18.654008834012110 1
ion C  14.009120976896664  16.174984627607692  18.629938477890015 1
ion C   7.005550759074101   4.041176716120078  18.616350899393812 1
ion C  21.010101094155836   4.043302536041172  18.668670850704732 1
ion C  16.344445762465487  12.130683361169906  18.668518806438790 1
ion C   9.337643998902923   8.081728763982859  18.614931622729934 1
ion C  16.343783017314891   4.042062713362387  18.668836182024794 1
ion C  11.674085450205249   4.041278849785761  18.642196060576939 1
ion C  11.675597583834264  12.133622242506720  18.630068253549410 1
ion C  18.678074956154809   8.085220585829878  18.685769374381508 1
ion C   7.007175797728255  20.216155157604103  18.619709324068161 1
ion C  -6.996748017889803  20.214440105700564  18.653094683289385 1
ion C   0.002354623270169   8.082966457809835  18.657418822396949 1
ion C  14.012576459862725   8.083203697825988  18.669712893069498 1
ion C   2.339067441062872  20.216465077180068  18.646220757178252 1
ion C  -4.663670527593792  16.172490992184059  18.678596642017759 1
ion C   2.336125814129785  12.127745765919109  18.656417500003109 1
ion C  -2.332224039758668  12.128030282589300  18.685859862245795 1
ion C  -2.329659352792410  20.215194179952768  18.659830322184195 1
ion C   4.673933801454849  16.177740252210711  18.625359734501050 1
ion C   0.002990588629148  16.174656174657997  18.666554428718456 1
ion C  14.008266720144100  21.561374576259510  18.629777200837147 1
ion C   2.338930816614256   1.348570645432834  18.632009758527850 1
ion C  25.677100562977380   1.348988124751942  18.641986895200070 1
ion C  16.342686998612663  17.520648868856785  18.642302048336070 1
ion C   4.672307145938162   5.388219921962990  18.616057256550324 1
ion C  21.010123495302889   1.349044430338556  18.652394834146865 1
ion C   7.005937845436384   1.348033936218268  18.628031389286509 1
ion C  11.674692189550257  17.521226022139913  18.612057705166652 1
ion C  23.343784883173051   5.390651685198355  18.669612389866280 1
ion C  18.676972543384359  13.478483594758318  18.675595907033578 1
ion C   7.004963348139575   9.432115986525979  18.597538283264729 1
ion C  16.342472076605748   1.348066366442404  18.659130179870278 1
ion C  11.673522256343780   1.347802312891912  18.646547034509048 1
ion C   9.340696631175403  13.481256291567631  18.599303874261306 1
ion C  21.010487586627974   9.434228317035956  18.689549670827176 1
ion C   9.340862584041272  21.562275316056120  18.623251203387419 1
ion C  -9.330262385564787  21.561165527783942  18.640491424243258 1
ion C   0.004476893676090   5.389148113018151  18.645932445799481 1
ion C  14.011432130181314  13.480719160062115  18.643556882023976 1
ion C   9.339051356617166   5.386992451363917  18.621078239496772 1
ion C  18.677007069088155   5.390558998944344  18.676741055188348 1
ion C  16.345725884609092   9.434637493571932  18.679131999516674 1
ion C  11.674484029805171   9.432912355349794  18.644194404697451 1
ion C  14.009428395823310   5.387478001177438  18.662736904438848 1
ion C   4.673293824799766  21.561882602550451  18.637519226383223 1
ion C  -6.996841473985322  17.520066852095106  18.666346621047353 1
ion C   2.337134667876788   9.428913976861832  18.643387178107250 1
ion C  -2.330217064543965   9.432650452790400  18.678563548363972 1
ion C  -4.663349535264295  21.561481505082671  18.652392573786173 1
ion C   7.008365318233412  17.523060541264897  18.607450639135720 1
ion C   0.004487123343834  21.561671103490099  18.654109318198202 1
ion C  -4.664147187494720  13.477588422800197  18.688047082736972 1
ion C   4.674619807111760  13.479414560663223  18.625188064189185 1
ion C   2.338448909138405  17.522455183042435  18.645633689115606 1
ion C  -2.330712054942804  17.520790606615741  18.670058696770372 1
ion C   0.000363098194401  13.478789474313887  18.675559226948007 1
ion S   3.709925376947833  14.628009178093668  29.015943876404073 1
ion S   7.415940923267238  14.018998655541603  28.857048407797969 1
ion S   8.767428711454695  14.553695882212178  25.332540457575803 1
ion S   6.289443252208020   7.967851494454469  25.459216526006664 1
ion S   7.641940958070565   8.649158699805735  28.960128157538993 1
ion S  11.349986445517942   8.068564472860933  29.142021369979339 1
ion Na   3.964925834069952  12.615460297249895  24.204396293621482 1
ion Na  11.084649633749951   9.860549429703919  24.244354908709997 1
ion-species GBRV/$ID_pbe.uspp
ion-width 0
ionic-minimize  \
	dirUpdateScheme      FletcherReeves \
	linminMethod         DirUpdateRecommended \
	nIterations          200 \
	history              15 \
	knormThreshold       0.0001 \
	energyDiffThreshold  1e-06 \
	nEnergyDiff          2 \
	alphaTstart          1 \
	alphaTmin            1e-10 \
	updateTestStepSize   yes \
	alphaTreduceFactor   0.1 \
	alphaTincreaseFactor 3 \
	nAlphaAdjustMax      3 \
	wolfeEnergy          0.0001 \
	wolfeGradient        0.9 \
	fdTest               no
kpoint   0.000000000000   0.000000000000   0.000000000000  1.00000000000000
kpoint-folding 1 1 1 
latt-move-scale 1 1 1
latt-scale 1 1 1 
lattice Triclinic 28.0058 28.0058 37.7946 90 90 120
lattice-minimize  \
	dirUpdateScheme      L-BFGS \
	linminMethod         DirUpdateRecommended \
	nIterations          0 \
	history              15 \
	knormThreshold       0 \
	energyDiffThreshold  1e-06 \
	nEnergyDiff          2 \
	alphaTstart          1 \
	alphaTmin            1e-10 \
	updateTestStepSize   yes \
	alphaTreduceFactor   0.1 \
	alphaTincreaseFactor 3 \
	nAlphaAdjustMax      3 \
	wolfeEnergy          0.0001 \
	wolfeGradient        0.9 \
	fdTest               no
lcao-params -1 1e-06 0.01
pcm-variant GLSSA13
spintype no-spin
subspace-rotation-factor 1 yes
symmetries automatic
symmetry-threshold 0.0001
van-der-waals D3



---------- Setting up symmetries ----------

Found 24 point-group symmetries of the bravais lattice
Found 1 space-group symmetries with basis
Applied RMS atom displacement 0 bohrs to make symmetries exact.

---------- Initializing the Grid ----------
R = 
[      28.0058     -14.0029            0  ]
[            0      24.2537            0  ]
[            0            0      37.7946  ]
unit cell volume = 25671.8
G =
[   0.224353    0.12953         -0  ]
[          0   0.259061          0  ]
[          0         -0   0.166246  ]
Minimum fftbox size, Smin = [  128  128  172  ]
Chosen fftbox size, S = [  128  128  180  ]

---------- Initializing tighter grid for wavefunction operations ----------
R = 
[      28.0058     -14.0029            0  ]
[            0      24.2537            0  ]
[            0            0      37.7946  ]
unit cell volume = 25671.8
G =
[   0.224353    0.12953         -0  ]
[          0   0.259061          0  ]
[          0         -0   0.166246  ]
Minimum fftbox size, Smin = [  116  116  156  ]
Chosen fftbox size, S = [  120  120  160  ]

---------- Exchange Correlation functional ----------
Initalized PBE GGA exchange.
Initalized PBE GGA correlation.

---------- Setting up pseudopotentials ----------
Width of ionic core gaussian charges (only for fluid interactions / plotting) set to 0

Reading pseudopotential file '/home/ubaid/jdftx_install/build/pseudopotentials/GBRV/c_pbe.uspp':
  Title: C.  Created by USPP 7.3.6 on 3-2-2014
  Reference state energy: -5.406344.  4 valence electrons in orbitals:
    |200>  occupation: 2  eigenvalue: -0.504890
    |210>  occupation: 2  eigenvalue: -0.194356
  lMax: 1  lLocal: 2  QijEcut: 5
  4 projectors sampled on a log grid with 503 points:
    l: 0  eig: -0.504890  rCut: 1.3
    l: 0  eig: 0.000000  rCut: 1.3
    l: 1  eig: -0.194357  rCut: 1.3
    l: 1  eig: 0.000000  rCut: 1.3
  Partial core density with radius 1.1
  Transforming core density to a uniform radial grid of dG=0.02 with 1625 points.
  Transforming local potential to a uniform radial grid of dG=0.02 with 1625 points.
  Transforming nonlocal projectors to a uniform radial grid of dG=0.02 with 432 points.
  Transforming density augmentations to a uniform radial grid of dG=0.02 with 1625 points.
  Transforming atomic orbitals to a uniform radial grid of dG=0.02 with 432 points.
  Core radius for overlap checks: 1.30 bohrs.

Reading pseudopotential file '/home/ubaid/jdftx_install/build/pseudopotentials/GBRV/s_pbe.uspp':
  Title: S.  Created by USPP 7.3.6 on 1-4-15
  Reference state energy: -11.898476.  6 valence electrons in orbitals:
    |300>  occupation: 2  eigenvalue: -0.634167
    |310>  occupation: 4  eigenvalue: -0.257568
  lMax: 2  lLocal: 3  QijEcut: 6
  6 projectors sampled on a log grid with 635 points:
    l: 0  eig: -0.634161  rCut: 1.5
    l: 0  eig: 1.500000  rCut: 1.5
    l: 1  eig: -0.257567  rCut: 1.5
    l: 1  eig: 1.500000  rCut: 1.5
    l: 2  eig: -1.000000  rCut: 1.5
    l: 2  eig: 1.500000  rCut: 1.5
  Partial core density with radius 1.15
  Transforming core density to a uniform radial grid of dG=0.02 with 1625 points.
  Transforming local potential to a uniform radial grid of dG=0.02 with 1625 points.
  Transforming nonlocal projectors to a uniform radial grid of dG=0.02 with 432 points.
  Transforming density augmentations to a uniform radial grid of dG=0.02 with 1625 points.
  Transforming atomic orbitals to a uniform radial grid of dG=0.02 with 432 points.
  Core radius for overlap checks: 1.50 bohrs.

Reading pseudopotential file '/home/ubaid/jdftx_install/build/pseudopotentials/GBRV/na_pbe.uspp':
  Title: Na.  Created by USPP 7.3.6 on 23-9-15
  Reference state energy: -47.625620.  9 valence electrons in orbitals:
    |200>  occupation: 2  eigenvalue: -2.085638
    |210>  occupation: 6  eigenvalue: -1.053708
    |300>  occupation: 1  eigenvalue: -0.100838
  lMax: 2  lLocal: 0  QijEcut: 6
  5 projectors sampled on a log grid with 657 points:
    l: 0  eig: -2.085640  rCut: 1.37
    l: 0  eig: -0.100839  rCut: 1.37
    l: 1  eig: -1.053708  rCut: 1.47
    l: 1  eig: 0.500000  rCut: 1.47
    l: 2  eig: 0.750000  rCut: 2
  Transforming local potential to a uniform radial grid of dG=0.02 with 1625 points.
  Transforming nonlocal projectors to a uniform radial grid of dG=0.02 with 432 points.
  Transforming density augmentations to a uniform radial grid of dG=0.02 with 1625 points.
  Transforming atomic orbitals to a uniform radial grid of dG=0.02 with 432 points.
  Core radius for overlap checks: 2.00 bohrs.

Initialized 3 species with 80 total atoms.

Folded 1 k-points by 1x1x1 to 1 k-points.

---------- Setting up k-points, bands, fillings ----------
No reducable k-points. 
Computing the number of bands and number of electrons
Calculating initial fillings.
nElectrons: 342.000000   nBands: 322   nStates: 1

----- Setting up reduced wavefunction bases (one per k-point) -----
average nbasis = 109673.000 , ideal nbasis = 109671.883

---------- Setting up coulomb interaction ----------
Setting up double-sized grid for truncated Coulomb potentials:
R = 
[      28.0058     -14.0029            0  ]
[            0      24.2537            0  ]
[            0            0      75.5892  ]
unit cell volume = 51343.6
G =
[   0.224353    0.12953         -0  ]
[          0   0.259061          0  ]
[          0         -0  0.0831228  ]
Chosen fftbox size, S = [  128  128  360  ]
Integer grid location selected as the embedding center:
   Grid: [  0  0  90  ]
   Lattice: [  0  0  0.5  ]
   Cartesian: [  0  0  18.8973  ]
Constructing Wigner-Seitz cell: 8 faces (6 quadrilaterals, 2 hexagons)
Range-separation parameter for embedded mesh potentials due to point charges: 0.590105 bohrs.
Initialized slab truncation along lattice direction 001

Initializing DFT-D3 calculator:
	Parameters set for gga-PBE functional
	s6:  1.000  s_r6:  1.217
	s8:  0.722  s_r8:  1.000
	Per-atom parameters loaded for:
	 C:  sqrtQ[a0]:  3.105  Rcov[a0]:  1.417  CN: [ 0.00 0.99 2.00 3.00 3.98 ]
	 S:  sqrtQ[a0]:  4.041  Rcov[a0]:  1.928  CN: [ 0.00 0.99 1.99 ]
	Na:  sqrtQ[a0]:  6.586  Rcov[a0]:  2.646  CN: [ 0.00 0.97 ]

---------- Setting up 2D ewald sum ----------
Optimum gaussian width for ewald sums = 15.547689 bohr.
Real space sums over 289 unit cells with max indices [  8  8  0  ]
Reciprocal space sums over 81 terms with max indices [  4  4  0  ]

Computing DFT-D3 correction:
# coordination-number C 3.300 3.301 3.301 3.301 3.301 3.301 3.301 3.300 3.322 3.301 3.301 3.308 3.301 3.300 3.394 3.301 3.302 3.304 3.301 3.305 3.429 3.301 3.305 3.447 3.301 3.302 3.300 3.304 3.358 3.301 3.300 3.554 3.303 3.300 3.348 3.307 3.301 3.301 3.301 3.301 3.304 3.300 3.301 3.303 3.300 3.301 3.349 3.300 3.301 3.339 3.300 3.301 3.301 3.301 3.316 3.314 3.300 3.307 3.640 3.307 3.301 3.301 3.352 3.301 3.301 3.308 3.301 3.301 3.617 3.309 3.301 3.331
# coordination-number S 2.007 3.021 2.923 2.921 3.021 2.007
# coordination-number Na 4.546 4.487
# diagonal-C6 C 24.28 24.28 24.27 24.28 24.27 24.27 24.28 24.28 24.06 24.27 24.27 24.20 24.28 24.28 23.19 24.28 24.26 24.25 24.28 24.24 22.70 24.27 24.24 22.44 24.27 24.26 24.28 24.24 23.66 24.27 24.28 20.86 24.26 24.28 23.77 24.21 24.28 24.27 24.28 24.27 24.24 24.28 24.27 24.26 24.28 24.27 23.76 24.28 24.27 23.87 24.28 24.27 24.28 24.27 24.13 24.14 24.28 24.21 19.83 24.21 24.27 24.28 23.73 24.27 24.28 24.21 24.28 24.28 20.08 24.19 24.27 23.96
# diagonal-C6 S 125.89 125.81 125.81 125.81 125.81 125.89
# diagonal-C6 Na 186.11 186.11
EvdW_6 =   -0.066033
EvdW_8 =   -0.059709

---------- Allocating electronic variables ----------
Initializing wave functions:  linear combination of atomic orbitals
C pseudo-atom occupations:   s ( 2 )  p ( 2 )
S pseudo-atom occupations:   s ( 2 )  p ( 4 )
Na pseudo-atom occupations:   s ( 2 1 )  p ( 6 )
	FillingsUpdate:  mu: -0.156650744  nElectrons: 342.000000
LCAOMinimize: Iter:   0  F: -562.5883852073214939  |grad|_K:  1.304e-02  alpha:  1.000e+00
	FillingsUpdate:  mu: -0.374287566  nElectrons: 342.000000
LCAOMinimize: Iter:   1  F: -562.6269815415286075  |grad|_K:  6.307e-03  alpha:  2.098e-01  linmin:  9.494e-02  cgtest: -2.094e+00  t[s]:     46.92
LCAOMinimize: 	Bad step direction: g.d > 0.
LCAOMinimize: 	Undoing step.
LCAOMinimize: 	Step failed: resetting search direction.
	FillingsUpdate:  mu: -0.374287566  nElectrons: 342.000000
LCAOMinimize: Iter:   2  F: -562.6269815415286075  |grad|_K:  6.307e-03  alpha:  0.000e+00
	FillingsUpdate:  mu: -0.289712059  nElectrons: 342.000000
LCAOMinimize: Iter:   3  F: -563.6436871548896761  |grad|_K:  4.731e-03  alpha:  8.744e-02  linmin: -2.513e-01  cgtest:  4.007e-01  t[s]:     74.89
	FillingsUpdate:  mu: -0.289610828  nElectrons: 342.000000
LCAOMinimize: Iter:   4  F: -563.7761547509006732  |grad|_K:  1.107e-03  alpha:  4.706e-02  linmin: -2.314e-01  cgtest:  4.439e-01  t[s]:     90.85
LCAOMinimize: Encountered beta<0, resetting CG.
LCAOMinimize: 	Predicted alpha/alphaT>3.000000, increasing alphaT to 1.411806e-01.
	FillingsUpdate:  mu: -0.292333119  nElectrons: 342.000000
LCAOMinimize: Iter:   5  F: -563.7847259488756890  |grad|_K:  7.296e-04  alpha:  1.324e-01  linmin:  3.363e-02  cgtest: -7.214e-02  t[s]:    110.70
	FillingsUpdate:  mu: -0.292489392  nElectrons: 342.000000
LCAOMinimize: Iter:   6  F: -563.7888191311967603  |grad|_K:  4.063e-04  alpha:  1.629e-01  linmin: -3.975e-03  cgtest:  4.343e-01  t[s]:    126.79
	FillingsUpdate:  mu: -0.293828934  nElectrons: 342.000000
LCAOMinimize: Iter:   7  F: -563.7900850316412971  |grad|_K:  2.956e-04  alpha:  1.471e-01  linmin: -3.016e-03  cgtest: -1.366e-02  t[s]:    142.93
	FillingsUpdate:  mu: -0.293567901  nElectrons: 342.000000
LCAOMinimize: Iter:   8  F: -563.7908362470577686  |grad|_K:  2.066e-04  alpha:  1.633e-01  linmin:  4.244e-03  cgtest: -2.011e-02  t[s]:    159.02
	FillingsUpdate:  mu: -0.292365771  nElectrons: 342.000000
LCAOMinimize: Iter:   9  F: -563.7914938848531392  |grad|_K:  8.075e-05  alpha:  3.036e-01  linmin:  1.606e-03  cgtest:  2.410e-01  t[s]:    175.13
	FillingsUpdate:  mu: -0.292555330  nElectrons: 342.000000
LCAOMinimize: Iter:  10  F: -563.7915256185928001  |grad|_K:  3.863e-05  alpha:  9.406e-02  linmin:  1.657e-03  cgtest: -5.469e-03  t[s]:    191.24
	FillingsUpdate:  mu: -0.292633213  nElectrons: 342.000000
LCAOMinimize: Iter:  11  F: -563.7915426901163300  |grad|_K:  1.233e-05  alpha:  2.203e-01  linmin:  1.111e-03  cgtest:  4.392e-03  t[s]:    207.27
	FillingsUpdate:  mu: -0.292613112  nElectrons: 342.000000
LCAOMinimize: Iter:  12  F: -563.7915463196702603  |grad|_K:  1.107e-05  alpha:  4.587e-01  linmin:  6.920e-05  cgtest:  5.314e-04  t[s]:    223.28
	FillingsUpdate:  mu: -0.292649714  nElectrons: 342.000000
LCAOMinimize: Iter:  13  F: -563.7915473094494700  |grad|_K:  7.123e-06  alpha:  1.554e-01  linmin:  2.184e-04  cgtest: -2.067e-03  t[s]:    239.28
	FillingsUpdate:  mu: -0.292650559  nElectrons: 342.000000
LCAOMinimize: Iter:  14  F: -563.7915476440219891  |grad|_K:  2.440e-06  alpha:  1.266e-01  linmin: -7.601e-06  cgtest:  7.003e-03  t[s]:    255.23
LCAOMinimize: Converged (|Delta F|<1.000000e-06 for 2 iters).


---- Citations for features of the code used in this run ----

   Software package:
      R. Sundararaman, K. Letchworth-Weaver, K.A. Schwarz, D. Gunceler, Y. Ozhabes and T.A. Arias, 'JDFTx: software for joint density-functional theory', SoftwareX 6, 278 (2017)

   gga-PBE exchange-correlation functional:
      J.P. Perdew, K. Burke and M. Ernzerhof, Phys. Rev. Lett. 77, 3865 (1996)

   Pseudopotentials:
      KF Garrity, JW Bennett, KM Rabe and D Vanderbilt, Comput. Mater. Sci. 81, 446 (2014)

   Truncated Coulomb potentials:
      R. Sundararaman and T.A. Arias, Phys. Rev. B 87, 165122 (2013)

   DFT-D3 dispersion correction:
      S. Grimme, J. Antony, S. Ehrlich and H. Krieg, J. Chem. Phys. 132, 154104 (2010)

This list may not be complete. Please suggest additional citations or
report any other bugs at https://github.com/shankar1729/jdftx/issues

Initialization completed successfully at t[s]:    262.91


Computing DFT-D3 correction:
# coordination-number C 3.300 3.301 3.301 3.301 3.301 3.301 3.301 3.300 3.322 3.301 3.301 3.308 3.301 3.300 3.394 3.301 3.302 3.304 3.301 3.305 3.429 3.301 3.305 3.447 3.301 3.302 3.300 3.304 3.358 3.301 3.300 3.554 3.303 3.300 3.348 3.307 3.301 3.301 3.301 3.301 3.304 3.300 3.301 3.303 3.300 3.301 3.349 3.300 3.301 3.339 3.300 3.301 3.301 3.301 3.316 3.314 3.300 3.307 3.640 3.307 3.301 3.301 3.352 3.301 3.301 3.308 3.301 3.301 3.617 3.309 3.301 3.331
# coordination-number S 2.007 3.021 2.923 2.921 3.021 2.007
# coordination-number Na 4.546 4.487
# diagonal-C6 C 24.28 24.28 24.27 24.28 24.27 24.27 24.28 24.28 24.06 24.27 24.27 24.20 24.28 24.28 23.19 24.28 24.26 24.25 24.28 24.24 22.70 24.27 24.24 22.44 24.27 24.26 24.28 24.24 23.66 24.27 24.28 20.86 24.26 24.28 23.77 24.21 24.28 24.27 24.28 24.27 24.24 24.28 24.27 24.26 24.28 24.27 23.76 24.28 24.27 23.87 24.28 24.27 24.28 24.27 24.13 24.14 24.28 24.21 19.83 24.21 24.27 24.28 23.73 24.27 24.28 24.21 24.28 24.28 20.08 24.19 24.27 23.96
# diagonal-C6 S 125.89 125.81 125.81 125.81 125.81 125.89
# diagonal-C6 Na 186.11 186.11
EvdW_6 =   -0.066033
EvdW_8 =   -0.059709

-------- Electronic minimization -----------
Will mix electronic density at each iteration.
	FillingsUpdate:  mu: -0.292650559  nElectrons: 342.000000
	FillingsUpdate:  mu: -0.301279015  nElectrons: 342.000000
SCF: Cycle:  0   F: -567.413614768845832   dF: -3.622e+00   |Residual|: 9.868e-01   |deigs|: 1.266e-01  t[s]:    326.49
	FillingsUpdate:  mu: -0.272879116  nElectrons: 342.000000
SCF: Cycle:  1   F: -568.081859937052059   dF: -6.682e-01   |Residual|: 4.998e-01   |deigs|: 3.435e-02  t[s]:    379.84
	FillingsUpdate:  mu: -0.240562022  nElectrons: 342.000000
SCF: Cycle:  2   F: -568.344290388200307   dF: -2.624e-01   |Residual|: 1.144e-01   |deigs|: 3.359e-02  t[s]:    433.52
	FillingsUpdate:  mu: -0.234100731  nElectrons: 342.000000
SCF: Cycle:  3   F: -568.386102529537879   dF: -4.181e-02   |Residual|: 7.031e-02   |deigs|: 6.405e-03  t[s]:    487.21
	FillingsUpdate:  mu: -0.223583678  nElectrons: 342.000000
SCF: Cycle:  4   F: -568.414596657156835   dF: -2.849e-02   |Residual|: 3.702e-02   |deigs|: 9.945e-03  t[s]:    540.50
	FillingsUpdate:  mu: -0.215274574  nElectrons: 342.000000
SCF: Cycle:  5   F: -568.428473111293101   dF: -1.388e-02   |Residual|: 2.526e-02   |deigs|: 7.956e-03  t[s]:    593.79
	FillingsUpdate:  mu: -0.209947203  nElectrons: 342.000000
SCF: Cycle:  6   F: -568.436435442200718   dF: -7.962e-03   |Residual|: 1.799e-02   |deigs|: 5.363e-03  t[s]:    646.80
	FillingsUpdate:  mu: -0.203622135  nElectrons: 342.000000
SCF: Cycle:  7   F: -568.441682577832921   dF: -5.247e-03   |Residual|: 1.248e-02   |deigs|: 6.889e-03  t[s]:    696.83
	FillingsUpdate:  mu: -0.201402206  nElectrons: 342.000000
SCF: Cycle:  8   F: -568.443129211308928   dF: -1.447e-03   |Residual|: 9.788e-03   |deigs|: 2.245e-03  t[s]:    742.51
	FillingsUpdate:  mu: -0.198284463  nElectrons: 342.000000
SCF: Cycle:  9   F: -568.445208064018061   dF: -2.079e-03   |Residual|: 7.983e-03   |deigs|: 2.864e-03  t[s]:    792.75
	FillingsUpdate:  mu: -0.194771111  nElectrons: 342.000000
SCF: Cycle: 10   F: -568.446078625362020   dF: -8.706e-04   |Residual|: 8.867e-03   |deigs|: 3.001e-03  t[s]:    839.60
	FillingsUpdate:  mu: -0.192933717  nElectrons: 342.000000
SCF: Cycle: 11   F: -568.446309863593228   dF: -2.312e-04   |Residual|: 5.220e-03   |deigs|: 1.482e-03  t[s]:    885.27
	FillingsUpdate:  mu: -0.190297786  nElectrons: 342.000000
SCF: Cycle: 12   F: -568.446397005585141   dF: -8.714e-05   |Residual|: 4.453e-03   |deigs|: 2.302e-03  t[s]:    930.65
	FillingsUpdate:  mu: -0.186067319  nElectrons: 342.000000
SCF: Cycle: 13   F: -568.446380659350780   dF: +1.635e-05   |Residual|: 3.833e-03   |deigs|: 4.066e-03  t[s]:    975.83
	FillingsUpdate:  mu: -0.183703092  nElectrons: 342.000000
SCF: Cycle: 14   F: -568.446393349782625   dF: -1.269e-05   |Residual|: 3.440e-03   |deigs|: 2.265e-03  t[s]:   1021.01
	FillingsUpdate:  mu: -0.178221288  nElectrons: 342.000000
SCF: Cycle: 15   F: -568.446475935851822   dF: -8.259e-05   |Residual|: 2.657e-03   |deigs|: 5.155e-03  t[s]:   1066.37
	FillingsUpdate:  mu: -0.176572377  nElectrons: 342.000000
SCF: Cycle: 16   F: -568.446509767775183   dF: -3.383e-05   |Residual|: 2.259e-03   |deigs|: 1.565e-03  t[s]:   1111.40
	FillingsUpdate:  mu: -0.174208893  nElectrons: 342.000000
SCF: Cycle: 17   F: -568.446564161438801   dF: -5.439e-05   |Residual|: 1.625e-03   |deigs|: 2.448e-03  t[s]:   1156.47
	FillingsUpdate:  mu: -0.172730803  nElectrons: 342.000000
SCF: Cycle: 18   F: -568.446583437250979   dF: -1.928e-05   |Residual|: 1.398e-03   |deigs|: 1.839e-03  t[s]:   1201.81
	FillingsUpdate:  mu: -0.171485932  nElectrons: 342.000000
SCF: Cycle: 19   F: -568.446597941180471   dF: -1.450e-05   |Residual|: 9.403e-04   |deigs|: 1.306e-03  t[s]:   1247.15
	FillingsUpdate:  mu: -0.171265133  nElectrons: 342.000000
SCF: Cycle: 20   F: -568.446601511286303   dF: -3.570e-06   |Residual|: 6.769e-04   |deigs|: 6.095e-04  t[s]:   1292.20
	FillingsUpdate:  mu: -0.170969021  nElectrons: 342.000000
SCF: Cycle: 21   F: -568.446604612260217   dF: -3.101e-06   |Residual|: 4.212e-04   |deigs|: 9.929e-04  t[s]:   1337.27
	FillingsUpdate:  mu: -0.171059013  nElectrons: 342.000000
SCF: Cycle: 22   F: -568.446607755138984   dF: -3.143e-06   |Residual|: 2.967e-04   |deigs|: 3.607e-04  t[s]:   1382.63
	FillingsUpdate:  mu: -0.171047980  nElectrons: 342.000000
SCF: Cycle: 23   F: -568.446609417594004   dF: -1.662e-06   |Residual|: 2.311e-04   |deigs|: 2.848e-04  t[s]:   1427.97
	FillingsUpdate:  mu: -0.171005916  nElectrons: 342.000000
SCF: Cycle: 24   F: -568.446609822858022   dF: -4.053e-07   |Residual|: 1.512e-04   |deigs|: 2.294e-04  t[s]:   1473.09
	FillingsUpdate:  mu: -0.170999701  nElectrons: 342.000000
SCF: Cycle: 25   F: -568.446609860374338   dF: -3.752e-08   |Residual|: 1.163e-04   |deigs|: 1.105e-04  t[s]:   1518.25
	FillingsUpdate:  mu: -0.171035255  nElectrons: 342.000000
SCF: Cycle: 26   F: -568.446609952480230   dF: -9.211e-08   |Residual|: 7.679e-05   |deigs|: 3.288e-04  t[s]:   1571.29
	FillingsUpdate:  mu: -0.170990189  nElectrons: 342.000000
SCF: Cycle: 27   F: -568.446610026303006   dF: -7.382e-08   |Residual|: 5.365e-05   |deigs|: 3.738e-04  t[s]:   1616.68
	FillingsUpdate:  mu: -0.170949918  nElectrons: 342.000000
SCF: Cycle: 28   F: -568.446610060263424   dF: -3.396e-08   |Residual|: 4.106e-05   |deigs|: 2.022e-04  t[s]:   1661.80
	FillingsUpdate:  mu: -0.170926951  nElectrons: 342.000000
SCF: Cycle: 29   F: -568.446610091104503   dF: -3.084e-08   |Residual|: 2.797e-05   |deigs|: 2.307e-04  t[s]:   1707.10
	FillingsUpdate:  mu: -0.170925198  nElectrons: 342.000000
SCF: Cycle: 30   F: -568.446610105859463   dF: -1.475e-08   |Residual|: 2.047e-05   |deigs|: 1.384e-04  t[s]:   1752.46
	FillingsUpdate:  mu: -0.170922999  nElectrons: 342.000000
SCF: Cycle: 31   F: -568.446610115412909   dF: -9.553e-09   |Residual|: 1.292e-05   |deigs|: 1.309e-04  t[s]:   1797.51
	FillingsUpdate:  mu: -0.170925289  nElectrons: 342.000000
SCF: Cycle: 32   F: -568.446610120031096   dF: -4.618e-09   |Residual|: 8.688e-06   |deigs|: 4.300e-05  t[s]:   1842.81
SCF: Converged (|Delta E|<1.000000e-08 for 2 iters).

Setting wave functions to eigenvectors of Hamiltonian

Computing DFT-D3 correction:
# coordination-number C 3.300 3.301 3.301 3.301 3.301 3.301 3.301 3.300 3.322 3.301 3.301 3.308 3.301 3.300 3.394 3.301 3.302 3.304 3.301 3.305 3.429 3.301 3.305 3.447 3.301 3.302 3.300 3.304 3.358 3.301 3.300 3.554 3.303 3.300 3.348 3.307 3.301 3.301 3.301 3.301 3.304 3.300 3.301 3.303 3.300 3.301 3.349 3.300 3.301 3.339 3.300 3.301 3.301 3.301 3.316 3.314 3.300 3.307 3.640 3.307 3.301 3.301 3.352 3.301 3.301 3.308 3.301 3.301 3.617 3.309 3.301 3.331
# coordination-number S 2.007 3.021 2.923 2.921 3.021 2.007
# coordination-number Na 4.546 4.487
# diagonal-C6 C 24.28 24.28 24.27 24.28 24.27 24.27 24.28 24.28 24.06 24.27 24.27 24.20 24.28 24.28 23.19 24.28 24.26 24.25 24.28 24.24 22.70 24.27 24.24 22.44 24.27 24.26 24.28 24.24 23.66 24.27 24.28 20.86 24.26 24.28 23.77 24.21 24.28 24.27 24.28 24.27 24.24 24.28 24.27 24.26 24.28 24.27 23.76 24.28 24.27 23.87 24.28 24.27 24.28 24.27 24.13 24.14 24.28 24.21 19.83 24.21 24.27 24.28 23.73 24.27 24.28 24.21 24.28 24.28 20.08 24.19 24.27 23.96
# diagonal-C6 S 125.89 125.81 125.81 125.81 125.81 125.89
# diagonal-C6 Na 186.11 186.11
EvdW_6 =   -0.066033
EvdW_8 =   -0.059709

# Ionic positions in cartesian coordinates:
ion C  28.010542013705631   0.002014969601156  18.635465203747167 1
ion C  16.341968157882292  20.214705522223607  18.636370795694031 1
ion C   2.338532027351695   4.042411505399060  18.630361847754816 1
ion C  23.343313188735969   0.002278716019722  18.640022467239564 1
ion C   4.672620934470559   0.001554156700161  18.632050616002299 1
ion C  11.674116326115334  20.215100669694028  18.619847495055026 1
ion C  25.676530282256284   4.042904097616445  18.653564930084006 1
ion C  18.675851376129700  16.172910511284943  18.662695583431347 1
ion C   4.671777948336020   8.082036709586005  18.612564386226396 1
ion C  18.676336142016090   0.002101964498535  18.651180333522273 1
ion C   9.339850970925752   0.001738039847832  18.641511836963307 1
ion C   9.341212652353347  16.175613291750459  18.599279306155555 1
ion C  23.342941439729614   8.084920466015539  18.683240254571249 1
ion C  21.009110272076708  12.128959849493356  18.688453340004553 1
ion C   7.009085367604252  12.128528685817338  18.597262204671189 1
ion C  14.008105470077210   0.001988816408382  18.654008834012110 1
ion C  14.009120976896664  16.174984627607692  18.629938477890015 1
ion C   7.005550759074101   4.041176716120078  18.616350899393812 1
ion C  21.010101094155836   4.043302536041172  18.668670850704732 1
ion C  16.344445762465487  12.130683361169906  18.668518806438790 1
ion C   9.337643998902923   8.081728763982859  18.614931622729934 1
ion C  16.343783017314891   4.042062713362387  18.668836182024794 1
ion C  11.674085450205249   4.041278849785761  18.642196060576939 1
ion C  11.675597583834264  12.133622242506720  18.630068253549410 1
ion C  18.678074956154809   8.085220585829878  18.685769374381508 1
ion C   7.007175797728255  20.216155157604103  18.619709324068161 1
ion C  -6.996748017889803  20.214440105700564  18.653094683289385 1
ion C   0.002354623270169   8.082966457809835  18.657418822396949 1
ion C  14.012576459862725   8.083203697825988  18.669712893069498 1
ion C   2.339067441062872  20.216465077180068  18.646220757178252 1
ion C  -4.663670527593792  16.172490992184059  18.678596642017759 1
ion C   2.336125814129785  12.127745765919109  18.656417500003109 1
ion C  -2.332224039758668  12.128030282589300  18.685859862245795 1
ion C  -2.329659352792410  20.215194179952768  18.659830322184195 1
ion C   4.673933801454849  16.177740252210711  18.625359734501050 1
ion C   0.002990588629148  16.174656174657997  18.666554428718456 1
ion C  14.008266720144100  21.561374576259510  18.629777200837147 1
ion C   2.338930816614256   1.348570645432834  18.632009758527850 1
ion C  25.677100562977380   1.348988124751942  18.641986895200070 1
ion C  16.342686998612663  17.520648868856785  18.642302048336070 1
ion C   4.672307145938162   5.388219921962990  18.616057256550324 1
ion C  21.010123495302889   1.349044430338556  18.652394834146865 1
ion C   7.005937845436384   1.348033936218268  18.628031389286509 1
ion C  11.674692189550257  17.521226022139913  18.612057705166652 1
ion C  23.343784883173051   5.390651685198355  18.669612389866280 1
ion C  18.676972543384359  13.478483594758318  18.675595907033578 1
ion C   7.004963348139575   9.432115986525979  18.597538283264729 1
ion C  16.342472076605748   1.348066366442404  18.659130179870278 1
ion C  11.673522256343780   1.347802312891912  18.646547034509048 1
ion C   9.340696631175403  13.481256291567631  18.599303874261306 1
ion C  21.010487586627974   9.434228317035956  18.689549670827176 1
ion C   9.340862584041272  21.562275316056120  18.623251203387419 1
ion C  -9.330262385564787  21.561165527783942  18.640491424243258 1
ion C   0.004476893676090   5.389148113018151  18.645932445799481 1
ion C  14.011432130181314  13.480719160062115  18.643556882023976 1
ion C   9.339051356617166   5.386992451363917  18.621078239496772 1
ion C  18.677007069088155   5.390558998944344  18.676741055188348 1
ion C  16.345725884609092   9.434637493571932  18.679131999516674 1
ion C  11.674484029805171   9.432912355349794  18.644194404697451 1
ion C  14.009428395823310   5.387478001177438  18.662736904438848 1
ion C   4.673293824799766  21.561882602550451  18.637519226383223 1
ion C  -6.996841473985322  17.520066852095106  18.666346621047353 1
ion C   2.337134667876788   9.428913976861832  18.643387178107250 1
ion C  -2.330217064543965   9.432650452790400  18.678563548363972 1
ion C  -4.663349535264295  21.561481505082671  18.652392573786173 1
ion C   7.008365318233412  17.523060541264897  18.607450639135720 1
ion C   0.004487123343834  21.561671103490099  18.654109318198202 1
ion C  -4.664147187494720  13.477588422800197  18.688047082736972 1
ion C   4.674619807111760  13.479414560663223  18.625188064189185 1
ion C   2.338448909138405  17.522455183042435  18.645633689115606 1
ion C  -2.330712054942804  17.520790606615741  18.670058696770372 1
ion C   0.000363098194401  13.478789474313887  18.675559226948007 1
ion S   3.709925376947833  14.628009178093668  29.015943876404073 1
ion S   7.415940923267238  14.018998655541603  28.857048407797969 1
ion S   8.767428711454695  14.553695882212178  25.332540457575803 1
ion S   6.289443252208020   7.967851494454469  25.459216526006664 1
ion S   7.641940958070565   8.649158699805735  28.960128157538993 1
ion S  11.349986445517942   8.068564472860933  29.142021369979339 1
ion Na   3.964925834069952  12.615460297249895  24.204396293621482 1
ion Na  11.084649633749951   9.860549429703919  24.244354908709997 1

# Forces in Cartesian coordinates:
force C   0.000077833881314   0.000001244768908  -0.000159095494531 1
force C  -0.000050517023526   0.000052644087411   0.000002442995564 1
force C   0.000004900532623   0.000036384442420   0.000049114705570 1
force C   0.000182602548783   0.000069136078845  -0.000112725948300 1
force C  -0.000210075047060   0.000032414158383  -0.000021919638090 1
force C   0.000129422514622   0.000024136661429   0.000055674199435 1
force C   0.000121973810247  -0.000015215849035  -0.000032155063253 1
force C  -0.000012887332219  -0.000072138435384  -0.000046859954122 1
force C   0.000133360988789   0.000128012118991   0.000233534155563 1
force C   0.000056894329953  -0.000019976265278  -0.000117075054071 1
force C  -0.000035669845717  -0.000004989920503  -0.000094094901226 1
force C  -0.000050072190881  -0.000025218886844   0.000267635519352 1
force C  -0.000009036205698   0.000178081015475  -0.000104794017782 1
force C   0.000122052100892   0.000050310957699  -0.000058755210422 1
force C   0.000226258409572  -0.000028242634487  -0.000190138019139 1
force C   0.000009003653783  -0.000049624780241   0.000018641764407 1
force C  -0.000090164097000  -0.000045157213917   0.000194375794463 1
force C  -0.000048350186916   0.000069354679868   0.000177058144169 1
force C   0.000094267302020   0.000073695395794  -0.000065619746202 1
force C  -0.000010246738691  -0.000071025627414   0.000050605962392 1
force C  -0.000206395875597  -0.000045427714900  -0.000286195033528 1
force C   0.000021915805192   0.000029440025094  -0.000017298500461 1
force C  -0.000094086391569   0.000150009142508   0.000140373328913 1
force C   0.000070617166835   0.000443275096521  -0.000410175415703 1
force C   0.000060792657041   0.000142909013249  -0.000015703737537 1
force C   0.000115440530205  -0.000092989713077   0.000140436719693 1
force C  -0.000108511567808   0.000008120751924  -0.000067370285781 1
force C   0.000103498321283   0.000031405250807   0.000178047370214 1
force C   0.000106855545496  -0.000032271409290  -0.000159109388934 1
force C   0.000014063890889   0.000025931009562   0.000016585806110 1
force C  -0.000027917938598  -0.000085258320391  -0.000119621043292 1
force C  -0.000094799169975  -0.000046088293954  -0.000531115528002 1
force C   0.000036535026131   0.000028514625245   0.000006185661323 1
force C   0.000087125138353  -0.000037338708916  -0.000073582289847 1
force C   0.000224828637794   0.000127594585242   0.000008938789575 1
force C   0.000111495959346  -0.000016387888810   0.000038411617752 1
force C  -0.000077263401740   0.000058200129107   0.000017964866603 1
force C  -0.000021614360316  -0.000128098552789   0.000042106133976 1
force C  -0.000004410586646  -0.000158720891394   0.000078410875888 1
force C  -0.000000307864768   0.000102844914643   0.000068074169497 1
force C  -0.000053705549302  -0.000139063148417   0.000284028195676 1
force C  -0.000148452222327  -0.000047305410873   0.000098380857903 1
force C   0.000076389166830  -0.000065426220352   0.000160064646836 1
force C   0.000106723420098   0.000100534185511   0.000171768861326 1
force C  -0.000202081919975  -0.000055345622454   0.000049437658256 1
force C   0.000075791199571  -0.000061109913111   0.000050830013659 1
force C  -0.000078620927867  -0.000032595249353   0.000122805148320 1
force C  -0.000071493398426  -0.000030138390012  -0.000046100674000 1
force C   0.000138481330079  -0.000188184550306   0.000032934223642 1
force C  -0.000053787301339  -0.000015839712860   0.000220646518497 1
force C  -0.000064669809950  -0.000083942787380  -0.000023444725476 1
force C  -0.000006892666884  -0.000084826033419   0.000119318254691 1
force C   0.000053237088530   0.000048540505899   0.000044832759151 1
force C  -0.000001064336033  -0.000078235876548   0.000125759613975 1
force C  -0.000011041619068   0.000043145540042   0.000188234004204 1
force C   0.000087718902702  -0.000162523077166   0.000268094380421 1
force C  -0.000036894536209  -0.000076904367425   0.000113736489293 1
force C   0.000084358350391  -0.000047507687168   0.000143518950114 1
force C   0.000141319471364  -0.000189575848695  -0.000471429383072 1
force C   0.000029812383209  -0.000058300306777   0.000139149988901 1
force C  -0.000107225541164   0.000128044882553   0.000080457951023 1
force C   0.000109838581163  -0.000003463878269   0.000059708093807 1
force C  -0.000184280548894  -0.000283573484491  -0.000050017270266 1
force C  -0.000080279644482   0.000083821236658   0.000036162570601 1
force C   0.000091805118776   0.000006279424412   0.000037421141790 1
force C  -0.000141242480930   0.000023484314880   0.000238275930981 1
force C  -0.000051736419679   0.000143513658812   0.000036757241442 1
force C  -0.000118027800958  -0.000029752459407  -0.000004146638986 1
force C   0.000078206991826   0.000144773357916  -0.000533123429984 1
force C  -0.000128470046061   0.000002146934630   0.000202915786843 1
force C  -0.000068866960884   0.000122861678865   0.000154972172056 1
force C  -0.000299560770884  -0.000006214578725   0.000096911964614 1
force S   0.000169868906072  -0.000144963261682  -0.000025803625303 1
force S   0.000393730659914  -0.000044078272861   0.000031206069861 1
force S   0.000421784239396   0.000450286414455  -0.001402760802093 1
force S  -0.000438625401000  -0.000352210944553  -0.001310406894165 1
force S  -0.000638841859548   0.000050176082077  -0.000127943255656 1
force S   0.000019648890215   0.000037702388822  -0.000064759640310 1
force Na  -0.000824582891585  -0.000246916480275   0.000406961218338 1
force Na   0.000797874953046   0.000241704789550   0.000123716922043 1

# Energy components:
   Eewald =    -1863.1318778216916598
       EH =    -1431.9322673917258726
     Eloc =     2682.7513918546210334
      Enl =      -75.0335182731344474
     EvdW =       -0.1257417672890065
      Exc =     -170.2722643582689273
 Exc_core =       13.0310491090663945
       KE =      276.3400751796577310
-------------------------------------
     Etot =     -568.3731534687649400
       TS =        0.0734566512661029
-------------------------------------
        F =     -568.4466101200310959

IonicMinimize: Iter:   0  F: -568.446610120031096  |grad|_K:  2.068e-04  alpha:  1.000e+00

#--- Lowdin population analysis ---
# oxidation-state C +0.045 +0.044 +0.045 +0.044 +0.045 +0.045 +0.044 +0.043 +0.035 +0.044 +0.045 +0.043 +0.042 +0.043 +0.025 +0.044 +0.042 +0.045 +0.043 +0.036 +0.021 +0.041 +0.039 +0.014 +0.041 +0.046 +0.044 +0.039 +0.020 +0.043 +0.043 +0.002 +0.038 +0.044 +0.030 +0.034 +0.045 +0.045 +0.044 +0.044 +0.044 +0.044 +0.045 +0.044 +0.044 +0.041 +0.030 +0.044 +0.044 +0.033 +0.043 +0.046 +0.044 +0.044 +0.033 +0.039 +0.042 +0.033 -0.004 +0.035 +0.044 +0.043 +0.026 +0.040 +0.044 +0.044 +0.044 +0.042 +0.003 +0.036 +0.041 +0.025
# oxidation-state S -0.320 +0.398 -0.416 -0.416 +0.398 -0.319
# oxidation-state Na +0.723 +0.723


Computing DFT-D3 correction:
# coordination-number C 3.301 3.301 3.301 3.301 3.301 3.301 3.301 3.300 3.322 3.301 3.301 3.309 3.301 3.300 3.394 3.301 3.302 3.304 3.301 3.305 3.429 3.301 3.305 3.447 3.301 3.302 3.300 3.304 3.357 3.301 3.300 3.554 3.303 3.300 3.348 3.307 3.301 3.301 3.301 3.301 3.304 3.300 3.301 3.303 3.300 3.301 3.349 3.301 3.301 3.339 3.300 3.301 3.301 3.301 3.316 3.314 3.300 3.307 3.640 3.307 3.301 3.301 3.352 3.301 3.301 3.307 3.301 3.301 3.616 3.309 3.301 3.331
# coordination-number S 2.007 3.021 2.922 2.921 3.020 2.007
# coordination-number Na 4.544 4.485
# diagonal-C6 C 24.28 24.28 24.27 24.28 24.27 24.27 24.28 24.28 24.06 24.28 24.27 24.20 24.28 24.28 23.19 24.28 24.26 24.25 24.28 24.24 22.70 24.27 24.24 22.44 24.27 24.26 24.28 24.24 23.66 24.27 24.28 20.87 24.26 24.28 23.77 24.21 24.28 24.27 24.28 24.27 24.24 24.28 24.27 24.26 24.28 24.27 23.76 24.28 24.27 23.87 24.28 24.27 24.28 24.27 24.13 24.14 24.28 24.21 19.84 24.21 24.27 24.28 23.73 24.27 24.28 24.21 24.28 24.28 20.09 24.19 24.27 23.96
# diagonal-C6 S 125.89 125.81 125.81 125.81 125.81 125.89
# diagonal-C6 Na 186.11 186.11
EvdW_6 =   -0.066035
EvdW_8 =   -0.059715

-------- Electronic minimization -----------
Will mix electronic density at each iteration.
	FillingsUpdate:  mu: -0.170925289  nElectrons: 342.000000
	FillingsUpdate:  mu: -0.170928461  nElectrons: 342.000000
SCF: Cycle:  0   F: -568.446618181712893   dF: -1.852e-07   |Residual|: 5.180e-04   |deigs|: 1.640e-06  t[s]:   1913.54
	FillingsUpdate:  mu: -0.170929476  nElectrons: 342.000000
SCF: Cycle:  1   F: -568.446619077014589   dF: -8.953e-07   |Residual|: 1.938e-04   |deigs|: 9.143e-06  t[s]:   1946.21
	FillingsUpdate:  mu: -0.170930873  nElectrons: 342.000000
SCF: Cycle:  2   F: -568.446619252005803   dF: -1.750e-07   |Residual|: 7.339e-05   |deigs|: 9.317e-06  t[s]:   1979.01
	FillingsUpdate:  mu: -0.170932357  nElectrons: 342.000000
SCF: Cycle:  3   F: -568.446619282198299   dF: -3.019e-08   |Residual|: 2.651e-05   |deigs|: 1.167e-05  t[s]:   2011.82
	FillingsUpdate:  mu: -0.170933350  nElectrons: 342.000000
SCF: Cycle:  4   F: -568.446619295851633   dF: -1.365e-08   |Residual|: 1.881e-05   |deigs|: 1.043e-05  t[s]:   2044.63
	FillingsUpdate:  mu: -0.170935262  nElectrons: 342.000000
SCF: Cycle:  5   F: -568.446619309333641   dF: -1.348e-08   |Residual|: 1.089e-05   |deigs|: 2.221e-05  t[s]:   2077.38
	FillingsUpdate:  mu: -0.170936410  nElectrons: 342.000000
SCF: Cycle:  6   F: -568.446619314136569   dF: -4.803e-09   |Residual|: 9.384e-06   |deigs|: 1.231e-05  t[s]:   2109.98
	FillingsUpdate:  mu: -0.170937899  nElectrons: 342.000000
SCF: Cycle:  7   F: -568.446619317461455   dF: -3.325e-09   |Residual|: 6.561e-06   |deigs|: 1.174e-05  t[s]:   2153.72
SCF: Converged (|Delta E|<1.000000e-08 for 2 iters).

Setting wave functions to eigenvectors of Hamiltonian
IonicMinimize: 	Predicted alpha/alphaT>3.000000, increasing alphaT to 3.000000e+00.

Computing DFT-D3 correction:
# coordination-number C 3.301 3.301 3.302 3.301 3.301 3.301 3.301 3.300 3.322 3.301 3.301 3.309 3.301 3.300 3.393 3.301 3.303 3.304 3.300 3.305 3.428 3.301 3.305 3.446 3.301 3.302 3.300 3.304 3.357 3.301 3.300 3.553 3.303 3.300 3.348 3.307 3.301 3.301 3.301 3.301 3.304 3.300 3.301 3.303 3.300 3.301 3.349 3.301 3.301 3.339 3.300 3.301 3.301 3.301 3.315 3.314 3.300 3.307 3.639 3.307 3.301 3.301 3.351 3.301 3.301 3.307 3.301 3.301 3.614 3.309 3.301 3.331
# coordination-number S 2.007 3.020 2.922 2.920 3.020 2.007
# coordination-number Na 4.540 4.482
# diagonal-C6 C 24.28 24.28 24.27 24.28 24.27 24.27 24.28 24.28 24.06 24.28 24.27 24.20 24.28 24.28 23.20 24.28 24.26 24.25 24.28 24.24 22.71 24.27 24.24 22.44 24.27 24.26 24.28 24.24 23.66 24.27 24.28 20.88 24.26 24.28 23.78 24.21 24.28 24.27 24.28 24.27 24.24 24.28 24.27 24.26 24.28 24.27 23.76 24.28 24.27 23.87 24.28 24.27 24.28 24.27 24.13 24.14 24.28 24.21 19.84 24.21 24.27 24.28 23.73 24.27 24.27 24.21 24.27 24.27 20.11 24.19 24.27 23.96
# diagonal-C6 S 125.89 125.81 125.81 125.81 125.81 125.89
# diagonal-C6 Na 186.11 186.11
EvdW_6 =   -0.066040
EvdW_8 =   -0.059729

-------- Electronic minimization -----------
Will mix electronic density at each iteration.
	FillingsUpdate:  mu: -0.170937899  nElectrons: 342.000000
	FillingsUpdate:  mu: -0.170928393  nElectrons: 342.000000
SCF: Cycle:  0   F: -568.446627793066114   dF: -1.880e-06   |Residual|: 1.013e-03   |deigs|: 8.447e-07  t[s]:   2212.87
	FillingsUpdate:  mu: -0.170930492  nElectrons: 342.000000
SCF: Cycle:  1   F: -568.446630478468819   dF: -2.685e-06   |Residual|: 3.818e-04   |deigs|: 1.511e-05  t[s]:   2245.71
	FillingsUpdate:  mu: -0.170932653  nElectrons: 342.000000
SCF: Cycle:  2   F: -568.446630998290061   dF: -5.198e-07   |Residual|: 1.423e-04   |deigs|: 1.572e-05  t[s]:   2278.33
	FillingsUpdate:  mu: -0.170935068  nElectrons: 342.000000
SCF: Cycle:  3   F: -568.446631074114748   dF: -7.582e-08   |Residual|: 4.640e-05   |deigs|: 1.934e-05  t[s]:   2311.03
	FillingsUpdate:  mu: -0.170936598  nElectrons: 342.000000
SCF: Cycle:  4   F: -568.446631107647249   dF: -3.353e-08   |Residual|: 3.218e-05   |deigs|: 1.610e-05  t[s]:   2343.88
	FillingsUpdate:  mu: -0.170939655  nElectrons: 342.000000
SCF: Cycle:  5   F: -568.446631138472071   dF: -3.082e-08   |Residual|: 1.736e-05   |deigs|: 3.275e-05  t[s]:   2376.72
	FillingsUpdate:  mu: -0.170941429  nElectrons: 342.000000
SCF: Cycle:  6   F: -568.446631149787436   dF: -1.132e-08   |Residual|: 1.459e-05   |deigs|: 1.629e-05  t[s]:   2409.57
	FillingsUpdate:  mu: -0.170944073  nElectrons: 342.000000
SCF: Cycle:  7   F: -568.446631158766763   dF: -8.979e-09   |Residual|: 1.009e-05   |deigs|: 1.648e-05  t[s]:   2454.71
	FillingsUpdate:  mu: -0.170945582  nElectrons: 342.000000
SCF: Cycle:  8   F: -568.446631161243772   dF: -2.477e-09   |Residual|: 8.430e-06   |deigs|: 5.195e-06  t[s]:   2498.42
SCF: Converged (|Delta E|<1.000000e-08 for 2 iters).

Setting wave functions to eigenvectors of Hamiltonian

Computing DFT-D3 correction:
# coordination-number C 3.301 3.301 3.302 3.301 3.301 3.301 3.301 3.300 3.322 3.301 3.301 3.309 3.301 3.301 3.393 3.301 3.303 3.304 3.300 3.305 3.428 3.301 3.305 3.446 3.301 3.302 3.300 3.304 3.357 3.301 3.300 3.552 3.303 3.300 3.347 3.307 3.301 3.301 3.300 3.301 3.304 3.300 3.301 3.303 3.300 3.301 3.348 3.301 3.301 3.339 3.300 3.301 3.301 3.301 3.315 3.314 3.300 3.308 3.638 3.307 3.301 3.301 3.351 3.301 3.301 3.307 3.301 3.301 3.613 3.309 3.301 3.331
# coordination-number S 2.007 3.020 2.921 2.919 3.019 2.007
# coordination-number Na 4.536 4.478
# diagonal-C6 C 24.27 24.28 24.27 24.28 24.27 24.27 24.28 24.28 24.06 24.28 24.28 24.19 24.28 24.28 23.20 24.28 24.26 24.25 24.28 24.24 22.71 24.27 24.24 22.45 24.27 24.26 24.28 24.24 23.66 24.27 24.28 20.89 24.26 24.28 23.78 24.21 24.27 24.27 24.28 24.27 24.24 24.28 24.27 24.26 24.28 24.27 23.77 24.27 24.27 23.88 24.28 24.27 24.28 24.27 24.13 24.14 24.28 24.21 19.85 24.21 24.27 24.28 23.73 24.27 24.27 24.21 24.27 24.27 20.12 24.19 24.27 23.96
# diagonal-C6 S 125.89 125.81 125.81 125.81 125.81 125.90
# diagonal-C6 Na 186.11 186.11
EvdW_6 =   -0.066044
EvdW_8 =   -0.059741

-------- Electronic minimization -----------
Will mix electronic density at each iteration.
	FillingsUpdate:  mu: -0.170945582  nElectrons: 342.000000
	FillingsUpdate:  mu: -0.170943062  nElectrons: 342.000000
SCF: Cycle:  0   F: -568.446632021228766   dF: -1.581e-06   |Residual|: 8.733e-04   |deigs|: 1.545e-06  t[s]:   2557.56
	FillingsUpdate:  mu: -0.170944954  nElectrons: 342.000000
SCF: Cycle:  1   F: -568.446633910807236   dF: -1.890e-06   |Residual|: 3.296e-04   |deigs|: 1.225e-05  t[s]:   2590.38
	FillingsUpdate:  mu: -0.170946688  nElectrons: 342.000000
SCF: Cycle:  2   F: -568.446634279175441   dF: -3.684e-07   |Residual|: 1.232e-04   |deigs|: 1.274e-05  t[s]:   2623.04
	FillingsUpdate:  mu: -0.170948661  nElectrons: 342.000000
SCF: Cycle:  3   F: -568.446634330728898   dF: -5.155e-08   |Residual|: 3.965e-05   |deigs|: 1.532e-05  t[s]:   2655.61
	FillingsUpdate:  mu: -0.170949898  nElectrons: 342.000000
SCF: Cycle:  4   F: -568.446634353893728   dF: -2.316e-08   |Residual|: 2.707e-05   |deigs|: 1.285e-05  t[s]:   2688.39
	FillingsUpdate:  mu: -0.170952359  nElectrons: 342.000000
SCF: Cycle:  5   F: -568.446634374133509   dF: -2.024e-08   |Residual|: 1.419e-05   |deigs|: 2.682e-05  t[s]:   2721.23
	FillingsUpdate:  mu: -0.170953785  nElectrons: 342.000000
SCF: Cycle:  6   F: -568.446634381819649   dF: -7.686e-09   |Residual|: 1.191e-05   |deigs|: 1.403e-05  t[s]:   2754.07
	FillingsUpdate:  mu: -0.170955983  nElectrons: 342.000000
SCF: Cycle:  7   F: -568.446634388131997   dF: -6.312e-09   |Residual|: 8.204e-06   |deigs|: 1.610e-05  t[s]:   2799.38
SCF: Converged (|Delta E|<1.000000e-08 for 2 iters).

Setting wave functions to eigenvectors of Hamiltonian

Computing DFT-D3 correction:
# coordination-number C 3.301 3.301 3.302 3.301 3.301 3.301 3.301 3.300 3.322 3.301 3.301 3.309 3.301 3.301 3.393 3.301 3.303 3.304 3.300 3.305 3.428 3.301 3.305 3.446 3.301 3.302 3.300 3.304 3.357 3.301 3.300 3.552 3.303 3.300 3.347 3.307 3.301 3.301 3.300 3.301 3.304 3.300 3.301 3.303 3.300 3.301 3.348 3.301 3.301 3.339 3.300 3.301 3.301 3.301 3.315 3.314 3.300 3.308 3.638 3.307 3.301 3.301 3.351 3.301 3.301 3.307 3.301 3.301 3.613 3.309 3.301 3.331
# coordination-number S 2.007 3.020 2.921 2.919 3.019 2.007
# coordination-number Na 4.536 4.478
# diagonal-C6 C 24.27 24.28 24.27 24.28 24.27 24.27 24.28 24.28 24.06 24.28 24.28 24.19 24.28 24.28 23.20 24.28 24.26 24.25 24.28 24.24 22.71 24.27 24.24 22.45 24.27 24.26 24.28 24.24 23.66 24.27 24.28 20.89 24.26 24.28 23.78 24.21 24.27 24.27 24.28 24.27 24.24 24.28 24.27 24.26 24.28 24.27 23.77 24.27 24.27 23.88 24.28 24.27 24.28 24.27 24.13 24.14 24.28 24.21 19.85 24.21 24.27 24.28 23.73 24.27 24.27 24.21 24.27 24.27 20.12 24.19 24.27 23.96
# diagonal-C6 S 125.89 125.81 125.81 125.81 125.81 125.90
# diagonal-C6 Na 186.11 186.11
EvdW_6 =   -0.066044
EvdW_8 =   -0.059741

# Ionic positions in cartesian coordinates:
ion C  28.010909179567925   0.002021546325381  18.634777906700823 1
ion C  16.341727358434241  20.214955564334105  18.636448665035765 1
ion C   2.338553726650845   4.042584529742324  18.630660789014151 1
ion C  23.344176616899741   0.002606876462950  18.639554810838526 1
ion C   4.671624349596477   0.001708374826443  18.632013085798164 1
ion C  11.674727854099565  20.215215679440664  18.620177506954089 1
ion C  25.677106527638717   4.042832704616120  18.653478917296571 1
ion C  18.675788818876221  16.172569490595443  18.662539917348113 1
ion C   4.672408131862047   8.082643750727923  18.613736875111190 1
ion C  18.676604122595215   0.002008022627655  18.650692076522873 1
ion C   9.339680498750234   0.001715084447705  18.641132431052831 1
ion C   9.340973959963424  16.175494516926115  18.600613324452588 1
ion C  23.342897124274529   8.085764670675921  18.682810169690296 1
ion C  21.009686888301836  12.129198840166927  18.688241329143718 1
ion C   7.010155582381541  12.128395588276092  18.596427867149117 1
ion C  14.008146604808722   0.001754437127864  18.654163432766381 1
ion C  14.008692379432242  16.174771410042780  18.630925483663578 1
ion C   7.005320223375212   4.041505912020275  18.617255875900437 1
ion C  21.010546100916347   4.043652292799184  18.668426324298871 1
ion C  16.344395713026156  12.130347611566293  18.668824811399137 1
ion C   9.336664841320243   8.081514265124186  18.613642287772226 1
ion C  16.343885313595273   4.042202843782232  18.668820540964152 1
ion C  11.673638273837637   4.041990085185181  18.642927270524453 1
ion C  11.675930565971383  12.135722603498733  18.628191655326049 1
ion C  18.678361402109314   8.085898189738396  18.685761287303727 1
ion C   7.007721096639111  20.215715369761156  18.620440834281546 1
ion C  -6.997263522616764  20.214479252192440  18.652841865026605 1
ion C   0.002843355000896   8.083115896999743  18.658328484613580 1
ion C  14.013081093903315   8.083051517012002  18.669025530208931 1
ion C   2.339132544839449  20.216588586293508  18.646365617385484 1
ion C  -4.663804280973884  16.172087825964926  18.678096325320542 1
ion C   2.335675261513713  12.127528138066916  18.653968039492575 1
ion C  -2.332052495978969  12.128166029627453  18.685955459635128 1
ion C  -2.329248176629006  20.215017996640363  18.659548079251717 1
ion C   4.674997243770006  16.178345315602368  18.625468372752646 1
ion C   0.003517203119745  16.174579230005921  18.666802672196457 1
ion C  14.007899229963705  21.561650935914226  18.629928593300168 1
ion C   2.338826921667424   1.347964556022644  18.632275501981454 1
ion C  25.677078157893138   1.348236985179336  18.642424604902846 1
ion C  16.342684027069485  17.521136699407855  18.642690795712351 1
ion C   4.672051243261464   5.387561896076063  18.617468922749890 1
ion C  21.009418801941450   1.348821037315744  18.652927136531545 1
ion C   7.006298168056786   1.347724709569489  18.628855871955608 1
ion C  11.675196197746736  17.521702907359852  18.612937627697306 1
ion C  23.342826159691491   5.390390207755844  18.669912860869637 1
ion C  18.677330033587246  13.478194813349676  18.675902973267299 1
ion C   7.004589427706161   9.431962271764689  18.598186277247546 1
ion C  16.342131917450875   1.347924289193553  18.658978110302204 1
ion C  11.674176693612976   1.346911611525359  18.646769332976270 1
ion C   9.340440341260280  13.481181943484406  18.600415317715388 1
ion C  21.010179749061244   9.433831382159223  18.689504916675329 1
ion C   9.340828421979674  21.561874197469482  18.623882680849604 1
ion C  -9.330011728400088  21.561396132281509  18.640770083020850 1
ion C   0.004470338922589   5.388778210314034  18.646594434328197 1
ion C  14.011378315597550  13.480924209990393  18.644514795712642 1
ion C   9.339465345289970   5.386223301812683  18.622414431300978 1
ion C  18.676830795867943   5.390195403257369  18.677346093259739 1
ion C  16.346123955207677   9.434413142418205  18.679878109464877 1
ion C  11.675151910621569   9.432015063759682  18.642027662144148 1
ion C  14.009568096168044   5.387202528153251  18.663462319738553 1
ion C   4.672784411651110  21.562489798884954  18.637966632555777 1
ion C  -6.996322710070011  17.520051125165566  18.666695740469240 1
ion C   2.336260264923448   9.427571442584179  18.643216556627390 1
ion C  -2.330598841892471   9.433048173058999  18.678801138682566 1
ion C  -4.662916191234185  21.561511929678478  18.652636125633631 1
ion C   7.007694775567456  17.523172461013278  18.608645588594261 1
ion C   0.004240547929021  21.562351571449533  18.654349725320024 1
ion C  -4.664707768176918  13.477448173605618  18.688093738670286 1
ion C   4.674988740302839  13.480100995494164  18.622729092762047 1
ion C   2.337838866219906  17.522466033094254  18.646661146642312 1
ion C  -2.331039773336810  17.521373251444022  18.670859057692812 1
ion C  -0.001057357597648  13.478760718021922  18.676084571561994 1
ion S   3.710728489112650  14.627323204883757  29.015887948748873 1
ion S   7.417804411132707  14.018790548643695  28.857262520444049 1
ion S   8.769425081929578  14.555829454018630  25.325962237005211 1
ion S   6.287364082937384   7.966183842136087  25.453075762206364 1
ion S   7.638913414797352   8.649397051608082  28.959588420656708 1
ion S  11.350078004003608   8.068743739978213  29.141780917674446 1
ion Na   3.961018483176157  12.614291397797587  24.206390262013368 1
ion Na  11.088427449456780   9.861695003860673  24.245007221531047 1

# Forces in Cartesian coordinates:
force C  -0.000185101445168  -0.000117941970445   0.000001101418837 1
force C   0.000101903656353   0.000071614964742   0.000048270151086 1
force C  -0.000065081172696  -0.000327907466475   0.000143856884146 1
force C  -0.000585657450282  -0.000307120569580   0.000063443424726 1
force C   0.000575395826991  -0.000076306153441   0.000078730062710 1
force C  -0.000213837195095   0.000066134191053   0.000106748044775 1
force C  -0.000452559122914  -0.000123803125150   0.000083774026120 1
force C   0.000131539430829   0.000190609135626   0.000047396855217 1
force C  -0.000463323640695  -0.000554314648796   0.000207489141735 1
force C  -0.000343681006274   0.000160056888675   0.000009457137898 1
force C   0.000304955888476  -0.000132661871701   0.000045837702935 1
force C   0.000038864681366   0.000291430950051   0.000284836590444 1
force C  -0.000141459672953  -0.000417625768660  -0.000008548724673 1
force C  -0.000279078280813  -0.000249550420228   0.000001978388074 1
force C  -0.000514914723738   0.000062054275814  -0.000108160123540 1
force C   0.000064838716264   0.000134261975686   0.000017043515643 1
force C   0.000362553689976   0.000331487581030   0.000210025378021 1
force C   0.000148877432585  -0.000488260873262   0.000292589966060 1
force C  -0.000488298267298  -0.000307685400749   0.000068184702650 1
force C   0.000134679044101   0.000041040742584   0.000134392215737 1
force C   0.000608421430251  -0.000132445521478  -0.000069184201862 1
force C  -0.000061335112760  -0.000265992053427   0.000084267596484 1
force C   0.000454181542958  -0.000691353466673   0.000179302958335 1
force C  -0.000005379821129  -0.001109060564270  -0.000117467635953 1
force C  -0.000082923273809  -0.000507552859848   0.000098649026558 1
force C  -0.000414323466559   0.000397667805438   0.000204648054030 1
force C   0.000446621182257   0.000062302766950   0.000050558157575 1
force C  -0.000600325011463  -0.000333762648521   0.000133389918967 1
force C   0.000004294167337  -0.000154415396028  -0.000071652678913 1
force C  -0.000258425081794   0.000153814033568   0.000127147084291 1
force C   0.000111497290623   0.000231021210948   0.000038726262746 1
force C  -0.000044255490646   0.000045530184049  -0.000309439658009 1
force C  -0.000511817064964  -0.000022947066492   0.000078547109536 1
force C  -0.000150220695946   0.000269409806529   0.000065129716312 1
force C  -0.000690042077584  -0.000083575314543   0.000004980213830 1
force C  -0.000538079794978   0.000163572814492   0.000166953695807 1
force C   0.000260911910386  -0.000010590003366  -0.000021809297056 1
force C  -0.000119124213164   0.000376276123084  -0.000027245612838 1
force C   0.000312081402372   0.000390879759892  -0.000059163249334 1
force C  -0.000105779950984  -0.000223399731026   0.000084175342202 1
force C   0.000151147811900   0.000476391086725   0.000238818803352 1
force C   0.000594902920977   0.000115684495017  -0.000043040115615 1
force C  -0.000445852662423   0.000198092269726   0.000075352686406 1
force C  -0.000320350672458  -0.000286812347554   0.000201132259929 1
force C   0.000701014936017   0.000303370005167  -0.000030653144282 1
force C  -0.000145014613451  -0.000012185893167   0.000021153431986 1
force C   0.000165073731296   0.000174271515735  -0.000031540479495 1
force C   0.000212935213210   0.000072524797189  -0.000031071028730 1
force C  -0.000355585620857   0.000528970137599   0.000046069497601 1
force C   0.000250894263777   0.000313087885050  -0.000000484912940 1
force C   0.000228567288263   0.000408438155789  -0.000044115372086 1
force C   0.000234821098531   0.000120536411614   0.000062614874602 1
force C  -0.000359575493188  -0.000034019563194  -0.000013427034139 1
force C   0.000049464077432   0.000159233609065   0.000118789301366 1
force C   0.000157644086651   0.000110144601223   0.000038830063093 1
force C  -0.000475271132725   0.000405495659808   0.000115331878160 1
force C   0.000166796979747   0.000363921987203   0.000007575424344 1
force C  -0.000048644277414   0.000177685157240   0.000025039588744 1
force C  -0.000382304534716   0.000739915325167  -0.000429598901983 1
force C  -0.000083435681763   0.000128259114464   0.000059204427275 1
force C   0.000424269634823  -0.000425368390268   0.000028605824926 1
force C  -0.000364776307504  -0.000106093394211  -0.000049800857059 1
force C   0.000516377650407   0.000616171250840  -0.000033022669426 1
force C   0.000293445278226  -0.000058861002215   0.000031879426230 1
force C  -0.000280771467830  -0.000136299984955  -0.000061203762489 1
force C   0.000577804199850   0.000014624122726   0.000225377757054 1
force C   0.000222372583831  -0.000408251408816   0.000004751068135 1
force C   0.000301016944996   0.000006190470876  -0.000033955718528 1
force C   0.000006360926767  -0.000352550019785  -0.000359379581434 1
force C   0.000478740719914   0.000015545880104   0.000089885663657 1
force C   0.000261960596007  -0.000401554937721   0.000026719523327 1
force C   0.000645827799584  -0.000028865736436  -0.000084907044989 1
force S   0.000424363743137  -0.000134578040031   0.000036693489363 1
force S   0.000442154951554   0.000146224451409  -0.000982838920264 1
force S  -0.000002004796545   0.000247418584679  -0.000371832137494 1
force S  -0.000096045225465  -0.000163167365289  -0.000468420563014 1
force S  -0.000242155517619  -0.000203133525893  -0.000922410221768 1
force S  -0.000605751031043   0.000096820418370  -0.000050115460003 1
force Na  -0.000739231738314  -0.000243933203766   0.000405302835040 1
force Na   0.000713031396883   0.000245587722675   0.000162285281260 1

# Energy components:
   Eewald =    -1863.0592521096673408
       EH =    -1431.8585178542987251
     Eloc =     2682.6110722505727608
      Enl =      -75.0344959955795758
     EvdW =       -0.1257848537987281
      Exc =     -170.2691108104305329
 Exc_core =       13.0310489681768136
       KE =      276.3319055604060281
-------------------------------------
     Etot =     -568.3731348446190168
       TS =        0.0734995435129352
-------------------------------------
        F =     -568.4466343881319972

IonicMinimize: Iter:   1  F: -568.446634388131997  |grad|_K:  3.024e-04  alpha:  4.737e+00  linmin:  3.730e-03  t[s]:   2814.47

#--- Lowdin population analysis ---
# oxidation-state C +0.045 +0.044 +0.045 +0.044 +0.045 +0.045 +0.044 +0.043 +0.035 +0.044 +0.045 +0.043 +0.042 +0.043 +0.025 +0.044 +0.043 +0.045 +0.043 +0.036 +0.022 +0.041 +0.039 +0.015 +0.041 +0.046 +0.044 +0.039 +0.020 +0.043 +0.043 +0.002 +0.038 +0.043 +0.030 +0.034 +0.045 +0.045 +0.044 +0.044 +0.044 +0.044 +0.046 +0.044 +0.044 +0.041 +0.031 +0.044 +0.044 +0.033 +0.043 +0.046 +0.044 +0.044 +0.033 +0.039 +0.042 +0.033 -0.004 +0.036 +0.045 +0.043 +0.026 +0.040 +0.044 +0.044 +0.044 +0.042 +0.004 +0.036 +0.041 +0.025
# oxidation-state S -0.320 +0.397 -0.417 -0.417 +0.397 -0.319
# oxidation-state Na +0.723 +0.723


Computing DFT-D3 correction:
# coordination-number C 3.301 3.301 3.302 3.301 3.301 3.301 3.301 3.300 3.321 3.301 3.301 3.309 3.301 3.301 3.390 3.301 3.302 3.304 3.301 3.305 3.425 3.302 3.305 3.444 3.301 3.302 3.300 3.304 3.357 3.302 3.300 3.547 3.303 3.301 3.346 3.307 3.301 3.301 3.301 3.301 3.305 3.300 3.301 3.303 3.300 3.301 3.348 3.301 3.301 3.339 3.301 3.301 3.301 3.301 3.316 3.314 3.300 3.308 3.633 3.307 3.301 3.300 3.351 3.302 3.300 3.308 3.301 3.301 3.605 3.309 3.301 3.331
# coordination-number S 2.007 3.018 2.915 2.914 3.016 2.006
# coordination-number Na 4.511 4.457
# diagonal-C6 C 24.27 24.27 24.27 24.28 24.27 24.27 24.28 24.28 24.07 24.27 24.27 24.20 24.27 24.27 23.24 24.27 24.26 24.25 24.28 24.24 22.76 24.27 24.23 22.47 24.27 24.26 24.28 24.24 23.66 24.27 24.28 20.96 24.25 24.27 23.79 24.21 24.27 24.27 24.27 24.27 24.24 24.28 24.27 24.25 24.28 24.27 23.77 24.28 24.27 23.87 24.28 24.27 24.28 24.27 24.13 24.14 24.28 24.21 19.90 24.22 24.27 24.28 23.73 24.27 24.28 24.21 24.28 24.27 20.22 24.19 24.27 23.96
# diagonal-C6 S 125.89 125.81 125.81 125.81 125.81 125.90
# diagonal-C6 Na 186.11 186.11
EvdW_6 =   -0.066074
EvdW_8 =   -0.059821

-------- Electronic minimization -----------
Will mix electronic density at each iteration.
	FillingsUpdate:  mu: -0.170955983  nElectrons: 342.000000
	FillingsUpdate:  mu: -0.170891560  nElectrons: 342.000000
SCF: Cycle:  0   F: -568.446585634276744   dF: -7.335e-05   |Residual|: 4.997e-03   |deigs|: 3.680e-06  t[s]:   2890.27
	FillingsUpdate:  mu: -0.170907517  nElectrons: 342.000000
SCF: Cycle:  1   F: -568.446641783314817   dF: -5.615e-05   |Residual|: 2.044e-03   |deigs|: 7.126e-05  t[s]:   2923.09
	FillingsUpdate:  mu: -0.170918419  nElectrons: 342.000000
SCF: Cycle:  2   F: -568.446658064012354   dF: -1.628e-05   |Residual|: 6.114e-04   |deigs|: 7.017e-05  t[s]:   2955.79
	FillingsUpdate:  mu: -0.170929928  nElectrons: 342.000000
SCF: Cycle:  3   F: -568.446659794139578   dF: -1.730e-06   |Residual|: 2.835e-04   |deigs|: 6.245e-05  t[s]:   2988.37
	FillingsUpdate:  mu: -0.170939946  nElectrons: 342.000000
SCF: Cycle:  4   F: -568.446660815835116   dF: -1.022e-06   |Residual|: 1.655e-04   |deigs|: 5.416e-05  t[s]:   3021.11
	FillingsUpdate:  mu: -0.170955729  nElectrons: 342.000000
SCF: Cycle:  5   F: -568.446661822128249   dF: -1.006e-06   |Residual|: 9.878e-05   |deigs|: 5.876e-05  t[s]:   3053.94
	FillingsUpdate:  mu: -0.170965341  nElectrons: 342.000000
SCF: Cycle:  6   F: -568.446662195748104   dF: -3.736e-07   |Residual|: 6.933e-05   |deigs|: 3.856e-05  t[s]:   3086.79
	FillingsUpdate:  mu: -0.170975217  nElectrons: 342.000000
SCF: Cycle:  7   F: -568.446662404621065   dF: -2.089e-07   |Residual|: 5.799e-05   |deigs|: 5.771e-05  t[s]:   3119.43
	FillingsUpdate:  mu: -0.170983769  nElectrons: 342.000000
SCF: Cycle:  8   F: -568.446662525582610   dF: -1.210e-07   |Residual|: 4.310e-05   |deigs|: 8.380e-05  t[s]:   3164.55
	FillingsUpdate:  mu: -0.170990476  nElectrons: 342.000000
SCF: Cycle:  9   F: -568.446662591691961   dF: -6.611e-08   |Residual|: 3.529e-05   |deigs|: 7.472e-05  t[s]:   3209.88
	FillingsUpdate:  mu: -0.170997341  nElectrons: 342.000000
SCF: Cycle: 10   F: -568.446662630652440   dF: -3.896e-08   |Residual|: 2.783e-05   |deigs|: 8.142e-05  t[s]:   3255.26
	FillingsUpdate:  mu: -0.171002756  nElectrons: 342.000000
SCF: Cycle: 11   F: -568.446662647290395   dF: -1.664e-08   |Residual|: 1.940e-05   |deigs|: 7.594e-05  t[s]:   3300.29
	FillingsUpdate:  mu: -0.171005068  nElectrons: 342.000000
SCF: Cycle: 12   F: -568.446662652132886   dF: -4.842e-09   |Residual|: 1.381e-05   |deigs|: 4.304e-05  t[s]:   3345.61
	FillingsUpdate:  mu: -0.171005921  nElectrons: 342.000000
SCF: Cycle: 13   F: -568.446662654693796   dF: -2.561e-09   |Residual|: 9.680e-06   |deigs|: 2.810e-05  t[s]:   3389.54
SCF: Converged (|Delta E|<1.000000e-08 for 2 iters).

Setting wave functions to eigenvectors of Hamiltonian

Computing DFT-D3 correction:
# coordination-number C 3.301 3.301 3.302 3.301 3.301 3.301 3.301 3.300 3.322 3.301 3.301 3.309 3.301 3.301 3.391 3.301 3.302 3.304 3.301 3.305 3.426 3.301 3.305 3.445 3.301 3.302 3.300 3.304 3.357 3.302 3.300 3.549 3.303 3.301 3.347 3.307 3.301 3.301 3.301 3.301 3.304 3.300 3.301 3.303 3.300 3.301 3.348 3.301 3.301 3.339 3.301 3.301 3.301 3.301 3.316 3.314 3.300 3.308 3.635 3.307 3.301 3.300 3.351 3.301 3.301 3.308 3.301 3.301 3.607 3.309 3.301 3.331
# coordination-number S 2.007 3.018 2.917 2.916 3.017 2.006
# coordination-number Na 4.519 4.463
# diagonal-C6 C 24.27 24.28 24.27 24.28 24.27 24.27 24.28 24.28 24.06 24.27 24.27 24.20 24.27 24.27 23.23 24.27 24.26 24.25 24.28 24.24 22.74 24.27 24.24 22.46 24.27 24.26 24.28 24.24 23.66 24.27 24.28 20.94 24.26 24.28 23.79 24.21 24.27 24.27 24.28 24.27 24.24 24.28 24.27 24.25 24.28 24.27 23.77 24.28 24.27 23.87 24.28 24.27 24.28 24.27 24.13 24.14 24.28 24.21 19.89 24.21 24.27 24.28 23.73 24.27 24.28 24.21 24.27 24.27 20.19 24.19 24.27 23.96
# diagonal-C6 S 125.89 125.81 125.81 125.81 125.81 125.90
# diagonal-C6 Na 186.11 186.11
EvdW_6 =   -0.066064
EvdW_8 =   -0.059796

-------- Electronic minimization -----------
Will mix electronic density at each iteration.
	FillingsUpdate:  mu: -0.171005921  nElectrons: 342.000000
	FillingsUpdate:  mu: -0.171019411  nElectrons: 342.000000
SCF: Cycle:  0   F: -568.446660713530832   dF: -5.302e-06   |Residual|: 1.549e-03   |deigs|: 3.506e-06  t[s]:   3460.86
	FillingsUpdate:  mu: -0.171014245  nElectrons: 342.000000
SCF: Cycle:  1   F: -568.446667581366228   dF: -6.868e-06   |Residual|: 6.147e-04   |deigs|: 2.438e-05  t[s]:   3493.47
	FillingsUpdate:  mu: -0.171010706  nElectrons: 342.000000
SCF: Cycle:  2   F: -568.446669463211720   dF: -1.882e-06   |Residual|: 2.091e-04   |deigs|: 2.216e-05  t[s]:   3526.28
	FillingsUpdate:  mu: -0.171006738  nElectrons: 342.000000
SCF: Cycle:  3   F: -568.446669649352998   dF: -1.861e-07   |Residual|: 9.025e-05   |deigs|: 2.020e-05  t[s]:   3559.10
	FillingsUpdate:  mu: -0.171003710  nElectrons: 342.000000
SCF: Cycle:  4   F: -568.446669775965120   dF: -1.266e-07   |Residual|: 5.800e-05   |deigs|: 2.063e-05  t[s]:   3591.91
	FillingsUpdate:  mu: -0.170997939  nElectrons: 342.000000
SCF: Cycle:  5   F: -568.446669904575742   dF: -1.286e-07   |Residual|: 3.376e-05   |deigs|: 4.419e-05  t[s]:   3624.72
	FillingsUpdate:  mu: -0.170994873  nElectrons: 342.000000
SCF: Cycle:  6   F: -568.446669946013230   dF: -4.144e-08   |Residual|: 2.651e-05   |deigs|: 2.606e-05  t[s]:   3657.33
	FillingsUpdate:  mu: -0.170991363  nElectrons: 342.000000
SCF: Cycle:  7   F: -568.446669972605036   dF: -2.659e-08   |Residual|: 1.979e-05   |deigs|: 2.844e-05  t[s]:   3702.50
	FillingsUpdate:  mu: -0.170988552  nElectrons: 342.000000
SCF: Cycle:  8   F: -568.446669984161645   dF: -1.156e-08   |Residual|: 1.517e-05   |deigs|: 1.438e-05  t[s]:   3747.82
	FillingsUpdate:  mu: -0.170986085  nElectrons: 342.000000
SCF: Cycle:  9   F: -568.446669992476359   dF: -8.315e-09   |Residual|: 1.295e-05   |deigs|: 1.649e-05  t[s]:   3793.15
	FillingsUpdate:  mu: -0.170983881  nElectrons: 342.000000
SCF: Cycle: 10   F: -568.446669996833407   dF: -4.357e-09   |Residual|: 9.757e-06   |deigs|: 3.658e-05  t[s]:   3836.79
SCF: Converged (|Delta E|<1.000000e-08 for 2 iters).

Setting wave functions to eigenvectors of Hamiltonian

Computing DFT-D3 correction:
# coordination-number C 3.301 3.301 3.302 3.301 3.301 3.301 3.301 3.300 3.322 3.301 3.301 3.309 3.301 3.301 3.391 3.301 3.302 3.304 3.301 3.305 3.426 3.301 3.305 3.445 3.301 3.302 3.300 3.304 3.357 3.302 3.300 3.549 3.303 3.301 3.347 3.307 3.301 3.301 3.301 3.301 3.304 3.300 3.301 3.303 3.300 3.301 3.348 3.301 3.301 3.339 3.301 3.301 3.301 3.301 3.316 3.314 3.300 3.308 3.635 3.307 3.301 3.300 3.351 3.301 3.301 3.308 3.301 3.301 3.607 3.309 3.301 3.331
# coordination-number S 2.007 3.018 2.917 2.916 3.017 2.006
# coordination-number Na 4.519 4.463
# diagonal-C6 C 24.27 24.28 24.27 24.28 24.27 24.27 24.28 24.28 24.06 24.27 24.27 24.20 24.27 24.27 23.23 24.27 24.26 24.25 24.28 24.24 22.74 24.27 24.24 22.46 24.27 24.26 24.28 24.24 23.66 24.27 24.28 20.94 24.26 24.28 23.79 24.21 24.27 24.27 24.28 24.27 24.24 24.28 24.27 24.25 24.28 24.27 23.77 24.28 24.27 23.87 24.28 24.27 24.28 24.27 24.13 24.14 24.28 24.21 19.89 24.21 24.27 24.28 23.73 24.27 24.28 24.21 24.27 24.27 20.19 24.19 24.27 23.96
# diagonal-C6 S 125.89 125.81 125.81 125.81 125.81 125.90
# diagonal-C6 Na 186.11 186.11
EvdW_6 =   -0.066064
EvdW_8 =   -0.059796

# Ionic positions in cartesian coordinates:
ion C  28.010845054764289   0.001647156889549  18.633756215219805 1
ion C  16.341704467462186  20.215557272280520  18.636706370921168 1
ion C   2.338372642119325   4.041770533757803  18.631555315830973 1
ion C  23.343536767904894   0.002088863547015  18.639059460236837 1
ion C   4.672033164475589   0.001686908464287  18.632200324352798 1
ion C  11.674929533344041  20.215600875256275  18.620996770476218 1
ion C  25.676478093022634   4.042324507573166  18.653611276216076 1
ion C  18.676124748682547  16.172689598580320  18.662451223723963 1
ion C   4.671823954084952   8.081730169443885  18.616123907784612 1
ion C  18.675877133227502   0.002392009577614  18.649990430552585 1
ion C   9.340422995984452   0.001249265050560  18.640709512343978 1
ion C   9.340748667862520  16.176270238676427  18.603490127153162 1
ion C  23.342369939468533   8.085645571512462  18.682135403069324 1
ion C  21.009624529580705  12.128737323084540  18.687921687332665 1
ion C   7.010050550288746  12.128402494735175  18.594833683451920 1
ion C  14.008417637593290   0.001847738533904  18.654432219123031 1
ion C  14.009242913128157  16.175538778254758  18.633047921053091 1
ion C   7.005465561201495   4.040398922923362  18.619526792869671 1
ion C  21.009608095832576   4.043164208806966  18.668274675075551 1
ion C  16.344760277835675  12.129987895679468  18.669698875705926 1
ion C   9.337206953583049   8.080767372501619  18.611505817545300 1
ion C  16.343835006614110   4.041542295841441  18.669058032326031 1
ion C  11.674460173932300   4.040783050524556  18.644573256068362 1
ion C  11.676402028362576  12.135197419956494  18.625033866199054 1
ion C  18.678511621413868   8.085240851740933  18.686056773323951 1
ion C   7.007171781292472  20.216365172682046  18.622169884044716 1
ion C  -6.996566786014180  20.214740355937387  18.652620556909305 1
ion C   0.001604477392926   8.082248117715510  18.660087318330401 1
ion C  14.013836608688855   8.082324680501404  18.667766570761486 1
ion C   2.338385030410839  20.217272113075897  18.646979004140942 1
ion C  -4.663638422779962  16.172248251370338  18.677472352842486 1
ion C   2.334867339502301  12.127356825559144  18.649341706109279 1
ion C  -2.333469459866677  12.128291335885979  18.686337945035334 1
ion C  -2.329133850340760  20.215637478341225  18.659330986505339 1
ion C   4.674311350930790  16.178963388432400  18.625630221703798 1
ion C   0.002536967863161  16.174999683038642  18.667697911108725 1
ion C  14.008208316114802  21.562023379403968  18.630066006581341 1
ion C   2.338284901190939   1.348299978878112  18.632563414511790 1
ion C  25.678061704262483   1.348406631964344  18.642861447684783 1
ion C  16.342333975417148  17.521126497925998  18.643522879891972 1
ion C   4.672166665080745   5.388147280330771  18.620309939418856 1
ion C  21.010320607977768   1.348869939798137  18.653555693894216 1
ion C   7.005373953075093   1.347915983864501  18.630300202892958 1
ion C  11.674892481856629  17.521469885418266  18.614873544846287 1
ion C  23.343700178096846   5.390994920622640  18.670240752688546 1
ion C  18.677382354073529  13.477730678553709  18.676409451596257 1
ion C   7.004576631383537   9.432304665426697  18.599022515544181 1
ion C  16.342324810842580   1.347952118517100  18.658638909967141 1
ion C  11.673979410647179   1.347326110683614  18.647232333824483 1
ion C   9.340880356961829  13.482093620625502  18.602034571994203 1
ion C  21.010471149574947   9.434579336112565  18.689281064179710 1
ion C   9.341542811792971  21.561677465640656  18.625001558907496 1
ion C  -9.330816016597357  21.561624887573867  18.641122042408643 1
ion C   0.004621096174986   5.388753549022739  18.647941320108036 1
ion C  14.011812205286734  13.481585332986308  18.646036356141220 1
ion C   9.338524176839137   5.386414100604360  18.624741862874508 1
ion C  18.677114374869362   5.390847284008177  18.678246653325875 1
ion C  16.346550131029620   9.434662751413109  18.681043131021340 1
ion C  11.674887303371650   9.433107528480287  18.637425526333793 1
ion C  14.009500768431398   5.387215808051263  18.664708271501183 1
ion C   4.673417245711102  21.561996797925886  18.638703858242604 1
ion C  -6.996749542071957  17.519682550134107  18.667032779057532 1
ion C   2.336656427533744   9.427605519871527  18.642843702523898 1
ion C  -2.330204717959563   9.433441790794207  18.679240377061230 1
ion C  -4.663194836498307  21.561112777404833  18.652780692014819 1
ion C   7.008591080363923  17.523385193432595  18.611123978004404 1
ion C   0.004601876727758  21.562022159629180  18.654704671723586 1
ion C  -4.664551997940426  13.477262448840616  18.688037478500977 1
ion C   4.675551363761963  13.479961942512242  18.617925968722300 1
ion C   2.338501234729241  17.522533087288501  18.648451448817667 1
ion C  -2.330668760523017  17.520921762397073  18.672109363972915 1
ion C  -0.001042495594850  13.478624730078383  18.676566411347256 1
ion S   3.713292478570821  14.625875777192890  29.015911087854033 1
ion S   7.421986310902556  14.018961495689357  28.854359339716922 1
ion S   8.772354547804561  14.559775114294251  25.315058714595487 1
ion S   6.283991482713340   7.963199073457526  25.442500911299991 1
ion S   7.633669361836035   8.649085909160652  28.955773247691379 1
ion S  11.348237158780279   8.069323498510283  29.141249615033487 1
ion Na   3.952859730956557  12.611777053029972  24.210630621607763 1
ion Na  11.096308536521951   9.864181257916101  24.246481666014951 1

# Forces in Cartesian coordinates:
force C  -0.000046576864765   0.000202412889105   0.000149353424515 1
force C  -0.000003483460330  -0.000291474339905   0.000043908656403 1
force C   0.000055487655496   0.000324514756527   0.000216887228351 1
force C   0.000316661182827  -0.000032239046785   0.000218859690299 1
force C  -0.000103252235446   0.000023295641200   0.000134181845184 1
force C  -0.000135670383797  -0.000297420598168   0.000120132075848 1
force C   0.000172430337499   0.000189662867910   0.000156449413751 1
force C  -0.000295576218778  -0.000079943506892   0.000115169317028 1
force C  -0.000001356473537   0.000175820777429   0.000055294887010 1
force C   0.000428506893642  -0.000215113109601   0.000113035579267 1
force C  -0.000460158958596   0.000188879655103   0.000173740867393 1
force C   0.000313592058948  -0.000086090427163   0.000207218282196 1
force C   0.000393418797220  -0.000085267764682   0.000073641001074 1
force C  -0.000226429854569   0.000133046423194   0.000021150804292 1
force C  -0.000181078673485   0.000214998330651  -0.000081117116051 1
force C  -0.000093755798131   0.000034222208044  -0.000051604042900 1
force C  -0.000098635450211  -0.000058729630401   0.000144550139046 1
force C  -0.000238972437661   0.000337205717893   0.000355040855191 1
force C   0.000474353740485   0.000204572441318   0.000157998233700 1
[...]
	FillingsUpdate:  mu: -0.170267546  nElectrons: 342.000000
SCF: Cycle:  3   F: -568.447374508030634   dF: -7.641e-07   |Residual|: 2.506e-04   |deigs|: 2.465e-05  t[s]:  27222.96
	FillingsUpdate:  mu: -0.170270458  nElectrons: 342.000000
SCF: Cycle:  4   F: -568.447374746921128   dF: -2.389e-07   |Residual|: 1.158e-04   |deigs|: 3.077e-05  t[s]:  27255.46
	FillingsUpdate:  mu: -0.170272631  nElectrons: 342.000000
SCF: Cycle:  5   F: -568.447374823938731   dF: -7.702e-08   |Residual|: 6.587e-05   |deigs|: 3.547e-05  t[s]:  27288.12
	FillingsUpdate:  mu: -0.170274862  nElectrons: 342.000000
SCF: Cycle:  6   F: -568.447374867835265   dF: -4.390e-08   |Residual|: 4.871e-05   |deigs|: 5.484e-05  t[s]:  27333.32
	FillingsUpdate:  mu: -0.170276658  nElectrons: 342.000000
SCF: Cycle:  7   F: -568.447374906061782   dF: -3.823e-08   |Residual|: 3.567e-05   |deigs|: 7.766e-05  t[s]:  27378.16
	FillingsUpdate:  mu: -0.170276832  nElectrons: 342.000000
SCF: Cycle:  8   F: -568.447374948457878   dF: -4.240e-08   |Residual|: 2.894e-05   |deigs|: 7.244e-05  t[s]:  27423.00
	FillingsUpdate:  mu: -0.170275925  nElectrons: 342.000000
SCF: Cycle:  9   F: -568.447374984043336   dF: -3.559e-08   |Residual|: 2.312e-05   |deigs|: 6.550e-05  t[s]:  27468.13
	FillingsUpdate:  mu: -0.170272968  nElectrons: 342.000000
SCF: Cycle: 10   F: -568.447375015070293   dF: -3.103e-08   |Residual|: 1.900e-05   |deigs|: 4.377e-05  t[s]:  27513.06
	FillingsUpdate:  mu: -0.170270312  nElectrons: 342.000000
SCF: Cycle: 11   F: -568.447375027294356   dF: -1.222e-08   |Residual|: 1.579e-05   |deigs|: 2.325e-05  t[s]:  27557.94
	FillingsUpdate:  mu: -0.170266281  nElectrons: 342.000000
SCF: Cycle: 12   F: -568.447375037446704   dF: -1.015e-08   |Residual|: 1.302e-05   |deigs|: 4.712e-05  t[s]:  27603.09
	FillingsUpdate:  mu: -0.170263629  nElectrons: 342.000000
SCF: Cycle: 13   F: -568.447375040594125   dF: -3.147e-09   |Residual|: 1.028e-05   |deigs|: 3.848e-05  t[s]:  27646.92
	FillingsUpdate:  mu: -0.170259902  nElectrons: 342.000000
SCF: Cycle: 14   F: -568.447375042189378   dF: -1.595e-09   |Residual|: 8.177e-06   |deigs|: 5.503e-05  t[s]:  27691.90
SCF: Converged (|Delta E|<1.000000e-08 for 2 iters).

Setting wave functions to eigenvectors of Hamiltonian

Computing DFT-D3 correction:
# coordination-number C 3.301 3.301 3.302 3.301 3.301 3.301 3.301 3.300 3.322 3.301 3.301 3.310 3.301 3.300 3.368 3.301 3.303 3.304 3.301 3.306 3.405 3.301 3.305 3.459 3.301 3.302 3.301 3.305 3.364 3.301 3.300 3.552 3.303 3.301 3.338 3.308 3.301 3.301 3.301 3.301 3.305 3.301 3.301 3.303 3.300 3.301 3.341 3.301 3.301 3.339 3.300 3.301 3.301 3.301 3.319 3.313 3.300 3.309 3.633 3.307 3.301 3.301 3.356 3.302 3.301 3.307 3.301 3.301 3.546 3.309 3.301 3.336
# coordination-number S 2.007 3.008 2.925 2.923 3.005 2.006
# coordination-number Na 4.360 4.388
# diagonal-C6 C 24.28 24.27 24.27 24.27 24.27 24.27 24.27 24.28 24.06 24.27 24.27 24.18 24.28 24.28 23.53 24.28 24.26 24.25 24.28 24.22 23.04 24.27 24.24 22.25 24.27 24.26 24.28 24.24 23.58 24.27 24.28 20.90 24.25 24.28 23.89 24.20 24.27 24.27 24.28 24.27 24.24 24.28 24.27 24.25 24.28 24.27 23.85 24.28 24.27 23.87 24.28 24.27 24.27 24.27 24.09 24.16 24.28 24.19 19.90 24.21 24.27 24.28 23.68 24.27 24.28 24.21 24.28 24.28 20.98 24.20 24.27 23.91
# diagonal-C6 S 125.89 125.81 125.81 125.81 125.81 125.90
# diagonal-C6 Na 186.11 186.11
EvdW_6 =   -0.066539
EvdW_8 =   -0.060781

-------- Electronic minimization -----------
Will mix electronic density at each iteration.
	FillingsUpdate:  mu: -0.170259902  nElectrons: 342.000000
	FillingsUpdate:  mu: -0.170230203  nElectrons: 342.000000
SCF: Cycle:  0   F: -568.447366143865906   dF: -1.674e-05   |Residual|: 2.479e-03   |deigs|: 2.977e-06  t[s]:  27763.37
	FillingsUpdate:  mu: -0.170228281  nElectrons: 342.000000
SCF: Cycle:  1   F: -568.447381368962851   dF: -1.523e-05   |Residual|: 9.689e-04   |deigs|: 1.786e-05  t[s]:  27796.19
	FillingsUpdate:  mu: -0.170226048  nElectrons: 342.000000
SCF: Cycle:  2   F: -568.447383847425613   dF: -2.478e-06   |Residual|: 3.101e-04   |deigs|: 2.029e-05  t[s]:  27828.69
	FillingsUpdate:  mu: -0.170224144  nElectrons: 342.000000
SCF: Cycle:  3   F: -568.447384153208304   dF: -3.058e-07   |Residual|: 1.404e-04   |deigs|: 1.944e-05  t[s]:  27861.17
	FillingsUpdate:  mu: -0.170222499  nElectrons: 342.000000
SCF: Cycle:  4   F: -568.447384247830996   dF: -9.462e-08   |Residual|: 7.277e-05   |deigs|: 1.959e-05  t[s]:  27893.66
	FillingsUpdate:  mu: -0.170220822  nElectrons: 342.000000
SCF: Cycle:  5   F: -568.447384283131782   dF: -3.530e-08   |Residual|: 3.916e-05   |deigs|: 2.191e-05  t[s]:  27926.32
	FillingsUpdate:  mu: -0.170219643  nElectrons: 342.000000
SCF: Cycle:  6   F: -568.447384304241723   dF: -2.111e-08   |Residual|: 3.209e-05   |deigs|: 1.670e-05  t[s]:  27959.18
	FillingsUpdate:  mu: -0.170218101  nElectrons: 342.000000
SCF: Cycle:  7   F: -568.447384325479902   dF: -2.124e-08   |Residual|: 2.290e-05   |deigs|: 2.683e-05  t[s]:  28004.30
	FillingsUpdate:  mu: -0.170217921  nElectrons: 342.000000
SCF: Cycle:  8   F: -568.447384344174793   dF: -1.869e-08   |Residual|: 1.786e-05   |deigs|: 1.965e-05  t[s]:  28049.23
	FillingsUpdate:  mu: -0.170218474  nElectrons: 342.000000
SCF: Cycle:  9   F: -568.447384357975011   dF: -1.380e-08   |Residual|: 1.514e-05   |deigs|: 1.778e-05  t[s]:  28094.33
	FillingsUpdate:  mu: -0.170220403  nElectrons: 342.000000
SCF: Cycle: 10   F: -568.447384368963412   dF: -1.099e-08   |Residual|: 1.172e-05   |deigs|: 2.294e-05  t[s]:  28139.72
	FillingsUpdate:  mu: -0.170222199  nElectrons: 342.000000
SCF: Cycle: 11   F: -568.447384373841260   dF: -4.878e-09   |Residual|: 9.941e-06   |deigs|: 1.659e-05  t[s]:  28184.86
	FillingsUpdate:  mu: -0.170224297  nElectrons: 342.000000
SCF: Cycle: 12   F: -568.447384376547916   dF: -2.707e-09   |Residual|: 8.149e-06   |deigs|: 1.748e-05  t[s]:  28229.85
SCF: Converged (|Delta E|<1.000000e-08 for 2 iters).

Setting wave functions to eigenvectors of Hamiltonian

Computing DFT-D3 correction:
# coordination-number C 3.301 3.301 3.302 3.301 3.301 3.301 3.301 3.300 3.322 3.301 3.301 3.310 3.301 3.300 3.368 3.301 3.303 3.304 3.301 3.306 3.405 3.301 3.305 3.459 3.301 3.302 3.301 3.305 3.364 3.301 3.300 3.552 3.303 3.301 3.338 3.308 3.301 3.301 3.301 3.301 3.305 3.301 3.301 3.303 3.300 3.301 3.341 3.301 3.301 3.339 3.300 3.301 3.301 3.301 3.319 3.313 3.300 3.309 3.633 3.307 3.301 3.301 3.356 3.302 3.301 3.307 3.301 3.301 3.546 3.309 3.301 3.336
# coordination-number S 2.007 3.008 2.925 2.923 3.005 2.006
# coordination-number Na 4.360 4.388
# diagonal-C6 C 24.28 24.27 24.27 24.27 24.27 24.27 24.27 24.28 24.06 24.27 24.27 24.18 24.28 24.28 23.53 24.28 24.26 24.25 24.28 24.22 23.04 24.27 24.24 22.25 24.27 24.26 24.28 24.24 23.58 24.27 24.28 20.90 24.25 24.28 23.89 24.20 24.27 24.27 24.28 24.27 24.24 24.28 24.27 24.25 24.28 24.27 23.85 24.28 24.27 23.87 24.28 24.27 24.27 24.27 24.09 24.16 24.28 24.19 19.90 24.21 24.27 24.28 23.68 24.27 24.28 24.21 24.28 24.28 20.98 24.20 24.27 23.91
# diagonal-C6 S 125.89 125.81 125.81 125.81 125.81 125.90
# diagonal-C6 Na 186.11 186.11
EvdW_6 =   -0.066539
EvdW_8 =   -0.060781

# Ionic positions in cartesian coordinates:
ion C  28.011910236849264   0.002219763580138  18.682854412394537 1
ion C  16.343420281457064  20.215529840309792  18.682312019708569 1
ion C   2.339822181400544   4.042564294635056  18.664577991150388 1
ion C  23.344788688113091   0.002097944444792  18.680137570154951 1
ion C   4.673510582583059   0.001811926900847  18.676322909213503 1
ion C  11.675792538736948  20.215438235776229  18.663066135725625 1
ion C  25.677413408362217   4.042495453272838  18.686899079342080 1
ion C  18.677099035458252  16.173148171823758  18.685403528179492 1
ion C   4.673487420914284   8.082412064665133  18.611819215557823 1
ion C  18.677856985569925   0.002083928203987  18.680033279348404 1
ion C   9.340995715742578   0.001468680763731  18.672857248819060 1
ion C   9.342034925866169  16.176353753350615  18.611294411820769 1
ion C  23.343972355677941   8.085000631929171  18.690044008210808 1
ion C  21.010223156926127  12.129008674169796  18.690163021531578 1
ion C   7.010512740386218  12.128720830013085  18.570366099083241 1
ion C  14.009388087962492   0.001906040235317  18.680631035749016 1
ion C  14.010436070003792  16.175811440612570  18.656912995663266 1
ion C   7.006885479245671   4.041052607342899  18.643267721572780 1
ion C  21.011268752338793   4.043004030142968  18.693706847049114 1
ion C  16.345638638030920  12.130586722533257  18.673078885474609 1
ion C   9.338321362063935   8.081716254791615  18.598503948868046 1
ion C  16.344784378988400   4.041863585363015  18.691514908720226 1
ion C  11.674750981729126   4.041470537104368  18.660936585897762 1
ion C  11.676936610095851  12.134527684742556  18.614266143451228 1
ion C  18.679366663611244   8.085068545724013  18.695161820156130 1
ion C   7.008658957547139  20.216379292680088  18.653031715813221 1
ion C  -6.995713872213306  20.214703171211188  18.688477215253005 1
ion C   0.003348208513085   8.082482261229762  18.669436205521798 1
ion C  14.013719130527859   8.082877211286972  18.666738482175969 1
ion C   2.340405315289191  20.216617070754740  18.670542854467943 1
ion C  -4.662670112690890  16.173015132550599  18.693222387616760 1
ion C   2.337843775133630  12.127796393942413  18.640114111376839 1
ion C  -2.331620585801023  12.128377975048737  18.685961572814122 1
ion C  -2.328390195481717  20.215570699478960  18.686933806651240 1
ion C   4.675560676954577  16.177799457582839  18.626028906602791 1
ion C   0.004396126023922  16.174919789695490  18.678526509016976 1
ion C  14.009667092769647  21.561897211726262  18.678236418493206 1
ion C   2.339975233489926   1.348700411170866  18.676563105892225 1
ion C  25.678138720632976   1.348492482747284  18.684947587863604 1
ion C  16.344041333530967  17.521538857806590  18.677472752415042 1
ion C   4.673725458900750   5.388232415772075  18.638660383948409 1
ion C  21.011344400627163   1.348893438463100  18.686684053275581 1
ion C   7.007274620361919   1.347885698147265  18.666137575032067 1
ion C  11.676074924128729  17.521845888449882  18.641993863649990 1
ion C  23.344474331440505   5.390308092323213  18.691783116726938 1
ion C  18.678124307730791  13.478622060503485  18.683577630943212 1
ion C   7.006457771552991   9.432752629092036  18.577646700814473 1
ion C  16.343775003794505   1.347826600224892  18.685231305918876 1
ion C  11.674910052517294   1.347762477910186  18.671724103254160 1
ion C   9.341473498850076  13.481563465305443  18.585178285281202 1
ion C  21.011666714338386   9.434100928516692  18.692081040625723 1
ion C   9.342482323691250  21.562172975682746  18.665020875655312 1
ion C  -9.328954236705073  21.561780709011305  18.684888934651983 1
ion C   0.005300106435699   5.388491090450849  18.674572248064244 1
ion C  14.012834121286172  13.481674844521114  18.650446678840453 1
ion C   9.340241551693328   5.387149672731647  18.631494852239872 1
ion C  18.678237946447190   5.390176928543078  18.695799757929610 1
ion C  16.347060516622719   9.434287354562358  18.682297281373945 1
ion C  11.675195483957200   9.432756706535526  18.624085661588719 1
ion C  14.010370291847531   5.387097250625039  18.676384691981855 1
ion C   4.674488235644841  21.562176275056768  18.665762752961211 1
ion C  -6.995769635550399  17.520447348468473  18.690714188320783 1
ion C   2.338001080571558   9.428200048716308  18.639008612505936 1
ion C  -2.329402888135192   9.432702777540239  18.681537585436061 1
ion C  -4.662059564340674  21.561494861485521  18.684533450935447 1
ion C   7.009099631332127  17.523609454223557  18.624711802658275 1
ion C   0.005795293934510  21.562077222982087  18.680782045941559 1
ion C  -4.663484447779537  13.477949755459957  18.692601377861322 1
ion C   4.676614008547157  13.479772118627142  18.602733685502557 1
ion C   2.340091731986849  17.522361130276995  18.660125212203958 1
ion C  -2.329514900926092  17.521177084792019  18.691798288248290 1
ion C   0.000975118338195  13.479052558435429  18.674446562176019 1
ion S   3.835766165859495  14.739701471156863  28.995441707094283 1
ion S   7.511523834878576  14.040276560367904  28.602018175044005 1
ion S   8.635057213065766  14.519886329276712  24.991243288268290 1
ion S   6.375960294455314   8.012770307949213  25.106876454318460 1
ion S   7.548100766465572   8.603094502127380  28.685454833334742 1
ion S  11.234466375204438   7.934102030188154  29.050857519947979 1
ion Na   3.709882600781138  12.533143250516401  24.268227425962376 1
ion Na  11.287421196737334   9.970663024836618  24.243920316053924 1

# Forces in Cartesian coordinates:
force C   0.000000439450607  -0.000017903092765  -0.000077451001522 1
force C  -0.000091915699148  -0.000063396645075  -0.000093714164699 1
force C   0.000015436525992  -0.000015859658947   0.000055397319126 1
force C   0.000016786922080   0.000014276812921   0.000121390098233 1
force C   0.000011815830408   0.000095301868982   0.000086740951410 1
force C   0.000070100825139  -0.000029935492375   0.000017162349991 1
force C   0.000091641246350  -0.000029598690262  -0.000070743175402 1
force C  -0.000071305096994  -0.000003104400248  -0.000096711603136 1
force C   0.000089656538597  -0.000010855723935  -0.000101443078267 1
force C  -0.000108811708493   0.000018658720912   0.000133244785065 1
force C   0.000069867429144   0.000140128740642   0.000106442205649 1
force C   0.000062861089251  -0.000131979461729  -0.000123610210012 1
force C  -0.000059033162617  -0.000003435955184   0.000096567873539 1
force C   0.000043861630041   0.000058711288246   0.000062609428425 1
force C  -0.000070888694543   0.000032678600213  -0.000097742825415 1
force C  -0.000001477360083   0.000095990421214  -0.000023358174235 1
force C  -0.000048628215042   0.000071943963062  -0.000050398935397 1
force C  -0.000019424051821   0.000073256991155  -0.000083815511450 1
force C   0.000019407069531   0.000083099520963   0.000094962781796 1
force C   0.000021279471084   0.000042461469068   0.000102133060481 1
force C   0.000031420896199   0.000031624691165  -0.000019279089573 1
force C   0.000047824126394  -0.000029583266287  -0.000216803971766 1
force C   0.000047815527952   0.000026047682360  -0.000125811574556 1
force C  -0.000094051038381   0.000002991432470  -0.000084899179718 1
force C   0.000104999107767   0.000033384313918  -0.000152626996516 1
force C  -0.000023979257879  -0.000121347183269  -0.000144488648471 1
force C  -0.000003334437914   0.000065180689613  -0.000085813907436 1
force C   0.000051709651634   0.000083799914764  -0.000160814108850 1
force C  -0.000169945443154   0.000046344999184   0.000028608874995 1
force C  -0.000020228844768  -0.000032701292852   0.000019462591587 1
force C   0.000036732147879  -0.000144693930537   0.000095895853964 1
force C   0.000013210966098   0.000076223279586  -0.000129890216595 1
force C   0.000050019268117  -0.000089595517088   0.000078378951449 1
force C   0.000115834227678  -0.000108279909919   0.000001376493655 1
force C   0.000047318429062  -0.000132719099674  -0.000051124239281 1
force C   0.000020453569228   0.000065448598282  -0.000038495162858 1
force C  -0.000056338817694  -0.000013263999141   0.000020171572507 1
force C   0.000056004292851  -0.000006075456486   0.000049627946795 1
force C   0.000087806391904   0.000048206565950  -0.000022879839447 1
force C  -0.000033223542093  -0.000022351327867   0.000003706443779 1
force C  -0.000033566066020  -0.000031805518968   0.000038290374558 1
force C  -0.000026119441313  -0.000107501225769  -0.000188729290802 1
force C  -0.000033750395887   0.000079650793085  -0.000069707295726 1
force C  -0.000045312654842   0.000010186047859   0.000080757072771 1
force C   0.000016522421931   0.000076571469262  -0.000028580117445 1
force C   0.000093996018495  -0.000082614602109   0.000256213136132 1
force C  -0.000069322498543  -0.000035469368192  -0.000104423975509 1
force C  -0.000038241344184   0.000064969197677   0.000037148653538 1
force C  -0.000038436637889  -0.000123211885752   0.000285404015183 1
force C   0.000012849435244   0.000060844278468  -0.000038268131317 1
force C  -0.000100161843328  -0.000007736278745   0.000162753601455 1
force C  -0.000129025374253  -0.000036491164990   0.000031256539049 1
force C   0.000020885936732  -0.000027062550237  -0.000013279678238 1
force C   0.000087110994915   0.000063762296866   0.000042424198800 1
force C  -0.000137122763469  -0.000219513480301  -0.000125636723739 1
force C  -0.000046235488567   0.000075386358252  -0.000012731183295 1
force C  -0.000132648034872   0.000023637437717   0.000054660795658 1
force C   0.000009001779142   0.000051521553912  -0.000006498587963 1
force C   0.000092763351152  -0.000033549843118  -0.000231552088612 1
force C   0.000020727186536  -0.000011275281382   0.000000067266737 1
force C   0.000059379345291  -0.000012752719146   0.000255214073493 1
force C   0.000083839935112  -0.000022800566479   0.000126385267921 1
force C   0.000086098604732   0.000027678552427   0.000004789693207 1
force C   0.000010858821592   0.000067138454023   0.000231285178125 1
force C   0.000004387251254   0.000004338499169   0.000021730642576 1
force C   0.000071979100626   0.000010763380945  -0.000027161262724 1
force C  -0.000010526502502  -0.000087955038885   0.000064367763672 1
force C  -0.000034770486416  -0.000006645365300  -0.000046929115142 1
force C   0.000022701221203  -0.000040514452610  -0.000102643614601 1
force C  -0.000077631754881   0.000086402094413  -0.000006882900583 1
force C  -0.000025796519517   0.000116053628137  -0.000193261092187 1
force C   0.000095891002829  -0.000100007216178  -0.000038474994739 1
force S  -0.000250594972202   0.000010763767120  -0.000059758827068 1
force S   0.000061300839085   0.000063721959156  -0.000060601191386 1
force S   0.000208522489906  -0.000025489926694   0.000116742792467 1
force S  -0.000347038409058  -0.000062827279658  -0.000196264692518 1
force S   0.000370819010408   0.000039571085854   0.000038130393027 1
force S  -0.000162801623527  -0.000012877133057  -0.000171336231192 1
force Na   0.000010259928625  -0.000030114692567  -0.000145883974657 1
force Na  -0.000035617710251   0.000012062886112  -0.000174143298851 1

# Energy components:
   Eewald =    -1841.7818022552321509
       EH =    -1410.3766307463915837
     Eloc =     2639.8459818656428979
      Enl =      -75.0301189334988266
     EvdW =       -0.1273196502707275
      Exc =     -170.2720957773478574
 Exc_core =       13.0310488434797200
       KE =      276.3373540045081995
-------------------------------------
     Etot =     -568.3735826491104035
       TS =        0.0738017274375092
-------------------------------------
        F =     -568.4473843765479160

IonicMinimize: Iter:  21  F: -568.447384376547916  |grad|_K:  9.254e-05  alpha:  1.824e+00  linmin:  7.946e-03  t[s]:  28244.96
IonicMinimize: Converged (|grad|_K<1.000000e-04).

#--- Lowdin population analysis ---
# oxidation-state C +0.044 +0.044 +0.045 +0.044 +0.045 +0.045 +0.044 +0.043 +0.035 +0.044 +0.045 +0.043 +0.042 +0.042 +0.030 +0.044 +0.042 +0.046 +0.043 +0.034 +0.026 +0.041 +0.040 +0.014 +0.040 +0.046 +0.044 +0.038 +0.019 +0.043 +0.042 +0.001 +0.036 +0.043 +0.033 +0.034 +0.045 +0.045 +0.044 +0.043 +0.044 +0.044 +0.046 +0.045 +0.043 +0.041 +0.034 +0.044 +0.044 +0.034 +0.042 +0.045 +0.044 +0.043 +0.031 +0.041 +0.042 +0.032 -0.002 +0.035 +0.045 +0.043 +0.025 +0.039 +0.044 +0.045 +0.044 +0.041 +0.009 +0.036 +0.041 +0.023
# oxidation-state S -0.328 +0.388 -0.406 -0.406 +0.388 -0.328
# oxidation-state Na +0.726 +0.726


Dumping 'Na2S6@graphene-vdw.fillings' ... done
Dumping 'Na2S6@graphene-vdw.wfns' ... done
Dumping 'Na2S6@graphene-vdw.ionpos' ... done
Dumping 'Na2S6@graphene-vdw.eigenvals' ... done
End date and time: Fri Sep 27 13:17:35 2024  (Duration: 0-7:50:51.10)
Done!
