
*************** JDFTx 1.7.0  ***************

Start date and time: Fri Sep 27 02:12:36 2024
Executable ../../jdftx_install/build/jdftx_gpu with command-line: -i Na2S4@graphene-vdw.in -o Na2S4@graphene-vdw.out
Running on hosts (process indices):  ubaid-base (0)
Divided in process groups (process indices):  0 (0)
gpuInit: Found compatible cuda device 0 'NVIDIA GeForce RTX 3050'
gpuInit: Selected device 0
Resource initialization completed at t[s]:      0.15
Run totals: 1 processes, 16 threads, 1 GPUs


Input parsed successfully to the following command list (including defaults):

basis kpoint-dependent
coords-type Cartesian
core-overlap-check vector
coulomb-interaction Slab 001
coulomb-truncation-embed 0 0 14.173
davidson-band-ratio 1.1
dump End State
dump-name Na2S4@graphene-vdw.$VAR
elec-cutoff 20 100
elec-eigen-algo Davidson
elec-ex-corr gga-PBE
elec-smearing Fermi 0.01
electronic-minimize  \
	dirUpdateScheme      FletcherReeves \
	linminMethod         DirUpdateRecommended \
	nIterations          100 \
	history              15 \
	knormThreshold       0 \
	energyDiffThreshold  1e-08 \
	nEnergyDiff          2 \
	alphaTstart          1 \
	alphaTmin            1e-10 \
	updateTestStepSize   yes \
	alphaTreduceFactor   0.1 \
	alphaTincreaseFactor 3 \
	nAlphaAdjustMax      3 \
	wolfeEnergy          0.0001 \
	wolfeGradient        0.9 \
	fdTest               no
exchange-regularization WignerSeitzTruncated
fluid None
fluid-ex-corr lda-TF lda-PZ
fluid-gummel-loop 10 1.000000e-05
fluid-minimize  \
	dirUpdateScheme      PolakRibiere \
	linminMethod         DirUpdateRecommended \
	nIterations          100 \
	history              15 \
	knormThreshold       0 \
	energyDiffThreshold  0 \
	nEnergyDiff          2 \
	alphaTstart          1 \
	alphaTmin            1e-10 \
	updateTestStepSize   yes \
	alphaTreduceFactor   0.1 \
	alphaTincreaseFactor 3 \
	nAlphaAdjustMax      3 \
	wolfeEnergy          0.0001 \
	wolfeGradient        0.9 \
	fdTest               no
fluid-solvent H2O 55.338 ScalarEOS \
	epsBulk 78.4 \
	pMol 0.92466 \
	epsInf 1.77 \
	Pvap 1.06736e-10 \
	sigmaBulk 4.62e-05 \
	Rvdw 2.61727 \
	Res 1.42 \
	tauNuc 343133 \
	poleEl 15 7 1
forces-output-coords Positions
ion C  28.002057516628216  -0.005722649619084  14.125572907406509 1
ion C  16.334623944425658  20.206947381335965  14.125849451998427 1
ion C   2.328740818670489   4.032969531203549  14.108410432765510 1
ion C  23.334014359169608  -0.004647920741924  14.111915294920834 1
ion C   4.665150795915989  -0.006509983178095  14.107937831541493 1
ion C  11.666208447654713  20.210018561335868  14.115468160861315 1
ion C  25.666741096219159   4.035642695863702  14.121168644782294 1
ion C  18.669771488772753  16.163167120791364  14.114077791967311 1
ion C   4.663640995475211   8.076701240836226  14.057051348816804 1
ion C  18.666516872743664  -0.004875230599450  14.080104707387774 1
ion C   9.333805698147581  -0.007131935264356  14.072865037995532 1
ion C   9.330116346977803  16.168704077989325  14.064815494770890 1
ion C  23.332993014546467   8.078410012046064  14.104827704572690 1
ion C  21.002344821730411  12.120224341109978  14.097370463745603 1
ion C   6.994684581684726  12.122461423942616  14.002738713265162 1
ion C  14.000391553542810  -0.006051769990949  14.059994342948013 1
ion C  14.003140812517278  16.164977687836579  14.106954152519124 1
ion C   7.001154553606261   4.032353711244041  14.057956076074571 1
ion C  21.000361953521949   4.036109881762552  14.100941129924481 1
ion C  16.338049518223208  12.118617114485083  14.082179733943635 1
ion C   9.337246695156360   8.074502122080007  13.999349246519182 1
ion C  16.334392044621726   4.035304023992808  14.058667429364416 1
ion C  11.668327446178514   4.034343836716413  14.030468357448251 1
ion C  11.669870508537642  12.117211183337961  14.036914946776243 1
ion C  18.668201881741815   8.077504112670402  14.078919521869667 1
ion C   6.996227994495104  20.208298663521511  14.074640942416680 1
ion C  -7.003227206481911  20.205422386201324  14.107842536847091 1
ion C  -0.008118877747957   8.078058234272479  14.098254102159753 1
ion C  14.002944748628416   8.075444674087954  14.030373959212433 1
ion C   2.329777354551590  20.206655922288263  14.055165717137958 1
ion C  -4.669907104227726  16.163526383913887  14.091598980896736 1
ion C   2.326878470090190  12.125440834271860  14.038246200099083 1
ion C  -2.338376007393585  12.122155645486904  14.081089284709760 1
ion C  -2.336446436339376  20.205741878704377  14.074155355593200 1
ion C   4.661623023393108  16.166880779474276  14.024432543994275 1
ion C  -0.004728346815888  16.165162230401570  14.049622012667049 1
ion C  14.000794686174142  21.554346363628795  14.126090481367864 1
ion C   2.330686055643950   1.339215208173965  14.117520223866460 1
ion C  25.668379959901909   1.340855977850737  14.123467906118146 1
ion C  16.337240873227749  17.512113104708082  14.121719720257699 1
ion C   4.665090651397688   5.376617341292032  14.081047334886994 1
ion C  21.000243681028138   1.342047400401869  14.100016924184885 1
ion C   7.000095049416368   1.338878995488026  14.081266036352451 1
ion C  11.668300124478511  17.515059507650587  14.102616995153161 1
ion C  23.333328327013366   5.383733494813577  14.113305565809879 1
ion C  18.669799685349012  13.468010393609557  14.101090851424436 1
ion C   7.002278124928796   9.425570856524798  14.007880881342031 1
ion C  16.333520215661956   1.341389332486424  14.065408886778789 1
ion C  11.667099928580640   1.340312073831057  14.053133552330843 1
ion C   9.331982105445771  13.468802797608118  14.027398202757084 1
ion C  21.000624019347924   9.426352589678766  14.095398037325808 1
ion C   9.331397859269646  21.554753775542117  14.102594110065088 1
ion C  -9.336852889922143  21.552637423345029  14.117692399735304 1
ion C  -0.005206423753924   5.382335420501896  14.113774777479907 1
ion C  14.004876307176424  13.467730968704624  14.078648013712568 1
ion C   9.335172920424938   5.380498548234537  14.020480712424860 1
ion C  18.667389978421660   5.383186027778243  14.078946140927039 1
ion C  16.335859476737220   9.424432725853954  14.061458149248390 1
ion C  11.670206221685401   9.420616391779390  14.010535344696887 1
ion C  14.001590001096426   5.381787727426752  14.033760772813748 1
ion C   4.662894831469739  21.554419406838210  14.069091419725192 1
ion C  -7.002952745102622  17.511074653500369  14.109201162636223 1
ion C   2.325242995128288   9.428828683775373  14.070455583932274 1
ion C  -2.340273299440340   9.427404915620899  14.097510428523320 1
ion C  -4.669800707757621  21.552390184335252  14.088468137270359 1
ion C   6.994040945988978  17.515268034059421  14.051470303183441 1
ion C  -0.003481225296390  21.553392986802407  14.063489341010655 1
ion C  -4.671117857324909  13.469391985673436  14.091899679675613 1
ion C   4.661289958094798  13.472146843389497  14.009609581800266 1
ion C   2.328439391185748  17.512868396025571  14.038754279517930 1
ion C  -2.337319351973965  17.511638159881187  14.072865794239515 1
ion C  -0.006683860672300  13.471846454842582  14.054547304766132 1
ion S   5.091970501871192  14.050985077365143  20.960415788838997 1
ion S   7.085763358365024  13.330850691324310  24.218518721987667 1
ion S   8.301157960236354   9.542429961599444  24.208687880127847 1
ion S  10.287593396578213   8.838620943050010  20.942526694903762 1
ion Na   5.324951030105859   9.069637847644461  19.419954189715916 1
ion Na  10.060140479120443  13.838430842148853  19.445934273045371 1
ion-species GBRV/$ID_pbe.uspp
ion-width 0
ionic-minimize  \
	dirUpdateScheme      FletcherReeves \
	linminMethod         DirUpdateRecommended \
	nIterations          200 \
	history              15 \
	knormThreshold       0.0001 \
	energyDiffThreshold  1e-06 \
	nEnergyDiff          2 \
	alphaTstart          1 \
	alphaTmin            1e-10 \
	updateTestStepSize   yes \
	alphaTreduceFactor   0.1 \
	alphaTincreaseFactor 3 \
	nAlphaAdjustMax      3 \
	wolfeEnergy          0.0001 \
	wolfeGradient        0.9 \
	fdTest               no
kpoint   0.000000000000   0.000000000000   0.000000000000  1.00000000000000
kpoint-folding 1 1 1 
latt-move-scale 1 1 1
latt-scale 1 1 1 
lattice Triclinic 28.0058 28.0058 32.1253 90 90 120
lattice-minimize  \
	dirUpdateScheme      L-BFGS \
	linminMethod         DirUpdateRecommended \
	nIterations          0 \
	history              15 \
	knormThreshold       0 \
	energyDiffThreshold  1e-06 \
	nEnergyDiff          2 \
	alphaTstart          1 \
	alphaTmin            1e-10 \
	updateTestStepSize   yes \
	alphaTreduceFactor   0.1 \
	alphaTincreaseFactor 3 \
	nAlphaAdjustMax      3 \
	wolfeEnergy          0.0001 \
	wolfeGradient        0.9 \
	fdTest               no
lcao-params -1 1e-06 0.01
pcm-variant GLSSA13
spintype no-spin
subspace-rotation-factor 1 yes
symmetries automatic
symmetry-threshold 0.0001
van-der-waals D3



---------- Setting up symmetries ----------

Found 24 point-group symmetries of the bravais lattice
Found 1 space-group symmetries with basis
Applied RMS atom displacement 0 bohrs to make symmetries exact.

---------- Initializing the Grid ----------
R = 
[      28.0058     -14.0029            0  ]
[            0      24.2537            0  ]
[            0            0      32.1253  ]
unit cell volume = 21821
G =
[   0.224353    0.12953         -0  ]
[          0   0.259061          0  ]
[          0         -0   0.195584  ]
Minimum fftbox size, Smin = [  128  128  148  ]
Chosen fftbox size, S = [  128  128  150  ]

---------- Initializing tighter grid for wavefunction operations ----------
R = 
[      28.0058     -14.0029            0  ]
[            0      24.2537            0  ]
[            0            0      32.1253  ]
unit cell volume = 21821
G =
[   0.224353    0.12953         -0  ]
[          0   0.259061          0  ]
[          0         -0   0.195584  ]
Minimum fftbox size, Smin = [  116  116  132  ]
Chosen fftbox size, S = [  120  120  140  ]

---------- Exchange Correlation functional ----------
Initalized PBE GGA exchange.
Initalized PBE GGA correlation.

---------- Setting up pseudopotentials ----------
Width of ionic core gaussian charges (only for fluid interactions / plotting) set to 0

Reading pseudopotential file '/home/ubaid/jdftx_install/build/pseudopotentials/GBRV/c_pbe.uspp':
  Title: C.  Created by USPP 7.3.6 on 3-2-2014
  Reference state energy: -5.406344.  4 valence electrons in orbitals:
    |200>  occupation: 2  eigenvalue: -0.504890
    |210>  occupation: 2  eigenvalue: -0.194356
  lMax: 1  lLocal: 2  QijEcut: 5
  4 projectors sampled on a log grid with 503 points:
    l: 0  eig: -0.504890  rCut: 1.3
    l: 0  eig: 0.000000  rCut: 1.3
    l: 1  eig: -0.194357  rCut: 1.3
    l: 1  eig: 0.000000  rCut: 1.3
  Partial core density with radius 1.1
  Transforming core density to a uniform radial grid of dG=0.02 with 1618 points.
  Transforming local potential to a uniform radial grid of dG=0.02 with 1618 points.
  Transforming nonlocal projectors to a uniform radial grid of dG=0.02 with 432 points.
  Transforming density augmentations to a uniform radial grid of dG=0.02 with 1618 points.
  Transforming atomic orbitals to a uniform radial grid of dG=0.02 with 432 points.
  Core radius for overlap checks: 1.30 bohrs.

Reading pseudopotential file '/home/ubaid/jdftx_install/build/pseudopotentials/GBRV/s_pbe.uspp':
  Title: S.  Created by USPP 7.3.6 on 1-4-15
  Reference state energy: -11.898476.  6 valence electrons in orbitals:
    |300>  occupation: 2  eigenvalue: -0.634167
    |310>  occupation: 4  eigenvalue: -0.257568
  lMax: 2  lLocal: 3  QijEcut: 6
  6 projectors sampled on a log grid with 635 points:
    l: 0  eig: -0.634161  rCut: 1.5
    l: 0  eig: 1.500000  rCut: 1.5
    l: 1  eig: -0.257567  rCut: 1.5
    l: 1  eig: 1.500000  rCut: 1.5
    l: 2  eig: -1.000000  rCut: 1.5
    l: 2  eig: 1.500000  rCut: 1.5
  Partial core density with radius 1.15
  Transforming core density to a uniform radial grid of dG=0.02 with 1618 points.
  Transforming local potential to a uniform radial grid of dG=0.02 with 1618 points.
  Transforming nonlocal projectors to a uniform radial grid of dG=0.02 with 432 points.
  Transforming density augmentations to a uniform radial grid of dG=0.02 with 1618 points.
  Transforming atomic orbitals to a uniform radial grid of dG=0.02 with 432 points.
  Core radius for overlap checks: 1.50 bohrs.

Reading pseudopotential file '/home/ubaid/jdftx_install/build/pseudopotentials/GBRV/na_pbe.uspp':
  Title: Na.  Created by USPP 7.3.6 on 23-9-15
  Reference state energy: -47.625620.  9 valence electrons in orbitals:
    |200>  occupation: 2  eigenvalue: -2.085638
    |210>  occupation: 6  eigenvalue: -1.053708
    |300>  occupation: 1  eigenvalue: -0.100838
  lMax: 2  lLocal: 0  QijEcut: 6
  5 projectors sampled on a log grid with 657 points:
    l: 0  eig: -2.085640  rCut: 1.37
    l: 0  eig: -0.100839  rCut: 1.37
    l: 1  eig: -1.053708  rCut: 1.47
    l: 1  eig: 0.500000  rCut: 1.47
    l: 2  eig: 0.750000  rCut: 2
  Transforming local potential to a uniform radial grid of dG=0.02 with 1618 points.
  Transforming nonlocal projectors to a uniform radial grid of dG=0.02 with 432 points.
  Transforming density augmentations to a uniform radial grid of dG=0.02 with 1618 points.
  Transforming atomic orbitals to a uniform radial grid of dG=0.02 with 432 points.
  Core radius for overlap checks: 2.00 bohrs.

Initialized 3 species with 78 total atoms.

Folded 1 k-points by 1x1x1 to 1 k-points.

---------- Setting up k-points, bands, fillings ----------
No reducable k-points. 
Computing the number of bands and number of electrons
Calculating initial fillings.
nElectrons: 330.000000   nBands: 314   nStates: 1

----- Setting up reduced wavefunction bases (one per k-point) -----
average nbasis = 93173.000 , ideal nbasis = 93220.781

---------- Setting up coulomb interaction ----------
Setting up double-sized grid for truncated Coulomb potentials:
R = 
[      28.0058     -14.0029            0  ]
[            0      24.2537            0  ]
[            0            0      64.2506  ]
unit cell volume = 43641.9
G =
[   0.224353    0.12953         -0  ]
[          0   0.259061          0  ]
[          0         -0  0.0977919  ]
Chosen fftbox size, S = [  128  128  300  ]
Integer grid location selected as the embedding center:
   Grid: [  0  0  66  ]
   Lattice: [  0  0  0.441178  ]
   Cartesian: [  0  0  14.173  ]
Constructing Wigner-Seitz cell: 8 faces (6 quadrilaterals, 2 hexagons)
Range-separation parameter for embedded mesh potentials due to point charges: 0.590105 bohrs.
Initialized slab truncation along lattice direction 001

Initializing DFT-D3 calculator:
	Parameters set for gga-PBE functional
	s6:  1.000  s_r6:  1.217
	s8:  0.722  s_r8:  1.000
	Per-atom parameters loaded for:
	 C:  sqrtQ[a0]:  3.105  Rcov[a0]:  1.417  CN: [ 0.00 0.99 2.00 3.00 3.98 ]
	 S:  sqrtQ[a0]:  4.041  Rcov[a0]:  1.928  CN: [ 0.00 0.99 1.99 ]
	Na:  sqrtQ[a0]:  6.586  Rcov[a0]:  2.646  CN: [ 0.00 0.97 ]

---------- Setting up 2D ewald sum ----------
Optimum gaussian width for ewald sums = 15.547689 bohr.
Real space sums over 289 unit cells with max indices [  8  8  0  ]
Reciprocal space sums over 81 terms with max indices [  4  4  0  ]

Computing DFT-D3 correction:
# coordination-number C 3.301 3.300 3.305 3.301 3.300 3.303 3.300 3.300 3.742 3.301 3.301 3.507 3.301 3.301 3.439 3.301 3.322 3.310 3.301 3.303 3.343 3.301 3.302 3.512 3.301 3.302 3.300 3.308 3.304 3.301 3.301 3.333 3.301 3.301 3.309 3.302 3.301 3.301 3.300 3.301 3.360 3.300 3.301 3.344 3.300 3.301 3.632 3.301 3.301 3.757 3.301 3.301 3.300 3.302 3.345 3.310 3.301 3.302 3.324 3.302 3.301 3.301 3.429 3.301 3.301 3.319 3.301 3.301 3.336 3.302 3.301 3.303
# coordination-number S 2.936 3.017 3.013 2.936
# coordination-number Na 4.750 4.713
# diagonal-C6 C 24.28 24.28 24.23 24.28 24.28 24.26 24.28 24.28 19.03 24.28 24.28 21.54 24.28 24.28 22.54 24.28 24.06 24.18 24.28 24.25 23.83 24.27 24.26 21.46 24.27 24.26 24.28 24.20 24.24 24.27 24.28 23.94 24.27 24.28 24.19 24.27 24.28 24.27 24.28 24.27 23.63 24.28 24.27 23.82 24.28 24.27 19.92 24.28 24.27 18.95 24.28 24.27 24.28 24.26 23.80 24.18 24.28 24.26 24.04 24.26 24.27 24.28 22.70 24.27 24.28 24.10 24.27 24.27 23.91 24.26 24.27 24.25
# diagonal-C6 S 125.81 125.81 125.81 125.81
# diagonal-C6 Na 186.11 186.11
EvdW_6 =   -0.063125
EvdW_8 =   -0.055605

---------- Allocating electronic variables ----------
Initializing wave functions:  linear combination of atomic orbitals
C pseudo-atom occupations:   s ( 2 )  p ( 2 )
S pseudo-atom occupations:   s ( 2 )  p ( 4 )
Na pseudo-atom occupations:   s ( 2 1 )  p ( 6 )
	FillingsUpdate:  mu: -0.164455554  nElectrons: 330.000000
LCAOMinimize: Iter:   0  F: -542.2242636634157407  |grad|_K:  1.277e-02  alpha:  1.000e+00
LCAOMinimize: 	Step increased F by 8.954172e-01, reducing alpha to 2.671868e-02.
	FillingsUpdate:  mu: -0.212955537  nElectrons: 330.000000
LCAOMinimize: Iter:   1  F: -542.6962688482063868  |grad|_K:  1.192e-02  alpha:  2.672e-02  linmin: -1.178e-01  cgtest:  8.166e-01  t[s]:     47.97
LCAOMinimize: 	Predicted alpha/alphaT>3.000000, increasing alphaT to 8.015603e-02.
	FillingsUpdate:  mu: -0.249843297  nElectrons: 330.000000
LCAOMinimize: Iter:   2  F: -543.3362439629610208  |grad|_K:  2.519e-03  alpha:  7.890e-02  linmin:  1.079e-01  cgtest: -7.761e-01  t[s]:     64.41
	FillingsUpdate:  mu: -0.254369764  nElectrons: 330.000000
LCAOMinimize: Iter:   3  F: -543.3388756727009650  |grad|_K:  2.759e-03  alpha:  8.868e-02  linmin: -5.995e-04  cgtest:  9.842e-01  t[s]:     77.57
	FillingsUpdate:  mu: -0.282035523  nElectrons: 330.000000
LCAOMinimize: Iter:   4  F: -543.3748507043026166  |grad|_K:  1.157e-03  alpha:  1.066e-01  linmin:  2.426e-01  cgtest: -6.913e-01  t[s]:     90.73
LCAOMinimize: 	Bad step direction: g.d > 0.
LCAOMinimize: 	Undoing step.
LCAOMinimize: 	Step failed: resetting search direction.
	FillingsUpdate:  mu: -0.282035523  nElectrons: 330.000000
LCAOMinimize: Iter:   5  F: -543.3748507043026166  |grad|_K:  1.157e-03  alpha:  0.000e+00
	FillingsUpdate:  mu: -0.286771716  nElectrons: 330.000000
LCAOMinimize: Iter:   6  F: -543.3800771861867815  |grad|_K:  3.903e-04  alpha:  7.996e-02  linmin: -5.425e-03  cgtest: -1.005e-04  t[s]:    113.69
LCAOMinimize: 	Predicted alpha/alphaT>3.000000, increasing alphaT to 2.398805e-01.
	FillingsUpdate:  mu: -0.287751054  nElectrons: 330.000000
LCAOMinimize: Iter:   7  F: -543.3840785549291468  |grad|_K:  2.521e-04  alpha:  5.489e-01  linmin:  1.981e-02  cgtest: -1.258e-01  t[s]:    130.15
	FillingsUpdate:  mu: -0.286074585  nElectrons: 330.000000
LCAOMinimize: Iter:   8  F: -543.3848697409763417  |grad|_K:  7.356e-05  alpha:  2.765e-01  linmin: -1.498e-03  cgtest:  4.893e-01  t[s]:    143.30
LCAOMinimize: Encountered beta<0, resetting CG.
	FillingsUpdate:  mu: -0.286048481  nElectrons: 330.000000
LCAOMinimize: Iter:   9  F: -543.3849178896322201  |grad|_K:  6.151e-05  alpha:  1.789e-01  linmin: -4.874e-05  cgtest:  3.098e-03  t[s]:    156.44
	FillingsUpdate:  mu: -0.285933603  nElectrons: 330.000000
LCAOMinimize: Iter:  10  F: -543.3849461576855902  |grad|_K:  2.605e-05  alpha:  1.508e-01  linmin: -1.676e-03  cgtest:  2.067e-03  t[s]:    169.57
	FillingsUpdate:  mu: -0.286147147  nElectrons: 330.000000
LCAOMinimize: Iter:  11  F: -543.3849607927198804  |grad|_K:  7.036e-06  alpha:  4.336e-01  linmin:  3.504e-04  cgtest: -2.109e-02  t[s]:    182.74
	FillingsUpdate:  mu: -0.286151609  nElectrons: 330.000000
LCAOMinimize: Iter:  12  F: -543.3849611457652600  |grad|_K:  3.302e-06  alpha:  1.438e-01  linmin:  1.218e-04  cgtest:  4.752e-04  t[s]:    195.95
	FillingsUpdate:  mu: -0.286152765  nElectrons: 330.000000
LCAOMinimize: Iter:  13  F: -543.3849613418381068  |grad|_K:  1.674e-06  alpha:  3.625e-01  linmin:  5.088e-05  cgtest: -7.003e-05  t[s]:    209.16
LCAOMinimize: Converged (|Delta F|<1.000000e-06 for 2 iters).


---- Citations for features of the code used in this run ----

   Software package:
      R. Sundararaman, K. Letchworth-Weaver, K.A. Schwarz, D. Gunceler, Y. Ozhabes and T.A. Arias, 'JDFTx: software for joint density-functional theory', SoftwareX 6, 278 (2017)

   gga-PBE exchange-correlation functional:
      J.P. Perdew, K. Burke and M. Ernzerhof, Phys. Rev. Lett. 77, 3865 (1996)

   Pseudopotentials:
      KF Garrity, JW Bennett, KM Rabe and D Vanderbilt, Comput. Mater. Sci. 81, 446 (2014)

   Truncated Coulomb potentials:
      R. Sundararaman and T.A. Arias, Phys. Rev. B 87, 165122 (2013)

   DFT-D3 dispersion correction:
      S. Grimme, J. Antony, S. Ehrlich and H. Krieg, J. Chem. Phys. 132, 154104 (2010)

   Total energy minimization with Auxiliary Hamiltonian:
      C. Freysoldt, S. Boeck, and J. Neugebauer, Phys. Rev. B 79, 241103(R) (2009)

This list may not be complete. Please suggest additional citations or
report any other bugs at https://github.com/shankar1729/jdftx/issues

Initialization completed successfully at t[s]:    214.97


Computing DFT-D3 correction:
# coordination-number C 3.301 3.300 3.305 3.301 3.300 3.303 3.300 3.300 3.742 3.301 3.301 3.507 3.301 3.301 3.439 3.301 3.322 3.310 3.301 3.303 3.343 3.301 3.302 3.512 3.301 3.302 3.300 3.308 3.304 3.301 3.301 3.333 3.301 3.301 3.309 3.302 3.301 3.301 3.300 3.301 3.360 3.300 3.301 3.344 3.300 3.301 3.632 3.301 3.301 3.757 3.301 3.301 3.300 3.302 3.345 3.310 3.301 3.302 3.324 3.302 3.301 3.301 3.429 3.301 3.301 3.319 3.301 3.301 3.336 3.302 3.301 3.303
# coordination-number S 2.936 3.017 3.013 2.936
# coordination-number Na 4.750 4.713
# diagonal-C6 C 24.28 24.28 24.23 24.28 24.28 24.26 24.28 24.28 19.03 24.28 24.28 21.54 24.28 24.28 22.54 24.28 24.06 24.18 24.28 24.25 23.83 24.27 24.26 21.46 24.27 24.26 24.28 24.20 24.24 24.27 24.28 23.94 24.27 24.28 24.19 24.27 24.28 24.27 24.28 24.27 23.63 24.28 24.27 23.82 24.28 24.27 19.92 24.28 24.27 18.95 24.28 24.27 24.28 24.26 23.80 24.18 24.28 24.26 24.04 24.26 24.27 24.28 22.70 24.27 24.28 24.10 24.27 24.27 23.91 24.26 24.27 24.25
# diagonal-C6 S 125.81 125.81 125.81 125.81
# diagonal-C6 Na 186.11 186.11
EvdW_6 =   -0.063125
EvdW_8 =   -0.055605

-------- Electronic minimization -----------
	FillingsUpdate:  mu: -0.286152765  nElectrons: 330.000000
ElecMinimize: Iter:   0  F: -543.384961341836174  |grad|_K:  4.416e-04  alpha:  1.000e+00
	FillingsUpdate:  mu: -0.141560205  nElectrons: 330.000000
	SubspaceRotationAdjust: set factor to 1
ElecMinimize: Iter:   1  F: -547.455340462597633  |grad|_K:  1.508e-04  alpha:  7.212e-01  linmin: -1.063e-04  t[s]:    262.85
	FillingsUpdate:  mu: -0.131696819  nElectrons: 330.000000
	SubspaceRotationAdjust: set factor to 0.933
ElecMinimize: Iter:   2  F: -547.679434996340660  |grad|_K:  8.990e-05  alpha:  4.879e-01  linmin: -7.416e-04  t[s]:    293.03
	FillingsUpdate:  mu: -0.133250271  nElectrons: 330.000000
	SubspaceRotationAdjust: set factor to 0.864
ElecMinimize: Iter:   3  F: -547.727310760951013  |grad|_K:  8.196e-05  alpha:  8.727e-02  linmin: -3.133e-03  t[s]:    323.31
ElecMinimize: 	Predicted alpha/alphaT>3.000000, increasing alphaT to 2.618117e-01.
	FillingsUpdate:  mu: -0.138634565  nElectrons: 330.000000
	SubspaceRotationAdjust: set factor to 0.772
ElecMinimize: Iter:   4  F: -547.754547423984150  |grad|_K:  7.557e-05  alpha:  3.045e-02  linmin: -4.487e-03  t[s]:    361.23
ElecMinimize: 	Predicted alpha/alphaT>3.000000, increasing alphaT to 9.134569e-02.
	FillingsUpdate:  mu: -0.158260616  nElectrons: 330.000000
	SubspaceRotationAdjust: set factor to 1.22
ElecMinimize: Iter:   5  F: -547.791819877607736  |grad|_K:  4.456e-05  alpha:  3.869e-02  linmin: -2.860e-03  t[s]:    399.13
	FillingsUpdate:  mu: -0.151051984  nElectrons: 330.000000
	SubspaceRotationAdjust: set factor to 1.07
ElecMinimize: Iter:   6  F: -547.798826873991402  |grad|_K:  5.926e-05  alpha:  4.606e-02  linmin:  4.066e-04  t[s]:    429.43
	FillingsUpdate:  mu: -0.148770954  nElectrons: 330.000000
	SubspaceRotationAdjust: set factor to 0.813
ElecMinimize: Iter:   7  F: -547.799274124609610  |grad|_K:  6.519e-05  alpha:  6.060e-03  linmin: -5.807e-05  t[s]:    459.61
	FillingsUpdate:  mu: -0.145921304  nElectrons: 330.000000
	SubspaceRotationAdjust: set factor to 0.52
ElecMinimize: Iter:   8  F: -547.801231320792567  |grad|_K:  7.700e-05  alpha:  1.503e-02  linmin:  3.166e-05  t[s]:    489.81
	FillingsUpdate:  mu: -0.146978501  nElectrons: 330.000000
	SubspaceRotationAdjust: set factor to 0.317
ElecMinimize: Iter:   9  F: -547.803574511599777  |grad|_K:  7.855e-05  alpha:  1.406e-02  linmin:  6.986e-06  t[s]:    520.18
	FillingsUpdate:  mu: -0.150435611  nElectrons: 330.000000
	SubspaceRotationAdjust: set factor to 0.19
ElecMinimize: Iter:  10  F: -547.807055676098003  |grad|_K:  7.409e-05  alpha:  1.951e-02  linmin:  9.461e-06  t[s]:    550.57
	FillingsUpdate:  mu: -0.153984365  nElectrons: 330.000000
	SubspaceRotationAdjust: set factor to 0.118
	SubspaceRotationAdjust: resetting CG because factor has changed by 0.117909
ElecMinimize: 	State modified externally: resetting search direction.
ElecMinimize: Iter:  11  F: -547.811291538483601  |grad|_K:  5.360e-05  alpha:  2.671e-02
ElecMinimize: 	Predicted alpha/alphaT>3.000000, increasing alphaT to 8.011528e-02.
ElecMinimize: 	Predicted alpha/alphaT>3.000000, increasing alphaT to 2.403459e-01.
	FillingsUpdate:  mu: -0.157140928  nElectrons: 330.000000
	SubspaceRotationAdjust: set factor to 0.279
ElecMinimize: Iter:  12  F: -547.856910766998681  |grad|_K:  1.804e-05  alpha:  5.147e-01  linmin: -6.441e-03  t[s]:    639.78
	FillingsUpdate:  mu: -0.160595744  nElectrons: 330.000000
	SubspaceRotationAdjust: set factor to 0.271
ElecMinimize: Iter:  13  F: -547.869644042075265  |grad|_K:  1.569e-05  alpha:  1.176e+00  linmin: -6.939e-04  t[s]:    670.09
	FillingsUpdate:  mu: -0.160685358  nElectrons: 330.000000
	SubspaceRotationAdjust: set factor to 0.3
ElecMinimize: Iter:  14  F: -547.873945912096815  |grad|_K:  1.099e-05  alpha:  5.665e-01  linmin:  6.383e-06  t[s]:    700.39
	FillingsUpdate:  mu: -0.160105754  nElectrons: 330.000000
	SubspaceRotationAdjust: set factor to 0.332
ElecMinimize: Iter:  15  F: -547.875652588326034  |grad|_K:  6.103e-06  alpha:  4.830e-01  linmin:  1.771e-05  t[s]:    730.53
	FillingsUpdate:  mu: -0.160358045  nElectrons: 330.000000
	SubspaceRotationAdjust: set factor to 0.368
ElecMinimize: Iter:  16  F: -547.876404629584158  |grad|_K:  4.341e-06  alpha:  6.929e-01  linmin:  9.043e-06  t[s]:    760.70
	FillingsUpdate:  mu: -0.160257304  nElectrons: 330.000000
	SubspaceRotationAdjust: set factor to 0.396
ElecMinimize: Iter:  17  F: -547.876916242387892  |grad|_K:  3.004e-06  alpha:  9.377e-01  linmin:  1.822e-05  t[s]:    791.09
	FillingsUpdate:  mu: -0.160616307  nElectrons: 330.000000
	SubspaceRotationAdjust: set factor to 0.42
ElecMinimize: Iter:  18  F: -547.877085593521542  |grad|_K:  2.124e-06  alpha:  6.582e-01  linmin:  2.866e-06  t[s]:    821.19
	FillingsUpdate:  mu: -0.160749167  nElectrons: 330.000000
	SubspaceRotationAdjust: set factor to 0.496
ElecMinimize: Iter:  19  F: -547.877158685810059  |grad|_K:  1.259e-06  alpha:  5.570e-01  linmin:  2.596e-06  t[s]:    851.31
	FillingsUpdate:  mu: -0.160739165  nElectrons: 330.000000
	SubspaceRotationAdjust: set factor to 0.533
ElecMinimize: Iter:  20  F: -547.877193279693529  |grad|_K:  1.052e-06  alpha:  7.580e-01  linmin:  3.174e-06  t[s]:    881.58
	FillingsUpdate:  mu: -0.160828090  nElectrons: 330.000000
	SubspaceRotationAdjust: set factor to 0.613
ElecMinimize: Iter:  21  F: -547.877207144734825  |grad|_K:  6.519e-07  alpha:  4.364e-01  linmin:  2.077e-07  t[s]:    911.97
	FillingsUpdate:  mu: -0.160745058  nElectrons: 330.000000
	SubspaceRotationAdjust: set factor to 0.745
ElecMinimize: Iter:  22  F: -547.877216614504391  |grad|_K:  4.879e-07  alpha:  7.827e-01  linmin:  4.321e-06  t[s]:    942.28
	FillingsUpdate:  mu: -0.160733356  nElectrons: 330.000000
	SubspaceRotationAdjust: set factor to 0.992
	SubspaceRotationAdjust: resetting CG because factor has changed by 8.41627
ElecMinimize: 	State modified externally: resetting search direction.
ElecMinimize: Iter:  23  F: -547.877219567350153  |grad|_K:  4.194e-07  alpha:  4.429e-01
	FillingsUpdate:  mu: -0.160700385  nElectrons: 330.000000
	SubspaceRotationAdjust: set factor to 1.07
ElecMinimize: Iter:  24  F: -547.877222604556323  |grad|_K:  4.138e-07  alpha:  5.895e-01  linmin:  5.157e-08  t[s]:   1016.36
	FillingsUpdate:  mu: -0.160757680  nElectrons: 330.000000
	SubspaceRotationAdjust: set factor to 0.662
ElecMinimize: Iter:  25  F: -547.877223959177741  |grad|_K:  3.067e-07  alpha:  2.664e-01  linmin: -3.009e-07  t[s]:   1046.70
	FillingsUpdate:  mu: -0.160723289  nElectrons: 330.000000
	SubspaceRotationAdjust: set factor to 0.426
ElecMinimize: Iter:  26  F: -547.877224579924246  |grad|_K:  1.269e-07  alpha:  2.228e-01  linmin:  6.812e-08  t[s]:   1077.09
ElecMinimize: 	Predicted alpha/alphaT>3.000000, increasing alphaT to 6.682962e-01.
	FillingsUpdate:  mu: -0.160715830  nElectrons: 330.000000
	SubspaceRotationAdjust: set factor to 0.5
ElecMinimize: Iter:  27  F: -547.877224985713610  |grad|_K:  9.129e-08  alpha:  8.650e-01  linmin:  2.418e-07  t[s]:   1114.99
	FillingsUpdate:  mu: -0.160717356  nElectrons: 330.000000
	SubspaceRotationAdjust: set factor to 0.548
ElecMinimize: Iter:  28  F: -547.877225169168014  |grad|_K:  8.128e-08  alpha:  7.602e-01  linmin:  5.872e-08  t[s]:   1145.20
	FillingsUpdate:  mu: -0.160707719  nElectrons: 330.000000
	SubspaceRotationAdjust: set factor to 0.52
ElecMinimize: Iter:  29  F: -547.877225281421943  |grad|_K:  5.870e-08  alpha:  5.805e-01  linmin:  6.643e-08  t[s]:   1175.35
	FillingsUpdate:  mu: -0.160718014  nElectrons: 330.000000
	SubspaceRotationAdjust: set factor to 0.436
ElecMinimize: Iter:  30  F: -547.877225345233228  |grad|_K:  5.310e-08  alpha:  6.365e-01  linmin:  9.593e-08  t[s]:   1205.52
	FillingsUpdate:  mu: -0.160713639  nElectrons: 330.000000
	SubspaceRotationAdjust: set factor to 0.429
ElecMinimize: Iter:  31  F: -547.877225390230706  |grad|_K:  3.898e-08  alpha:  5.493e-01  linmin:  1.470e-07  t[s]:   1235.91
	FillingsUpdate:  mu: -0.160714178  nElectrons: 330.000000
	SubspaceRotationAdjust: set factor to 0.505
ElecMinimize: Iter:  32  F: -547.877225422486617  |grad|_K:  3.697e-08  alpha:  8.492e-01  linmin:  1.240e-06  t[s]:   1266.30
	FillingsUpdate:  mu: -0.160714305  nElectrons: 330.000000
	SubspaceRotationAdjust: set factor to 0.669
ElecMinimize: Iter:  33  F: -547.877225424605967  |grad|_K:  3.672e-08  alpha:  4.997e-02  linmin: -1.423e-06  t[s]:   1296.68
ElecMinimize: 	Predicted alpha/alphaT>3.000000, increasing alphaT to 1.499193e-01.
	FillingsUpdate:  mu: -0.160715851  nElectrons: 330.000000
	SubspaceRotationAdjust: set factor to 0.607
ElecMinimize: Iter:  34  F: -547.877225442972644  |grad|_K:  4.027e-08  alpha:  3.296e-01  linmin:  5.538e-07  t[s]:   1334.38
	FillingsUpdate:  mu: -0.160715408  nElectrons: 330.000000
	SubspaceRotationAdjust: set factor to 0.643
ElecMinimize: Iter:  35  F: -547.877225446607781  |grad|_K:  4.046e-08  alpha:  7.388e-02  linmin: -4.011e-07  t[s]:   1364.49
	FillingsUpdate:  mu: -0.160713140  nElectrons: 330.000000
	SubspaceRotationAdjust: set factor to 0.627
ElecMinimize: Iter:  36  F: -547.877225454876225  |grad|_K:  3.761e-08  alpha:  1.578e-01  linmin:  6.270e-07  t[s]:   1394.64
ElecMinimize: Converged (|Delta F|<1.000000e-08 for 2 iters).
Setting wave functions to eigenvectors of Hamiltonian

Computing DFT-D3 correction:
# coordination-number C 3.301 3.300 3.305 3.301 3.300 3.303 3.300 3.300 3.742 3.301 3.301 3.507 3.301 3.301 3.439 3.301 3.322 3.310 3.301 3.303 3.343 3.301 3.302 3.512 3.301 3.302 3.300 3.308 3.304 3.301 3.301 3.333 3.301 3.301 3.309 3.302 3.301 3.301 3.300 3.301 3.360 3.300 3.301 3.344 3.300 3.301 3.632 3.301 3.301 3.757 3.301 3.301 3.300 3.302 3.345 3.310 3.301 3.302 3.324 3.302 3.301 3.301 3.429 3.301 3.301 3.319 3.301 3.301 3.336 3.302 3.301 3.303
# coordination-number S 2.936 3.017 3.013 2.936
# coordination-number Na 4.750 4.713
# diagonal-C6 C 24.28 24.28 24.23 24.28 24.28 24.26 24.28 24.28 19.03 24.28 24.28 21.54 24.28 24.28 22.54 24.28 24.06 24.18 24.28 24.25 23.83 24.27 24.26 21.46 24.27 24.26 24.28 24.20 24.24 24.27 24.28 23.94 24.27 24.28 24.19 24.27 24.28 24.27 24.28 24.27 23.63 24.28 24.27 23.82 24.28 24.27 19.92 24.28 24.27 18.95 24.28 24.27 24.28 24.26 23.80 24.18 24.28 24.26 24.04 24.26 24.27 24.28 22.70 24.27 24.28 24.10 24.27 24.27 23.91 24.26 24.27 24.25
# diagonal-C6 S 125.81 125.81 125.81 125.81
# diagonal-C6 Na 186.11 186.11
EvdW_6 =   -0.063125
EvdW_8 =   -0.055605

# Ionic positions in cartesian coordinates:
ion C  28.002057516628216  -0.005722649619084  14.125572907406509 1
ion C  16.334623944425658  20.206947381335965  14.125849451998427 1
ion C   2.328740818670489   4.032969531203549  14.108410432765510 1
ion C  23.334014359169608  -0.004647920741924  14.111915294920834 1
ion C   4.665150795915989  -0.006509983178095  14.107937831541493 1
ion C  11.666208447654713  20.210018561335868  14.115468160861315 1
ion C  25.666741096219159   4.035642695863702  14.121168644782294 1
ion C  18.669771488772753  16.163167120791364  14.114077791967311 1
ion C   4.663640995475211   8.076701240836226  14.057051348816804 1
ion C  18.666516872743664  -0.004875230599450  14.080104707387774 1
ion C   9.333805698147581  -0.007131935264356  14.072865037995532 1
ion C   9.330116346977803  16.168704077989325  14.064815494770890 1
ion C  23.332993014546467   8.078410012046064  14.104827704572690 1
ion C  21.002344821730411  12.120224341109978  14.097370463745603 1
ion C   6.994684581684726  12.122461423942616  14.002738713265162 1
ion C  14.000391553542810  -0.006051769990949  14.059994342948013 1
ion C  14.003140812517278  16.164977687836579  14.106954152519124 1
ion C   7.001154553606261   4.032353711244041  14.057956076074571 1
ion C  21.000361953521949   4.036109881762552  14.100941129924481 1
ion C  16.338049518223208  12.118617114485083  14.082179733943635 1
ion C   9.337246695156360   8.074502122080007  13.999349246519182 1
ion C  16.334392044621726   4.035304023992808  14.058667429364416 1
ion C  11.668327446178514   4.034343836716413  14.030468357448251 1
ion C  11.669870508537642  12.117211183337961  14.036914946776243 1
ion C  18.668201881741815   8.077504112670402  14.078919521869667 1
ion C   6.996227994495104  20.208298663521511  14.074640942416680 1
ion C  -7.003227206481911  20.205422386201324  14.107842536847091 1
ion C  -0.008118877747957   8.078058234272479  14.098254102159753 1
ion C  14.002944748628416   8.075444674087954  14.030373959212433 1
ion C   2.329777354551590  20.206655922288263  14.055165717137958 1
ion C  -4.669907104227726  16.163526383913887  14.091598980896736 1
ion C   2.326878470090190  12.125440834271860  14.038246200099083 1
ion C  -2.338376007393585  12.122155645486904  14.081089284709760 1
ion C  -2.336446436339376  20.205741878704377  14.074155355593200 1
ion C   4.661623023393108  16.166880779474276  14.024432543994275 1
ion C  -0.004728346815888  16.165162230401570  14.049622012667049 1
ion C  14.000794686174142  21.554346363628795  14.126090481367864 1
ion C   2.330686055643950   1.339215208173965  14.117520223866460 1
ion C  25.668379959901909   1.340855977850737  14.123467906118146 1
ion C  16.337240873227749  17.512113104708082  14.121719720257699 1
ion C   4.665090651397688   5.376617341292032  14.081047334886994 1
ion C  21.000243681028138   1.342047400401869  14.100016924184885 1
ion C   7.000095049416368   1.338878995488026  14.081266036352451 1
ion C  11.668300124478511  17.515059507650587  14.102616995153161 1
ion C  23.333328327013366   5.383733494813577  14.113305565809879 1
ion C  18.669799685349012  13.468010393609557  14.101090851424436 1
ion C   7.002278124928796   9.425570856524798  14.007880881342031 1
ion C  16.333520215661956   1.341389332486424  14.065408886778789 1
ion C  11.667099928580640   1.340312073831057  14.053133552330843 1
ion C   9.331982105445771  13.468802797608118  14.027398202757084 1
ion C  21.000624019347924   9.426352589678766  14.095398037325808 1
ion C   9.331397859269646  21.554753775542117  14.102594110065088 1
ion C  -9.336852889922143  21.552637423345029  14.117692399735304 1
ion C  -0.005206423753924   5.382335420501896  14.113774777479907 1
ion C  14.004876307176424  13.467730968704624  14.078648013712568 1
ion C   9.335172920424938   5.380498548234537  14.020480712424860 1
ion C  18.667389978421660   5.383186027778243  14.078946140927039 1
ion C  16.335859476737220   9.424432725853954  14.061458149248390 1
ion C  11.670206221685401   9.420616391779390  14.010535344696887 1
ion C  14.001590001096426   5.381787727426752  14.033760772813748 1
ion C   4.662894831469739  21.554419406838210  14.069091419725192 1
ion C  -7.002952745102622  17.511074653500369  14.109201162636223 1
ion C   2.325242995128288   9.428828683775373  14.070455583932274 1
ion C  -2.340273299440340   9.427404915620899  14.097510428523320 1
ion C  -4.669800707757621  21.552390184335252  14.088468137270359 1
ion C   6.994040945988978  17.515268034059421  14.051470303183441 1
ion C  -0.003481225296390  21.553392986802407  14.063489341010655 1
ion C  -4.671117857324909  13.469391985673436  14.091899679675613 1
ion C   4.661289958094798  13.472146843389497  14.009609581800266 1
ion C   2.328439391185748  17.512868396025571  14.038754279517930 1
ion C  -2.337319351973965  17.511638159881187  14.072865794239515 1
ion C  -0.006683860672300  13.471846454842582  14.054547304766132 1
ion S   5.091970501871192  14.050985077365143  20.960415788838997 1
ion S   7.085763358365024  13.330850691324310  24.218518721987667 1
ion S   8.301157960236354   9.542429961599444  24.208687880127847 1
ion S  10.287593396578213   8.838620943050010  20.942526694903762 1
ion Na   5.324951030105859   9.069637847644461  19.419954189715916 1
ion Na  10.060140479120443  13.838430842148853  19.445934273045371 1

# Forces in Cartesian coordinates:
force C  -0.000066318306446  -0.000011970096702   0.000046010775203 1
force C   0.000185225410032  -0.000090326596548   0.000072356372801 1
force C  -0.000103593315931   0.000118841098681   0.000147817768699 1
force C   0.000022174420857  -0.000179550041076   0.000069042668459 1
force C   0.000064194526883  -0.000196505115576   0.000069847767701 1
force C  -0.000135579663092   0.000126811399773   0.000105040671260 1
force C   0.000053221883457   0.000062085208263   0.000052144309451 1
force C   0.000121034438641   0.000028148732924   0.000005957423356 1
force C  -0.000177053684585  -0.000192550813090  -0.000254700969407 1
force C   0.000255807865169  -0.000155246318720  -0.000022533425925 1
force C   0.000078891381837  -0.000093927200046   0.000062559526459 1
force C  -0.000058775797857   0.000409588509131  -0.000488471621183 1
force C   0.000156939690289  -0.000032984853049   0.000021839335517 1
force C  -0.000099182659821   0.000148861720358   0.000062150335496 1
force C  -0.000173857315135   0.000089953010836  -0.000346586733290 1
force C   0.000028859960778  -0.000017713654012   0.000046971466023 1
force C   0.000310904221893   0.000064127380219   0.000011506435679 1
force C   0.000085119427523   0.000076381182838   0.000261992711828 1
force C   0.000077177369403   0.000055144449322  -0.000038707311097 1
force C   0.000084850849354  -0.000051271865301   0.000109951613084 1
force C   0.000139487788994  -0.000254724307976   0.000213703804741 1
force C   0.000080895335058   0.000106234181864   0.000080764734728 1
force C  -0.000013849585479   0.000048543570643   0.000219170994581 1
force C   0.000401338395555  -0.000227540274776  -0.000463622868634 1
force C   0.000000439312044  -0.000001680758914   0.000106892172475 1
force C   0.000108901210403   0.000139772366974   0.000156177860410 1
force C   0.000013867905887   0.000027897724930  -0.000039991727364 1
force C   0.000017333460168   0.000008963799631   0.000215546324500 1
force C   0.000136909462720  -0.000004317553590   0.000201028162248 1
force C   0.000063273763103   0.000081489985380   0.000126839562870 1
force C  -0.000081224896612   0.000033338815706   0.000033388894713 1
force C  -0.000079099406438   0.000157833474011   0.000129940359271 1
force C  -0.000134353386227   0.000057603061986   0.000114664741382 1
force C   0.000022127706291   0.000114906706484   0.000026533152403 1
force C  -0.000158261799478   0.000015355881882   0.000291688737815 1
force C   0.000058463962734   0.000090510376054   0.000213021452131 1
force C   0.000133601270136  -0.000003103806362   0.000016339084665 1
force C   0.000147297807608  -0.000124484931920  -0.000019592052372 1
force C  -0.000132469623886   0.000198870570508  -0.000040761062682 1
force C   0.000028340393316   0.000057306981254  -0.000000170018223 1
force C   0.000032437763471  -0.000126487957287  -0.000167350531355 1
force C  -0.000155381505846  -0.000099079463670  -0.000148313568531 1
force C  -0.000062988615984  -0.000135489474002  -0.000016559833790 1
force C  -0.000077712808275   0.000034165675270  -0.000137188491520 1
force C   0.000108997438631   0.000021556555250  -0.000177418148270 1
force C   0.000026292607780   0.000114892897042  -0.000035414098470 1
force C   0.000399549480683   0.000013070092453  -0.000402056460123 1
force C  -0.000114071474587  -0.000019745344532  -0.000035871322059 1
force C  -0.000048476776054   0.000027387621716   0.000036722258893 1
force C  -0.000012329703033  -0.000109972468119  -0.000154680286342 1
force C   0.000027596133383  -0.000148524606160  -0.000046938593906 1
force C  -0.000127487002433   0.000144061630285   0.000016655926092 1
force C  -0.000063118866306   0.000131332184183  -0.000012444507409 1
force C  -0.000220661494882  -0.000065321953338  -0.000019919704899 1
force C  -0.000030650371619  -0.000155456272060  -0.000017374945747 1
force C   0.000156864268138   0.000121538444113   0.000231374615486 1
force C  -0.000119125191847  -0.000007810790312  -0.000023137018260 1
force C  -0.000085375450463  -0.000065872926588   0.000091363530488 1
force C  -0.000120217805269  -0.000019114160187   0.000344976219065 1
force C  -0.000124780289981  -0.000086571221942   0.000163227030296 1
force C  -0.000142528940279   0.000083338626420  -0.000013870433825 1
force C  -0.000155739667764  -0.000090593014088  -0.000148692132846 1
force C  -0.000317066839733   0.000005337076651  -0.000316476937246 1
force C  -0.000072627569612  -0.000108867215723  -0.000036679811290 1
force C  -0.000001338850951   0.000076023470314  -0.000180374482674 1
force C  -0.000196852657047  -0.000091047122234   0.000248427446379 1
force C  -0.000055246601590  -0.000069845847153  -0.000046990750553 1
force C   0.000128524936150  -0.000048674185138  -0.000008053955522 1
force C  -0.000054139038166   0.000240323544682   0.000302334755248 1
force C   0.000179680415031  -0.000101541870265   0.000207858748478 1
force C  -0.000032805960698   0.000006915251914  -0.000046041030069 1
force C   0.000065696782026  -0.000119976340978   0.000135427954309 1
force S  -0.000319189958186   0.000624722874253  -0.001186123986989 1
force S  -0.000483859635718   0.000176103934724   0.000213647062383 1
force S   0.000494700300171  -0.000183527105675   0.000123861449917 1
force S   0.000351710358264  -0.000460027148367  -0.001096492899222 1
force Na  -0.001021893981543  -0.000958168730639   0.000377030868722 1
force Na   0.000788855876129   0.000768457334178   0.000315901361495 1

# Energy components:
   Eewald =    -1511.9052067886525492
       EH =    -1094.7300110700057303
     Eloc =     2021.1143678693470065
      Enl =      -78.5285889919890820
     EvdW =       -0.1187296736490876
      Exc =     -161.9232774278656848
 Exc_core =        9.4955875387128224
       KE =      268.7887091120093146
-------------------------------------
     Etot =     -547.8071494320931833
       TS =        0.0700760227830166
-------------------------------------
        F =     -547.8772254548762248

IonicMinimize: Iter:   0  F: -547.877225454876225  |grad|_K:  2.250e-04  alpha:  1.000e+00

#--- Lowdin population analysis ---
# oxidation-state C +0.040 +0.040 +0.032 +0.041 +0.041 +0.036 +0.039 +0.040 -0.010 +0.043 +0.042 +0.009 +0.041 +0.042 +0.019 +0.043 +0.024 +0.035 +0.042 +0.038 +0.035 +0.044 +0.044 +0.011 +0.042 +0.041 +0.042 +0.031 +0.042 +0.044 +0.043 +0.030 +0.041 +0.043 +0.042 +0.044 +0.039 +0.039 +0.041 +0.037 +0.020 +0.042 +0.040 +0.020 +0.041 +0.040 +0.006 +0.043 +0.044 -0.005 +0.042 +0.040 +0.041 +0.035 +0.022 +0.040 +0.043 +0.042 +0.036 +0.044 +0.043 +0.041 +0.013 +0.039 +0.042 +0.037 +0.043 +0.042 +0.034 +0.044 +0.043 +0.041
# oxidation-state S -0.476 +0.078 +0.078 -0.476
# oxidation-state Na +0.778 +0.779


Computing DFT-D3 correction:
# coordination-number C 3.301 3.300 3.305 3.301 3.300 3.303 3.300 3.300 3.742 3.301 3.301 3.507 3.301 3.301 3.439 3.301 3.322 3.310 3.301 3.303 3.343 3.301 3.302 3.512 3.301 3.302 3.300 3.309 3.304 3.301 3.301 3.333 3.301 3.301 3.309 3.302 3.301 3.301 3.300 3.301 3.360 3.300 3.301 3.344 3.300 3.301 3.631 3.301 3.301 3.757 3.301 3.301 3.300 3.302 3.345 3.310 3.301 3.302 3.324 3.302 3.301 3.301 3.428 3.301 3.301 3.319 3.301 3.301 3.336 3.302 3.301 3.303
# coordination-number S 2.935 3.017 3.012 2.935
# coordination-number Na 4.746 4.709
# diagonal-C6 C 24.28 24.28 24.23 24.28 24.28 24.26 24.28 24.28 19.03 24.28 24.28 21.54 24.28 24.28 22.55 24.28 24.06 24.18 24.28 24.25 23.83 24.27 24.26 21.47 24.27 24.26 24.28 24.20 24.24 24.27 24.28 23.94 24.27 24.28 24.19 24.27 24.28 24.27 24.28 24.27 23.63 24.28 24.27 23.82 24.28 24.27 19.93 24.28 24.27 18.95 24.28 24.27 24.28 24.26 23.80 24.18 24.28 24.27 24.04 24.26 24.27 24.28 22.71 24.27 24.28 24.10 24.27 24.27 23.91 24.26 24.27 24.25
# diagonal-C6 S 125.81 125.81 125.81 125.81
# diagonal-C6 Na 186.11 186.11
EvdW_6 =   -0.063127
EvdW_8 =   -0.055613

-------- Electronic minimization -----------
	FillingsUpdate:  mu: -0.160703744  nElectrons: 330.000000
ElecMinimize: Iter:   0  F: -547.877234799206008  |grad|_K:  2.204e-07  alpha:  1.000e+00
	FillingsUpdate:  mu: -0.160715363  nElectrons: 330.000000
	SubspaceRotationAdjust: set factor to 0.625
ElecMinimize: Iter:   1  F: -547.877235804537690  |grad|_K:  1.086e-07  alpha:  7.067e-01  linmin: -2.371e-07  t[s]:   1462.28
	FillingsUpdate:  mu: -0.160720228  nElectrons: 330.000000
	SubspaceRotationAdjust: set factor to 0.563
ElecMinimize: Iter:   2  F: -547.877235980241039  |grad|_K:  6.891e-08  alpha:  5.081e-01  linmin: -1.537e-09  t[s]:   1492.41
	FillingsUpdate:  mu: -0.160711408  nElectrons: 330.000000
	SubspaceRotationAdjust: set factor to 0.421
ElecMinimize: Iter:   3  F: -547.877236036364707  |grad|_K:  4.365e-08  alpha:  4.033e-01  linmin:  1.894e-08  t[s]:   1522.55
	FillingsUpdate:  mu: -0.160718049  nElectrons: 330.000000
	SubspaceRotationAdjust: set factor to 0.286
ElecMinimize: Iter:   4  F: -547.877236060453129  |grad|_K:  2.482e-08  alpha:  4.318e-01  linmin:  2.341e-08  t[s]:   1552.71
	FillingsUpdate:  mu: -0.160716126  nElectrons: 330.000000
	SubspaceRotationAdjust: set factor to 0.375
ElecMinimize: Iter:   5  F: -547.877236070019421  |grad|_K:  1.689e-08  alpha:  5.297e-01  linmin:  2.358e-08  t[s]:   1583.11
	FillingsUpdate:  mu: -0.160713999  nElectrons: 330.000000
	SubspaceRotationAdjust: set factor to 0.391
ElecMinimize: Iter:   6  F: -547.877236075260157  |grad|_K:  1.453e-08  alpha:  6.277e-01  linmin:  3.665e-08  t[s]:   1613.51
ElecMinimize: Converged (|Delta F|<1.000000e-08 for 2 iters).
Setting wave functions to eigenvectors of Hamiltonian
IonicMinimize: 	Predicted alpha/alphaT>3.000000, increasing alphaT to 3.000000e+00.

Computing DFT-D3 correction:
# coordination-number C 3.301 3.300 3.305 3.301 3.300 3.303 3.301 3.300 3.741 3.301 3.301 3.506 3.301 3.301 3.438 3.301 3.322 3.310 3.300 3.303 3.343 3.301 3.302 3.511 3.301 3.303 3.300 3.309 3.304 3.301 3.301 3.333 3.301 3.301 3.310 3.302 3.301 3.301 3.300 3.301 3.359 3.300 3.301 3.344 3.300 3.301 3.629 3.301 3.301 3.756 3.301 3.301 3.301 3.302 3.345 3.310 3.301 3.302 3.325 3.302 3.301 3.300 3.428 3.301 3.301 3.319 3.301 3.301 3.336 3.303 3.301 3.303
# coordination-number S 2.934 3.015 3.010 2.934
# coordination-number Na 4.739 4.702
# diagonal-C6 C 24.28 24.28 24.23 24.28 24.28 24.26 24.28 24.28 19.04 24.28 24.28 21.55 24.28 24.28 22.57 24.28 24.06 24.18 24.28 24.25 23.83 24.27 24.26 21.48 24.27 24.26 24.28 24.20 24.24 24.27 24.28 23.94 24.27 24.28 24.19 24.26 24.28 24.27 24.28 24.27 23.63 24.28 24.27 23.82 24.28 24.28 19.94 24.27 24.27 18.95 24.28 24.27 24.28 24.26 23.80 24.18 24.28 24.27 24.03 24.26 24.27 24.28 22.71 24.27 24.28 24.10 24.27 24.27 23.91 24.26 24.27 24.25
# diagonal-C6 S 125.81 125.81 125.81 125.81
# diagonal-C6 Na 186.11 186.11
EvdW_6 =   -0.063132
EvdW_8 =   -0.055629

-------- Electronic minimization -----------
	FillingsUpdate:  mu: -0.160699022  nElectrons: 330.000000
ElecMinimize: Iter:   0  F: -547.877244716394671  |grad|_K:  4.164e-07  alpha:  1.000e+00
	FillingsUpdate:  mu: -0.160710231  nElectrons: 330.000000
	SubspaceRotationAdjust: set factor to 0.483
ElecMinimize: Iter:   1  F: -547.877248665763886  |grad|_K:  1.756e-07  alpha:  7.772e-01  linmin: -7.519e-07  t[s]:   1671.39
	FillingsUpdate:  mu: -0.160730298  nElectrons: 330.000000
	SubspaceRotationAdjust: set factor to 0.402
ElecMinimize: Iter:   2  F: -547.877249342248888  |grad|_K:  1.291e-07  alpha:  7.486e-01  linmin: -1.206e-07  t[s]:   1701.53
	FillingsUpdate:  mu: -0.160709783  nElectrons: 330.000000
	SubspaceRotationAdjust: set factor to 0.302
ElecMinimize: Iter:   3  F: -547.877249574298844  |grad|_K:  8.169e-08  alpha:  4.747e-01  linmin: -4.248e-09  t[s]:   1731.70
	FillingsUpdate:  mu: -0.160718139  nElectrons: 330.000000
	SubspaceRotationAdjust: set factor to 0.368
ElecMinimize: Iter:   4  F: -547.877249692922305  |grad|_K:  3.483e-08  alpha:  6.065e-01  linmin:  1.387e-08  t[s]:   1762.08
	FillingsUpdate:  mu: -0.160717881  nElectrons: 330.000000
	SubspaceRotationAdjust: set factor to 0.413
ElecMinimize: Iter:   5  F: -547.877249718253097  |grad|_K:  2.253e-08  alpha:  7.122e-01  linmin:  4.667e-09  t[s]:   1792.47
	FillingsUpdate:  mu: -0.160716009  nElectrons: 330.000000
	SubspaceRotationAdjust: set factor to 0.421
ElecMinimize: Iter:   6  F: -547.877249726253467  |grad|_K:  1.373e-08  alpha:  5.372e-01  linmin:  3.470e-09  t[s]:   1822.77
	FillingsUpdate:  mu: -0.160717879  nElectrons: 330.000000
	SubspaceRotationAdjust: set factor to 0.44
ElecMinimize: Iter:   7  F: -547.877249730289918  |grad|_K:  1.050e-08  alpha:  7.281e-01  linmin:  1.153e-08  t[s]:   1852.91
ElecMinimize: Converged (|Delta F|<1.000000e-08 for 2 iters).
Setting wave functions to eigenvectors of Hamiltonian

Computing DFT-D3 correction:
# coordination-number C 3.301 3.300 3.305 3.301 3.300 3.303 3.301 3.301 3.741 3.301 3.301 3.505 3.301 3.301 3.437 3.301 3.322 3.310 3.300 3.303 3.343 3.301 3.302 3.510 3.301 3.303 3.300 3.309 3.304 3.301 3.301 3.333 3.301 3.301 3.310 3.302 3.301 3.301 3.300 3.301 3.359 3.300 3.301 3.344 3.300 3.301 3.628 3.301 3.301 3.755 3.301 3.301 3.301 3.302 3.345 3.310 3.301 3.302 3.325 3.302 3.301 3.300 3.428 3.301 3.301 3.319 3.301 3.301 3.336 3.303 3.301 3.303
# coordination-number S 2.934 3.014 3.009 2.933
# coordination-number Na 4.732 4.696
# diagonal-C6 C 24.28 24.28 24.23 24.27 24.28 24.26 24.28 24.28 19.04 24.28 24.28 21.56 24.28 24.28 22.58 24.28 24.06 24.18 24.28 24.25 23.83 24.27 24.26 21.49 24.27 24.25 24.28 24.20 24.24 24.27 24.28 23.94 24.27 24.28 24.19 24.26 24.28 24.27 24.28 24.27 23.64 24.28 24.27 23.82 24.28 24.28 19.96 24.27 24.27 18.96 24.28 24.27 24.28 24.26 23.80 24.18 24.28 24.27 24.03 24.26 24.27 24.28 22.72 24.27 24.28 24.10 24.27 24.28 23.91 24.26 24.27 24.25
# diagonal-C6 S 125.81 125.81 125.81 125.81
# diagonal-C6 Na 186.11 186.11
EvdW_6 =   -0.063136
EvdW_8 =   -0.055643

-------- Electronic minimization -----------
	FillingsUpdate:  mu: -0.160686810  nElectrons: 330.000000
ElecMinimize: Iter:   0  F: -547.877249718352346  |grad|_K:  3.672e-07  alpha:  1.000e+00
	FillingsUpdate:  mu: -0.160737751  nElectrons: 330.000000
	SubspaceRotationAdjust: set factor to 0.409
ElecMinimize: Iter:   1  F: -547.877252634934052  |grad|_K:  1.834e-07  alpha:  7.384e-01  linmin: -8.304e-07  t[s]:   1910.71
	FillingsUpdate:  mu: -0.160706421  nElectrons: 330.000000
	SubspaceRotationAdjust: set factor to 0.311
ElecMinimize: Iter:   2  F: -547.877253115178064  |grad|_K:  1.213e-07  alpha:  4.871e-01  linmin: -9.728e-08  t[s]:   1941.10
	FillingsUpdate:  mu: -0.160720407  nElectrons: 330.000000
	SubspaceRotationAdjust: set factor to 0.308
ElecMinimize: Iter:   3  F: -547.877253369384448  |grad|_K:  6.006e-08  alpha:  5.893e-01  linmin: -8.490e-08  t[s]:   1971.50
	FillingsUpdate:  mu: -0.160721224  nElectrons: 330.000000
	SubspaceRotationAdjust: set factor to 0.439
ElecMinimize: Iter:   4  F: -547.877253450692251  |grad|_K:  3.102e-08  alpha:  7.685e-01  linmin: -9.102e-09  t[s]:   2001.80
	FillingsUpdate:  mu: -0.160716854  nElectrons: 330.000000
	SubspaceRotationAdjust: set factor to 0.431
ElecMinimize: Iter:   5  F: -547.877253467385117  |grad|_K:  2.231e-08  alpha:  5.917e-01  linmin: -6.694e-09  t[s]:   2031.93
	FillingsUpdate:  mu: -0.160718164  nElectrons: 330.000000
	SubspaceRotationAdjust: set factor to 0.465
ElecMinimize: Iter:   6  F: -547.877253474967233  |grad|_K:  1.133e-08  alpha:  5.199e-01  linmin:  2.251e-08  t[s]:   2062.07
	FillingsUpdate:  mu: -0.160718271  nElectrons: 330.000000
	SubspaceRotationAdjust: set factor to 0.563
ElecMinimize: Iter:   7  F: -547.877253477498016  |grad|_K:  7.030e-09  alpha:  6.712e-01  linmin: -5.274e-08  t[s]:   2092.35
ElecMinimize: Converged (|Delta F|<1.000000e-08 for 2 iters).
Setting wave functions to eigenvectors of Hamiltonian

Computing DFT-D3 correction:
# coordination-number C 3.301 3.300 3.305 3.301 3.300 3.303 3.301 3.301 3.741 3.301 3.301 3.505 3.301 3.301 3.437 3.301 3.322 3.310 3.300 3.303 3.343 3.301 3.302 3.510 3.301 3.303 3.300 3.309 3.304 3.301 3.301 3.333 3.301 3.301 3.310 3.302 3.301 3.301 3.300 3.301 3.359 3.300 3.301 3.344 3.300 3.301 3.628 3.301 3.301 3.755 3.301 3.301 3.301 3.302 3.345 3.310 3.301 3.302 3.325 3.302 3.301 3.300 3.428 3.301 3.301 3.319 3.301 3.301 3.336 3.303 3.301 3.303
# coordination-number S 2.934 3.014 3.009 2.933
# coordination-number Na 4.732 4.696
# diagonal-C6 C 24.28 24.28 24.23 24.27 24.28 24.26 24.28 24.28 19.04 24.28 24.28 21.56 24.28 24.28 22.58 24.28 24.06 24.18 24.28 24.25 23.83 24.27 24.26 21.49 24.27 24.25 24.28 24.20 24.24 24.27 24.28 23.94 24.27 24.28 24.19 24.26 24.28 24.27 24.28 24.27 23.64 24.28 24.27 23.82 24.28 24.28 19.96 24.27 24.27 18.96 24.28 24.27 24.28 24.26 23.80 24.18 24.28 24.27 24.03 24.26 24.27 24.28 22.72 24.27 24.28 24.10 24.27 24.28 23.91 24.26 24.27 24.25
# diagonal-C6 S 125.81 125.81 125.81 125.81
# diagonal-C6 Na 186.11 186.11
EvdW_6 =   -0.063136
EvdW_8 =   -0.055643

# Ionic positions in cartesian coordinates:
ion C  28.001743199861000  -0.005779181057977  14.125796081021683 1
ion C  16.335499913830880  20.206520072763009  14.126197291023518 1
ion C   2.328250119328552   4.033531988619731  14.109115349507933 1
ion C  23.334118783411483  -0.005497428023580  14.112247453743235 1
ion C   4.665454056176780  -0.007439720612239  14.108273800033681 1
ion C  11.665566391295135  20.210618733624493  14.115970659557719 1
ion C  25.666992434746714   4.035936588624344  14.121420841825703 1
ion C  18.670343711271819  16.163300428672756  14.114111436098188 1
ion C   4.662802687128145   8.075790214867574  14.055851576804438 1
ion C  18.667726833081122  -0.005609734473097  14.080003534937203 1
ion C   9.334178502833794  -0.007576281625481  14.073166519071799 1
ion C   9.329837720800695  16.170642330544325  14.062509537407418 1
ion C  23.333735138027969   8.078254040341887  14.104936500731617 1
ion C  21.001874993285401  12.120928853876899  14.097670008560646 1
ion C   6.993861398320353  12.122887185073985  14.001104144646762 1
ion C  14.000527613262744  -0.006135479516190  14.060222062480756 1
ion C  14.004611484720167  16.165281244003150  14.107014054163928 1
ion C   7.001556828941808   4.032715251493943  14.059201260162761 1
ion C  21.000726647628703   4.036370931367699  14.100763423851269 1
ion C  16.338450522666825  12.118374609997963  14.082705470851781 1
ion C   9.337906237537906   8.073296895754092  14.000365931087712 1
ion C  16.334774331865649   4.035806826415515  14.059055056133261 1
ion C  11.668261407499607   4.034573651454212  14.031510912352802 1
ion C  11.671769108529517  12.116134589836914  14.034726571863153 1
ion C  18.668203457064081   8.077496269613251  14.079430781732217 1
ion C   6.996742803459856  20.208960166143708  14.075385418491782 1
ion C  -7.003162088051558  20.205554506331541  14.107658753011558 1
ion C  -0.008037360572292   8.078100760475291  14.099279505394854 1
ion C  14.003592090561643   8.075424353914354  14.031330663582702 1
ion C   2.330076257826605  20.207041637012122  14.055771366569431 1
ion C  -4.670291957871795  16.163684250881289  14.091762428711451 1
ion C   2.326503674107661  12.126187800710310  14.038866522268686 1
ion C  -2.339012261102169  12.122428329064464  14.081637323790751 1
ion C  -2.336342233147349  20.206285718869072  14.074286362544802 1
ion C   4.660873636849818  16.166953552535261  14.025818247470514 1
ion C  -0.004452203158772  16.165590628943729  14.050635468393740 1
ion C  14.001426373985922  21.554331786816871  14.126173250748522 1
ion C   2.331382554453161   1.338626264896567  14.117432969776942 1
ion C  25.667752620016728   1.341797128780065  14.123280481845061 1
ion C  16.337374474393073  17.512384387253622  14.121724369790396 1
ion C   4.665243641014081   5.376018919847455  14.080260898655879 1
ion C  20.999507923820261   1.341578673912176  14.099320569447086 1
ion C   6.999796488496968   1.338237979535318  14.081193130495921 1
ion C  11.667931889775449  17.515221287255997  14.101973283452999 1
ion C  23.333843591322939   5.383835609000125  14.112471490363719 1
ion C  18.669923596545363  13.468554168429002  14.100928728588633 1
ion C   7.004168259908445   9.425632813400078  14.005983834098593 1
ion C  16.332979934451966   1.341296009152629  14.065244600394944 1
ion C  11.666870036609314   1.340441780190775  14.053312773377135 1
ion C   9.331923258737644  13.468282526230906  14.026671721183755 1
ion C  21.000754098730553   9.425649892449417  14.095181381434065 1
ion C   9.330794096778881  21.555435574639539  14.102678378715831 1
ion C  -9.337152067176390  21.553258987649507  14.117638967297374 1
ion C  -0.006251081018521   5.382026432042339  14.113685972962983 1
ion C  14.004730768426079  13.466995471347376  14.078571250806835 1
ion C   9.335914687014423   5.381073769288845  14.021581013956595 1
ion C  18.666825783397165   5.383149177868081  14.078842112322395 1
ion C  16.335454982980785   9.424121130229929  14.061895928731097 1
ion C  11.669636856495398   9.420526055163011  14.012173200574244 1
ion C  14.000999046567838   5.381378189007343  14.034538605036882 1
ion C   4.662219891646959  21.554813869194081  14.069031239909430 1
ion C  -7.003690197106080  17.510646084259417  14.108503016560221 1
ion C   2.323742154936398   9.428854048594570  14.068963492631088 1
ion C  -2.340617471171970   9.426889874215883  14.097342316428515 1
ion C  -4.669807546570507  21.552750031916073  14.087620072669500 1
ion C   6.993108950375621  17.514837316012464  14.052651297443651 1
ion C  -0.003743151579041  21.553062591613518  14.063272438317535 1
ion C  -4.670510190348298  13.469161773215795  14.091867023002921 1
ion C   4.661033272719957  13.473284146711961  14.011045661439823 1
ion C   2.329289122086712  17.512388017610867  14.039743305714607 1
ion C  -2.337475090811632  17.511670992508442  14.072653385553146 1
ion C  -0.006373491851813  13.471278845882459  14.055193593827633 1
ion S   5.090459615240563  14.053941329747786  20.954808592327861 1
ion S   7.083473267058054  13.331684112225053  24.219535138055576 1
ion S   8.303498341822509   9.541561635143669  24.209279437350155 1
ion S  10.289257160385828   8.836444238940825  20.937343626038839 1
ion Na   5.320115000259464   9.065103974588284  19.421743725813254 1
ion Na  10.063872783031318  13.842067235313968  19.447434548857462 1

# Forces in Cartesian coordinates:
force C   0.000191708860323   0.000193278869737  -0.000001576955466 1
force C  -0.000275469880169   0.000303473550264   0.000014788122384 1
force C   0.000053957416358  -0.000565660802465  -0.000022058213903 1
force C  -0.000251895158984   0.000741395676223  -0.000047353472375 1
force C  -0.000075577606418   0.000391126558805  -0.000019906386404 1
force C   0.000356696594635  -0.000090528623221   0.000012854421476 1
force C  -0.000314632241556  -0.000078310141762  -0.000063321903726 1
force C  -0.000347526402808  -0.000005222724048  -0.000058762883077 1
force C   0.000529607771655   0.000529160093470  -0.000365389857542 1
force C  -0.000885177888471   0.000394687681355  -0.000095038803170 1
force C  -0.000214538720381   0.000289562099600  -0.000038649363614 1
force C  -0.000074879152840  -0.001045737376424  -0.000184131249490 1
force C  -0.000292231058559  -0.000062155173535  -0.000080858065578 1
force C   0.000325715529315  -0.000446560373726  -0.000021192905859 1
force C   0.000558350187916  -0.000055071084087  -0.000177359292279 1
force C  -0.000149475962261   0.000072130146289  -0.000022480245107 1
force C  -0.000684531019084  -0.000186736503163  -0.000053624341019 1
force C   0.000104326206382  -0.000373942777038   0.000077040359354 1
force C  -0.000167797248346  -0.000137501407966  -0.000136075974623 1
force C  -0.000099900927238   0.000024730033133   0.000054947855937 1
force C   0.000020477852255   0.000619071112641   0.000112375997507 1
force C  -0.000431668504469  -0.000397988776478   0.000028284863244 1
force C   0.000036829274621  -0.000194451204471   0.000190071744963 1
force C  -0.001019535307540   0.000295779136424  -0.000136471791361 1
force C  -0.000018075382805  -0.000114545346059   0.000016340151963 1
force C  -0.000635915712255  -0.000305121359956   0.000103633817046 1
force C  -0.000106277378344   0.000031977385342  -0.000125870905322 1
force C  -0.000484089556745  -0.000111116193944  -0.000046711815237 1
force C  -0.000535984904409  -0.000164402559799   0.000240217739824 1
force C  -0.000186011025917  -0.000269832949065   0.000055087744579 1
force C   0.000145370690740  -0.000094913487466  -0.000069851814376 1
force C   0.000116311205591  -0.000226906050446   0.000061495135832 1
force C   0.000387644721647  -0.000387573039918   0.000030608037643 1
force C  -0.000101898109451  -0.000252284865545  -0.000089629145645 1
force C   0.000303950940499  -0.000008907859253   0.000329780923802 1
force C   0.000000342918187  -0.000241438743833   0.000147093205051 1
force C  -0.000285587867669  -0.000110694818730   0.000074953885818 1
force C  -0.000380548486628   0.000274443546222   0.000072669327140 1
force C   0.000157415856017  -0.000467361581792   0.000029533810240 1
force C   0.000381883073243  -0.000138446442817   0.000046974193214 1
force C  -0.000194309893641   0.000181836502000   0.000007232902935 1
force C   0.000597273822216   0.000135919550044  -0.000046153338707 1
force C   0.000339444895108   0.000214598744991   0.000102049430339 1
force C   0.000417860224055   0.000375115962225  -0.000161167422824 1
force C  -0.000161835379501  -0.000062723368927  -0.000050362326961 1
force C  -0.000056736413653  -0.000112342545185   0.000042859642167 1
force C  -0.001078689881400  -0.000355687071141  -0.000257074899078 1
force C   0.000529494231123  -0.000016800556188   0.000005755080228 1
force C   0.000115815283894  -0.000045438302944   0.000092583253029 1
force C   0.000281239913999   0.000481250889646  -0.000427175666168 1
force C  -0.000021709318195   0.000403389632477   0.000028724609805 1
force C   0.000234763436290  -0.000268602130363   0.000078717367408 1
force C   0.000367100352776  -0.000565620133226   0.000012688823041 1
force C   0.000472968616642   0.000206918140121   0.000107222883100 1
force C   0.000715338049829   0.000288308087900  -0.000117718138535 1
force C  -0.000249367025552  -0.000528640191100   0.000283590892688 1
force C   0.000421775298308   0.000115803550109   0.000028616365011 1
force C   0.000353787832027   0.000127502602203   0.000126145165461 1
force C   0.000755390506652  -0.000408549923644   0.000101392698952 1
force C   0.000375542175960   0.000214968659393   0.000185629813915 1
force C   0.000522594855962  -0.000224590016520   0.000070681523776 1
force C   0.000343401433058   0.000318287240951  -0.000060701573199 1
force C   0.000564409471672   0.000027651699575  -0.000107840328638 1
force C   0.000165386791772   0.000344840614369   0.000095347100105 1
force C  -0.000004367288022  -0.000262401042004  -0.000058794720549 1
force C   0.000174081355155   0.000701786017055   0.000061488947435 1
force C   0.000195461363908   0.000104068228464   0.000023297992637 1
force C  -0.000490737554653   0.000273596961382   0.000046817196796 1
force C  -0.000271811529425  -0.000373384965348   0.000103770244503 1
force C  -0.000502471489965   0.000477580103279   0.000254614722005 1
force C   0.000004021747384   0.000170881546733   0.000049687741095 1
force C  -0.000365228253677   0.000461294454913   0.000187496265706 1
force S   0.000165155141096   0.000331687032341  -0.000474163093478 1
force S  -0.000730174554818  -0.000016390581565  -0.000536548329529 1
force S   0.000679585261127   0.000033247549426  -0.000532015841802 1
force S  -0.000102519066581  -0.000216014347791  -0.000474913125327 1
force Na  -0.000900359861251  -0.000814222150116   0.000540026394807 1
force Na   0.000680083118856   0.000648525467461   0.000462060636991 1

# Energy components:
   Eewald =    -1511.9571095969545240
       EH =    -1094.7772064258124374
     Eloc =     2021.2183792688820176
      Enl =      -78.5291278535899977
     EvdW =       -0.1187795713330599
      Exc =     -161.9206201663514264
 Exc_core =        9.4955875910570171
       KE =      268.7816822611593466
-------------------------------------
     Etot =     -547.8071944929431538
       TS =        0.0700589845548466
-------------------------------------
        F =     -547.8772534774980159

IonicMinimize: Iter:   1  F: -547.877253477498016  |grad|_K:  3.313e-04  alpha:  4.732e+00  linmin: -7.448e-03  t[s]:   2102.46

#--- Lowdin population analysis ---
# oxidation-state C +0.040 +0.040 +0.032 +0.041 +0.041 +0.036 +0.039 +0.040 -0.010 +0.043 +0.043 +0.009 +0.041 +0.042 +0.019 +0.043 +0.024 +0.035 +0.042 +0.038 +0.035 +0.044 +0.044 +0.011 +0.042 +0.041 +0.042 +0.031 +0.042 +0.044 +0.043 +0.030 +0.041 +0.043 +0.042 +0.044 +0.039 +0.039 +0.041 +0.037 +0.020 +0.042 +0.040 +0.020 +0.041 +0.040 +0.007 +0.043 +0.044 -0.004 +0.042 +0.040 +0.041 +0.035 +0.022 +0.040 +0.043 +0.042 +0.036 +0.044 +0.043 +0.041 +0.013 +0.039 +0.042 +0.037 +0.043 +0.042 +0.034 +0.044 +0.043 +0.041
# oxidation-state S -0.477 +0.077 +0.077 -0.476
# oxidation-state Na +0.778 +0.779


Computing DFT-D3 correction:
# coordination-number C 3.301 3.300 3.305 3.301 3.301 3.302 3.301 3.301 3.735 3.301 3.301 3.502 3.301 3.301 3.432 3.301 3.322 3.310 3.301 3.303 3.342 3.301 3.303 3.506 3.301 3.303 3.301 3.309 3.305 3.302 3.300 3.333 3.301 3.301 3.310 3.302 3.301 3.301 3.300 3.302 3.359 3.301 3.301 3.343 3.300 3.301 3.618 3.301 3.301 3.745 3.301 3.301 3.301 3.302 3.345 3.311 3.301 3.302 3.324 3.302 3.302 3.301 3.427 3.301 3.301 3.318 3.301 3.301 3.335 3.303 3.301 3.303
# coordination-number S 2.927 3.006 3.002 2.927
# coordination-number Na 4.683 4.651
# diagonal-C6 C 24.28 24.28 24.23 24.28 24.28 24.26 24.27 24.28 19.07 24.27 24.27 21.61 24.27 24.28 22.65 24.27 24.06 24.18 24.28 24.25 23.84 24.27 24.25 21.55 24.27 24.26 24.28 24.20 24.24 24.27 24.28 23.94 24.27 24.28 24.18 24.26 24.28 24.28 24.28 24.27 23.63 24.28 24.27 23.83 24.28 24.27 20.07 24.28 24.27 19.01 24.28 24.27 24.27 24.26 23.81 24.18 24.28 24.26 24.04 24.26 24.27 24.27 22.73 24.27 24.27 24.10 24.27 24.27 23.92 24.25 24.27 24.25
# diagonal-C6 S 125.81 125.81 125.81 125.81
# diagonal-C6 Na 186.11 186.11
EvdW_6 =   -0.063168
EvdW_8 =   -0.055739

-------- Electronic minimization -----------
	FillingsUpdate:  mu: -0.160649283  nElectrons: 330.000000
ElecMinimize: Iter:   0  F: -547.860780010955523  |grad|_K:  3.786e-05  alpha:  1.000e+00
	FillingsUpdate:  mu: -0.159821675  nElectrons: 330.000000
	SubspaceRotationAdjust: set factor to 0.504
ElecMinimize: Iter:   1  F: -547.875930468701199  |grad|_K:  9.056e-06  alpha:  3.606e-01  linmin: -7.799e-07  t[s]:   2158.75
	FillingsUpdate:  mu: -0.161149110  nElectrons: 330.000000
	SubspaceRotationAdjust: set factor to 0.316
ElecMinimize: Iter:   2  F: -547.876828729845670  |grad|_K:  5.379e-06  alpha:  3.733e-01  linmin: -2.628e-04  t[s]:   2188.86
	FillingsUpdate:  mu: -0.160557957  nElectrons: 330.000000
	SubspaceRotationAdjust: set factor to 0.269
ElecMinimize: Iter:   3  F: -547.877169081062448  |grad|_K:  1.958e-06  alpha:  3.935e-01  linmin:  3.454e-05  t[s]:   2218.99
	FillingsUpdate:  mu: -0.160555678  nElectrons: 330.000000
	SubspaceRotationAdjust: set factor to 0.337
ElecMinimize: Iter:   4  F: -547.877245687546292  |grad|_K:  1.381e-06  alpha:  6.841e-01  linmin: -1.204e-06  t[s]:   2249.33
	FillingsUpdate:  mu: -0.160676167  nElectrons: 330.000000
	SubspaceRotationAdjust: set factor to 0.386
ElecMinimize: Iter:   5  F: -547.877273016652452  |grad|_K:  7.909e-07  alpha:  4.887e-01  linmin: -6.705e-08  t[s]:   2279.71
	FillingsUpdate:  mu: -0.160682005  nElectrons: 330.000000
	SubspaceRotationAdjust: set factor to 0.48
ElecMinimize: Iter:   6  F: -547.877286087440211  |grad|_K:  5.267e-07  alpha:  7.130e-01  linmin:  1.837e-07  t[s]:   2310.02
	FillingsUpdate:  mu: -0.160639142  nElectrons: 330.000000
	SubspaceRotationAdjust: set factor to 0.497
ElecMinimize: Iter:   7  F: -547.877290083112143  |grad|_K:  3.600e-07  alpha:  4.915e-01  linmin:  6.332e-08  t[s]:   2340.13
	FillingsUpdate:  mu: -0.160676705  nElectrons: 330.000000
	SubspaceRotationAdjust: set factor to 0.46
ElecMinimize: Iter:   8  F: -547.877292467628081  |grad|_K:  1.818e-07  alpha:  6.279e-01  linmin:  1.689e-07  t[s]:   2370.26
	FillingsUpdate:  mu: -0.160657032  nElectrons: 330.000000
	SubspaceRotationAdjust: set factor to 0.406
ElecMinimize: Iter:   9  F: -547.877292967115864  |grad|_K:  1.045e-07  alpha:  5.157e-01  linmin:  4.538e-08  t[s]:   2400.41
	FillingsUpdate:  mu: -0.160662239  nElectrons: 330.000000
	SubspaceRotationAdjust: set factor to 0.392
ElecMinimize: Iter:  10  F: -547.877293105277545  |grad|_K:  5.322e-08  alpha:  4.319e-01  linmin:  1.666e-08  t[s]:   2430.76
	FillingsUpdate:  mu: -0.160663246  nElectrons: 330.000000
	SubspaceRotationAdjust: set factor to 0.443
ElecMinimize: Iter:  11  F: -547.877293148853596  |grad|_K:  2.688e-08  alpha:  5.253e-01  linmin:  3.626e-08  t[s]:   2461.12
	FillingsUpdate:  mu: -0.160661016  nElectrons: 330.000000
	SubspaceRotationAdjust: set factor to 0.463
ElecMinimize: Iter:  12  F: -547.877293162401884  |grad|_K:  1.748e-08  alpha:  6.406e-01  linmin:  5.924e-08  t[s]:   2491.36
	FillingsUpdate:  mu: -0.160662820  nElectrons: 330.000000
	SubspaceRotationAdjust: set factor to 0.416
ElecMinimize: Iter:  13  F: -547.877293166958907  |grad|_K:  1.145e-08  alpha:  5.120e-01  linmin:  4.438e-08  t[s]:   2521.46
	FillingsUpdate:  mu: -0.160662074  nElectrons: 330.000000
	SubspaceRotationAdjust: set factor to 0.416
ElecMinimize: Iter:  14  F: -547.877293169138056  |grad|_K:  6.212e-09  alpha:  5.711e-01  linmin:  1.279e-07  t[s]:   2551.57
ElecMinimize: Converged (|Delta F|<1.000000e-08 for 2 iters).
Setting wave functions to eigenvectors of Hamiltonian

Computing DFT-D3 correction:
# coordination-number C 3.301 3.300 3.305 3.301 3.301 3.302 3.301 3.301 3.737 3.301 3.301 3.503 3.301 3.301 3.434 3.301 3.322 3.310 3.301 3.303 3.342 3.301 3.303 3.507 3.301 3.303 3.301 3.309 3.305 3.301 3.300 3.333 3.301 3.301 3.310 3.302 3.301 3.301 3.300 3.302 3.359 3.301 3.301 3.343 3.300 3.301 3.620 3.301 3.301 3.748 3.301 3.301 3.301 3.302 3.345 3.310 3.301 3.302 3.324 3.302 3.302 3.301 3.427 3.301 3.301 3.319 3.301 3.301 3.335 3.303 3.301 3.303
# coordination-number S 2.929 3.008 3.004 2.929
# coordination-number Na 4.696 4.663
# diagonal-C6 C 24.28 24.28 24.23 24.28 24.28 24.26 24.27 24.28 19.06 24.27 24.27 21.60 24.27 24.28 22.63 24.27 24.06 24.18 24.28 24.25 23.84 24.27 24.26 21.54 24.27 24.26 24.28 24.20 24.24 24.27 24.28 23.94 24.27 24.28 24.19 24.26 24.28 24.28 24.28 24.27 23.63 24.28 24.27 23.82 24.28 24.27 20.04 24.28 24.27 19.00 24.28 24.27 24.27 24.26 23.81 24.18 24.28 24.26 24.04 24.26 24.27 24.27 22.72 24.27 24.27 24.10 24.27 24.27 23.92 24.25 24.27 24.25
# diagonal-C6 S 125.81 125.81 125.81 125.81
# diagonal-C6 Na 186.11 186.11
EvdW_6 =   -0.063160
EvdW_8 =   -0.055714

-------- Electronic minimization -----------
	FillingsUpdate:  mu: -0.160720331  nElectrons: 330.000000
ElecMinimize: Iter:   0  F: -547.877289051112712  |grad|_K:  5.772e-07  alpha:  1.000e+00
	FillingsUpdate:  mu: -0.160662083  nElectrons: 330.000000
	SubspaceRotationAdjust: set factor to 0.481
ElecMinimize: Iter:   1  F: -547.877296572105024  |grad|_K:  2.568e-07  alpha:  7.703e-01  linmin: -4.099e-07  t[s]:   2609.77
	FillingsUpdate:  mu: -0.160690134  nElectrons: 330.000000
	SubspaceRotationAdjust: set factor to 0.498
ElecMinimize: Iter:   2  F: -547.877297825902019  |grad|_K:  1.783e-07  alpha:  6.488e-01  linmin: -2.965e-07  t[s]:   2640.09
	FillingsUpdate:  mu: -0.160666370  nElectrons: 330.000000
	SubspaceRotationAdjust: set factor to 0.459
ElecMinimize: Iter:   3  F: -547.877298274139434  |grad|_K:  1.143e-07  alpha:  4.810e-01  linmin: -1.140e-09  t[s]:   2670.18
	FillingsUpdate:  mu: -0.160676892  nElectrons: 330.000000
	SubspaceRotationAdjust: set factor to 0.361
ElecMinimize: Iter:   4  F: -547.877298482807646  |grad|_K:  4.946e-08  alpha:  5.450e-01  linmin: -3.547e-08  t[s]:   2700.29
	FillingsUpdate:  mu: -0.160675382  nElectrons: 330.000000
	SubspaceRotationAdjust: set factor to 0.303
ElecMinimize: Iter:   5  F: -547.877298525855053  |grad|_K:  2.934e-08  alpha:  6.006e-01  linmin:  1.858e-08  t[s]:   2730.45
	FillingsUpdate:  mu: -0.160677624  nElectrons: 330.000000
	SubspaceRotationAdjust: set factor to 0.323
ElecMinimize: Iter:   6  F: -547.877298538059904  |grad|_K:  1.505e-08  alpha:  4.830e-01  linmin: -1.137e-08  t[s]:   2760.82
	FillingsUpdate:  mu: -0.160677379  nElectrons: 330.000000
	SubspaceRotationAdjust: set factor to 0.359
ElecMinimize: Iter:   7  F: -547.877298541488017  |grad|_K:  8.685e-09  alpha:  5.164e-01  linmin:  3.181e-08  t[s]:   2791.20
	FillingsUpdate:  mu: -0.160676530  nElectrons: 330.000000
	SubspaceRotationAdjust: set factor to 0.327
ElecMinimize: Iter:   8  F: -547.877298542604194  |grad|_K:  4.454e-09  alpha:  5.056e-01  linmin: -1.529e-08  t[s]:   2821.58
ElecMinimize: Converged (|Delta F|<1.000000e-08 for 2 iters).
Setting wave functions to eigenvectors of Hamiltonian

Computing DFT-D3 correction:
# coordination-number C 3.301 3.300 3.305 3.301 3.301 3.302 3.301 3.301 3.737 3.301 3.301 3.503 3.301 3.301 3.434 3.301 3.322 3.310 3.301 3.303 3.342 3.301 3.303 3.507 3.301 3.303 3.301 3.309 3.305 3.301 3.300 3.333 3.301 3.301 3.310 3.302 3.301 3.301 3.300 3.302 3.359 3.301 3.301 3.343 3.300 3.301 3.620 3.301 3.301 3.748 3.301 3.301 3.301 3.302 3.345 3.310 3.301 3.302 3.324 3.302 3.302 3.301 3.427 3.301 3.301 3.319 3.301 3.301 3.335 3.303 3.301 3.303
# coordination-number S 2.929 3.008 3.004 2.929
# coordination-number Na 4.696 4.663
# diagonal-C6 C 24.28 24.28 24.23 24.28 24.28 24.26 24.27 24.28 19.06 24.27 24.27 21.60 24.27 24.28 22.63 24.27 24.06 24.18 24.28 24.25 23.84 24.27 24.26 21.54 24.27 24.26 24.28 24.20 24.24 24.27 24.28 23.94 24.27 24.28 24.19 24.26 24.28 24.28 24.28 24.27 23.63 24.28 24.27 23.82 24.28 24.27 20.04 24.28 24.27 19.00 24.28 24.27 24.27 24.26 23.81 24.18 24.28 24.26 24.04 24.26 24.27 24.27 22.72 24.27 24.27 24.10 24.27 24.27 23.92 24.25 24.27 24.25
# diagonal-C6 S 125.81 125.81 125.81 125.81
# diagonal-C6 Na 186.11 186.11
EvdW_6 =   -0.063160
EvdW_8 =   -0.055714

# Ionic positions in cartesian coordinates:
ion C  28.001910168845814  -0.005194017638424  14.126164239278538 1
ion C  16.335940233655087  20.206896606777377  14.126822271788154 1
ion C   2.327653230976200   4.032456028333955  14.110183358790639 1
ion C  23.333405995206295  -0.004266530699054  14.112630154131748 1
ion C   4.665675860712725  -0.007561411733851  14.108758522493158 1
ion C  11.665785137772858  20.211263649895137  14.116836543250608 1
ion C  25.666295652095670   4.036133751967956  14.121619691053523 1
ion C  18.670045811081859  16.163495867514278  14.113976243308320 1
ion C   4.663311456512930   8.076180883841239  14.052669686812806 1
ion C  18.666571186096533  -0.005406347378866  14.079525680265206 1
ion C   9.334026032175672  -0.007275648157297  14.073530513290947 1
ion C   9.329130175509668  16.170091706614404  14.058189741422051 1
ion C  23.333902550050489   8.077787281404399  14.104844433138968 1
ion C  21.002261261039024  12.120496600594667  14.098091908680228 1
ion C   6.994494836193196  12.123376728275698  13.997883128442549 1
ion C  14.000223416434759  -0.006017225315301  14.060524447830709 1
ion C  14.004574539595751  16.165114955286999  14.106938866330607 1
ion C   7.002565913385999   4.031987569443817  14.061480742181825 1
ion C  21.000724540463249   4.036308641577275  14.100019597874674 1
ion C  16.338743842984819  12.118072928462732  14.083755673848287 1
ion C   9.339034259187740   8.073530672878029  14.002403000837216 1
ion C  16.333878224944488   4.035221315879959  14.059790918254384 1
ion C  11.668284680858987   4.034262317370504  14.033860938569546 1
ion C  11.671246649484438  12.115444515737176  14.030761623238668 1
ion C  18.668143122856321   8.077083621000030  14.080322876784669 1
ion C   6.995345108051044  20.208953337845589  14.076956041286314 1
ion C  -7.003428915548797  20.205878049412732  14.106940859024453 1
ion C  -0.009598298955483   8.077780753678494  14.100774559593265 1
ion C  14.002755860085546   8.074817485330874  14.033718464222849 1
ion C   2.329905144836070  20.206716507213162  14.056950024569167 1
ion C  -4.670399883262593  16.163605567328755  14.091796340751960 1
ion C   2.326310297803966  12.126591173314935  14.040091068554094 1
ion C  -2.338676065767716  12.121510723601769  14.082638177547201 1
ion C  -2.336531168556247  20.206275126391567  14.074199208705883 1
ion C   4.660736178064644  16.167039176563900  14.029206019859199 1
ion C  -0.004008495614807  16.165433081433697  14.052788696731199 1
ion C  14.001440158825098  21.553921812004766  14.126584034334829 1
ion C   2.331168256403366   1.338642515316705  14.117563506069503 1
ion C  25.667298489942997   1.341671115043441  14.123099863700601 1
ion C  16.338923323830009  17.512335181062898  14.121912275028803 1
ion C   4.664809869744429   5.375696351321764  14.079043129398894 1
ion C  21.000417389163459   1.341303319817411  14.098060476966465 1
ion C   7.000504992773712   1.337961700100567  14.081449320021759 1
ion C  11.668802867870198  17.516791518891573  14.100395540734706 1
ion C  23.334103431790790   5.383780144384855  14.110976152431917 1
ion C  18.669924050321775  13.469032539010016  14.100835197190170 1
ion C   7.003425513352818   9.424489199932074  14.002063915096370 1
ion C  16.333965546095051   1.341088075209003  14.065017932146509 1
ion C  11.666906965949618   1.340490907194054  14.053939618439800 1
ion C   9.332812210343622  13.469131489133909  14.024031796357550 1
ion C  21.000886841804949   9.425934623808043  14.094951125916145 1
ion C   9.330648034653994  21.555588874338682  14.103104715666808 1
ion C  -9.336347900098362  21.552277818980894  14.117614044433134 1
ion C  -0.006270685251602   5.382254995342730  14.113934783608357 1
ion C  14.006997975395510  13.466825494216106  14.078053224510985 1
ion C   9.336231327924281   5.380147626680223  14.024350340334300 1
[...]
EvdW_8 =   -0.056221

-------- Electronic minimization -----------
	FillingsUpdate:  mu: -0.159485476  nElectrons: 330.000000
ElecMinimize: Iter:   0  F: -547.877485594254495  |grad|_K:  2.433e-06  alpha:  1.000e+00
	FillingsUpdate:  mu: -0.159372359  nElectrons: 330.000000
	SubspaceRotationAdjust: set factor to 0.356
ElecMinimize: Iter:   1  F: -547.877625929576425  |grad|_K:  8.669e-07  alpha:  8.088e-01  linmin:  1.541e-06  t[s]:  11023.35
	FillingsUpdate:  mu: -0.159369259  nElectrons: 330.000000
	SubspaceRotationAdjust: set factor to 0.389
ElecMinimize: Iter:   2  F: -547.877642545262802  |grad|_K:  5.168e-07  alpha:  7.544e-01  linmin:  3.950e-06  t[s]:  11053.73
	FillingsUpdate:  mu: -0.159461867  nElectrons: 330.000000
	SubspaceRotationAdjust: set factor to 0.358
ElecMinimize: Iter:   3  F: -547.877647455740544  |grad|_K:  3.506e-07  alpha:  6.277e-01  linmin: -4.588e-06  t[s]:  11084.06
	FillingsUpdate:  mu: -0.159413228  nElectrons: 330.000000
	SubspaceRotationAdjust: set factor to 0.448
ElecMinimize: Iter:   4  F: -547.877649566078048  |grad|_K:  2.019e-07  alpha:  5.857e-01  linmin:  1.799e-06  t[s]:  11114.23
	FillingsUpdate:  mu: -0.159402277  nElectrons: 330.000000
	SubspaceRotationAdjust: set factor to 0.546
ElecMinimize: Iter:   5  F: -547.877650329799053  |grad|_K:  1.430e-07  alpha:  6.393e-01  linmin: -2.869e-07  t[s]:  11144.43
	FillingsUpdate:  mu: -0.159419052  nElectrons: 330.000000
	SubspaceRotationAdjust: set factor to 0.453
ElecMinimize: Iter:   6  F: -547.877650593383009  |grad|_K:  7.547e-08  alpha:  4.400e-01  linmin: -4.236e-07  t[s]:  11174.80
	FillingsUpdate:  mu: -0.159410650  nElectrons: 330.000000
	SubspaceRotationAdjust: set factor to 0.287
ElecMinimize: Iter:   7  F: -547.877650680182910  |grad|_K:  4.596e-08  alpha:  5.200e-01  linmin:  2.461e-06  t[s]:  11205.15
	FillingsUpdate:  mu: -0.159415759  nElectrons: 330.000000
	SubspaceRotationAdjust: set factor to 0.247
ElecMinimize: Iter:   8  F: -547.877650705534052  |grad|_K:  2.264e-08  alpha:  4.095e-01  linmin: -1.590e-06  t[s]:  11235.52
	FillingsUpdate:  mu: -0.159415945  nElectrons: 330.000000
	SubspaceRotationAdjust: set factor to 0.283
ElecMinimize: Iter:   9  F: -547.877650713428466  |grad|_K:  1.289e-08  alpha:  5.256e-01  linmin:  4.140e-06  t[s]:  11265.87
	FillingsUpdate:  mu: -0.159414213  nElectrons: 330.000000
	SubspaceRotationAdjust: set factor to 0.264
ElecMinimize: Iter:  10  F: -547.877650716081007  |grad|_K:  6.473e-09  alpha:  5.439e-01  linmin: -1.880e-06  t[s]:  11296.03
ElecMinimize: Converged (|Delta F|<1.000000e-08 for 2 iters).
Setting wave functions to eigenvectors of Hamiltonian

Computing DFT-D3 correction:
# coordination-number C 3.301 3.300 3.306 3.301 3.300 3.303 3.300 3.300 3.708 3.301 3.301 3.494 3.300 3.301 3.407 3.301 3.324 3.310 3.300 3.303 3.336 3.301 3.302 3.491 3.301 3.302 3.300 3.309 3.304 3.301 3.300 3.331 3.301 3.301 3.310 3.302 3.301 3.301 3.300 3.301 3.361 3.300 3.301 3.346 3.300 3.301 3.560 3.301 3.301 3.698 3.301 3.301 3.300 3.302 3.346 3.310 3.301 3.302 3.323 3.302 3.301 3.300 3.425 3.301 3.301 3.318 3.301 3.301 3.332 3.303 3.301 3.303
# coordination-number S 2.930 3.051 3.050 2.930
# coordination-number Na 4.469 4.455
# diagonal-C6 C 24.28 24.28 24.23 24.28 24.28 24.26 24.28 24.28 19.25 24.28 24.28 21.73 24.28 24.28 23.01 24.28 24.04 24.18 24.28 24.25 23.90 24.27 24.26 21.77 24.27 24.26 24.28 24.19 24.24 24.27 24.28 23.96 24.27 24.28 24.19 24.26 24.28 24.27 24.28 24.27 23.62 24.28 24.27 23.79 24.28 24.28 20.79 24.28 24.27 19.32 24.28 24.27 24.28 24.26 23.79 24.19 24.28 24.26 24.05 24.26 24.27 24.28 22.75 24.27 24.28 24.10 24.28 24.28 23.96 24.26 24.27 24.25
# diagonal-C6 S 125.81 125.81 125.81 125.81
# diagonal-C6 Na 186.11 186.11
EvdW_6 =   -0.063451
EvdW_8 =   -0.056205

-------- Electronic minimization -----------
	FillingsUpdate:  mu: -0.159393616  nElectrons: 330.000000
ElecMinimize: Iter:   0  F: -547.877617210853828  |grad|_K:  1.205e-06  alpha:  1.000e+00
	FillingsUpdate:  mu: -0.159435457  nElectrons: 330.000000
	SubspaceRotationAdjust: set factor to 0.301
ElecMinimize: Iter:   1  F: -547.877651780226415  |grad|_K:  4.293e-07  alpha:  8.123e-01  linmin: -1.175e-06  t[s]:  11354.30
	FillingsUpdate:  mu: -0.159444964  nElectrons: 330.000000
	SubspaceRotationAdjust: set factor to 0.335
ElecMinimize: Iter:   2  F: -547.877655875748587  |grad|_K:  2.555e-07  alpha:  7.581e-01  linmin: -2.014e-06  t[s]:  11384.72
	FillingsUpdate:  mu: -0.159408415  nElectrons: 330.000000
	SubspaceRotationAdjust: set factor to 0.379
ElecMinimize: Iter:   3  F: -547.877657215361523  |grad|_K:  1.841e-07  alpha:  7.003e-01  linmin:  1.047e-06  t[s]:  11414.95
	FillingsUpdate:  mu: -0.159418626  nElectrons: 330.000000
	SubspaceRotationAdjust: set factor to 0.537
ElecMinimize: Iter:   4  F: -547.877657765143567  |grad|_K:  1.290e-07  alpha:  5.535e-01  linmin: -3.241e-08  t[s]:  11445.12
	FillingsUpdate:  mu: -0.159436254  nElectrons: 330.000000
	SubspaceRotationAdjust: set factor to 0.467
ElecMinimize: Iter:   5  F: -547.877658056670839  |grad|_K:  9.140e-08  alpha:  5.979e-01  linmin: -1.012e-06  t[s]:  11475.49
	FillingsUpdate:  mu: -0.159421006  nElectrons: 330.000000
	SubspaceRotationAdjust: set factor to 0.289
ElecMinimize: Iter:   6  F: -547.877658156279836  |grad|_K:  5.280e-08  alpha:  4.068e-01  linmin:  2.918e-08  t[s]:  11505.88
	FillingsUpdate:  mu: -0.159424410  nElectrons: 330.000000
	SubspaceRotationAdjust: set factor to 0.301
ElecMinimize: Iter:   7  F: -547.877658196081256  |grad|_K:  3.070e-08  alpha:  4.871e-01  linmin: -2.801e-06  t[s]:  11536.29
	FillingsUpdate:  mu: -0.159426195  nElectrons: 330.000000
	SubspaceRotationAdjust: set factor to 0.304
ElecMinimize: Iter:   8  F: -547.877658208521098  |grad|_K:  1.662e-08  alpha:  4.498e-01  linmin:  2.215e-06  t[s]:  11566.59
	FillingsUpdate:  mu: -0.159425113  nElectrons: 330.000000
	SubspaceRotationAdjust: set factor to 0.268
ElecMinimize: Iter:   9  F: -547.877658213215454  |grad|_K:  8.072e-09  alpha:  5.804e-01  linmin: -2.267e-05  t[s]:  11596.78
	FillingsUpdate:  mu: -0.159425640  nElectrons: 330.000000
	SubspaceRotationAdjust: set factor to 0.312
ElecMinimize: Iter:  10  F: -547.877658214746475  |grad|_K:  5.273e-09  alpha:  8.210e-01  linmin:  6.471e-05  t[s]:  11627.11
ElecMinimize: Converged (|Delta F|<1.000000e-08 for 2 iters).
Setting wave functions to eigenvectors of Hamiltonian

Computing DFT-D3 correction:
# coordination-number C 3.301 3.300 3.306 3.301 3.300 3.303 3.300 3.300 3.708 3.301 3.301 3.494 3.300 3.301 3.407 3.301 3.324 3.310 3.300 3.303 3.336 3.301 3.302 3.491 3.301 3.302 3.300 3.309 3.304 3.301 3.300 3.331 3.301 3.301 3.310 3.302 3.301 3.301 3.300 3.301 3.361 3.300 3.301 3.346 3.300 3.301 3.560 3.301 3.301 3.698 3.301 3.301 3.300 3.302 3.346 3.310 3.301 3.302 3.323 3.302 3.301 3.300 3.425 3.301 3.301 3.318 3.301 3.301 3.332 3.303 3.301 3.303
# coordination-number S 2.930 3.051 3.050 2.930
# coordination-number Na 4.469 4.455
# diagonal-C6 C 24.28 24.28 24.23 24.28 24.28 24.26 24.28 24.28 19.25 24.28 24.28 21.73 24.28 24.28 23.01 24.28 24.04 24.18 24.28 24.25 23.90 24.27 24.26 21.77 24.27 24.26 24.28 24.19 24.24 24.27 24.28 23.96 24.27 24.28 24.19 24.26 24.28 24.27 24.28 24.27 23.62 24.28 24.27 23.79 24.28 24.28 20.79 24.28 24.27 19.32 24.28 24.27 24.28 24.26 23.79 24.19 24.28 24.26 24.05 24.26 24.27 24.28 22.75 24.27 24.28 24.10 24.28 24.28 23.96 24.26 24.27 24.25
# diagonal-C6 S 125.81 125.81 125.81 125.81
# diagonal-C6 Na 186.11 186.11
EvdW_6 =   -0.063451
EvdW_8 =   -0.056205

# Ionic positions in cartesian coordinates:
ion C  28.002971165896351  -0.005669888928994  14.126281811595083 1
ion C  16.335697565654762  20.206808884037489  14.120988568190667 1
ion C   2.329986959364466   4.033447887776431  14.114030925786277 1
ion C  23.334998159986984  -0.004984833570236  14.112070505081521 1
ion C   4.666161403276636  -0.006327597362961  14.113551595444461 1
ion C  11.666823080855991  20.210084343634783  14.114930073300608 1
ion C  25.667887279408536   4.035906122976680  14.118112836715113 1
ion C  18.670649416641979  16.163178246804605  14.109011904150142 1
ion C   4.665269041193969   8.077478209530167  14.051625823264208 1
ion C  18.667535689661861  -0.005238763230463  14.095116637248463 1
ion C   9.334824875776629  -0.006889722778106  14.088714841054399 1
ion C   9.330685483240570  16.168372015872464  14.052098326326350 1
ion C  23.334378944332705   8.078585746254795  14.108014189314078 1
ion C  21.002988695218377  12.120559168845874  14.103838944629352 1
ion C   6.995829121054021  12.122293440396597  13.991742414501408 1
ion C  14.001085787460124  -0.006122683167330  14.082809548978297 1
ion C  14.004158646542898  16.164708913994147  14.096758372790344 1
ion C   7.002582339988493   4.033076716385350  14.071600683779945 1
ion C  21.001224956020629   4.036163481326343  14.104196652172861 1
ion C  16.338924087582502  12.118443592324919  14.085354609790604 1
ion C   9.337943915255480   8.074918450820748  14.006178651165865 1
ion C  16.335117753319956   4.035446702176966  14.080016383313568 1
ion C  11.668938404711268   4.035017828625627  14.053169922360649 1
ion C  11.670410310156534  12.116919185944250  14.025352676852336 1
ion C  18.668864366582945   8.077658090113617  14.091890223609258 1
ion C   6.997116795121912  20.207992087599006  14.082980525313500 1
ion C  -7.002530605600276  20.205566393191027  14.107642228532727 1
ion C  -0.006887473974488   8.078415564969221  14.100616648194546 1
ion C  14.003410124856142   8.075609625122569  14.047876027211908 1
ion C   2.330973676559225  20.206371164226539  14.075518159667444 1
ion C  -4.668914586211763  16.163494261797478  14.099679421452507 1
ion C   2.328493803456094  12.125974498971104  14.046153625447060 1
ion C  -2.337259363572545  12.122475464499827  14.093713754643712 1
ion C  -2.335525034552072  20.205810312177203  14.091895390125279 1
ion C   4.662561991437309  16.166257236764832  14.038562030386567 1
ion C  -0.003327584702685  16.165075997514574  14.070504035669384 1
ion C  14.001574567021034  21.554366164296965  14.125350070176003 1
ion C   2.331695591998793   1.339268258613245  14.122224563822058 1
ion C  25.668937731425601   1.341091736169032  14.120030289017228 1
ion C  16.338199464284788  17.512311649471439  14.113979986692257 1
ion C   4.666211750715570   5.377194079472978  14.085887303811884 1
ion C  21.000999020898767   1.341855923832942  14.104741776450719 1
ion C   7.000780692251607   1.338948486476615  14.093030291480519 1
ion C  11.668712346619595  17.515000376010672  14.092254137777131 1
ion C  23.334650080435839   5.383851712225789  14.110207944241074 1
ion C  18.670476286102364  13.468095717315544  14.101630738227158 1
ion C   7.003797193675874   9.426274896209922  13.998135933612934 1
ion C  16.334364377386429   1.341389362230010  14.086890396458964 1
ion C  11.667761139433340   1.340534483354972  14.074677721743205 1
ion C   9.332600524437259  13.468415048790007  14.011293792889665 1
ion C  21.001408325955435   9.426037298518029  14.102987929893281 1
ion C   9.332111829049085  21.554794163897256  14.105176637491519 1
ion C  -9.336209559413589  21.552881430322127  14.115185299960453 1
ion C  -0.004498295622494   5.382453356248920  14.114145549756719 1
ion C  14.005292180533583  13.467315401112497  14.070451605594689 1
ion C   9.336258998047406   5.381233865112955  14.037332779004389 1
ion C  18.668136330742438   5.383147649243984  14.091452765761328 1
ion C  16.336436095864681   9.424237252411551  14.074566283157898 1
ion C  11.670609338978092   9.420674377417246  14.017940047090097 1
ion C  14.002073745578340   5.381956557090381  14.056539064377910 1
ion C   4.663622894877529  21.554207181614963  14.083700183207895 1
ion C  -7.002402171522069  17.511081854270302  14.107502649959727 1
ion C   2.326480830229193   9.429226267751632  14.068257102292979 1
ion C  -2.339364220466333   9.427381648406008  14.102541904491215 1
ion C  -4.668827383866291  21.552639863358603  14.098279458724280 1
ion C   6.994615361500147  17.514781762590179  14.056336394803564 1
ion C  -0.002746516585798  21.553179117206643  14.085079174702953 1
ion C  -4.669950093233259  13.469329926345434  14.101293910259686 1
ion C   4.662613110753351  13.472063010531981  14.014831054836170 1
ion C   2.329945985723464  17.512342021448490  14.059499315708663 1
ion C  -2.336447179307112  17.511526966982643  14.088185367838474 1
ion C  -0.005269628567452  13.471733512533687  14.071019297666885 1
ion S   5.109404521625473  14.032936543786036  20.793265729936177 1
ion S   7.016215535737645  13.329369512985219  24.101926727962077 1
ion S   8.352765491018740   9.549835085109324  24.095053789924922 1
ion S  10.252826380526361   8.859135406403004  20.780513932967281 1
ion Na   5.189264258525803   8.965463909588921  19.497812479071360 1
ion Na  10.165771992499289  13.930489736205125  19.492782794976687 1

# Forces in Cartesian coordinates:
force C  -0.000127146400688   0.000040466003481  -0.000025120355374 1
force C   0.000030137345606   0.000071803069436   0.000078952377279 1
force C  -0.000253753925480  -0.000068174282652  -0.000093195312211 1
force C  -0.000087183929702   0.000085441982966   0.000068583351856 1
force C  -0.000033369831214  -0.000214683343341  -0.000076504499601 1
force C  -0.000038557052383   0.000107895815540  -0.000224874626897 1
force C  -0.000109584294680  -0.000076433494243  -0.000011585059570 1
force C   0.000048425807043   0.000087345291209   0.000040517822561 1
force C  -0.000084461861401  -0.000097483604729  -0.000034109972742 1
force C   0.000082887567724  -0.000002255436347  -0.000155522666955 1
force C  -0.000071653953672  -0.000117205163810  -0.000103198506426 1
force C  -0.000057471645369   0.000189155295108   0.000011702859516 1
force C  -0.000100368612037  -0.000119387625375  -0.000055050536070 1
force C   0.000061887547489  -0.000106126282095   0.000004370191171 1
force C  -0.000100322400381   0.000088505455746  -0.000174203636270 1
force C   0.000043182734553   0.000018196922580   0.000025153276516 1
force C   0.000135486293519   0.000175521476023  -0.000091031072391 1
force C  -0.000049334095552  -0.000190401612826   0.000049537775841 1
force C   0.000171059729272   0.000017950258220  -0.000023832354431 1
force C  -0.000032307754580  -0.000035299102200  -0.000059888359044 1
force C   0.000059825006195  -0.000132166750278  -0.000172529506164 1
force C   0.000034062623585   0.000021730038520  -0.000082202626088 1
force C   0.000032022565391  -0.000196683988078   0.000170436117232 1
force C   0.000157945906206  -0.000024892773749   0.000019163313608 1
force C   0.000059478572242  -0.000160417576746  -0.000079888065927 1
force C  -0.000004995472829   0.000092316181986   0.000067695589349 1
force C   0.000071344280620   0.000036857760083  -0.000003071948191 1
force C  -0.000091542089495  -0.000050039589190  -0.000015134950452 1
force C   0.000127276259396  -0.000074241429597   0.000047073313061 1
force C  -0.000130808234267   0.000030339571624   0.000115825929619 1
force C  -0.000147717306633   0.000081643609738  -0.000050594805519 1
force C  -0.000194624556855  -0.000013749150643   0.000001556924741 1
force C  -0.000071569605475  -0.000111648628880  -0.000059233962489 1
force C  -0.000052796295584   0.000013710993718  -0.000220386795021 1
force C  -0.000068779230150   0.000106192394357  -0.000052340780981 1
force C  -0.000090356721573   0.000081851626323   0.000049578867956 1
force C   0.000141246043286  -0.000032012469088  -0.000059397177031 1
force C   0.000101485616940   0.000013831449952  -0.000017497280760 1
force C   0.000068714780071   0.000066167108409   0.000196234054805 1
force C   0.000024039798565  -0.000106980442155   0.000021478469220 1
force C   0.000160041362541  -0.000010691959558  -0.000111732546037 1
force C  -0.000046601279754  -0.000042214135254  -0.000051106317260 1
force C   0.000170671791048   0.000112857606083   0.000123896001800 1
force C   0.000057921402019  -0.000018879590671   0.000049330943785 1
force C  -0.000092789298186   0.000002544702710   0.000158180328195 1
force C   0.000051313467564   0.000051084114631   0.000085910263802 1
force C   0.000128110891504  -0.000019227942766   0.000089623684559 1
force C  -0.000103941676617  -0.000048086979456  -0.000102481548462 1
force C   0.000074203386759   0.000149710182795   0.000119256994435 1
force C  -0.000026003534053  -0.000098767322854  -0.000145605278945 1
force C   0.000078887085856   0.000131279132037  -0.000020699000279 1
force C  -0.000110973571539   0.000001249655380   0.000023044257167 1
force C   0.000067282805907   0.000036952807863   0.000192576172423 1
force C   0.000057342353928   0.000039786070025   0.000042702852891 1
force C   0.000122836298051  -0.000133623902066   0.000046791272709 1
force C   0.000085402519511   0.000050902380478   0.000084193604947 1
force C  -0.000101185951989   0.000056051846872   0.000087087992087 1
force C  -0.000060383917136   0.000022082160408   0.000041218844456 1
force C   0.000022746002787  -0.000065851914905  -0.000077685906343 1
force C   0.000008819195748  -0.000016263501800   0.000197196465379 1
force C   0.000016925946713   0.000039765861648   0.000142335999932 1
force C   0.000042847596798  -0.000061511718553   0.000021360826561 1
force C  -0.000148639559374   0.000042788943114   0.000049585466001 1
force C   0.000075412063915   0.000091558415201   0.000114243030962 1
force C  -0.000066662020809  -0.000020643197504   0.000002960267067 1
force C  -0.000066774524825   0.000047608035231   0.000010296877805 1
force C   0.000138944551612  -0.000019984923853  -0.000037095322657 1
force C  -0.000038569684663   0.000017493869739  -0.000005552455090 1
force C   0.000087267569832   0.000033726180918  -0.000045326527889 1
force C  -0.000011591139626   0.000073563278839   0.000220601808014 1
force C   0.000108934263791   0.000036501470780   0.000112769284292 1
force C   0.000036447931856   0.000014449499823   0.000006822996735 1
force S  -0.000045285284290   0.000092818894407  -0.000238206007680 1
force S   0.000077699901455  -0.000060780167821  -0.000027254199377 1
force S  -0.000118752237899   0.000140989449426  -0.000066056092978 1
force S   0.000065396152070  -0.000046103942639  -0.000209148888479 1
force Na   0.000093459236613   0.000017816842623  -0.000253991285157 1
force Na  -0.000251359298052  -0.000133468064407  -0.000175731624217 1

# Energy components:
   Eewald =    -1505.6781295691400828
       EH =    -1088.1316072954793981
     Eloc =     2008.2908468583666490
      Enl =      -78.5233478283622048
     EvdW =       -0.1196558590287684
      Exc =     -161.9198590533146103
 Exc_core =        9.4955886333743180
       KE =      268.7782698600170761
-------------------------------------
     Etot =     -547.8078942535669285
       TS =        0.0697639611794982
-------------------------------------
        F =     -547.8776582147464751

IonicMinimize: Iter:  17  F: -547.877658214746475  |grad|_K:  9.736e-05  alpha:  2.387e+00  linmin:  1.142e-03  t[s]:  11637.22
IonicMinimize: Converged (|grad|_K<1.000000e-04).

#--- Lowdin population analysis ---
# oxidation-state C +0.040 +0.039 +0.031 +0.041 +0.040 +0.035 +0.039 +0.040 -0.009 +0.042 +0.042 +0.009 +0.041 +0.042 +0.024 +0.043 +0.023 +0.035 +0.042 +0.038 +0.037 +0.044 +0.044 +0.012 +0.042 +0.041 +0.042 +0.030 +0.042 +0.044 +0.043 +0.031 +0.041 +0.043 +0.042 +0.044 +0.039 +0.038 +0.041 +0.036 +0.019 +0.042 +0.040 +0.019 +0.041 +0.040 +0.012 +0.043 +0.043 -0.001 +0.042 +0.040 +0.040 +0.034 +0.021 +0.040 +0.043 +0.042 +0.037 +0.044 +0.043 +0.041 +0.013 +0.039 +0.042 +0.037 +0.043 +0.042 +0.035 +0.044 +0.043 +0.041
# oxidation-state S -0.471 +0.067 +0.067 -0.471
# oxidation-state Na +0.781 +0.782


Dumping 'Na2S4@graphene-vdw.fillings' ... done
Dumping 'Na2S4@graphene-vdw.wfns' ... done
Dumping 'Na2S4@graphene-vdw.ionpos' ... done
Dumping 'Na2S4@graphene-vdw.eigenvals' ... done
End date and time: Fri Sep 27 05:26:38 2024  (Duration: 0-3:14:01.78)
Done!
