
*************** JDFTx 1.7.0  ***************

Start date and time: Thu Sep 26 14:01:44 2024
Executable ../../jdftx_install/build/jdftx_gpu with command-line: -i Na2S@graphene-vdw.in -o Na2S@graphene-vdw.out
Running on hosts (process indices):  ubaid-base (0)
Divided in process groups (process indices):  0 (0)
gpuInit: Found compatible cuda device 0 'NVIDIA GeForce RTX 3050'
gpuInit: Selected device 0
Resource initialization completed at t[s]:      0.14
Run totals: 1 processes, 16 threads, 1 GPUs


Input parsed successfully to the following command list (including defaults):

basis kpoint-dependent
coords-type Cartesian
core-overlap-check vector
coulomb-interaction Slab 001
coulomb-truncation-embed 0 0 23.6216
davidson-band-ratio 1.1
dump End State
dump-name Na2S@graphene-vdw.$VAR
elec-cutoff 20 100
elec-eigen-algo Davidson
elec-ex-corr gga-PBE
elec-smearing Fermi 0.01
electronic-minimize  \
	dirUpdateScheme      FletcherReeves \
	linminMethod         DirUpdateRecommended \
	nIterations          100 \
	history              15 \
	knormThreshold       0 \
	energyDiffThreshold  1e-08 \
	nEnergyDiff          2 \
	alphaTstart          1 \
	alphaTmin            1e-10 \
	updateTestStepSize   yes \
	alphaTreduceFactor   0.1 \
	alphaTincreaseFactor 3 \
	nAlphaAdjustMax      3 \
	wolfeEnergy          0.0001 \
	wolfeGradient        0.9 \
	fdTest               no
electronic-scf  \
	nIterations	50 \
	energyDiffThreshold	1e-08 \
	residualThreshold	1e-07 \
	mixFraction	0.5 \
	qMetric	0.8 \
	history	10 \
	nEigSteps	2 \
	eigDiffThreshold	1e-08 \
	mixedVariable	Density \
	qKerker	0.8 \
	qKappa	-1 \
	verbose	no \
	mixFractionMag	1.5
exchange-regularization WignerSeitzTruncated
fluid None
fluid-ex-corr lda-TF lda-PZ
fluid-gummel-loop 10 1.000000e-05
fluid-minimize  \
	dirUpdateScheme      PolakRibiere \
	linminMethod         DirUpdateRecommended \
	nIterations          100 \
	history              15 \
	knormThreshold       0 \
	energyDiffThreshold  0 \
	nEnergyDiff          2 \
	alphaTstart          1 \
	alphaTmin            1e-10 \
	updateTestStepSize   yes \
	alphaTreduceFactor   0.1 \
	alphaTincreaseFactor 3 \
	nAlphaAdjustMax      3 \
	wolfeEnergy          0.0001 \
	wolfeGradient        0.9 \
	fdTest               no
fluid-solvent H2O 55.338 ScalarEOS \
	epsBulk 78.4 \
	pMol 0.92466 \
	epsInf 1.77 \
	Pvap 1.06736e-10 \
	sigmaBulk 4.62e-05 \
	Rvdw 2.61727 \
	Res 1.42 \
	tauNuc 343133 \
	poleEl 15 7 1
forces-output-coords Positions
ion C  28.014162925916441   0.004453384674690  23.488700336250716 1
ion C  16.346425888740537  20.217875004139898  23.494441368511783 1
ion C   2.341491267388133   4.043706087769919  23.494288650092468 1
ion C  23.346676486641854   0.004384458899791  23.483901318126694 1
ion C   4.676245474304146   0.003825684533332  23.487138916511071 1
ion C  11.677668704867260  20.219126759791724  23.483004299183591 1
ion C  25.678811057378855   4.044276294935732  23.499408675705300 1
ion C  18.680488284317882  16.174907144025568  23.511821298159187 1
ion C   4.677492135958810   8.082325094833877  23.480434218273459 1
ion C  18.679382389646399   0.004419539788082  23.483426455373358 1
ion C   9.343823638707175   0.003953947274407  23.485047852861264 1
ion C   9.343132606087327  16.180035273305720  23.462238808629923 1
ion C  23.345124811792473   8.086659640014878  23.516110558754391 1
ion C  21.013103120380649  12.130537488137513  23.522228736787792 1
ion C   7.010396563482270  12.130147336608232  23.448669631144288 1
ion C  14.011721669833374   0.004487328277764  23.486992976749193 1
ion C  14.013558296018106  16.179574426149870  23.498757826101649 1
ion C   7.009818515150769   4.042499155409574  23.483844483499080 1
ion C  21.013258005010439   4.045063281439558  23.499911963395391 1
ion C  16.350423015839485  12.130599170600259  23.518035179028320 1
ion C   9.342281602294870   8.081813368171400  23.475546112810431 1
ion C  16.347062351595820   4.043993563439029  23.499817348777334 1
ion C  11.678225160842871   4.043864528802732  23.491257888877005 1
ion C  11.678772579836281  12.132656534902800  23.479943835860723 1
ion C  18.681222676379658   8.086169753017820  23.517364251816780 1
ion C   7.009916898374378  20.219343866477669  23.472579061328812 1
ion C  -6.992609659547584  20.216547172333016  23.496399385793953 1
ion C   0.003266530903848   8.083516107494180  23.512278174675206 1
ion C  14.015955885954099   8.083119896903865  23.508223950230427 1
ion C   2.342093071666019  20.219019570074142  23.480326146245698 1
ion C  -4.659880863172909  16.174560757149859  23.510300320021678 1
ion C   2.339186588937720  12.132995157544903  23.489299233363806 1
ion C  -2.329954496254302  12.131009916067642  23.516589949079659 1
ion C  -2.326304055174534  20.217696998809750  23.491504033873877 1
ion C   4.676726791076918  16.180841540819191  23.466168264274856 1
ion C   0.006137637165399  16.178703673620589  23.495659639727563 1
ion C  14.012348709644570  21.564438777735628  23.489604884116638 1
ion C   2.342824768057115   1.350062948308334  23.489941598843274 1
ion C  25.680516519737949   1.350702761820675  23.488903069804863 1
ion C  16.348003904104942  17.524448264432507  23.502678071625702 1
ion C   4.676210764116784   5.387823892778022  23.487264968155824 1
ion C  21.013008310099927   1.350663380772684  23.487704732809103 1
ion C   7.009950811972321   1.349259225414340  23.484223002515041 1
ion C  11.677762640953041  17.525450596518706  23.480362871851007 1
ion C  23.346324894239519   5.392231680162620  23.505102574666331 1
ion C  18.681997813576384  13.480334719088798  23.519483950082130 1
ion C   7.010361707405791   9.432882251512829  23.458902066493309 1
ion C  16.345682566415046   1.350653197918856  23.488395943382983 1
ion C  11.677343100946770   1.350076750284254  23.487853421160832 1
ion C   9.341532935239169  13.484022034967618  23.456042416622726 1
ion C  21.013053215586027   9.435742751134141  23.521852547273895 1
ion C   9.343921412688335  21.564967661889821  23.477772535012715 1
ion C  -9.325533050580070  21.563719294268758  23.490997739711112 1
ion C   0.006621766066881   5.389878389931321  23.504040826675343 1
ion C  14.017461384638807  13.483496515252021  23.507386649611831 1
ion C   9.343663251770447   5.388443811910577  23.484361305393769 1
ion C  18.680116870408927   5.391612106124537  23.506293009054612 1
ion C  16.349307086552550   9.434553397568573  23.516260415420753 1
ion C  11.678730991940606   9.429609444088063  23.492142348590626 1
ion C  14.013221041087661   5.389351834858124  23.501819267339133 1
ion C   4.676087364948579  21.564740743826302  23.475841543189748 1
ion C  -6.992581671971104  17.522334606507364  23.508981806064543 1
ion C   2.340099012219734   9.430388049872771  23.500315667712528 1
ion C  -2.329065275086099   9.435064464295710  23.516027596967280 1
ion C  -4.659725635779632  21.563781912962209  23.489331157040134 1
ion C   7.009941513485121  17.526875139515802  23.463681891904692 1
ion C   0.007471279885106  21.564584663929224  23.486805220524936 1
ion C  -4.661048587855587  13.480345295815439  23.517705640484358 1
ion C   4.678420581440577  13.483969691801144  23.461191111877959 1
ion C   2.341877433067657  17.525550844977925  23.479816581548118 1
ion C  -2.327622151484986  17.523857084604192  23.499038527601275 1
ion C   0.001623704991355  13.483660458022491  23.506902314285373 1
ion S   7.340965348298487  11.786218808348673  31.474376075483118 1
ion Na   3.511478615926023  11.652908876786041  28.565832651122516 1
ion Na  11.216418298394242  11.742143755213936  28.618760848083024 1
ion-species GBRV/$ID_pbe.uspp
ion-width 0
ionic-minimize  \
	dirUpdateScheme      FletcherReeves \
	linminMethod         DirUpdateRecommended \
	nIterations          200 \
	history              15 \
	knormThreshold       0.0001 \
	energyDiffThreshold  1e-06 \
	nEnergyDiff          2 \
	alphaTstart          1 \
	alphaTmin            1e-10 \
	updateTestStepSize   yes \
	alphaTreduceFactor   0.1 \
	alphaTincreaseFactor 3 \
	nAlphaAdjustMax      3 \
	wolfeEnergy          0.0001 \
	wolfeGradient        0.9 \
	fdTest               no
kpoint   0.000000000000   0.000000000000   0.000000000000  1.00000000000000
kpoint-folding 1 1 1 
latt-move-scale 1 1 1
latt-scale 1 1 1 
lattice Triclinic 28.0058 28.0058 37.7946 90 90 120
lattice-minimize  \
	dirUpdateScheme      L-BFGS \
	linminMethod         DirUpdateRecommended \
	nIterations          0 \
	history              15 \
	knormThreshold       0 \
	energyDiffThreshold  1e-06 \
	nEnergyDiff          2 \
	alphaTstart          1 \
	alphaTmin            1e-10 \
	updateTestStepSize   yes \
	alphaTreduceFactor   0.1 \
	alphaTincreaseFactor 3 \
	nAlphaAdjustMax      3 \
	wolfeEnergy          0.0001 \
	wolfeGradient        0.9 \
	fdTest               no
lcao-params -1 1e-06 0.01
pcm-variant GLSSA13
spintype no-spin
subspace-rotation-factor 1 yes
symmetries automatic
symmetry-threshold 0.0001
van-der-waals D3



---------- Setting up symmetries ----------

Found 24 point-group symmetries of the bravais lattice
Found 1 space-group symmetries with basis
Applied RMS atom displacement 0 bohrs to make symmetries exact.

---------- Initializing the Grid ----------
R = 
[      28.0058     -14.0029            0  ]
[            0      24.2537            0  ]
[            0            0      37.7946  ]
unit cell volume = 25671.8
G =
[   0.224353    0.12953         -0  ]
[          0   0.259061          0  ]
[          0         -0   0.166246  ]
Minimum fftbox size, Smin = [  128  128  172  ]
Chosen fftbox size, S = [  128  128  180  ]

---------- Initializing tighter grid for wavefunction operations ----------
R = 
[      28.0058     -14.0029            0  ]
[            0      24.2537            0  ]
[            0            0      37.7946  ]
unit cell volume = 25671.8
G =
[   0.224353    0.12953         -0  ]
[          0   0.259061          0  ]
[          0         -0   0.166246  ]
Minimum fftbox size, Smin = [  116  116  156  ]
Chosen fftbox size, S = [  120  120  160  ]

---------- Exchange Correlation functional ----------
Initalized PBE GGA exchange.
Initalized PBE GGA correlation.

---------- Setting up pseudopotentials ----------
Width of ionic core gaussian charges (only for fluid interactions / plotting) set to 0

Reading pseudopotential file '/home/ubaid/jdftx_install/build/pseudopotentials/GBRV/c_pbe.uspp':
  Title: C.  Created by USPP 7.3.6 on 3-2-2014
  Reference state energy: -5.406344.  4 valence electrons in orbitals:
    |200>  occupation: 2  eigenvalue: -0.504890
    |210>  occupation: 2  eigenvalue: -0.194356
  lMax: 1  lLocal: 2  QijEcut: 5
  4 projectors sampled on a log grid with 503 points:
    l: 0  eig: -0.504890  rCut: 1.3
    l: 0  eig: 0.000000  rCut: 1.3
    l: 1  eig: -0.194357  rCut: 1.3
    l: 1  eig: 0.000000  rCut: 1.3
  Partial core density with radius 1.1
  Transforming core density to a uniform radial grid of dG=0.02 with 1625 points.
  Transforming local potential to a uniform radial grid of dG=0.02 with 1625 points.
  Transforming nonlocal projectors to a uniform radial grid of dG=0.02 with 432 points.
  Transforming density augmentations to a uniform radial grid of dG=0.02 with 1625 points.
  Transforming atomic orbitals to a uniform radial grid of dG=0.02 with 432 points.
  Core radius for overlap checks: 1.30 bohrs.

Reading pseudopotential file '/home/ubaid/jdftx_install/build/pseudopotentials/GBRV/s_pbe.uspp':
  Title: S.  Created by USPP 7.3.6 on 1-4-15
  Reference state energy: -11.898476.  6 valence electrons in orbitals:
    |300>  occupation: 2  eigenvalue: -0.634167
    |310>  occupation: 4  eigenvalue: -0.257568
  lMax: 2  lLocal: 3  QijEcut: 6
  6 projectors sampled on a log grid with 635 points:
    l: 0  eig: -0.634161  rCut: 1.5
    l: 0  eig: 1.500000  rCut: 1.5
    l: 1  eig: -0.257567  rCut: 1.5
    l: 1  eig: 1.500000  rCut: 1.5
    l: 2  eig: -1.000000  rCut: 1.5
    l: 2  eig: 1.500000  rCut: 1.5
  Partial core density with radius 1.15
  Transforming core density to a uniform radial grid of dG=0.02 with 1625 points.
  Transforming local potential to a uniform radial grid of dG=0.02 with 1625 points.
  Transforming nonlocal projectors to a uniform radial grid of dG=0.02 with 432 points.
  Transforming density augmentations to a uniform radial grid of dG=0.02 with 1625 points.
  Transforming atomic orbitals to a uniform radial grid of dG=0.02 with 432 points.
  Core radius for overlap checks: 1.50 bohrs.

Reading pseudopotential file '/home/ubaid/jdftx_install/build/pseudopotentials/GBRV/na_pbe.uspp':
  Title: Na.  Created by USPP 7.3.6 on 23-9-15
  Reference state energy: -47.625620.  9 valence electrons in orbitals:
    |200>  occupation: 2  eigenvalue: -2.085638
    |210>  occupation: 6  eigenvalue: -1.053708
    |300>  occupation: 1  eigenvalue: -0.100838
  lMax: 2  lLocal: 0  QijEcut: 6
  5 projectors sampled on a log grid with 657 points:
    l: 0  eig: -2.085640  rCut: 1.37
    l: 0  eig: -0.100839  rCut: 1.37
    l: 1  eig: -1.053708  rCut: 1.47
    l: 1  eig: 0.500000  rCut: 1.47
    l: 2  eig: 0.750000  rCut: 2
  Transforming local potential to a uniform radial grid of dG=0.02 with 1625 points.
  Transforming nonlocal projectors to a uniform radial grid of dG=0.02 with 432 points.
  Transforming density augmentations to a uniform radial grid of dG=0.02 with 1625 points.
  Transforming atomic orbitals to a uniform radial grid of dG=0.02 with 432 points.
  Core radius for overlap checks: 2.00 bohrs.

Initialized 3 species with 75 total atoms.

Folded 1 k-points by 1x1x1 to 1 k-points.

---------- Setting up k-points, bands, fillings ----------
No reducable k-points. 
Computing the number of bands and number of electrons
Calculating initial fillings.
nElectrons: 312.000000   nBands: 302   nStates: 1

----- Setting up reduced wavefunction bases (one per k-point) -----
average nbasis = 109673.000 , ideal nbasis = 109671.883

---------- Setting up coulomb interaction ----------
Setting up double-sized grid for truncated Coulomb potentials:
R = 
[      28.0058     -14.0029            0  ]
[            0      24.2537            0  ]
[            0            0      75.5892  ]
unit cell volume = 51343.6
G =
[   0.224353    0.12953         -0  ]
[          0   0.259061          0  ]
[          0         -0  0.0831228  ]
Chosen fftbox size, S = [  128  128  360  ]
Integer grid location selected as the embedding center:
   Grid: [  0  0  113  ]
   Lattice: [  0  0  0.625  ]
   Cartesian: [  0  0  23.6216  ]
Constructing Wigner-Seitz cell: 8 faces (6 quadrilaterals, 2 hexagons)
Range-separation parameter for embedded mesh potentials due to point charges: 0.590105 bohrs.
Initialized slab truncation along lattice direction 001

Initializing DFT-D3 calculator:
	Parameters set for gga-PBE functional
	s6:  1.000  s_r6:  1.217
	s8:  0.722  s_r8:  1.000
	Per-atom parameters loaded for:
	 C:  sqrtQ[a0]:  3.105  Rcov[a0]:  1.417  CN: [ 0.00 0.99 2.00 3.00 3.98 ]
	 S:  sqrtQ[a0]:  4.041  Rcov[a0]:  1.928  CN: [ 0.00 0.99 1.99 ]
	Na:  sqrtQ[a0]:  6.586  Rcov[a0]:  2.646  CN: [ 0.00 0.97 ]

---------- Setting up 2D ewald sum ----------
Optimum gaussian width for ewald sums = 15.547689 bohr.
Real space sums over 289 unit cells with max indices [  8  8  0  ]
Reciprocal space sums over 81 terms with max indices [  4  4  0  ]

Computing DFT-D3 correction:
# coordination-number C 3.301 3.301 3.302 3.301 3.301 3.301 3.301 3.301 3.391 3.301 3.301 3.324 3.301 3.301 3.456 3.301 3.314 3.302 3.301 3.315 3.356 3.301 3.302 3.976 3.301 3.302 3.301 3.320 3.330 3.301 3.301 3.934 3.307 3.301 3.330 3.308 3.301 3.301 3.301 3.301 3.305 3.301 3.301 3.308 3.301 3.301 3.378 3.301 3.301 3.580 3.301 3.301 3.301 3.302 3.445 3.304 3.301 3.308 3.642 3.302 3.301 3.301 3.635 3.304 3.301 3.306 3.301 3.301 3.707 3.306 3.301 3.372
# coordination-number S 1.980
# coordination-number Na 3.029 2.903
# diagonal-C6 C 24.28 24.28 24.27 24.27 24.27 24.27 24.27 24.28 23.22 24.27 24.27 24.04 24.27 24.27 22.29 24.28 24.15 24.26 24.27 24.13 23.67 24.27 24.27 18.35 24.27 24.26 24.28 24.08 23.97 24.27 24.28 18.41 24.21 24.28 23.98 24.20 24.28 24.27 24.28 24.27 24.23 24.28 24.27 24.21 24.28 24.27 23.40 24.28 24.27 20.52 24.28 24.27 24.27 24.26 22.47 24.24 24.28 24.20 19.81 24.26 24.27 24.27 19.89 24.24 24.27 24.23 24.28 24.27 19.26 24.22 24.27 23.47
# diagonal-C6 S 125.91
# diagonal-C6 Na 186.11 186.11
EvdW_6 =   -0.057377
EvdW_8 =   -0.048979

---------- Allocating electronic variables ----------
Initializing wave functions:  linear combination of atomic orbitals
C pseudo-atom occupations:   s ( 2 )  p ( 2 )
S pseudo-atom occupations:   s ( 2 )  p ( 4 )
Na pseudo-atom occupations:   s ( 2 1 )  p ( 6 )
	FillingsUpdate:  mu: -0.262115303  nElectrons: 312.000000
LCAOMinimize: Iter:   0  F: -512.6483159779429570  |grad|_K:  5.278e-03  alpha:  1.000e+00
LCAOMinimize: 	Step increased F by 3.643363e-01, reducing alpha to 4.155677e-02.
	FillingsUpdate:  mu: -0.275562184  nElectrons: 312.000000
LCAOMinimize: Iter:   1  F: -512.6946077720488120  |grad|_K:  9.743e-04  alpha:  4.156e-02  linmin:  1.220e-01  cgtest: -5.772e-01  t[s]:     50.61
LCAOMinimize: 	Predicted alpha/alphaT>3.000000, increasing alphaT to 1.246703e-01.
	FillingsUpdate:  mu: -0.268496544  nElectrons: 312.000000
LCAOMinimize: Iter:   2  F: -512.7022200878429885  |grad|_K:  1.125e-03  alpha:  2.911e-01  linmin:  6.261e-04  cgtest:  6.436e-01  t[s]:     68.03
	FillingsUpdate:  mu: -0.282720045  nElectrons: 312.000000
LCAOMinimize: Iter:   3  F: -512.7048775924605479  |grad|_K:  4.068e-04  alpha:  4.170e-02  linmin: -4.783e-02  cgtest:  2.175e-01  t[s]:     82.13
LCAOMinimize: 	Predicted alpha/alphaT>3.000000, increasing alphaT to 1.250980e-01.
	FillingsUpdate:  mu: -0.282670339  nElectrons: 312.000000
LCAOMinimize: Iter:   4  F: -512.7073271071011504  |grad|_K:  2.117e-04  alpha:  3.118e-01  linmin:  2.641e-04  cgtest: -1.295e-01  t[s]:     99.68
	FillingsUpdate:  mu: -0.284875642  nElectrons: 312.000000
LCAOMinimize: Iter:   5  F: -512.7080253416479536  |grad|_K:  3.241e-04  alpha:  3.412e-01  linmin:  8.668e-04  cgtest:  1.558e-02  t[s]:    113.78
	FillingsUpdate:  mu: -0.283496621  nElectrons: 312.000000
LCAOMinimize: Iter:   6  F: -512.7082686564535834  |grad|_K:  4.432e-05  alpha:  5.377e-02  linmin:  1.655e-02  cgtest:  2.372e-01  t[s]:    127.90
LCAOMinimize: Encountered beta<0, resetting CG.
LCAOMinimize: 	Predicted alpha/alphaT>3.000000, increasing alphaT to 1.613127e-01.
	FillingsUpdate:  mu: -0.283237835  nElectrons: 312.000000
LCAOMinimize: Iter:   7  F: -512.7083040234493865  |grad|_K:  4.477e-05  alpha:  3.919e-01  linmin: -2.772e-04  cgtest:  1.012e-03  t[s]:    145.59
	FillingsUpdate:  mu: -0.283626660  nElectrons: 312.000000
LCAOMinimize: Iter:   8  F: -512.7083094699679577  |grad|_K:  2.629e-05  alpha:  5.888e-02  linmin: -9.732e-04  cgtest:  3.891e-03  t[s]:    159.68
LCAOMinimize: 	Predicted alpha/alphaT>3.000000, increasing alphaT to 1.766305e-01.
	FillingsUpdate:  mu: -0.283582341  nElectrons: 312.000000
LCAOMinimize: Iter:   9  F: -512.7083167105045050  |grad|_K:  3.803e-06  alpha:  2.274e-01  linmin: -2.663e-04  cgtest: -4.117e-02  t[s]:    177.37
	FillingsUpdate:  mu: -0.283611435  nElectrons: 312.000000
LCAOMinimize: Iter:  10  F: -512.7083170636548175  |grad|_K:  3.100e-06  alpha:  5.319e-01  linmin:  7.763e-05  cgtest: -6.823e-04  t[s]:    191.53
	FillingsUpdate:  mu: -0.283586561  nElectrons: 312.000000
LCAOMinimize: Iter:  11  F: -512.7083170895126614  |grad|_K:  1.982e-06  alpha:  5.868e-02  linmin:  1.375e-04  cgtest: -5.489e-04  t[s]:    205.69
LCAOMinimize: Converged (|Delta F|<1.000000e-06 for 2 iters).


---- Citations for features of the code used in this run ----

   Software package:
      R. Sundararaman, K. Letchworth-Weaver, K.A. Schwarz, D. Gunceler, Y. Ozhabes and T.A. Arias, 'JDFTx: software for joint density-functional theory', SoftwareX 6, 278 (2017)

   gga-PBE exchange-correlation functional:
      J.P. Perdew, K. Burke and M. Ernzerhof, Phys. Rev. Lett. 77, 3865 (1996)

   Pseudopotentials:
      KF Garrity, JW Bennett, KM Rabe and D Vanderbilt, Comput. Mater. Sci. 81, 446 (2014)

   Truncated Coulomb potentials:
      R. Sundararaman and T.A. Arias, Phys. Rev. B 87, 165122 (2013)

   DFT-D3 dispersion correction:
      S. Grimme, J. Antony, S. Ehrlich and H. Krieg, J. Chem. Phys. 132, 154104 (2010)

This list may not be complete. Please suggest additional citations or
report any other bugs at https://github.com/shankar1729/jdftx/issues

Initialization completed successfully at t[s]:    212.04


Computing DFT-D3 correction:
# coordination-number C 3.301 3.301 3.302 3.301 3.301 3.301 3.301 3.301 3.391 3.301 3.301 3.324 3.301 3.301 3.456 3.301 3.314 3.302 3.301 3.315 3.356 3.301 3.302 3.976 3.301 3.302 3.301 3.320 3.330 3.301 3.301 3.934 3.307 3.301 3.330 3.308 3.301 3.301 3.301 3.301 3.305 3.301 3.301 3.308 3.301 3.301 3.378 3.301 3.301 3.580 3.301 3.301 3.301 3.302 3.445 3.304 3.301 3.308 3.642 3.302 3.301 3.301 3.635 3.304 3.301 3.306 3.301 3.301 3.707 3.306 3.301 3.372
# coordination-number S 1.980
# coordination-number Na 3.029 2.903
# diagonal-C6 C 24.28 24.28 24.27 24.27 24.27 24.27 24.27 24.28 23.22 24.27 24.27 24.04 24.27 24.27 22.29 24.28 24.15 24.26 24.27 24.13 23.67 24.27 24.27 18.35 24.27 24.26 24.28 24.08 23.97 24.27 24.28 18.41 24.21 24.28 23.98 24.20 24.28 24.27 24.28 24.27 24.23 24.28 24.27 24.21 24.28 24.27 23.40 24.28 24.27 20.52 24.28 24.27 24.27 24.26 22.47 24.24 24.28 24.20 19.81 24.26 24.27 24.27 19.89 24.24 24.27 24.23 24.28 24.27 19.26 24.22 24.27 23.47
# diagonal-C6 S 125.91
# diagonal-C6 Na 186.11 186.11
EvdW_6 =   -0.057377
EvdW_8 =   -0.048979

-------- Electronic minimization -----------
Will mix electronic density at each iteration.
	FillingsUpdate:  mu: -0.283586561  nElectrons: 312.000000
	FillingsUpdate:  mu: -0.291236838  nElectrons: 312.000000
SCF: Cycle:  0   F: -516.124996884247253   dF: -3.417e+00   |Residual|: 9.416e-01   |deigs|: 1.235e-01  t[s]:    266.64
	FillingsUpdate:  mu: -0.264569035  nElectrons: 312.000000
SCF: Cycle:  1   F: -516.548514719745867   dF: -4.235e-01   |Residual|: 4.931e-01   |deigs|: 3.669e-02  t[s]:    312.76
	FillingsUpdate:  mu: -0.229808804  nElectrons: 312.000000
SCF: Cycle:  2   F: -516.792198836542752   dF: -2.437e-01   |Residual|: 1.886e-01   |deigs|: 2.991e-02  t[s]:    358.94
	FillingsUpdate:  mu: -0.224282705  nElectrons: 312.000000
SCF: Cycle:  3   F: -516.863324858452643   dF: -7.113e-02   |Residual|: 9.953e-02   |deigs|: 1.137e-02  t[s]:    405.04
	FillingsUpdate:  mu: -0.214930900  nElectrons: 312.000000
SCF: Cycle:  4   F: -516.943946114277310   dF: -8.062e-02   |Residual|: 6.901e-02   |deigs|: 6.975e-03  t[s]:    451.18
	FillingsUpdate:  mu: -0.206352348  nElectrons: 312.000000
SCF: Cycle:  5   F: -516.948213451362221   dF: -4.267e-03   |Residual|: 3.201e-02   |deigs|: 9.405e-03  t[s]:    497.20
	FillingsUpdate:  mu: -0.196486592  nElectrons: 312.000000
SCF: Cycle:  6   F: -516.963129787066350   dF: -1.492e-02   |Residual|: 1.759e-02   |deigs|: 8.540e-03  t[s]:    540.91
	FillingsUpdate:  mu: -0.191958457  nElectrons: 312.000000
SCF: Cycle:  7   F: -516.963771630163933   dF: -6.418e-04   |Residual|: 1.643e-02   |deigs|: 5.023e-03  t[s]:    584.61
	FillingsUpdate:  mu: -0.187826138  nElectrons: 312.000000
SCF: Cycle:  8   F: -516.966816032547513   dF: -3.044e-03   |Residual|: 1.248e-02   |deigs|: 3.634e-03  t[s]:    625.57
	FillingsUpdate:  mu: -0.185506643  nElectrons: 312.000000
SCF: Cycle:  9   F: -516.965820146925125   dF: +9.959e-04   |Residual|: 1.053e-02   |deigs|: 2.619e-03  t[s]:    669.33
	FillingsUpdate:  mu: -0.180633878  nElectrons: 312.000000
SCF: Cycle: 10   F: -516.963701361296557   dF: +2.119e-03   |Residual|: 2.249e-02   |deigs|: 3.510e-03  t[s]:    709.85
	FillingsUpdate:  mu: -0.180759276  nElectrons: 312.000000
SCF: Cycle: 11   F: -516.968907893627261   dF: -5.207e-03   |Residual|: 6.006e-03   |deigs|: 8.054e-04  t[s]:    753.60
	FillingsUpdate:  mu: -0.178320557  nElectrons: 312.000000
SCF: Cycle: 12   F: -516.968100945029505   dF: +8.069e-04   |Residual|: 1.116e-02   |deigs|: 1.769e-03  t[s]:    792.62
	FillingsUpdate:  mu: -0.175104005  nElectrons: 312.000000
SCF: Cycle: 13   F: -516.968785407687392   dF: -6.845e-04   |Residual|: 7.429e-03   |deigs|: 3.000e-03  t[s]:    832.05
	FillingsUpdate:  mu: -0.171529554  nElectrons: 312.000000
SCF: Cycle: 14   F: -516.969279656764570   dF: -4.942e-04   |Residual|: 3.376e-03   |deigs|: 3.989e-03  t[s]:    871.03
	FillingsUpdate:  mu: -0.169413704  nElectrons: 312.000000
SCF: Cycle: 15   F: -516.969324861380642   dF: -4.520e-05   |Residual|: 2.506e-03   |deigs|: 2.171e-03  t[s]:    909.24
	FillingsUpdate:  mu: -0.167023950  nElectrons: 312.000000
SCF: Cycle: 16   F: -516.969351464838724   dF: -2.660e-05   |Residual|: 1.972e-03   |deigs|: 2.344e-03  t[s]:    947.46
	FillingsUpdate:  mu: -0.164891365  nElectrons: 312.000000
SCF: Cycle: 17   F: -516.969425390096603   dF: -7.393e-05   |Residual|: 1.443e-03   |deigs|: 2.226e-03  t[s]:    985.63
	FillingsUpdate:  mu: -0.164087252  nElectrons: 312.000000
SCF: Cycle: 18   F: -516.969441540049957   dF: -1.615e-05   |Residual|: 1.386e-03   |deigs|: 8.708e-04  t[s]:   1023.77
	FillingsUpdate:  mu: -0.163063878  nElectrons: 312.000000
SCF: Cycle: 19   F: -516.969491327094943   dF: -4.979e-05   |Residual|: 1.143e-03   |deigs|: 1.235e-03  t[s]:   1062.70
	FillingsUpdate:  mu: -0.161999247  nElectrons: 312.000000
SCF: Cycle: 20   F: -516.969501406792006   dF: -1.008e-05   |Residual|: 9.774e-04   |deigs|: 1.246e-03  t[s]:   1100.81
	FillingsUpdate:  mu: -0.161315360  nElectrons: 312.000000
SCF: Cycle: 21   F: -516.969505135992904   dF: -3.729e-06   |Residual|: 5.862e-04   |deigs|: 1.487e-03  t[s]:   1139.74
	FillingsUpdate:  mu: -0.161001351  nElectrons: 312.000000
SCF: Cycle: 22   F: -516.969505453745569   dF: -3.178e-07   |Residual|: 4.547e-04   |deigs|: 8.723e-04  t[s]:   1178.69
	FillingsUpdate:  mu: -0.160874975  nElectrons: 312.000000
SCF: Cycle: 23   F: -516.969507547059607   dF: -2.093e-06   |Residual|: 3.146e-04   |deigs|: 6.088e-04  t[s]:   1217.66
	FillingsUpdate:  mu: -0.160829087  nElectrons: 312.000000
SCF: Cycle: 24   F: -516.969508466832735   dF: -9.198e-07   |Residual|: 2.511e-04   |deigs|: 3.156e-04  t[s]:   1256.65
	FillingsUpdate:  mu: -0.160788919  nElectrons: 312.000000
SCF: Cycle: 25   F: -516.969508856202765   dF: -3.894e-07   |Residual|: 1.802e-04   |deigs|: 2.472e-04  t[s]:   1295.43
	FillingsUpdate:  mu: -0.160677535  nElectrons: 312.000000
SCF: Cycle: 26   F: -516.969508973722213   dF: -1.175e-07   |Residual|: 1.130e-04   |deigs|: 3.201e-04  t[s]:   1334.41
	FillingsUpdate:  mu: -0.160560175  nElectrons: 312.000000
SCF: Cycle: 27   F: -516.969509132271128   dF: -1.585e-07   |Residual|: 9.196e-05   |deigs|: 4.227e-04  t[s]:   1373.37
	FillingsUpdate:  mu: -0.160515037  nElectrons: 312.000000
SCF: Cycle: 28   F: -516.969509184856975   dF: -5.259e-08   |Residual|: 6.427e-05   |deigs|: 2.763e-04  t[s]:   1412.38
	FillingsUpdate:  mu: -0.160505033  nElectrons: 312.000000
SCF: Cycle: 29   F: -516.969509251031923   dF: -6.617e-08   |Residual|: 4.140e-05   |deigs|: 4.247e-04  t[s]:   1451.20
	FillingsUpdate:  mu: -0.160511784  nElectrons: 312.000000
SCF: Cycle: 30   F: -516.969509257073355   dF: -6.041e-09   |Residual|: 2.981e-05   |deigs|: 1.240e-04  t[s]:   1489.36
	FillingsUpdate:  mu: -0.160504765  nElectrons: 312.000000
SCF: Cycle: 31   F: -516.969509258680318   dF: -1.607e-09   |Residual|: 1.878e-05   |deigs|: 1.807e-04  t[s]:   1528.36
SCF: Converged (|Delta E|<1.000000e-08 for 2 iters).

Setting wave functions to eigenvectors of Hamiltonian

Computing DFT-D3 correction:
# coordination-number C 3.301 3.301 3.302 3.301 3.301 3.301 3.301 3.301 3.391 3.301 3.301 3.324 3.301 3.301 3.456 3.301 3.314 3.302 3.301 3.315 3.356 3.301 3.302 3.976 3.301 3.302 3.301 3.320 3.330 3.301 3.301 3.934 3.307 3.301 3.330 3.308 3.301 3.301 3.301 3.301 3.305 3.301 3.301 3.308 3.301 3.301 3.378 3.301 3.301 3.580 3.301 3.301 3.301 3.302 3.445 3.304 3.301 3.308 3.642 3.302 3.301 3.301 3.635 3.304 3.301 3.306 3.301 3.301 3.707 3.306 3.301 3.372
# coordination-number S 1.980
# coordination-number Na 3.029 2.903
# diagonal-C6 C 24.28 24.28 24.27 24.27 24.27 24.27 24.27 24.28 23.22 24.27 24.27 24.04 24.27 24.27 22.29 24.28 24.15 24.26 24.27 24.13 23.67 24.27 24.27 18.35 24.27 24.26 24.28 24.08 23.97 24.27 24.28 18.41 24.21 24.28 23.98 24.20 24.28 24.27 24.28 24.27 24.23 24.28 24.27 24.21 24.28 24.27 23.40 24.28 24.27 20.52 24.28 24.27 24.27 24.26 22.47 24.24 24.28 24.20 19.81 24.26 24.27 24.27 19.89 24.24 24.27 24.23 24.28 24.27 19.26 24.22 24.27 23.47
# diagonal-C6 S 125.91
# diagonal-C6 Na 186.11 186.11
EvdW_6 =   -0.057377
EvdW_8 =   -0.048979

# Ionic positions in cartesian coordinates:
ion C  28.014162925916441   0.004453384674690  23.488700336250716 1
ion C  16.346425888740537  20.217875004139898  23.494441368511783 1
ion C   2.341491267388133   4.043706087769919  23.494288650092468 1
ion C  23.346676486641854   0.004384458899791  23.483901318126694 1
ion C   4.676245474304146   0.003825684533332  23.487138916511071 1
ion C  11.677668704867260  20.219126759791724  23.483004299183591 1
ion C  25.678811057378855   4.044276294935732  23.499408675705300 1
ion C  18.680488284317882  16.174907144025568  23.511821298159187 1
ion C   4.677492135958810   8.082325094833877  23.480434218273459 1
ion C  18.679382389646399   0.004419539788082  23.483426455373358 1
ion C   9.343823638707175   0.003953947274407  23.485047852861264 1
ion C   9.343132606087327  16.180035273305720  23.462238808629923 1
ion C  23.345124811792473   8.086659640014878  23.516110558754391 1
ion C  21.013103120380649  12.130537488137513  23.522228736787792 1
ion C   7.010396563482270  12.130147336608232  23.448669631144288 1
ion C  14.011721669833374   0.004487328277764  23.486992976749193 1
ion C  14.013558296018106  16.179574426149870  23.498757826101649 1
ion C   7.009818515150769   4.042499155409574  23.483844483499080 1
ion C  21.013258005010439   4.045063281439558  23.499911963395391 1
ion C  16.350423015839485  12.130599170600259  23.518035179028320 1
ion C   9.342281602294870   8.081813368171400  23.475546112810431 1
ion C  16.347062351595820   4.043993563439029  23.499817348777334 1
ion C  11.678225160842871   4.043864528802732  23.491257888877005 1
ion C  11.678772579836281  12.132656534902800  23.479943835860723 1
ion C  18.681222676379658   8.086169753017820  23.517364251816780 1
ion C   7.009916898374378  20.219343866477669  23.472579061328812 1
ion C  -6.992609659547584  20.216547172333016  23.496399385793953 1
ion C   0.003266530903848   8.083516107494180  23.512278174675206 1
ion C  14.015955885954099   8.083119896903865  23.508223950230427 1
ion C   2.342093071666019  20.219019570074142  23.480326146245698 1
ion C  -4.659880863172909  16.174560757149859  23.510300320021678 1
ion C   2.339186588937720  12.132995157544903  23.489299233363806 1
ion C  -2.329954496254302  12.131009916067642  23.516589949079659 1
ion C  -2.326304055174534  20.217696998809750  23.491504033873877 1
ion C   4.676726791076918  16.180841540819191  23.466168264274856 1
ion C   0.006137637165399  16.178703673620589  23.495659639727563 1
ion C  14.012348709644570  21.564438777735628  23.489604884116638 1
ion C   2.342824768057115   1.350062948308334  23.489941598843274 1
ion C  25.680516519737949   1.350702761820675  23.488903069804863 1
ion C  16.348003904104942  17.524448264432507  23.502678071625702 1
ion C   4.676210764116784   5.387823892778022  23.487264968155824 1
ion C  21.013008310099927   1.350663380772684  23.487704732809103 1
ion C   7.009950811972321   1.349259225414340  23.484223002515041 1
ion C  11.677762640953041  17.525450596518706  23.480362871851007 1
ion C  23.346324894239519   5.392231680162620  23.505102574666331 1
ion C  18.681997813576384  13.480334719088798  23.519483950082130 1
ion C   7.010361707405791   9.432882251512829  23.458902066493309 1
ion C  16.345682566415046   1.350653197918856  23.488395943382983 1
ion C  11.677343100946770   1.350076750284254  23.487853421160832 1
ion C   9.341532935239169  13.484022034967618  23.456042416622726 1
ion C  21.013053215586027   9.435742751134141  23.521852547273895 1
ion C   9.343921412688335  21.564967661889821  23.477772535012715 1
ion C  -9.325533050580070  21.563719294268758  23.490997739711112 1
ion C   0.006621766066881   5.389878389931321  23.504040826675343 1
ion C  14.017461384638807  13.483496515252021  23.507386649611831 1
ion C   9.343663251770447   5.388443811910577  23.484361305393769 1
ion C  18.680116870408927   5.391612106124537  23.506293009054612 1
ion C  16.349307086552550   9.434553397568573  23.516260415420753 1
ion C  11.678730991940606   9.429609444088063  23.492142348590626 1
ion C  14.013221041087661   5.389351834858124  23.501819267339133 1
ion C   4.676087364948579  21.564740743826302  23.475841543189748 1
ion C  -6.992581671971104  17.522334606507364  23.508981806064543 1
ion C   2.340099012219734   9.430388049872771  23.500315667712528 1
ion C  -2.329065275086099   9.435064464295710  23.516027596967280 1
ion C  -4.659725635779632  21.563781912962209  23.489331157040134 1
ion C   7.009941513485121  17.526875139515802  23.463681891904692 1
ion C   0.007471279885106  21.564584663929224  23.486805220524936 1
ion C  -4.661048587855587  13.480345295815439  23.517705640484358 1
ion C   4.678420581440577  13.483969691801144  23.461191111877959 1
ion C   2.341877433067657  17.525550844977925  23.479816581548118 1
ion C  -2.327622151484986  17.523857084604192  23.499038527601275 1
ion C   0.001623704991355  13.483660458022491  23.506902314285373 1
ion S   7.340965348298487  11.786218808348673  31.474376075483118 1
ion Na   3.511478615926023  11.652908876786041  28.565832651122516 1
ion Na  11.216418298394242  11.742143755213936  28.618760848083024 1

# Forces in Cartesian coordinates:
force C  -0.000018126655245  -0.000068748102393   0.000067003508873 1
force C  -0.000032842852390   0.000233237219731  -0.000036545181001 1
force C   0.000072420757162  -0.000159952973306   0.000005646827847 1
force C   0.000015862972507   0.000202482237164  -0.000013403949030 1
force C   0.000043414406125  -0.000067539524071  -0.000049456072697 1
force C   0.000047331200389   0.000065943287627  -0.000016554622347 1
force C   0.000082543565401   0.000009756612059  -0.000017041473163 1
force C   0.000038487121544   0.000079929978628   0.000052172905579 1
force C   0.000083967865155  -0.000145090048597  -0.000154429931427 1
force C   0.000031274489027   0.000139844098503  -0.000048492700365 1
force C   0.000003502814737  -0.000118311236949   0.000039917218449 1
force C  -0.000022603624665  -0.000149594400677   0.000198249023827 1
force C  -0.000124202777512   0.000028220267193   0.000056618671899 1
force C   0.000093785187096  -0.000080547980905  -0.000011913939848 1
force C   0.000228894531445   0.000207122265388  -0.000565070677032 1
force C  -0.000007615089096  -0.000041262230648   0.000033900208201 1
force C   0.000065346382712  -0.000102924625052   0.000055254354888 1
force C   0.000064906176742  -0.000120465764130  -0.000088118681285 1
force C  -0.000032378671465  -0.000041191162475  -0.000027017686636 1
force C   0.000075041844829   0.000008783825138   0.000183270069131 1
force C  -0.000000577569527   0.000074334279121  -0.000017440413533 1
force C   0.000040989206085   0.000011853019909  -0.000071520439661 1
force C  -0.000012746462802  -0.000224768252963   0.000034697429051 1
force C   0.000238614746371   0.000027333940472  -0.000107160484813 1
force C   0.000130914376865   0.000047950186240   0.000035685159363 1
force C   0.000040496791840   0.000191252825096  -0.000183385162294 1
force C  -0.000048847747635   0.000183832338050  -0.000079211664286 1
force C  -0.000039764982805   0.000166749446307  -0.000004074932181 1
force C   0.000051209927919   0.000148095748995  -0.000016151393527 1
force C   0.000003576203285   0.000098344475834   0.000029715343884 1
force C  -0.000073768584444   0.000133205134177  -0.000031506609894 1
force C  -0.000255231635711   0.000088788578379  -0.000200558255371 1
force C   0.000086703834549  -0.000062104557106   0.000104886298716 1
force C   0.000101524496459   0.000194302804660  -0.000051478884391 1
force C  -0.000013015937386   0.000015085931529  -0.000007668837348 1
force C   0.000018166898248  -0.000113182759448   0.000071605030230 1
force C  -0.000010981649354  -0.000009712777514  -0.000124897095017 1
force C  -0.000128006931123  -0.000000908155899   0.000023693201406 1
force C  -0.000107216577569  -0.000191294358430   0.000122985164434 1
force C  -0.000061995784205  -0.000079289645153   0.000137274262963 1
force C   0.000008553225748   0.000111521046441   0.000095883247351 1
force C   0.000024717204926   0.000057624233175   0.000032399248226 1
force C   0.000030469515979   0.000083864087936   0.000104967808943 1
force C   0.000067851162617   0.000099464237681   0.000017517128811 1
force C  -0.000133766720986  -0.000045555621687   0.000104051906303 1
force C  -0.000015797893644  -0.000031363973218   0.000141617999400 1
force C   0.000109847973082  -0.000215118010230  -0.000102932074209 1
force C  -0.000037850666366  -0.000204236771346   0.000136648969433 1
force C   0.000074523653830   0.000056070029873  -0.000017522034715 1
force C  -0.000432025676647   0.000416855027761  -0.000585516341736 1
force C   0.000002274894858   0.000076414153182  -0.000172713108035 1
force C   0.000047775066654  -0.000021240719770   0.000027490733420 1
force C  -0.000220806341393  -0.000061158499380   0.000162879156543 1
force C   0.000044497850443  -0.000090690051639  -0.000052925616696 1
force C   0.000296702429736   0.000076033078424  -0.000585512005466 1
force C  -0.000065684226549  -0.000005559963955  -0.000008266592000 1
force C   0.000001439934806   0.000082014802159   0.000038522408298 1
force C  -0.000098363699185  -0.000035100347954   0.000122091572038 1
force C   0.000052778618170  -0.000341657142310  -0.000636169703115 1
force C  -0.000095929008156  -0.000101072175096   0.000000419451441 1
force C  -0.000093924208358   0.000060970870901   0.000165054634393 1
force C  -0.000008584037481  -0.000080345072730  -0.000209104235158 1
force C  -0.000223424159545  -0.000304024739982  -0.000577103542452 1
force C   0.000159288463906   0.000035219245041   0.000169185667459 1
force C   0.000143672820764  -0.000051114980807   0.000147722908485 1
force C   0.000023056119009  -0.000231319610599   0.000071146307271 1
force C   0.000035245762184  -0.000093858278409  -0.000152352713431 1
force C  -0.000166061832507  -0.000112050626804   0.000129214910230 1
force C   0.000045903493874   0.000354888436593  -0.000472340448217 1
force C  -0.000099006125678  -0.000057484350479   0.000048681237273 1
force C   0.000029503373625   0.000066709480840   0.000165632789382 1
force C  -0.000166887699661   0.000015289468745  -0.000268619561806 1
force S   0.000192505842546  -0.000090011971441  -0.000736704703271 1
force Na  -0.000761429199390   0.000004036028665   0.001129542246615 1
force Na   0.000567793180909   0.000004905220472   0.001166830351132 1

# Energy components:
   Eewald =    -1092.5375164450520060
       EH =     -700.5029781351474867
     Eloc =     1247.7776158915326050
      Enl =      -83.7800972487753199
     EvdW =       -0.1063565115612770
      Exc =     -149.3073018214092542
 Exc_core =        4.1923995665807468
       KE =      257.3704700531004050
-------------------------------------
     Etot =     -516.8937646507315549
       TS =        0.0757446079487806
-------------------------------------
        F =     -516.9695092586803185

IonicMinimize: Iter:   0  F: -516.969509258680318  |grad|_K:  2.009e-04  alpha:  1.000e+00

#--- Lowdin population analysis ---
# oxidation-state C +0.041 +0.040 +0.039 +0.041 +0.042 +0.040 +0.040 +0.039 +0.022 +0.041 +0.042 +0.034 +0.038 +0.039 +0.020 +0.041 +0.030 +0.041 +0.040 +0.027 +0.027 +0.040 +0.039 -0.020 +0.037 +0.042 +0.041 +0.028 +0.025 +0.040 +0.040 -0.018 +0.031 +0.040 +0.032 +0.032 +0.041 +0.041 +0.041 +0.037 +0.038 +0.042 +0.042 +0.034 +0.040 +0.036 +0.025 +0.041 +0.041 +0.012 +0.039 +0.042 +0.041 +0.037 +0.010 +0.039 +0.040 +0.030 +0.001 +0.037 +0.042 +0.040 +0.000 +0.033 +0.041 +0.040 +0.041 +0.038 +0.003 +0.035 +0.038 +0.018
# oxidation-state S -0.892
# oxidation-state Na +0.791 +0.791


Computing DFT-D3 correction:
# coordination-number C 3.301 3.301 3.302 3.301 3.301 3.301 3.301 3.301 3.391 3.301 3.301 3.324 3.301 3.301 3.456 3.301 3.314 3.302 3.301 3.315 3.356 3.301 3.302 3.975 3.301 3.302 3.301 3.320 3.330 3.301 3.301 3.933 3.307 3.301 3.330 3.308 3.301 3.301 3.301 3.301 3.305 3.301 3.301 3.308 3.300 3.302 3.377 3.301 3.301 3.579 3.301 3.301 3.301 3.302 3.444 3.304 3.300 3.308 3.641 3.302 3.301 3.301 3.634 3.304 3.301 3.306 3.301 3.301 3.706 3.306 3.301 3.372
# coordination-number S 1.980
# coordination-number Na 3.024 2.899
# diagonal-C6 C 24.27 24.28 24.27 24.27 24.27 24.27 24.27 24.28 23.23 24.27 24.27 24.04 24.27 24.27 22.30 24.28 24.15 24.26 24.27 24.13 23.67 24.27 24.27 18.35 24.27 24.26 24.28 24.08 23.97 24.27 24.28 18.41 24.21 24.28 23.98 24.20 24.28 24.27 24.28 24.27 24.23 24.28 24.27 24.21 24.28 24.27 23.41 24.28 24.27 20.53 24.28 24.27 24.27 24.26 22.48 24.24 24.28 24.20 19.83 24.26 24.27 24.27 19.90 24.24 24.27 24.23 24.28 24.27 19.27 24.22 24.27 23.47
# diagonal-C6 S 125.91
# diagonal-C6 Na 186.11 186.11
EvdW_6 =   -0.057380
EvdW_8 =   -0.048983

-------- Electronic minimization -----------
Will mix electronic density at each iteration.
	FillingsUpdate:  mu: -0.160504765  nElectrons: 312.000000
	FillingsUpdate:  mu: -0.160468500  nElectrons: 312.000000
SCF: Cycle:  0   F: -516.969514290519669   dF: +1.989e-06   |Residual|: 6.323e-04   |deigs|: 7.335e-06  t[s]:   1588.33
	FillingsUpdate:  mu: -0.160440716  nElectrons: 312.000000
SCF: Cycle:  1   F: -516.969513157828487   dF: +1.133e-06   |Residual|: 6.218e-04   |deigs|: 2.233e-05  t[s]:   1616.06
	FillingsUpdate:  mu: -0.160460474  nElectrons: 312.000000
SCF: Cycle:  2   F: -516.969517085498410   dF: -3.928e-06   |Residual|: 1.545e-04   |deigs|: 1.384e-05  t[s]:   1643.82
	FillingsUpdate:  mu: -0.160459185  nElectrons: 312.000000
SCF: Cycle:  3   F: -516.969517269301036   dF: -1.838e-07   |Residual|: 5.236e-05   |deigs|: 1.074e-05  t[s]:   1671.57
	FillingsUpdate:  mu: -0.160460216  nElectrons: 312.000000
SCF: Cycle:  4   F: -516.969517282163224   dF: -1.286e-08   |Residual|: 1.987e-05   |deigs|: 1.573e-05  t[s]:   1699.34
	FillingsUpdate:  mu: -0.160461625  nElectrons: 312.000000
SCF: Cycle:  5   F: -516.969517285006418   dF: -2.843e-09   |Residual|: 1.153e-05   |deigs|: 2.375e-05  t[s]:   1727.11
	FillingsUpdate:  mu: -0.160462719  nElectrons: 312.000000
SCF: Cycle:  6   F: -516.969517286635778   dF: -1.629e-09   |Residual|: 7.215e-06   |deigs|: 2.256e-05  t[s]:   1754.90
SCF: Converged (|Delta E|<1.000000e-08 for 2 iters).

Setting wave functions to eigenvectors of Hamiltonian
IonicMinimize: 	Predicted alpha/alphaT>3.000000, increasing alphaT to 3.000000e+00.

Computing DFT-D3 correction:
# coordination-number C 3.301 3.301 3.302 3.301 3.301 3.301 3.301 3.300 3.390 3.301 3.301 3.324 3.301 3.301 3.455 3.301 3.314 3.302 3.301 3.315 3.356 3.301 3.302 3.973 3.301 3.302 3.301 3.320 3.330 3.301 3.300 3.931 3.307 3.301 3.330 3.308 3.301 3.301 3.301 3.302 3.305 3.301 3.301 3.308 3.300 3.302 3.377 3.301 3.301 3.577 3.301 3.301 3.301 3.302 3.443 3.304 3.300 3.308 3.639 3.303 3.301 3.301 3.632 3.304 3.301 3.306 3.301 3.301 3.703 3.307 3.301 3.372
# coordination-number S 1.980
# coordination-number Na 3.015 2.891
# diagonal-C6 C 24.27 24.27 24.27 24.27 24.27 24.27 24.27 24.28 23.24 24.27 24.27 24.04 24.27 24.27 22.32 24.27 24.15 24.26 24.27 24.13 23.68 24.27 24.27 18.35 24.27 24.27 24.28 24.08 23.97 24.27 24.28 18.41 24.21 24.28 23.98 24.20 24.27 24.27 24.27 24.27 24.23 24.28 24.27 24.21 24.28 24.27 23.42 24.27 24.27 20.56 24.28 24.27 24.27 24.26 22.49 24.24 24.28 24.20 19.85 24.26 24.27 24.27 19.92 24.24 24.27 24.23 24.27 24.27 19.29 24.22 24.27 23.48
# diagonal-C6 S 125.91
# diagonal-C6 Na 186.11 186.11
EvdW_6 =   -0.057387
EvdW_8 =   -0.048991

-------- Electronic minimization -----------
Will mix electronic density at each iteration.
	FillingsUpdate:  mu: -0.160462719  nElectrons: 312.000000
	FillingsUpdate:  mu: -0.160436064  nElectrons: 312.000000
SCF: Cycle:  0   F: -516.969523328182618   dF: -3.221e-07   |Residual|: 1.016e-03   |deigs|: 3.186e-07  t[s]:   1804.80
	FillingsUpdate:  mu: -0.160415926  nElectrons: 312.000000
SCF: Cycle:  1   F: -516.969524270330453   dF: -9.421e-07   |Residual|: 5.506e-04   |deigs|: 1.864e-05  t[s]:   1832.54
	FillingsUpdate:  mu: -0.160438298  nElectrons: 312.000000
SCF: Cycle:  2   F: -516.969525431493139   dF: -1.161e-06   |Residual|: 3.917e-04   |deigs|: 1.713e-05  t[s]:   1860.29
	FillingsUpdate:  mu: -0.160429069  nElectrons: 312.000000
SCF: Cycle:  3   F: -516.969526933661086   dF: -1.502e-06   |Residual|: 1.075e-04   |deigs|: 1.484e-05  t[s]:   1888.05
	FillingsUpdate:  mu: -0.160430982  nElectrons: 312.000000
SCF: Cycle:  4   F: -516.969526972996732   dF: -3.934e-08   |Residual|: 3.591e-05   |deigs|: 2.378e-05  t[s]:   1915.81
	FillingsUpdate:  mu: -0.160432382  nElectrons: 312.000000
SCF: Cycle:  5   F: -516.969526978510089   dF: -5.513e-09   |Residual|: 2.293e-05   |deigs|: 2.244e-05  t[s]:   1943.57
	FillingsUpdate:  mu: -0.160434282  nElectrons: 312.000000
SCF: Cycle:  6   F: -516.969526981279046   dF: -2.769e-09   |Residual|: 1.092e-05   |deigs|: 3.566e-05  t[s]:   1981.64
SCF: Converged (|Delta E|<1.000000e-08 for 2 iters).

Setting wave functions to eigenvectors of Hamiltonian

Computing DFT-D3 correction:
# coordination-number C 3.301 3.301 3.302 3.301 3.301 3.301 3.301 3.300 3.390 3.301 3.301 3.324 3.301 3.301 3.454 3.301 3.313 3.302 3.301 3.315 3.356 3.301 3.302 3.972 3.301 3.302 3.301 3.320 3.330 3.301 3.300 3.930 3.307 3.301 3.329 3.308 3.301 3.301 3.301 3.302 3.305 3.301 3.301 3.308 3.300 3.302 3.376 3.301 3.301 3.575 3.301 3.301 3.301 3.302 3.443 3.304 3.300 3.308 3.637 3.303 3.301 3.301 3.630 3.304 3.301 3.306 3.301 3.301 3.702 3.307 3.301 3.372
# coordination-number S 1.980
# coordination-number Na 3.010 2.885
# diagonal-C6 C 24.27 24.27 24.27 24.27 24.27 24.27 24.27 24.28 23.24 24.27 24.27 24.04 24.27 24.27 22.33 24.27 24.15 24.26 24.27 24.13 23.68 24.27 24.27 18.35 24.27 24.27 24.28 24.09 23.98 24.27 24.28 18.41 24.21 24.28 23.98 24.20 24.27 24.27 24.27 24.27 24.23 24.28 24.27 24.21 24.28 24.27 23.42 24.27 24.27 20.58 24.28 24.27 24.27 24.26 22.50 24.24 24.28 24.20 19.86 24.26 24.27 24.27 19.93 24.24 24.27 24.23 24.27 24.27 19.30 24.22 24.27 23.48
# diagonal-C6 S 125.91
# diagonal-C6 Na 186.11 186.11
EvdW_6 =   -0.057391
EvdW_8 =   -0.048996

-------- Electronic minimization -----------
Will mix electronic density at each iteration.
	FillingsUpdate:  mu: -0.160434282  nElectrons: 312.000000
	FillingsUpdate:  mu: -0.160429511  nElectrons: 312.000000
SCF: Cycle:  0   F: -516.969527377747227   dF: -2.808e-07   |Residual|: 6.456e-04   |deigs|: 2.600e-07  t[s]:   2031.55
	FillingsUpdate:  mu: -0.160418196  nElectrons: 312.000000
SCF: Cycle:  1   F: -516.969527862128530   dF: -4.844e-07   |Residual|: 3.255e-04   |deigs|: 1.071e-05  t[s]:   2059.30
	FillingsUpdate:  mu: -0.160431649  nElectrons: 312.000000
SCF: Cycle:  2   F: -516.969528089810865   dF: -2.277e-07   |Residual|: 2.530e-04   |deigs|: 1.050e-05  t[s]:   2087.06
	FillingsUpdate:  mu: -0.160425390  nElectrons: 312.000000
SCF: Cycle:  3   F: -516.969528727538091   dF: -6.377e-07   |Residual|: 6.965e-05   |deigs|: 8.728e-06  t[s]:   2114.80
	FillingsUpdate:  mu: -0.160426592  nElectrons: 312.000000
SCF: Cycle:  4   F: -516.969528743261890   dF: -1.572e-08   |Residual|: 2.250e-05   |deigs|: 1.400e-05  t[s]:   2142.56
	FillingsUpdate:  mu: -0.160427329  nElectrons: 312.000000
SCF: Cycle:  5   F: -516.969528745444109   dF: -2.182e-09   |Residual|: 1.471e-05   |deigs|: 1.219e-05  t[s]:   2170.34
	FillingsUpdate:  mu: -0.160428499  nElectrons: 312.000000
SCF: Cycle:  6   F: -516.969528746468654   dF: -1.025e-09   |Residual|: 6.808e-06   |deigs|: 2.200e-05  t[s]:   2208.43
SCF: Converged (|Delta E|<1.000000e-08 for 2 iters).

Setting wave functions to eigenvectors of Hamiltonian

Computing DFT-D3 correction:
# coordination-number C 3.301 3.301 3.302 3.301 3.301 3.301 3.301 3.300 3.390 3.301 3.301 3.324 3.301 3.301 3.454 3.301 3.313 3.302 3.301 3.315 3.356 3.301 3.302 3.972 3.301 3.302 3.301 3.320 3.330 3.301 3.300 3.930 3.307 3.301 3.329 3.308 3.301 3.301 3.301 3.302 3.305 3.301 3.301 3.308 3.300 3.302 3.376 3.301 3.301 3.575 3.301 3.301 3.301 3.302 3.443 3.304 3.300 3.308 3.637 3.303 3.301 3.301 3.630 3.304 3.301 3.306 3.301 3.301 3.702 3.307 3.301 3.372
# coordination-number S 1.980
# coordination-number Na 3.010 2.885
# diagonal-C6 C 24.27 24.27 24.27 24.27 24.27 24.27 24.27 24.28 23.24 24.27 24.27 24.04 24.27 24.27 22.33 24.27 24.15 24.26 24.27 24.13 23.68 24.27 24.27 18.35 24.27 24.27 24.28 24.09 23.98 24.27 24.28 18.41 24.21 24.28 23.98 24.20 24.27 24.27 24.27 24.27 24.23 24.28 24.27 24.21 24.28 24.27 23.42 24.27 24.27 20.58 24.28 24.27 24.27 24.26 22.50 24.24 24.28 24.20 19.86 24.26 24.27 24.27 19.93 24.24 24.27 24.23 24.27 24.27 19.30 24.22 24.27 23.48
# diagonal-C6 S 125.91
# diagonal-C6 Na 186.11 186.11
EvdW_6 =   -0.057391
EvdW_8 =   -0.048996

# Ionic positions in cartesian coordinates:
ion C  28.014084722284306   0.004158016721628  23.489048976825433 1
ion C  16.346284562509034  20.218874950344052  23.494345854771279 1
ion C   2.341801451325182   4.043019512192362  23.494374111725197 1
ion C  23.346744075678433   0.005252486890025  23.483905064724997 1
ion C   4.676431240481806   0.003535500569346  23.486988023718769 1
ion C  11.677871271461001  20.219409127415744  23.482994531509995 1
ion C  25.679164661362712   4.044317659467953  23.499396819768766 1
ion C  18.680652915754855  16.175249505157677  23.512106325409018 1
ion C   4.677851849231764   8.081702271218363  23.479833058148980 1
ion C  18.679516083735344   0.005018892243963  23.483279694801166 1
ion C   9.343838210970517   0.003445986770773  23.485280311446722 1
ion C   9.343035199264026  16.179393129045820  23.463150404292641 1
ion C  23.344591612858089   8.086780201223682  23.516414655355057 1
ion C  21.013504943369426  12.130191506632830  23.522238874524486 1
ion C   7.011377914791415  12.131035267202362  23.446307098090912 1
ion C  14.011688553758313   0.004309856249391  23.487199626402930 1
ion C  14.013838135641352  16.179132463874499  23.499056070698888 1
ion C   7.010096466586137   4.041981953431752  23.483527754089604 1
ion C  21.013118669803273   4.044886114245904  23.499857316205109 1
ion C  16.350744442481773  12.130636362530113  23.518882525038300 1
ion C   9.342278672450931   8.082131727511838  23.475532545687720 1
ion C  16.347237715294565   4.044043920152552  23.499571814673669 1
ion C  11.678170034621884   4.042899939218556  23.491467958072619 1
ion C  11.679795624337387  12.132773294365409  23.479545429906455 1
ion C  18.681783758649033   8.086374942324714  23.517578557711868 1
ion C   7.010090149946823  20.220163727834084  23.471853702716132 1
ion C  -6.992819636027548  20.217335204785115  23.496120861503641 1
ion C   0.003095513383175   8.084230865817041  23.512321936488526 1
ion C  14.016175089683198   8.083754643396873  23.508215912137580 1
ion C   2.342107958716930  20.219440917028351  23.480514845642922 1
ion C  -4.660197733300887  16.175131632908858  23.510226418366297 1
ion C   2.338091364227265  12.133375516118711  23.488500213718766 1
ion C  -2.329583047510674  12.130743044460706  23.517101081373028 1
ion C  -2.325869035747882  20.218529942529514  23.491344464578336 1
ion C   4.676670508991004  16.180905764551685  23.466196610649408 1
ion C   0.006215108495626  16.178217710840105  23.496028017737583 1
ion C  14.012301153287671  21.564396631666177  23.489130400020105 1
ion C   2.342275251859379   1.350058568150642  23.490104467294962 1
ion C  25.680056180189936   1.349881752756177  23.489491834073284 1
ion C  16.347737531380989  17.524107680342848  23.503328126527354 1
ion C   4.676246999250479   5.388301758368073  23.487737483407113 1
ion C  21.013113877845285   1.350910065241872  23.487904944352898 1
ion C   7.010081053267675   1.349618461232438  23.484734484432526 1
ion C  11.678053224399363  17.525876746498977  23.480499249100369 1
ion C  23.345750672412713   5.392035792371006  23.505610127976791 1
ion C  18.681929598767045  13.480199703935119  23.520152636694952 1
ion C   7.010832428955418   9.431959054986915  23.458521797579870 1
ion C  16.345519760025855   1.349776674597706  23.489043316195456 1
ion C  11.677662304897797   1.350316768265398  23.487839503938087 1
ion C   9.339679382863896  13.485809578213194  23.453592185403238 1
ion C  21.013062520898007   9.436070031737032  23.521172964604467 1
ion C   9.344125883170159  21.564876068692602  23.477951692325551 1
ion C  -9.326480613904923  21.563456480613905  23.491757622404773 1
ion C   0.006812179492806   5.389488905756666  23.503875051870139 1
ion C  14.018733586278062  13.483822161300207  23.504936436992026 1
ion C   9.343381058106740   5.388419478621425  23.484387087802439 1
ion C  18.680122594303214   5.391963409749004  23.506519484841551 1
ion C  16.348884719905413   9.434402355877385  23.516845346778112 1
ion C  11.678956924297028   9.428143479694917  23.489474848479908 1
ion C  14.012809117629406   5.388917818348584  23.501882307038848 1
ion C   4.675684040734625  21.565001783123055  23.476610757221888 1
ion C  -6.992618944183793  17.521989495342435  23.508146129907431 1
ion C   2.339140220213667   9.429083503204044  23.497901521750222 1
ion C  -2.328382487045117   9.435215046417548  23.516814530356029 1
ion C  -4.659109828357089  21.563562179254763  23.490026029611641 1
ion C   7.010039956287812  17.525882449008591  23.464048302301396 1
ion C   0.007622008067983  21.564181590190152  23.486212970270174 1
ion C  -4.661761334014859  13.479864189123433  23.518321126177085 1
ion C   4.678617024132503  13.485491439999961  23.459226329209741 1
ion C   2.341452310842451  17.525303790953551  23.480086631886632 1
ion C  -2.327496054291275  17.524142738682364  23.499810221529916 1
ion C   0.000907416416818  13.483725554792906  23.505811357359519 1
ion S   7.341790616578293  11.785832232682528  31.471277347761468 1
ion Na   3.508212143732512  11.652925703858607  28.570738869065256 1
ion Na  11.218853297236400  11.742164310535429  28.623827006943870 1

# Forces in Cartesian coordinates:
force C  -0.000149638314820   0.000016644533531   0.000027211966939 1
force C  -0.000266807987608  -0.000624344530591   0.000038482865344 1
force C  -0.000113003750965   0.000316953601741   0.000022135532690 1
force C  -0.000150229852550  -0.000429514658468   0.000047973919434 1
force C  -0.000228445840281   0.000162831505574   0.000068642027754 1
force C  -0.000030347268730  -0.000150554397618  -0.000002250770554 1
force C  -0.000168061775399  -0.000198538749894   0.000062581574039 1
force C  -0.000139836637678  -0.000243190389971   0.000035068966774 1
force C  -0.000164504606832   0.000169906706328  -0.000163709533863 1
force C  -0.000019348829186  -0.000244568584872   0.000069305557353 1
force C   0.000143037833496   0.000243264693554   0.000082628653054 1
force C   0.000005345858253   0.000779428577917  -0.000026310203988 1
force C   0.000281412580670  -0.000021977571583   0.000059402157089 1
force C  -0.000281171061922   0.000213668002384   0.000027604482448 1
force C  -0.000717517543643  -0.000258737725438  -0.000491263773489 1
force C   0.000062679980665  -0.000104261521142   0.000005506127947 1
force C   0.000009754320193   0.000394450330746  -0.000092781158270 1
force C  -0.000094490611022   0.000384140918930   0.000046234681799 1
force C  -0.000053292466629   0.000142212589927   0.000030656663628 1
force C   0.000187773601732  -0.000087124398331  -0.000002807019718 1
force C   0.000025355631649  -0.000504007700538  -0.000147588136840 1
force C  -0.000215044606171  -0.000137156499474   0.000043168536102 1
force C  -0.000086409905838   0.000395191930310   0.000005040007353 1
force C  -0.000492972848284   0.000022040289841  -0.000445189136192 1
force C  -0.000287555216985   0.000023256265370   0.000030500249431 1
force C  -0.000057635763569  -0.000500480433954   0.000026682881555 1
force C   0.000048187010532  -0.000384328996150   0.000011519218609 1
force C   0.000004334916062  -0.000661090109294  -0.000105826315839 1
force C  -0.000035046238972  -0.000661124702992  -0.000134662424541 1
force C  -0.000061201664815  -0.000313301311514   0.000055630661272 1
force C   0.000127576088313  -0.000288009253570   0.000012926868172 1
force C   0.000387817541567  -0.000229375170357  -0.000360921936122 1
force C  -0.000440130485267   0.000084507253997   0.000058896537967 1
force C   0.000061703139157  -0.000472887367213   0.000017171118047 1
force C  -0.000048754059229   0.000250158619208  -0.000064711471233 1
force C  -0.000193268049974   0.000329464884804   0.000018599458100 1
force C   0.000041474355213   0.000134931152109  -0.000050804818190 1
force C   0.000255390757037  -0.000295803202307   0.000014415094388 1
force C   0.000255203470515   0.000435925062190   0.000070090634297 1
force C   0.000124672098597   0.000398466526558   0.000088373703431 1
force C   0.000135574586291  -0.000539541998199   0.000006637353533 1
force C  -0.000062442870289   0.000047158979751  -0.000030116583310 1
force C   0.000014817651839  -0.000500597091429   0.000010291840247 1
force C  -0.000013981229630  -0.000255330419970   0.000098596405141 1
force C   0.000180170988320   0.000089539273627   0.000044089228382 1
force C   0.000228749253371   0.000069068699126   0.000134530508495 1
force C  -0.000062543512090   0.000648497006144  -0.000180050011303 1
force C   0.000056386492064   0.000390180894021   0.000040090668716 1
force C  -0.000167014882100  -0.000464922562197   0.000022154753452 1
force C   0.001282705188723  -0.000879945645345  -0.000283937622233 1
force C   0.000080383584405  -0.000158514428991  -0.000051003422066 1
force C  -0.000085861641728   0.000363060353362  -0.000041233359472 1
force C   0.000399213649113   0.000326759473410   0.000027430122992 1
force C  -0.000004769232018   0.000080879304423  -0.000012576052772 1
force C  -0.000346191872224  -0.000324114262863  -0.000155469215630 1
force C   0.000112907077214  -0.000195845413887   0.000012679345702 1
force C   0.000042116349531  -0.000048655429924  -0.000006084278396 1
force C   0.000334615110112   0.000119036876521   0.000126081984322 1
force C   0.000044821797009   0.000959553896661  -0.000258155736327 1
force C   0.000246960460175   0.000065365181527  -0.000000069998703 1
force C   0.000244315696359   0.000194037849898   0.000009509684641 1
force C  -0.000036466776391   0.000544911750927  -0.000126383378050 1
force C   0.000393801121389   0.000682323104859  -0.000304579588821 1
force C  -0.000466553325143  -0.000032037203081   0.000129297693907 1
force C  -0.000326199165410   0.000173599705665   0.000034117075411 1
force C   0.000003920773447   0.000691071786876   0.000051990661942 1
force C   0.000041323622147   0.000300187555139  -0.000055487611009 1
force C   0.000363681520600   0.000209422050262   0.000079337984407 1
force C  -0.000269673952876  -0.000701472944183  -0.000326914181283 1
force C   0.000034500694352   0.000179368461877   0.000058851349535 1
force C  -0.000032205350437   0.000088818273826   0.000076072801483 1
force C   0.000115173560842  -0.000123015998385  -0.000076770882309 1
force S   0.000125839593248  -0.000085494898867  -0.000585293101606 1
force Na  -0.000770656458024   0.000005755422013   0.001087387189205 1
force Na   0.000639311744784   0.000007037634747   0.001073345182663 1

# Energy components:
   Eewald =    -1092.7493694479362603
       EH =     -700.7020489194802622
     Eloc =     1248.1888220783439465
      Enl =      -83.7800755467319220
     EvdW =       -0.1063869899564152
      Exc =     -149.3071684273452604
 Exc_core =        4.1923995978219883
       KE =      257.3700204354295238
-------------------------------------
     Etot =     -516.8938072198544660
       TS =        0.0757215266141352
-------------------------------------
        F =     -516.9695287464686544

IonicMinimize: Iter:   1  F: -516.969528746468654  |grad|_K:  3.002e-04  alpha:  4.289e+00  linmin: -3.142e-03  t[s]:   2221.35

#--- Lowdin population analysis ---
# oxidation-state C +0.041 +0.040 +0.039 +0.041 +0.042 +0.040 +0.040 +0.039 +0.022 +0.041 +0.042 +0.034 +0.038 +0.039 +0.020 +0.041 +0.030 +0.041 +0.040 +0.027 +0.027 +0.040 +0.039 -0.020 +0.037 +0.042 +0.041 +0.027 +0.025 +0.040 +0.039 -0.018 +0.031 +0.040 +0.032 +0.032 +0.041 +0.041 +0.041 +0.037 +0.038 +0.042 +0.042 +0.034 +0.040 +0.036 +0.026 +0.041 +0.041 +0.013 +0.039 +0.042 +0.041 +0.037 +0.010 +0.039 +0.040 +0.030 +0.001 +0.037 +0.042 +0.040 +0.000 +0.033 +0.041 +0.040 +0.041 +0.038 +0.004 +0.035 +0.038 +0.018
# oxidation-state S -0.893
# oxidation-state Na +0.791 +0.791


Computing DFT-D3 correction:
# coordination-number C 3.301 3.301 3.302 3.301 3.301 3.302 3.301 3.301 3.387 3.301 3.301 3.323 3.301 3.301 3.446 3.301 3.313 3.302 3.301 3.315 3.354 3.301 3.302 3.959 3.301 3.302 3.300 3.319 3.329 3.302 3.300 3.918 3.307 3.301 3.329 3.308 3.301 3.301 3.301 3.302 3.305 3.301 3.302 3.307 3.300 3.302 3.373 3.301 3.301 3.563 3.301 3.301 3.301 3.302 3.438 3.304 3.301 3.309 3.625 3.302 3.301 3.301 3.619 3.304 3.301 3.305 3.301 3.301 3.687 3.306 3.301 3.371
# coordination-number S 1.981
# coordination-number Na 2.954 2.833
# diagonal-C6 C 24.27 24.27 24.27 24.27 24.27 24.27 24.27 24.28 23.28 24.27 24.27 24.05 24.27 24.27 22.45 24.27 24.15 24.26 24.27 24.13 23.70 24.27 24.26 18.37 24.27 24.26 24.28 24.09 23.98 24.27 24.28 18.43 24.21 24.27 23.99 24.20 24.27 24.27 24.27 24.27 24.24 24.27 24.27 24.21 24.28 24.27 23.46 24.27 24.27 20.74 24.27 24.27 24.27 24.27 22.56 24.24 24.28 24.20 19.99 24.26 24.27 24.28 20.05 24.24 24.27 24.23 24.27 24.27 19.41 24.22 24.27 23.49
# diagonal-C6 S 125.91
# diagonal-C6 Na 186.11 186.11
EvdW_6 =   -0.057431
EvdW_8 =   -0.049037

-------- Electronic minimization -----------
Will mix electronic density at each iteration.
	FillingsUpdate:  mu: -0.160428499  nElectrons: 312.000000
	FillingsUpdate:  mu: -0.160161219  nElectrons: 312.000000
SCF: Cycle:  0   F: -516.969417580276740   dF: +8.898e-05   |Residual|: 4.575e-03   |deigs|: 2.080e-06  t[s]:   2279.91
	FillingsUpdate:  mu: -0.159967052  nElectrons: 312.000000
SCF: Cycle:  1   F: -516.969359200048530   dF: +5.838e-05   |Residual|: 4.479e-03   |deigs|: 1.692e-04  t[s]:   2307.64
	FillingsUpdate:  mu: -0.160108885  nElectrons: 312.000000
SCF: Cycle:  2   F: -516.969563188988218   dF: -2.040e-04   |Residual|: 1.274e-03   |deigs|: 1.024e-04  t[s]:   2335.41
	FillingsUpdate:  mu: -0.160102009  nElectrons: 312.000000
SCF: Cycle:  3   F: -516.969577298329909   dF: -1.411e-05   |Residual|: 4.011e-04   |deigs|: 1.393e-04  t[s]:   2363.18
	FillingsUpdate:  mu: -0.160111528  nElectrons: 312.000000
SCF: Cycle:  4   F: -516.969578030308753   dF: -7.320e-07   |Residual|: 2.128e-04   |deigs|: 1.262e-04  t[s]:   2390.98
	FillingsUpdate:  mu: -0.160128684  nElectrons: 312.000000
SCF: Cycle:  5   F: -516.969578310647307   dF: -2.803e-07   |Residual|: 1.067e-04   |deigs|: 1.504e-04  t[s]:   2418.78
	FillingsUpdate:  mu: -0.160137134  nElectrons: 312.000000
SCF: Cycle:  6   F: -516.969578347694210   dF: -3.705e-08   |Residual|: 7.098e-05   |deigs|: 4.739e-05  t[s]:   2446.56
	FillingsUpdate:  mu: -0.160152268  nElectrons: 312.000000
SCF: Cycle:  7   F: -516.969578457894499   dF: -1.102e-07   |Residual|: 4.936e-05   |deigs|: 5.281e-05  t[s]:   2485.48
	FillingsUpdate:  mu: -0.160169393  nElectrons: 312.000000
SCF: Cycle:  8   F: -516.969578531069828   dF: -7.318e-08   |Residual|: 4.067e-05   |deigs|: 5.163e-05  t[s]:   2524.40
	FillingsUpdate:  mu: -0.160189554  nElectrons: 312.000000
SCF: Cycle:  9   F: -516.969578613507906   dF: -8.244e-08   |Residual|: 3.139e-05   |deigs|: 9.022e-05  t[s]:   2563.34
	FillingsUpdate:  mu: -0.160204926  nElectrons: 312.000000
SCF: Cycle: 10   F: -516.969578646744253   dF: -3.324e-08   |Residual|: 2.612e-05   |deigs|: 9.692e-05  t[s]:   2602.28
	FillingsUpdate:  mu: -0.160219065  nElectrons: 312.000000
SCF: Cycle: 11   F: -516.969578657958209   dF: -1.121e-08   |Residual|: 2.105e-05   |deigs|: 1.054e-04  t[s]:   2641.25
	FillingsUpdate:  mu: -0.160234903  nElectrons: 312.000000
SCF: Cycle: 12   F: -516.969578661508422   dF: -3.550e-09   |Residual|: 1.686e-05   |deigs|: 1.271e-04  t[s]:   2680.25
	FillingsUpdate:  mu: -0.160247726  nElectrons: 312.000000
SCF: Cycle: 13   F: -516.969578662376193   dF: -8.678e-10   |Residual|: 1.346e-05   |deigs|: 1.015e-04  t[s]:   2719.24
SCF: Converged (|Delta E|<1.000000e-08 for 2 iters).

Setting wave functions to eigenvectors of Hamiltonian

Computing DFT-D3 correction:
# coordination-number C 3.301 3.301 3.302 3.301 3.301 3.302 3.301 3.301 3.386 3.301 3.301 3.323 3.301 3.301 3.444 3.301 3.313 3.303 3.301 3.315 3.354 3.301 3.302 3.956 3.301 3.302 3.300 3.319 3.329 3.302 3.300 3.915 3.307 3.301 3.329 3.308 3.301 3.301 3.301 3.302 3.305 3.301 3.302 3.307 3.300 3.302 3.373 3.301 3.301 3.562 3.301 3.301 3.301 3.302 3.438 3.304 3.301 3.309 3.623 3.302 3.301 3.301 3.618 3.304 3.301 3.305 3.301 3.301 3.684 3.306 3.301 3.370
# coordination-number S 1.981
# coordination-number Na 2.945 2.825
# diagonal-C6 C 24.27 24.27 24.27 24.27 24.27 24.27 24.27 24.28 23.29 24.27 24.27 24.05 24.27 24.27 22.47 24.27 24.15 24.26 24.27 24.13 23.70 24.27 24.26 18.37 24.27 24.26 24.28 24.09 23.98 24.27 24.28 18.44 24.21 24.27 23.99 24.20 24.27 24.27 24.27 24.27 24.24 24.27 24.27 24.21 24.28 24.27 23.47 24.27 24.27 20.76 24.27 24.27 24.27 24.27 22.57 24.24 24.28 24.20 20.01 24.26 24.27 24.28 20.07 24.24 24.27 24.23 24.27 24.27 19.43 24.22 24.27 23.50
# diagonal-C6 S 125.91
# diagonal-C6 Na 186.11 186.11
EvdW_6 =   -0.057437
EvdW_8 =   -0.049044

-------- Electronic minimization -----------
Will mix electronic density at each iteration.
	FillingsUpdate:  mu: -0.160247726  nElectrons: 312.000000
	FillingsUpdate:  mu: -0.160246107  nElectrons: 312.000000
SCF: Cycle:  0   F: -516.969574654347753   dF: +3.164e-06   |Residual|: 7.833e-04   |deigs|: 4.055e-06  t[s]:   2769.14
	FillingsUpdate:  mu: -0.160210703  nElectrons: 312.000000
SCF: Cycle:  1   F: -516.969572828050559   dF: +1.826e-06   |Residual|: 8.010e-04   |deigs|: 2.955e-05  t[s]:   2796.85
	FillingsUpdate:  mu: -0.160235502  nElectrons: 312.000000
SCF: Cycle:  2   F: -516.969579421977187   dF: -6.594e-06   |Residual|: 2.072e-04   |deigs|: 1.780e-05  t[s]:   2824.59
	FillingsUpdate:  mu: -0.160234945  nElectrons: 312.000000
SCF: Cycle:  3   F: -516.969579772037150   dF: -3.501e-07   |Residual|: 6.464e-05   |deigs|: 2.185e-05  t[s]:   2852.35
	FillingsUpdate:  mu: -0.160236302  nElectrons: 312.000000
SCF: Cycle:  4   F: -516.969579796767675   dF: -2.473e-08   |Residual|: 3.508e-05   |deigs|: 2.526e-05  t[s]:   2880.11
	FillingsUpdate:  mu: -0.160239048  nElectrons: 312.000000
SCF: Cycle:  5   F: -516.969579804307500   dF: -7.540e-09   |Residual|: 1.765e-05   |deigs|: 4.717e-05  t[s]:   2907.87
	FillingsUpdate:  mu: -0.160240614  nElectrons: 312.000000
SCF: Cycle:  6   F: -516.969579806330557   dF: -2.023e-09   |Residual|: 1.183e-05   |deigs|: 2.984e-05  t[s]:   2935.66
SCF: Converged (|Delta E|<1.000000e-08 for 2 iters).

Setting wave functions to eigenvectors of Hamiltonian

Computing DFT-D3 correction:
# coordination-number C 3.301 3.301 3.302 3.301 3.301 3.302 3.301 3.301 3.386 3.301 3.301 3.323 3.301 3.301 3.444 3.301 3.313 3.303 3.301 3.315 3.354 3.301 3.302 3.956 3.301 3.302 3.300 3.319 3.329 3.302 3.300 3.915 3.307 3.301 3.329 3.308 3.301 3.301 3.301 3.302 3.305 3.301 3.302 3.307 3.300 3.302 3.373 3.301 3.301 3.562 3.301 3.301 3.301 3.302 3.438 3.304 3.301 3.309 3.623 3.302 3.301 3.301 3.618 3.304 3.301 3.305 3.301 3.301 3.684 3.306 3.301 3.370
# coordination-number S 1.981
# coordination-number Na 2.945 2.825
# diagonal-C6 C 24.27 24.27 24.27 24.27 24.27 24.27 24.27 24.28 23.29 24.27 24.27 24.05 24.27 24.27 22.47 24.27 24.15 24.26 24.27 24.13 23.70 24.27 24.26 18.37 24.27 24.26 24.28 24.09 23.98 24.27 24.28 18.44 24.21 24.27 23.99 24.20 24.27 24.27 24.27 24.27 24.24 24.27 24.27 24.21 24.28 24.27 23.47 24.27 24.27 20.76 24.27 24.27 24.27 24.27 22.57 24.24 24.28 24.20 20.01 24.26 24.27 24.28 20.07 24.24 24.27 24.23 24.27 24.27 19.43 24.22 24.27 23.50
# diagonal-C6 S 125.91
# diagonal-C6 Na 186.11 186.11
EvdW_6 =   -0.057437
EvdW_8 =   -0.049044

# Ionic positions in cartesian coordinates:
ion C  28.013132302149028   0.003471562427360  23.490118237548632 1
ion C  16.344581660597669  20.218353469326452  23.494315368868218 1
ion C   2.342043277513328   4.042817125074299  23.494732922134961 1
ion C  23.346168194115503   0.005362313678470  23.484180434836912 1
ion C   4.675771676481871   0.003593881110762  23.486964265886360 1
ion C  11.678246482016830  20.219390058106132  23.482983461050292 1
ion C  25.679244066751860   4.043431204743841  23.499704655375670 1
ion C  18.680381630229348  16.174923161501169  23.513049307651265 1
ion C   4.677964952806797   8.080930187344835  23.477474852509214 1
ion C  18.679767042104391   0.005354601473273  23.483270012617108 1
ion C   9.344591479942807   0.003339884956566  23.486324388143277 1
ion C   9.342808144644588  16.181620056029075  23.465417275992614 1
ion C  23.344611293055003   8.086983191553806  23.517529008605948 1
ion C  21.013144002073307  12.130358970027345  23.522428976986021 1
ion C   7.010342539616066  12.132051259448195  23.437725362649129 1
ion C  14.011915677644863   0.003325418596867  23.487790695672889 1
ion C  14.014615107009954  16.179954503399131  23.499393851901882 1
ion C   7.010347008787662   4.042556568528065  23.482960225040838 1
ion C  21.012489121213978   4.045135525268869  23.499894053069060 1
ion C  16.352520255638801  12.130296427769608  23.521099736280647 1
ion C   9.342397645589976   8.080438096229054  23.474784494734703 1
ion C  16.346618117066882   4.043487953805769  23.499174267559088 1
ion C  11.677594002598294   4.042365291395033  23.492065596502670 1
ion C  11.679992123621975  12.133186600337384  23.476306812914657 1
ion C  18.681805430300940   8.087024514186412  23.518314596190500 1
ion C   7.010252535311160  20.219793151010471  23.470124699697070 1
ion C  -6.993125384382582  20.217462857238896  23.495479106526137 1
ion C   0.002671792807709   8.082783211588975  23.511932037701445 1
ion C  14.016570098751663   8.082098545537521  23.507546917699141 1
ion C   2.341840282268537  20.218969423886985  23.481309952344542 1
ion C  -4.660384559609623  16.175175893367232  23.510124337686367 1
ion C   2.337180413287187  12.133217194168319  23.484640370494596 1
ion C  -2.330818291542577  12.130470268180783  23.518751818446084 1
ion C  -2.324428243395998  20.218331461040208  23.491040624312220 1
ion C   4.676279852084738  16.182323545462673  23.465972273947411 1
ion C   0.005449639979872  16.178600109433312  23.497105568481686 1
ion C  14.012384602130886  21.564961074878489  23.487666768918761 1
ion C   2.342122276866442   1.348566447692582  23.490626143798696 1
ion C  25.680134394811034   1.349924623423752  23.491400648533460 1
ion C  16.347667621656971  17.525213699132948  23.505487946463315 1
ion C   4.677019319646160   5.386845551209016  23.489026259345330 1
ion C  21.013076033512835   1.351787228860573  23.488301042734665 1
ion C   7.010493951334849   1.348048293824601  23.486142973077293 1
ion C  11.678739418229195  17.525707771105530  23.481373109465338 1
ion C  23.345157080954142   5.391972960837193  23.507177471288976 1
ion C  18.682896168405172  13.480192913971557  23.522591867158415 1
ion C   7.011744575453655   9.432799382166836  23.456656823360909 1
ion C  16.345377815467156   1.349446193906937  23.490954605370536 1
ion C  11.677657404473285   1.348614748905363  23.487939727625452 1
ion C   9.341271431141845  13.486059494503467  23.445819378533628 1
ion C  21.013488634729342   9.436128048516709  23.519174468927190 1
ion C   9.344228323472882  21.566453080856714  23.478237371843598 1
ion C  -9.326950190483188  21.564406201177828  23.493898436586104 1
ion C   0.007283716619409   5.388878819484628  23.503406240196483 1
ion C  14.020312953485043  13.483047464179171  23.497806377419707 1
ion C   9.343211108734456   5.387375486815554  23.484543246159255 1
ion C  18.680347943244371   5.392633558538814  23.507104177253517 1
ion C  16.349459056661384   9.434603828566654  23.519024296460092 1
ion C  11.679769009994381   9.429127132134054  23.481265472345651 1
ion C  14.012972121246660   5.388114200826471  23.502071663882695 1
ion C   4.675856196994973  21.566651114656501  23.478686208881168 1
ion C  -6.992898647899008  17.523816363074200  23.505364214159034 1
ion C   2.338614337736868   9.429100401494365  23.490119377532395 1
ion C  -2.328939503361647   9.435445854999008  23.519535378234384 1
ion C  -4.659139034370572  21.563857812526106  23.492031075965556 1
ion C   7.010315568308130  17.526754875716353  23.465287780124239 1
ion C   0.008220836923126  21.564633280751028  23.484419367220628 1
ion C  -4.661797441516465  13.479658680483020  23.520345758866206 1
ion C   4.677778995985832  13.485942351788772  23.452502141373287 1
ion C   2.340518069123680  17.525557169322298  23.481109607245724 1
ion C  -2.327329188937102  17.525329752271247  23.502225128830720 1
ion C  -0.000381142066197  13.483278698556310  23.502613146780835 1
ion S   7.344568086014245  11.784397384092397  31.460308891853579 1
ion Na   3.495853853822926  11.652997416528128  28.588975311762702 1
ion Na  11.228389677810968  11.742252142451660  28.642409526361089 1

# Forces in Cartesian coordinates:
force C   0.000358078258750   0.000390127555998  -0.000095226678096 1
force C   0.000862513949175   0.000219763022871   0.000221759018217 1
force C  -0.000087065899451  -0.000343964094163   0.000040227467883 1
force C   0.000065868747217   0.000054175733718   0.000168703612685 1
force C   0.000216089868496  -0.000090577248266   0.000336913613426 1
force C  -0.000230973400718   0.000178271268449   0.000047865990754 1
force C  -0.000343935317684   0.000244640778253   0.000272867893101 1
force C   0.000126880687267   0.000399681426381  -0.000014135658942 1
force C  -0.000046433217518   0.000595471184108  -0.000202156188693 1
force C  -0.000121599924497   0.000015068880505   0.000322321880090 1
force C  -0.000370265938343  -0.000192978807901   0.000152629618108 1
force C   0.000479773764348  -0.000568689150581  -0.000633632824356 1
force C   0.000178005834586  -0.000236978271328   0.000061925673914 1
force C   0.000217614707030   0.000060188726329   0.000160483726768 1
force C   0.000220683070599  -0.000388792232007  -0.000203076381106 1
force C   0.000063150085672   0.000340400359755  -0.000076799195830 1
force C  -0.000129867897419  -0.000450531719848  -0.000386436536273 1
force C  -0.000101410342353  -0.000988156116408   0.000377401214185 1
force C   0.000175985247523   0.000302318027310   0.000151833195891 1
force C  -0.000478080978738  -0.000003376291905  -0.000437230410166 1
force C   0.000381184218379   0.000731761624230  -0.000487654462705 1
force C   0.000330262125237   0.000024394670591   0.000336504097751 1
force C   0.000285110589865  -0.000107942486701  -0.000071464267933 1
force C   0.000003278272501  -0.000074948402652  -0.001215551341745 1
force C  -0.000064381600458  -0.000252939390683   0.000022937190990 1
force C  -0.000116427004847   0.000529812760755   0.000573730923749 1
force C   0.000032984535283   0.000296000344623   0.000212647878674 1
force C   0.000045020732907   0.000130011705804  -0.000340945636092 1
force C  -0.000072941753766   0.000429306797460  -0.000372706954998 1
force C   0.000276837406832   0.000370759427012   0.000094127548223 1
force C   0.000104337926744   0.000134738504870   0.000120689010740 1
force C   0.000448233555883  -0.000122423345076  -0.000717910878642 1
force C  -0.000004215311397   0.000108423983433  -0.000056274785663 1
force C  -0.000830981433315   0.000109833402642   0.000192229024010 1
force C  -0.000060466392409  -0.000384418173699  -0.000230087638271 1
force C  -0.000122714164633  -0.000050912777030  -0.000109457414009 1
force C  -0.000470879534191  -0.000386484580470   0.000187813823232 1
force C  -0.000101936045035   0.000591878693295   0.000022668920936 1
force C  -0.000038819206443   0.000225986785948  -0.000077230110395 1
force C   0.000185083654912  -0.000283566811752  -0.000095177888268 1
force C  -0.000231403308095   0.000240809528313  -0.000247885094980 1
force C  -0.000144413178547  -0.000252050260256  -0.000126559976497 1
force C  -0.000138850811956   0.000606151869866  -0.000185690504769 1
force C  -0.000223875083985   0.000274064583541   0.000202982944933 1
force C   0.000599043512988   0.000044065200847  -0.000102591839764 1
force C  -0.000003228266653   0.000263967927416   0.000046871422625 1
force C  -0.000631187492139   0.000052030433779  -0.000493750174331 1
force C   0.000089875715558   0.000465145056228  -0.000202682447211 1
force C   0.000135419482279   0.000439485595384   0.000142731375639 1
force C   0.000109971066777  -0.000215151798982   0.000406504096793 1
force C  -0.000160868190801  -0.000015509988150   0.000331367787415 1
force C  -0.000108481473507  -0.000690900591015  -0.000173785645474 1
force C   0.000107708940029  -0.000423659809920  -0.000297632125856 1
force C  -0.000241650747306  -0.000051579691154   0.000095159071024 1
force C  -0.000549482581957   0.000357685704958   0.000929033058518 1
force C   0.000293636858920   0.000086629879690   0.000041399313412 1
force C  -0.000484118530036  -0.000310338192870  -0.000086712058789 1
force C   0.000145797473125  -0.000279622830555   0.000012655985485 1
force C  -0.000286403690350  -0.000174343251391   0.000697421424616 1
force C  -0.000151648530296  -0.000032633561930  -0.000028562654169 1
force C   0.000212464302069  -0.000944190379573  -0.000360626140044 1
force C  -0.000021330791165  -0.000680209642979   0.000195783831997 1
force C   0.000593842158311   0.000200777063697   0.000436186052188 1
force C  -0.000195247820806  -0.000487716114225  -0.000061981049430 1
force C   0.000098614760800  -0.000250149225423  -0.000249502713861 1
force C  -0.000351494015685   0.000598001327321  -0.000053408278695 1
force C   0.000069272144277  -0.000237581591843   0.000258085497955 1
force C  -0.000002549575484   0.000557828114272  -0.000065800087579 1
force C  -0.000256459980843  -0.000399383233781   0.000002784487532 1
force C   0.000364785710622   0.000147171336301   0.000045179706674 1
force C  -0.000223346904334  -0.000582387487050  -0.000185201199327 1
force C   0.000339937379935   0.000214909990518   0.000399766894550 1
force S  -0.000096763519628  -0.000073532327920  -0.000171064085791 1
force Na  -0.000838829935884   0.000004190845492   0.000821238468646 1
force Na   0.000919125881993   0.000009687123965   0.000619868830757 1

# Energy components:
   Eewald =    -1093.5356118867409805
       EH =     -701.4336963583806437
     Eloc =     1249.7074146695779291
      Enl =      -83.7799369069295778
     EvdW =       -0.1064813231813751
      Exc =     -149.3067411740502450
 Exc_core =        4.1923997071410630
       KE =      257.3687152918371908
-------------------------------------
     Etot =     -516.8939379807268324
       TS =        0.0756418256036929
-------------------------------------
        F =     -516.9695798063305574

IonicMinimize: Iter:   2  F: -516.969579806330557  |grad|_K:  3.437e-04  alpha:  5.003e+00  linmin: -7.142e-03  t[s]:   2948.62

#--- Lowdin population analysis ---
[...]
# oxidation-state S -0.906
# oxidation-state Na +0.792 +0.792


Computing DFT-D3 correction:
# coordination-number C 3.301 3.301 3.301 3.301 3.301 3.301 3.301 3.301 3.366 3.301 3.301 3.320 3.301 3.301 3.402 3.301 3.313 3.302 3.301 3.316 3.343 3.301 3.302 3.898 3.301 3.302 3.300 3.319 3.328 3.301 3.300 3.847 3.307 3.301 3.323 3.308 3.301 3.301 3.301 3.301 3.304 3.301 3.301 3.307 3.301 3.302 3.353 3.301 3.301 3.505 3.301 3.301 3.301 3.302 3.436 3.304 3.301 3.309 3.583 3.302 3.301 3.301 3.572 3.304 3.301 3.305 3.301 3.301 3.591 3.306 3.301 3.369
# coordination-number S 1.981
# coordination-number Na 2.587 2.570
# diagonal-C6 C 24.27 24.27 24.27 24.27 24.27 24.27 24.27 24.28 23.55 24.27 24.27 24.09 24.27 24.28 23.08 24.27 24.15 24.26 24.27 24.12 23.82 24.27 24.27 18.47 24.27 24.27 24.28 24.10 23.99 24.27 24.28 18.59 24.21 24.28 24.05 24.21 24.27 24.27 24.27 24.27 24.24 24.27 24.27 24.22 24.28 24.27 23.71 24.27 24.27 21.56 24.28 24.27 24.27 24.26 22.59 24.25 24.28 24.20 20.49 24.26 24.27 24.27 20.63 24.24 24.27 24.24 24.27 24.27 20.38 24.23 24.27 23.52
# diagonal-C6 S 125.91
# diagonal-C6 Na 186.11 186.11
EvdW_6 =   -0.057689
EvdW_8 =   -0.049285

-------- Electronic minimization -----------
Will mix electronic density at each iteration.
	FillingsUpdate:  mu: -0.158909267  nElectrons: 312.000000
	FillingsUpdate:  mu: -0.158720420  nElectrons: 312.000000
SCF: Cycle:  0   F: -516.969814803350232   dF: -2.199e-05   |Residual|: 2.839e-03   |deigs|: 1.119e-06  t[s]:  12234.82
	FillingsUpdate:  mu: -0.158741381  nElectrons: 312.000000
SCF: Cycle:  1   F: -516.969828615544998   dF: -1.381e-05   |Residual|: 1.328e-03   |deigs|: 4.179e-05  t[s]:  12262.54
	FillingsUpdate:  mu: -0.158713513  nElectrons: 312.000000
SCF: Cycle:  2   F: -516.969828308101455   dF: +3.074e-07   |Residual|: 9.355e-04   |deigs|: 8.381e-05  t[s]:  12290.32
	FillingsUpdate:  mu: -0.158743029  nElectrons: 312.000000
SCF: Cycle:  3   F: -516.969836120610807   dF: -7.813e-06   |Residual|: 2.964e-04   |deigs|: 3.927e-05  t[s]:  12318.08
	FillingsUpdate:  mu: -0.158744884  nElectrons: 312.000000
SCF: Cycle:  4   F: -516.969836502948056   dF: -3.823e-07   |Residual|: 1.309e-04   |deigs|: 7.119e-05  t[s]:  12345.84
	FillingsUpdate:  mu: -0.158751080  nElectrons: 312.000000
SCF: Cycle:  5   F: -516.969836619217176   dF: -1.163e-07   |Residual|: 7.950e-05   |deigs|: 7.522e-05  t[s]:  12373.60
	FillingsUpdate:  mu: -0.158757815  nElectrons: 312.000000
SCF: Cycle:  6   F: -516.969836697675078   dF: -7.846e-08   |Residual|: 4.848e-05   |deigs|: 5.835e-05  t[s]:  12411.68
	FillingsUpdate:  mu: -0.158764563  nElectrons: 312.000000
SCF: Cycle:  7   F: -516.969836722508035   dF: -2.483e-08   |Residual|: 3.771e-05   |deigs|: 2.889e-05  t[s]:  12449.79
	FillingsUpdate:  mu: -0.158773137  nElectrons: 312.000000
SCF: Cycle:  8   F: -516.969836775488716   dF: -5.298e-08   |Residual|: 3.351e-05   |deigs|: 3.785e-05  t[s]:  12488.77
	FillingsUpdate:  mu: -0.158784058  nElectrons: 312.000000
SCF: Cycle:  9   F: -516.969836822370212   dF: -4.688e-08   |Residual|: 2.593e-05   |deigs|: 6.808e-05  t[s]:  12527.76
	FillingsUpdate:  mu: -0.158792614  nElectrons: 312.000000
SCF: Cycle: 10   F: -516.969836841906158   dF: -1.954e-08   |Residual|: 1.898e-05   |deigs|: 5.550e-05  t[s]:  12566.80
	FillingsUpdate:  mu: -0.158800277  nElectrons: 312.000000
SCF: Cycle: 11   F: -516.969836853329753   dF: -1.142e-08   |Residual|: 1.562e-05   |deigs|: 5.611e-05  t[s]:  12605.82
	FillingsUpdate:  mu: -0.158808337  nElectrons: 312.000000
SCF: Cycle: 12   F: -516.969836857683049   dF: -4.353e-09   |Residual|: 1.140e-05   |deigs|: 6.161e-05  t[s]:  12644.82
	FillingsUpdate:  mu: -0.158814049  nElectrons: 312.000000
SCF: Cycle: 13   F: -516.969836859129941   dF: -1.447e-09   |Residual|: 8.611e-06   |deigs|: 5.294e-05  t[s]:  12683.81
SCF: Converged (|Delta E|<1.000000e-08 for 2 iters).

Setting wave functions to eigenvectors of Hamiltonian

Computing DFT-D3 correction:
# coordination-number C 3.301 3.301 3.301 3.301 3.301 3.301 3.301 3.301 3.366 3.301 3.301 3.320 3.301 3.301 3.402 3.301 3.313 3.302 3.301 3.316 3.343 3.301 3.302 3.897 3.301 3.302 3.301 3.319 3.328 3.301 3.300 3.846 3.307 3.301 3.323 3.308 3.301 3.301 3.301 3.301 3.304 3.301 3.301 3.307 3.301 3.302 3.353 3.301 3.301 3.505 3.301 3.301 3.301 3.302 3.436 3.304 3.301 3.309 3.582 3.302 3.301 3.301 3.572 3.304 3.301 3.305 3.301 3.301 3.592 3.306 3.301 3.368
# coordination-number S 1.981
# coordination-number Na 2.588 2.568
# diagonal-C6 C 24.27 24.27 24.27 24.27 24.27 24.27 24.27 24.28 23.55 24.27 24.27 24.09 24.27 24.28 23.08 24.27 24.15 24.26 24.27 24.12 23.83 24.27 24.27 18.47 24.27 24.27 24.28 24.10 23.99 24.27 24.28 18.59 24.21 24.28 24.05 24.21 24.27 24.27 24.27 24.27 24.24 24.27 24.27 24.22 24.28 24.27 23.71 24.27 24.27 21.57 24.28 24.27 24.27 24.26 22.60 24.25 24.28 24.20 20.49 24.26 24.27 24.27 20.63 24.24 24.27 24.24 24.27 24.27 20.38 24.23 24.27 23.52
# diagonal-C6 S 125.91
# diagonal-C6 Na 186.11 186.11
EvdW_6 =   -0.057687
EvdW_8 =   -0.049284

-------- Electronic minimization -----------
Will mix electronic density at each iteration.
	FillingsUpdate:  mu: -0.158814049  nElectrons: 312.000000
	FillingsUpdate:  mu: -0.158872719  nElectrons: 312.000000
SCF: Cycle:  0   F: -516.969836430446094   dF: -6.668e-07   |Residual|: 5.171e-04   |deigs|: 2.394e-06  t[s]:  12733.69
	FillingsUpdate:  mu: -0.158870128  nElectrons: 312.000000
SCF: Cycle:  1   F: -516.969837027877475   dF: -5.974e-07   |Residual|: 2.347e-04   |deigs|: 8.115e-06  t[s]:  12761.42
	FillingsUpdate:  mu: -0.158872733  nElectrons: 312.000000
SCF: Cycle:  2   F: -516.969837149318664   dF: -1.214e-07   |Residual|: 1.192e-04   |deigs|: 1.562e-05  t[s]:  12789.17
	FillingsUpdate:  mu: -0.158868797  nElectrons: 312.000000
SCF: Cycle:  3   F: -516.969837242982294   dF: -9.366e-08   |Residual|: 4.930e-05   |deigs|: 6.503e-06  t[s]:  12816.91
	FillingsUpdate:  mu: -0.158868463  nElectrons: 312.000000
SCF: Cycle:  4   F: -516.969837260019631   dF: -1.704e-08   |Residual|: 2.646e-05   |deigs|: 1.393e-05  t[s]:  12844.66
	FillingsUpdate:  mu: -0.158867152  nElectrons: 312.000000
SCF: Cycle:  5   F: -516.969837265019237   dF: -5.000e-09   |Residual|: 1.469e-05   |deigs|: 2.456e-05  t[s]:  12882.74
	FillingsUpdate:  mu: -0.158865607  nElectrons: 312.000000
SCF: Cycle:  6   F: -516.969837267948833   dF: -2.930e-09   |Residual|: 1.018e-05   |deigs|: 3.250e-05  t[s]:  12920.85
SCF: Converged (|Delta E|<1.000000e-08 for 2 iters).

Setting wave functions to eigenvectors of Hamiltonian

Computing DFT-D3 correction:
# coordination-number C 3.301 3.301 3.301 3.301 3.301 3.301 3.301 3.301 3.366 3.301 3.301 3.320 3.301 3.301 3.402 3.301 3.313 3.302 3.301 3.316 3.343 3.301 3.302 3.897 3.301 3.302 3.301 3.319 3.328 3.301 3.300 3.846 3.307 3.301 3.323 3.308 3.301 3.301 3.301 3.301 3.304 3.301 3.301 3.307 3.301 3.302 3.353 3.301 3.301 3.505 3.301 3.301 3.301 3.302 3.436 3.304 3.301 3.309 3.582 3.302 3.301 3.301 3.572 3.304 3.301 3.305 3.301 3.301 3.592 3.306 3.301 3.368
# coordination-number S 1.981
# coordination-number Na 2.588 2.568
# diagonal-C6 C 24.27 24.27 24.27 24.27 24.27 24.27 24.27 24.28 23.55 24.27 24.27 24.09 24.27 24.28 23.08 24.27 24.15 24.26 24.27 24.12 23.83 24.27 24.27 18.47 24.27 24.27 24.28 24.10 23.99 24.27 24.28 18.59 24.21 24.28 24.05 24.21 24.27 24.27 24.27 24.27 24.24 24.27 24.27 24.22 24.28 24.27 23.71 24.27 24.27 21.57 24.28 24.27 24.27 24.26 22.60 24.25 24.28 24.20 20.49 24.26 24.27 24.27 20.63 24.24 24.27 24.24 24.27 24.27 20.38 24.23 24.27 23.52
# diagonal-C6 S 125.91
# diagonal-C6 Na 186.11 186.11
EvdW_6 =   -0.057687
EvdW_8 =   -0.049284

# Ionic positions in cartesian coordinates:
ion C  28.014330944498511   0.004543279125116  23.502503101125598 1
ion C  16.346224761984317  20.218360617645246  23.502993663098884 1
ion C   2.341951358854214   4.043669653663128  23.490310836319793 1
ion C  23.346771763020477   0.004694323538036  23.498216754438761 1
ion C   4.676533615107807   0.003831167870708  23.498685821160176 1
ion C  11.678054281551246  20.219266980939235  23.483658915920575 1
ion C  25.678991858822329   4.044057917565260  23.508874346519622 1
ion C  18.680440079023036  16.175341055052883  23.519363020373817 1
ion C   4.678378946307143   8.082837906825780  23.450478296962348 1
ion C  18.679591829961790   0.004651883449718  23.497906461752532 1
ion C   9.344021241386271   0.003939820602881  23.497971918094969 1
ion C   9.343179295144006  16.179546258376917  23.440559991123497 1
ion C  23.344952959302244   8.086660760316342  23.526594918842108 1
ion C  21.013255319023163  12.130628672731959  23.533068712377567 1
ion C   7.010810918293329  12.130439914706225  23.408218476823503 1
ion C  14.011638440051723   0.004675982535733  23.500080963589497 1
ion C  14.013653392426466  16.179682814125560  23.490942159310400 1
ion C   7.009985775794462   4.042695467073137  23.470591829357346 1
ion C  21.013291932731093   4.045077802232385  23.513006219064938 1
ion C  16.350624679377603  12.130854488859232  23.519307394058586 1
ion C   9.341975123457070   8.082439809963612  23.444210730674989 1
ion C  16.347178860444394   4.043827620232956  23.505919979355681 1
ion C  11.677858690215984   4.043771058455998  23.484952942759385 1
ion C  11.678159369752152  12.132857297916649  23.454690384171027 1
ion C  18.681482078452035   8.086326334091167  23.524861551822386 1
ion C   7.010112726965763  20.219775011515857  23.468039107190911 1
ion C  -6.992566704966781  20.217126736754256  23.509976403571088 1
ion C   0.003722382936145   8.084160467465541  23.503769723969423 1
ion C  14.015611194154660   8.083728566235635  23.496206586410079 1
ion C   2.342012414452640  20.219269349376475  23.483529700959480 1
ion C  -4.659839113170444  16.175022385290934  23.519403838352229 1
ion C   2.340272699356770  12.133295251578309  23.466721493580362 1
ion C  -2.329652515957535  12.131279392765128  23.521465563713519 1
ion C  -2.325835858400934  20.218198754759452  23.503025749889876 1
ion C   4.676934166292030  16.180459821140062  23.443289622582263 1
ion C   0.006535367739358  16.179005456332462  23.492642979851283 1
ion C  14.012614104128016  21.564662341327953  23.497610658767908 1
ion C   2.342559863656532   1.350039232428767  23.498630044074449 1
ion C  25.680336124799918   1.350673880730549  23.503130018920771 1
ion C  16.347779963867701  17.524777462591612  23.506749577203493 1
ion C   4.676569179297269   5.388550549889562  23.470493183765313 1
ion C  21.013169836835772   1.350953932666499  23.502836393398102 1
ion C   7.010273391955430   1.349522317466488  23.489475541607618 1
ion C  11.677965474827907  17.525881516477941  23.470489180815424 1
ion C  23.346014665385979   5.392107415289417  23.516503618153557 1
ion C  18.682113859673745  13.480607069821957  23.529052710888060 1
ion C   7.010893386958772   9.433290904292258  23.423624878467532 1
ion C  16.345742170795607   1.350440673849301  23.501566578049186 1
ion C  11.677514623182248   1.350381876267648  23.495472449931800 1
ion C   9.340815429774427  13.484324941698592  23.421501805901219 1
ion C  21.013291563965343   9.435832073656103  23.532620953036144 1
ion C   9.344204363873715  21.565347915904500  23.482193298356805 1
ion C  -9.325686771384445  21.564080063724639  23.505591227172872 1
ion C   0.006761056121325   5.389669923082919  23.500903090099651 1
ion C  14.017579113974161  13.483470370900783  23.492212073749375 1
ion C   9.343498561894823   5.388844080703572  23.465479049935183 1
ion C  18.680518821978382   5.392076805376961  23.515607460000002 1
ion C  16.349213982122254   9.434616495215218  23.517573718404336 1
ion C  11.678293363441579   9.429643329434038  23.464048874449229 1
ion C  14.013392481832096   5.389036900754228  23.496451148110378 1
ion C   4.676056857796958  21.565336574920735  23.482133156414999 1
ion C  -6.992543014689888  17.522354508341369  23.519185585456739 1
ion C   2.340810440823758   9.430233358344413  23.475631470081868 1
ion C  -2.328817621644771   9.435398986909497  23.520625145778123 1
ion C  -4.659465462513317  21.563964974446471  23.505131012674862 1
ion C   7.010228734821796  17.526615730199584  23.446431787258852 1
ion C   0.007749976106235  21.564814451891710  23.495896088162482 1
ion C  -4.661248369483401  13.480394938390157  23.528644617442477 1
ion C   4.679286990612404  13.484291020280608  23.427457139843693 1
ion C   2.341994858908544  17.525729630397418  23.471843026130763 1
ion C  -2.327260500926809  17.524680271424181  23.506564360790222 1
ion C   0.002203245718183  13.483789064939169  23.497906276306175 1
ion S   7.350899320190606  11.764718324374256  31.361927556252461 1
ion Na   3.353004489488624  11.655350954426734  28.697606674687371 1
ion Na  11.355103972937918  11.747054047512222  28.712818410291860 1

# Forces in Cartesian coordinates:
force C  -0.000124634785566  -0.000050140973594  -0.000226788513996 1
force C   0.000107522445611   0.000072105730678   0.000077139904648 1
force C  -0.000048088578341   0.000001256938999  -0.000000843009853 1
force C  -0.000041519831535   0.000128667487814  -0.000175253691294 1
force C  -0.000057625163173   0.000086204456676  -0.000148327438647 1
force C  -0.000042556989051   0.000116348445712   0.000040877659845 1
force C  -0.000021913398784   0.000126582819660  -0.000067584554590 1
force C   0.000039375915487  -0.000008605821319   0.000157751671477 1
force C  -0.000007971996961  -0.000089928044530   0.000106895590460 1
force C  -0.000013944683692   0.000137775881451  -0.000195784671645 1
force C  -0.000031208296815   0.000007994654245  -0.000266109114179 1
force C   0.000001764776459   0.000104334316618   0.000094643176575 1
force C   0.000055363551003   0.000043151130337   0.000024476915441 1
force C   0.000030792093142   0.000013434318222   0.000169718308765 1
force C   0.000042371492726   0.000127513419094  -0.000087236178956 1
force C   0.000086797811064  -0.000048034443869  -0.000222397620064 1
force C   0.000003353232248   0.000001274830474   0.000046276222894 1
force C   0.000053428051243  -0.000034413907605   0.000246621538661 1
force C  -0.000031318911474   0.000043374278543   0.000050468239809 1
force C   0.000022884174489  -0.000056025467923  -0.000111140928972 1
force C   0.000083657284324  -0.000042205188160   0.000144760426114 1
force C   0.000080666320946   0.000133583970007   0.000067075692349 1
force C   0.000162928429466  -0.000018908607795   0.000057591377598 1
force C   0.000166816595844  -0.000061569705077  -0.000092176868114 1
force C   0.000055855542868   0.000073622666090   0.000165199215830 1
force C   0.000025669758605  -0.000001494176183   0.000197129313903 1
force C  -0.000025930699800  -0.000043631536160   0.000009364846847 1
force C   0.000026651294771  -0.000173141689218  -0.000028292717034 1
force C   0.000058293093133  -0.000202335850206  -0.000019370030053 1
force C   0.000130217921244   0.000082310686873  -0.000017399859041 1
force C   0.000008135949506   0.000071956968543   0.000120330027258 1
force C  -0.000103563156390  -0.000057346405515  -0.000025599600737 1
force C  -0.000011032662044  -0.000044427615491  -0.000128247360243 1
force C  -0.000035667910785   0.000112219952003  -0.000089537190201 1
force C   0.000056800899865   0.000090380557813   0.000186473810748 1
force C  -0.000069142872106  -0.000018325449319  -0.000013570493140 1
force C  -0.000147959812312   0.000019329819868   0.000000380528425 1
force C   0.000154519739022   0.000053501477853  -0.000034418127857 1
force C   0.000068385905350  -0.000135272642579   0.000078625117512 1
force C   0.000039833128511  -0.000041353135853   0.000005672875998 1
force C   0.000029889716561  -0.000036925727705  -0.000065673682048 1
force C  -0.000015209995022  -0.000044969874845  -0.000019974524214 1
force C  -0.000041050361087  -0.000021442019950   0.000024351030827 1
force C  -0.000056731267207  -0.000167442826049  -0.000075952402024 1
force C   0.000112525376658   0.000005679333342   0.000108151758648 1
force C   0.000030893055885  -0.000007079652492  -0.000115257330208 1
force C  -0.000061089748524   0.000063362332496  -0.000277605922561 1
force C  -0.000002990575391  -0.000041974320754   0.000020598837219 1
force C  -0.000019497090966  -0.000072310508637   0.000001630432092 1
force C  -0.000019852814687   0.000046890235049  -0.000146930769985 1
force C  -0.000074523707886   0.000050046973702  -0.000169887331187 1
force C  -0.000051372511411  -0.000116070232890  -0.000042848272658 1
force C  -0.000083290222780  -0.000093790155641  -0.000006005830438 1
force C   0.000113993350515   0.000076433607438   0.000176109758453 1
force C  -0.000066922564237   0.000013439893459   0.000076188691393 1
force C  -0.000047434792534   0.000036628325649  -0.000029771406523 1
force C  -0.000204957828775  -0.000148479968496  -0.000013677274471 1
force C  -0.000051596768219   0.000005419197351  -0.000134288312346 1
force C   0.000013526240979   0.000028362822534  -0.000147877627217 1
force C  -0.000226890913499   0.000122430882582   0.000038900697920 1
force C   0.000054178237000  -0.000160073936255  -0.000036286966707 1
force C  -0.000006160646859   0.000197288224740  -0.000141984749220 1
force C  -0.000062510093237   0.000041057466286  -0.000152012424877 1
force C   0.000073368255876  -0.000061966867578  -0.000024867752108 1
force C   0.000066192703130  -0.000008234370543   0.000051287398016 1
force C  -0.000018996887216   0.000043529875789  -0.000103888595059 1
force C   0.000011463914973  -0.000019530061943   0.000132509328895 1
force C   0.000044195389523   0.000042517889297  -0.000050745136716 1
force C  -0.000019253162447   0.000024639126604  -0.000140947627080 1
force C   0.000016414657574  -0.000055981103328  -0.000014584894905 1
force C  -0.000049066629666  -0.000188015049701   0.000075862311050 1
force C  -0.000052505839695  -0.000031104437111   0.000075541643261 1
force S  -0.000139694443235  -0.000071917611191  -0.000364487053835 1
force Na   0.000015973424471   0.000009848145749  -0.000140806871448 1
force Na   0.000051278182743   0.000018798187505  -0.000301737005886 1

# Energy components:
   Eewald =    -1096.9426972575708987
       EH =     -704.4261095162091806
     Eloc =     1256.1097322708874344
      Enl =      -83.7752180921347929
     EvdW =       -0.1069706814528402
      Exc =     -149.3021549553563432
 Exc_core =        4.1924000766186413
       KE =      257.3565229368113023
-------------------------------------
     Etot =     -516.8944952184066324
       TS =        0.0753420495422475
-------------------------------------
        F =     -516.9698372679488330

IonicMinimize: Iter:  15  F: -516.969837267948833  |grad|_K:  9.722e-05  alpha:  3.313e+00  linmin: -4.956e-03  t[s]:  12933.78
IonicMinimize: Converged (|grad|_K<1.000000e-04).

#--- Lowdin population analysis ---
# oxidation-state C +0.041 +0.040 +0.039 +0.041 +0.041 +0.040 +0.039 +0.038 +0.024 +0.041 +0.041 +0.034 +0.038 +0.038 +0.026 +0.041 +0.029 +0.041 +0.040 +0.025 +0.030 +0.039 +0.039 -0.016 +0.037 +0.042 +0.041 +0.026 +0.024 +0.040 +0.039 -0.015 +0.030 +0.040 +0.033 +0.031 +0.041 +0.041 +0.041 +0.037 +0.038 +0.041 +0.042 +0.034 +0.040 +0.036 +0.030 +0.041 +0.041 +0.017 +0.039 +0.041 +0.041 +0.037 +0.009 +0.040 +0.040 +0.029 +0.003 +0.037 +0.041 +0.039 +0.002 +0.032 +0.041 +0.040 +0.041 +0.037 +0.009 +0.034 +0.038 +0.017
# oxidation-state S -0.907
# oxidation-state Na +0.793 +0.793


Dumping 'Na2S@graphene-vdw.fillings' ... done
Dumping 'Na2S@graphene-vdw.wfns' ... done
Dumping 'Na2S@graphene-vdw.ionpos' ... done
Dumping 'Na2S@graphene-vdw.eigenvals' ... done
End date and time: Thu Sep 26 17:37:23 2024  (Duration: 0-3:35:38.77)
Done!
