
*************** JDFTx 1.7.0  ***************

Start date and time: Fri Jan  3 15:34:33 2025
Executable jdftx_gpu with command-line: -i /home/akim2/JDFTx/Na2S6@graphene_vdw-glyme/Na2S6@graphene_vdw-glyme.in -o /home/akim2/JDFTx/Na2S6@graphene_vdw-glyme/Na2S6@graphene_vdw-glyme.out
Running on hosts (process indices):  exp-5-59 (0)
Divided in process groups (process indices):  0 (0)
gpuInit: Found compatible cuda device 0 'Tesla V100-SXM2-32GB'
gpuInit: Selected device 0
Resource initialization completed at t[s]:      0.72
Run totals: 1 processes, 1 threads, 1 GPUs


Input parsed successfully to the following command list (including defaults):

basis kpoint-dependent
coords-type Cartesian
core-overlap-check vector
coulomb-interaction Slab 001
coulomb-truncation-embed 0 0 18.8973
davidson-band-ratio 1.1
dump End State
dump-name Na2S6@graphene_vdw-glyme.$VAR
elec-cutoff 20 100
elec-eigen-algo Davidson
elec-ex-corr gga-PBE
elec-smearing Fermi 0.01
electronic-minimize  \
	dirUpdateScheme      FletcherReeves \
	linminMethod         DirUpdateRecommended \
	nIterations          100 \
	history              15 \
	knormThreshold       0 \
	energyDiffThreshold  1e-08 \
	nEnergyDiff          2 \
	alphaTstart          1 \
	alphaTmin            1e-10 \
	updateTestStepSize   yes \
	alphaTreduceFactor   0.1 \
	alphaTincreaseFactor 3 \
	nAlphaAdjustMax      3 \
	wolfeEnergy          0.0001 \
	wolfeGradient        0.9 \
	fdTest               no
electronic-scf  \
	nIterations	50 \
	energyDiffThreshold	1e-08 \
	residualThreshold	1e-07 \
	mixFraction	0.5 \
	qMetric	0.8 \
	history	10 \
	nEigSteps	2 \
	eigDiffThreshold	1e-08 \
	mixedVariable	Density \
	qKerker	0.8 \
	qKappa	-1 \
	verbose	no \
	mixFractionMag	1.5
exchange-regularization WignerSeitzTruncated
fluid LinearPCM 298.000000 1.013250
fluid-ex-corr lda-TF lda-PZ
fluid-gummel-loop 10 1.000000e-05
fluid-minimize  \
	dirUpdateScheme      PolakRibiere \
	linminMethod         DirUpdateRecommended \
	nIterations          400 \
	history              15 \
	knormThreshold       1e-11 \
	energyDiffThreshold  0 \
	nEnergyDiff          2 \
	alphaTstart          1 \
	alphaTmin            1e-10 \
	updateTestStepSize   yes \
	alphaTreduceFactor   0.1 \
	alphaTincreaseFactor 3 \
	nAlphaAdjustMax      6 \
	wolfeEnergy          0.0001 \
	wolfeGradient        0.9 \
	fdTest               no
fluid-solvent Glyme 9.62137 ScalarEOS \
	epsBulk 7.2 \
	pMol 0 \
	epsInf 1.9 \
	Pvap 0 \
	sigmaBulk 0 \
	Rvdw 0 \
	Res 0 \
	tauNuc 343133
forces-output-coords Positions
ion C  28.011910236849264   0.002219763580138  18.682854412394537 1
ion C  16.343420281457064  20.215529840309792  18.682312019708569 1
ion C   2.339822181400544   4.042564294635056  18.664577991150388 1
ion C  23.344788688113091   0.002097944444792  18.680137570154951 1
ion C   4.673510582583059   0.001811926900847  18.676322909213503 1
ion C  11.675792538736948  20.215438235776229  18.663066135725625 1
ion C  25.677413408362217   4.042495453272838  18.686899079342080 1
ion C  18.677099035458252  16.173148171823758  18.685403528179492 1
ion C   4.673487420914283   8.082412064665133  18.611819215557823 1
ion C  18.677856985569925   0.002083928203987  18.680033279348404 1
ion C   9.340995715742576   0.001468680763731  18.672857248819060 1
ion C   9.342034925866171  16.176353753350615  18.611294411820769 1
ion C  23.343972355677941   8.085000631929171  18.690044008210808 1
ion C  21.010223156926127  12.129008674169796  18.690163021531578 1
ion C   7.010512740386218  12.128720830013085  18.570366099083241 1
ion C  14.009388087962492   0.001906040235317  18.680631035749016 1
ion C  14.010436070003792  16.175811440612570  18.656912995663266 1
ion C   7.006885479245672   4.041052607342899  18.643267721572780 1
ion C  21.011268752338793   4.043004030142968  18.693706847049114 1
ion C  16.345638638030920  12.130586722533257  18.673078885474609 1
ion C   9.338321362063933   8.081716254791615  18.598503948868046 1
ion C  16.344784378988400   4.041863585363015  18.691514908720226 1
ion C  11.674750981729126   4.041470537104368  18.660936585897762 1
ion C  11.676936610095854  12.134527684742556  18.614266143451228 1
ion C  18.679366663611244   8.085068545724013  18.695161820156130 1
ion C   7.008658957547139  20.216379292680088  18.653031715813221 1
ion C  -6.995713872213307  20.214703171211188  18.688477215253005 1
ion C   0.003348208513086   8.082482261229762  18.669436205521798 1
ion C  14.013719130527859   8.082877211286972  18.666738482175969 1
ion C   2.340405315289189  20.216617070754740  18.670542854467943 1
ion C  -4.662670112690889  16.173015132550599  18.693222387616760 1
ion C   2.337843775133630  12.127796393942413  18.640114111376839 1
ion C  -2.331620585801025  12.128377975048737  18.685961572814122 1
ion C  -2.328390195481717  20.215570699478960  18.686933806651240 1
ion C   4.675560676954575  16.177799457582839  18.626028906602791 1
ion C   0.004396126023920  16.174919789695490  18.678526509016976 1
ion C  14.009667092769647  21.561897211726262  18.678236418493206 1
ion C   2.339975233489926   1.348700411170866  18.676563105892225 1
ion C  25.678138720632976   1.348492482747284  18.684947587863604 1
ion C  16.344041333530967  17.521538857806590  18.677472752415042 1
ion C   4.673725458900750   5.388232415772075  18.638660383948409 1
ion C  21.011344400627163   1.348893438463100  18.686684053275581 1
ion C   7.007274620361919   1.347885698147265  18.666137575032067 1
ion C  11.676074924128731  17.521845888449882  18.641993863649990 1
ion C  23.344474331440505   5.390308092323213  18.691783116726938 1
ion C  18.678124307730791  13.478622060503485  18.683577630943212 1
ion C   7.006457771552991   9.432752629092036  18.577646700814473 1
ion C  16.343775003794505   1.347826600224892  18.685231305918876 1
ion C  11.674910052517296   1.347762477910186  18.671724103254160 1
ion C   9.341473498850080  13.481563465305443  18.585178285281202 1
ion C  21.011666714338382   9.434100928516692  18.692081040625723 1
ion C   9.342482323691250  21.562172975682746  18.665020875655312 1
ion C  -9.328954236705073  21.561780709011305  18.684888934651983 1
ion C   0.005300106435699   5.388491090450849  18.674572248064244 1
ion C  14.012834121286176  13.481674844521114  18.650446678840453 1
ion C   9.340241551693328   5.387149672731647  18.631494852239872 1
ion C  18.678237946447190   5.390176928543078  18.695799757929610 1
ion C  16.347060516622719   9.434287354562358  18.682297281373945 1
ion C  11.675195483957204   9.432756706535526  18.624085661588719 1
ion C  14.010370291847531   5.387097250625039  18.676384691981855 1
ion C   4.674488235644843  21.562176275056768  18.665762752961211 1
ion C  -6.995769635550399  17.520447348468473  18.690714188320783 1
ion C   2.338001080571558   9.428200048716308  18.639008612505936 1
ion C  -2.329402888135192   9.432702777540239  18.681537585436061 1
ion C  -4.662059564340674  21.561494861485521  18.684533450935447 1
ion C   7.009099631332127  17.523609454223557  18.624711802658275 1
ion C   0.005795293934511  21.562077222982087  18.680782045941559 1
ion C  -4.663484447779537  13.477949755459957  18.692601377861322 1
ion C   4.676614008547157  13.479772118627142  18.602733685502557 1
ion C   2.340091731986849  17.522361130276995  18.660125212203958 1
ion C  -2.329514900926092  17.521177084792019  18.691798288248290 1
ion C   0.000975118338195  13.479052558435429  18.674446562176019 1
ion S   3.835766165859495  14.739701471156863  28.995441707094283 1
ion S   7.511523834878576  14.040276560367904  28.602018175044005 1
ion S   8.635057213065766  14.519886329276712  24.991243288268290 1
ion S   6.375960294455316   8.012770307949213  25.106876454318460 1
ion S   7.548100766465572   8.603094502127380  28.685454833334742 1
ion S  11.234466375204438   7.934102030188154  29.050857519947979 1
ion Na   3.709882600781138  12.533143250516401  24.268227425962376 1
ion Na  11.287421196737338   9.970663024836618  24.243920316053924 1
ion-species GBRV/$ID_pbe.uspp
ion-width Ecut
ionic-minimize  \
	dirUpdateScheme      FletcherReeves \
	linminMethod         DirUpdateRecommended \
	nIterations          200 \
	history              15 \
	knormThreshold       0.0001 \
	energyDiffThreshold  1e-06 \
	nEnergyDiff          2 \
	alphaTstart          1 \
	alphaTmin            1e-10 \
	updateTestStepSize   yes \
	alphaTreduceFactor   0.1 \
	alphaTincreaseFactor 3 \
	nAlphaAdjustMax      3 \
	wolfeEnergy          0.0001 \
	wolfeGradient        0.9 \
	fdTest               no
kpoint   0.000000000000   0.000000000000   0.000000000000  1.00000000000000
kpoint-folding 1 1 1 
latt-move-scale 1 1 1
latt-scale 1 1 1 
lattice Triclinic 28.0058 28.0058 37.7946 90 90 120
lattice-minimize  \
	dirUpdateScheme      L-BFGS \
	linminMethod         DirUpdateRecommended \
	nIterations          0 \
	history              15 \
	knormThreshold       0 \
	energyDiffThreshold  1e-06 \
	nEnergyDiff          2 \
	alphaTstart          1 \
	alphaTmin            1e-10 \
	updateTestStepSize   yes \
	alphaTreduceFactor   0.1 \
	alphaTincreaseFactor 3 \
	nAlphaAdjustMax      3 \
	wolfeEnergy          0.0001 \
	wolfeGradient        0.9 \
	fdTest               no
lcao-params -1 1e-06 0.01
pcm-variant GLSSA13
spintype no-spin
subspace-rotation-factor 1 yes
symmetries automatic
symmetry-threshold 0.0001
van-der-waals D3



---------- Setting up symmetries ----------

Found 24 point-group symmetries of the bravais lattice
Found 1 space-group symmetries with basis
Applied RMS atom displacement 0 bohrs to make symmetries exact.

---------- Initializing the Grid ----------
R = 
[      28.0058     -14.0029            0  ]
[            0      24.2537            0  ]
[            0            0      37.7946  ]
unit cell volume = 25671.8
G =
[   0.224353    0.12953         -0  ]
[          0   0.259061          0  ]
[          0         -0   0.166246  ]
Minimum fftbox size, Smin = [  128  128  172  ]
Chosen fftbox size, S = [  128  128  180  ]

---------- Initializing tighter grid for wavefunction operations ----------
R = 
[      28.0058     -14.0029            0  ]
[            0      24.2537            0  ]
[            0            0      37.7946  ]
unit cell volume = 25671.8
G =
[   0.224353    0.12953         -0  ]
[          0   0.259061          0  ]
[          0         -0   0.166246  ]
Minimum fftbox size, Smin = [  116  116  156  ]
Chosen fftbox size, S = [  120  120  160  ]

---------- Exchange Correlation functional ----------
Initalized PBE GGA exchange.
Initalized PBE GGA correlation.

---------- Setting up pseudopotentials ----------
Width of ionic core gaussian charges (only for fluid interactions / plotting) set to 0.397384

Reading pseudopotential file '/home/akim2/jdftx_install/build/pseudopotentials/GBRV/c_pbe.uspp':
  Title: C.  Created by USPP 7.3.6 on 3-2-2014
  Reference state energy: -5.406344.  4 valence electrons in orbitals:
    |200>  occupation: 2  eigenvalue: -0.504890
    |210>  occupation: 2  eigenvalue: -0.194356
  lMax: 1  lLocal: 2  QijEcut: 5
  4 projectors sampled on a log grid with 503 points:
    l: 0  eig: -0.504890  rCut: 1.3
    l: 0  eig: 0.000000  rCut: 1.3
    l: 1  eig: -0.194357  rCut: 1.3
    l: 1  eig: 0.000000  rCut: 1.3
  Partial core density with radius 1.1
  Transforming core density to a uniform radial grid of dG=0.02 with 1625 points.
  Transforming local potential to a uniform radial grid of dG=0.02 with 1625 points.
  Transforming nonlocal projectors to a uniform radial grid of dG=0.02 with 432 points.
  Transforming density augmentations to a uniform radial grid of dG=0.02 with 1625 points.
  Transforming atomic orbitals to a uniform radial grid of dG=0.02 with 432 points.
  Core radius for overlap checks: 1.30 bohrs.

Reading pseudopotential file '/home/akim2/jdftx_install/build/pseudopotentials/GBRV/s_pbe.uspp':
  Title: S.  Created by USPP 7.3.6 on 1-4-15
  Reference state energy: -11.898476.  6 valence electrons in orbitals:
    |300>  occupation: 2  eigenvalue: -0.634167
    |310>  occupation: 4  eigenvalue: -0.257568
  lMax: 2  lLocal: 3  QijEcut: 6
  6 projectors sampled on a log grid with 635 points:
    l: 0  eig: -0.634161  rCut: 1.5
    l: 0  eig: 1.500000  rCut: 1.5
    l: 1  eig: -0.257567  rCut: 1.5
    l: 1  eig: 1.500000  rCut: 1.5
    l: 2  eig: -1.000000  rCut: 1.5
    l: 2  eig: 1.500000  rCut: 1.5
  Partial core density with radius 1.15
  Transforming core density to a uniform radial grid of dG=0.02 with 1625 points.
  Transforming local potential to a uniform radial grid of dG=0.02 with 1625 points.
  Transforming nonlocal projectors to a uniform radial grid of dG=0.02 with 432 points.
  Transforming density augmentations to a uniform radial grid of dG=0.02 with 1625 points.
  Transforming atomic orbitals to a uniform radial grid of dG=0.02 with 432 points.
  Core radius for overlap checks: 1.50 bohrs.

Reading pseudopotential file '/home/akim2/jdftx_install/build/pseudopotentials/GBRV/na_pbe.uspp':
  Title: Na.  Created by USPP 7.3.6 on 23-9-15
  Reference state energy: -47.625620.  9 valence electrons in orbitals:
    |200>  occupation: 2  eigenvalue: -2.085638
    |210>  occupation: 6  eigenvalue: -1.053708
    |300>  occupation: 1  eigenvalue: -0.100838
  lMax: 2  lLocal: 0  QijEcut: 6
  5 projectors sampled on a log grid with 657 points:
    l: 0  eig: -2.085640  rCut: 1.37
    l: 0  eig: -0.100839  rCut: 1.37
    l: 1  eig: -1.053708  rCut: 1.47
    l: 1  eig: 0.500000  rCut: 1.47
    l: 2  eig: 0.750000  rCut: 2
  Transforming local potential to a uniform radial grid of dG=0.02 with 1625 points.
  Transforming nonlocal projectors to a uniform radial grid of dG=0.02 with 432 points.
  Transforming density augmentations to a uniform radial grid of dG=0.02 with 1625 points.
  Transforming atomic orbitals to a uniform radial grid of dG=0.02 with 432 points.
  Core radius for overlap checks: 2.00 bohrs.

Initialized 3 species with 80 total atoms.

Folded 1 k-points by 1x1x1 to 1 k-points.

---------- Setting up k-points, bands, fillings ----------
No reducable k-points. 
Computing the number of bands and number of electrons
Calculating initial fillings.
nElectrons: 342.000000   nBands: 322   nStates: 1

----- Setting up reduced wavefunction bases (one per k-point) -----
average nbasis = 109673.000 , ideal nbasis = 109671.883

---------- Setting up coulomb interaction ----------
Fluid mode embedding: using embedded box, but periodic Coulomb kernel.
(Fluid response is responsible for (approximate) separation between periodic images.)
Setting up double-sized grid for truncated Coulomb potentials:
R = 
[      28.0058     -14.0029            0  ]
[            0      24.2537            0  ]
[            0            0      75.5892  ]
unit cell volume = 51343.6
G =
[   0.224353    0.12953         -0  ]
[          0   0.259061          0  ]
[          0         -0  0.0831228  ]
Chosen fftbox size, S = [  128  128  360  ]
Integer grid location selected as the embedding center:
   Grid: [  0  0  90  ]
   Lattice: [  0  0  0.5  ]
   Cartesian: [  0  0  18.8973  ]
Constructing Wigner-Seitz cell: 8 faces (6 quadrilaterals, 2 hexagons)
Range-separation parameter for embedded mesh potentials due to point charges: 0.590105 bohrs.

Initializing DFT-D3 calculator:
	Parameters set for gga-PBE functional
	s6:  1.000  s_r6:  1.217
	s8:  0.722  s_r8:  1.000
	Per-atom parameters loaded for:
	 C:  sqrtQ[a0]:  3.105  Rcov[a0]:  1.417  CN: [ 0.00 0.99 2.00 3.00 3.98 ]
	 S:  sqrtQ[a0]:  4.041  Rcov[a0]:  1.928  CN: [ 0.00 0.99 1.99 ]
	Na:  sqrtQ[a0]:  6.586  Rcov[a0]:  2.646  CN: [ 0.00 0.97 ]

---------- Setting up ewald sum ----------
Optimum gaussian width for ewald sums = 7.143162 bohr.
Real space sum over 405 unit cells with max indices [  4  4  2  ]
Reciprocal space sum over 7875 terms with max indices [  7  7  17  ]

Computing DFT-D3 correction:
# coordination-number C 3.301 3.301 3.302 3.301 3.301 3.301 3.301 3.300 3.322 3.301 3.301 3.310 3.301 3.300 3.368 3.301 3.303 3.304 3.301 3.306 3.405 3.301 3.305 3.459 3.301 3.302 3.301 3.305 3.364 3.301 3.300 3.552 3.303 3.301 3.338 3.308 3.301 3.301 3.301 3.301 3.305 3.301 3.301 3.303 3.300 3.301 3.341 3.301 3.301 3.339 3.300 3.301 3.301 3.301 3.319 3.313 3.300 3.309 3.633 3.307 3.301 3.301 3.356 3.302 3.301 3.307 3.301 3.301 3.546 3.309 3.301 3.336
# coordination-number S 2.007 3.008 2.925 2.923 3.005 2.006
# coordination-number Na 4.360 4.388
# diagonal-C6 C 24.28 24.27 24.27 24.27 24.27 24.27 24.27 24.28 24.06 24.27 24.27 24.18 24.28 24.28 23.53 24.28 24.26 24.25 24.28 24.22 23.04 24.27 24.24 22.25 24.27 24.26 24.28 24.24 23.58 24.27 24.28 20.90 24.25 24.28 23.89 24.20 24.27 24.27 24.28 24.27 24.24 24.28 24.27 24.25 24.28 24.27 23.85 24.28 24.27 23.87 24.28 24.27 24.27 24.27 24.09 24.16 24.28 24.19 19.90 24.21 24.27 24.28 23.68 24.27 24.28 24.21 24.28 24.28 20.98 24.20 24.27 23.91
# diagonal-C6 S 125.89 125.81 125.81 125.81 125.81 125.90
# diagonal-C6 Na 186.11 186.11
EvdW_6 =   -0.066539
EvdW_8 =   -0.060781

---------- Allocating electronic variables ----------
Initializing wave functions:  linear combination of atomic orbitals
C pseudo-atom occupations:   s ( 2 )  p ( 2 )
S pseudo-atom occupations:   s ( 2 )  p ( 4 )
Na pseudo-atom occupations:   s ( 2 1 )  p ( 6 )
	FillingsUpdate:  mu: -0.141517746  nElectrons: 342.000000
LCAOMinimize: Iter:   0  F: -562.7267903895474319  |grad|_K:  1.165e-02  alpha:  1.000e+00
	FillingsUpdate:  mu: -0.287309448  nElectrons: 342.000000
LCAOMinimize: Iter:   1  F: -562.9823952660636905  |grad|_K:  9.697e-03  alpha:  1.972e-01  linmin:  8.038e-02  cgtest: -1.048e+00  t[s]:      9.69
LCAOMinimize: 	Bad step direction: g.d > 0.
LCAOMinimize: 	Undoing step.
LCAOMinimize: 	Step failed: resetting search direction.
	FillingsUpdate:  mu: -0.287309448  nElectrons: 342.000000
LCAOMinimize: Iter:   2  F: -562.9823952660636905  |grad|_K:  9.697e-03  alpha:  0.000e+00
	FillingsUpdate:  mu: -0.210026483  nElectrons: 342.000000
LCAOMinimize: Iter:   3  F: -563.7607115091572041  |grad|_K:  2.223e-03  alpha:  9.766e-02  linmin: -2.259e-01  cgtest:  4.881e-01  t[s]:     12.46
LCAOMinimize: Encountered beta<0, resetting CG.
	FillingsUpdate:  mu: -0.236368299  nElectrons: 342.000000
LCAOMinimize: Iter:   4  F: -563.7887948089399970  |grad|_K:  1.013e-03  alpha:  1.177e-01  linmin:  1.694e-01  cgtest: -5.011e-01  t[s]:     14.08
	FillingsUpdate:  mu: -0.233966006  nElectrons: 342.000000
LCAOMinimize: Iter:   5  F: -563.7903922323519055  |grad|_K:  1.152e-03  alpha:  7.616e-02  linmin: -1.309e-04  cgtest:  9.218e-01  t[s]:     19.12
	FillingsUpdate:  mu: -0.237653769  nElectrons: 342.000000
LCAOMinimize: Iter:   6  F: -563.7966142210211729  |grad|_K:  2.923e-04  alpha:  8.964e-02  linmin: -1.416e-02  cgtest: -9.932e-02  t[s]:     23.26
LCAOMinimize: 	Predicted alpha/alphaT>3.000000, increasing alphaT to 2.689331e-01.
	FillingsUpdate:  mu: -0.237696472  nElectrons: 342.000000
LCAOMinimize: Iter:   7  F: -563.7987075384713762  |grad|_K:  2.158e-04  alpha:  4.711e-01  linmin:  9.624e-03  cgtest: -1.050e-01  t[s]:     27.58
	FillingsUpdate:  mu: -0.236886173  nElectrons: 342.000000
LCAOMinimize: Iter:   8  F: -563.7992698366432478  |grad|_K:  9.406e-05  alpha:  2.457e-01  linmin:  4.064e-04  cgtest:  1.976e-01  t[s]:     29.23
	FillingsUpdate:  mu: -0.236819463  nElectrons: 342.000000
LCAOMinimize: Iter:   9  F: -563.7993637830671787  |grad|_K:  5.209e-05  alpha:  2.034e-01  linmin:  7.302e-04  cgtest:  2.251e-03  t[s]:     31.11
	FillingsUpdate:  mu: -0.236868466  nElectrons: 342.000000
LCAOMinimize: Iter:  10  F: -563.7993785807352651  |grad|_K:  1.715e-05  alpha:  1.054e-01  linmin:  2.512e-03  cgtest: -2.002e-03  t[s]:     32.78
LCAOMinimize: 	Predicted alpha/alphaT>3.000000, increasing alphaT to 3.161524e-01.
	FillingsUpdate:  mu: -0.236884524  nElectrons: 342.000000
LCAOMinimize: Iter:  11  F: -563.7993857633238122  |grad|_K:  1.271e-05  alpha:  4.693e-01  linmin: -4.620e-04  cgtest:  2.217e-03  t[s]:     34.86
	FillingsUpdate:  mu: -0.236947770  nElectrons: 342.000000
LCAOMinimize: Iter:  12  F: -563.7993876540954261  |grad|_K:  4.475e-06  alpha:  2.240e-01  linmin: -2.894e-04  cgtest: -4.966e-03  t[s]:     36.50
	FillingsUpdate:  mu: -0.236947133  nElectrons: 342.000000
LCAOMinimize: Iter:  13  F: -563.7993877985705922  |grad|_K:  2.622e-06  alpha:  1.382e-01  linmin:  2.904e-06  cgtest: -2.651e-04  t[s]:     38.13
	FillingsUpdate:  mu: -0.236946716  nElectrons: 342.000000
LCAOMinimize: Iter:  14  F: -563.7993878565239356  |grad|_K:  9.939e-07  alpha:  1.616e-01  linmin:  3.767e-04  cgtest: -1.060e-03  t[s]:     39.76
LCAOMinimize: Converged (|Delta F|<1.000000e-06 for 2 iters).
----- createFluidSolver() ----- (Fluid-side solver setup)
   Initializing fluid molecule 'Glyme'
     Net charge: 0   dipole magnitude: 0
     Initializing spherical shell mfKernel with radius 0 Bohr
     deltaS corrections:

Correction to mu due to finite nuclear width = -0.00660906
   Cavity determined by nc: 8.36e-05 and sigma: 0.6
   Effective cavity tension: -8.03e-06 Eh/bohr^2 to account for cavitation and dispersion.


---- Citations for features of the code used in this run ----

   Software package:
      R. Sundararaman, K. Letchworth-Weaver, K.A. Schwarz, D. Gunceler, Y. Ozhabes and T.A. Arias, 'JDFTx: software for joint density-functional theory', SoftwareX 6, 278 (2017)

   gga-PBE exchange-correlation functional:
      J.P. Perdew, K. Burke and M. Ernzerhof, Phys. Rev. Lett. 77, 3865 (1996)

   Pseudopotentials:
      KF Garrity, JW Bennett, KM Rabe and D Vanderbilt, Comput. Mater. Sci. 81, 446 (2014)

   Truncated Coulomb potentials:
      R. Sundararaman and T.A. Arias, Phys. Rev. B 87, 165122 (2013)

   DFT-D3 dispersion correction:
      S. Grimme, J. Antony, S. Ehrlich and H. Krieg, J. Chem. Phys. 132, 154104 (2010)

   Linear/nonlinear dielectric/ionic fluid model with effective cavity tension:
      D. Gunceler, K. Letchworth-Weaver, R. Sundararaman, K.A. Schwarz and T.A. Arias, Modelling Simul. Mater. Sci. Eng. 21, 074005 (2013)

This list may not be complete. Please suggest additional citations or
report any other bugs at https://github.com/shankar1729/jdftx/issues

Initialization completed successfully at t[s]:     39.95


Computing DFT-D3 correction:
# coordination-number C 3.301 3.301 3.302 3.301 3.301 3.301 3.301 3.300 3.322 3.301 3.301 3.310 3.301 3.300 3.368 3.301 3.303 3.304 3.301 3.306 3.405 3.301 3.305 3.459 3.301 3.302 3.301 3.305 3.364 3.301 3.300 3.552 3.303 3.301 3.338 3.308 3.301 3.301 3.301 3.301 3.305 3.301 3.301 3.303 3.300 3.301 3.341 3.301 3.301 3.339 3.300 3.301 3.301 3.301 3.319 3.313 3.300 3.309 3.633 3.307 3.301 3.301 3.356 3.302 3.301 3.307 3.301 3.301 3.546 3.309 3.301 3.336
# coordination-number S 2.007 3.008 2.925 2.923 3.005 2.006
# coordination-number Na 4.360 4.388
# diagonal-C6 C 24.28 24.27 24.27 24.27 24.27 24.27 24.27 24.28 24.06 24.27 24.27 24.18 24.28 24.28 23.53 24.28 24.26 24.25 24.28 24.22 23.04 24.27 24.24 22.25 24.27 24.26 24.28 24.24 23.58 24.27 24.28 20.90 24.25 24.28 23.89 24.20 24.27 24.27 24.28 24.27 24.24 24.28 24.27 24.25 24.28 24.27 23.85 24.28 24.27 23.87 24.28 24.27 24.27 24.27 24.09 24.16 24.28 24.19 19.90 24.21 24.27 24.28 23.68 24.27 24.28 24.21 24.28 24.28 20.98 24.20 24.27 23.91
# diagonal-C6 S 125.89 125.81 125.81 125.81 125.81 125.90
# diagonal-C6 Na 186.11 186.11
EvdW_6 =   -0.066539
EvdW_8 =   -0.060781
Fluid solver invoked on fresh (random / LCAO) wavefunctions
Running a vacuum solve first:

-------- Initial electronic minimization -----------
Will mix electronic density at each iteration.
	FillingsUpdate:  mu: -0.236946716  nElectrons: 342.000000
	FillingsUpdate:  mu: -0.245544131  nElectrons: 342.000000
SCF: Cycle:  0   F: -567.417614611161980   dF: -3.618e+00   |Residual|: 9.861e-01   |deigs|: 1.268e-01  t[s]:     46.55
	FillingsUpdate:  mu: -0.217428213  nElectrons: 342.000000
SCF: Cycle:  1   F: -568.095036158788616   dF: -6.774e-01   |Residual|: 4.989e-01   |deigs|: 3.430e-02  t[s]:     49.94
	FillingsUpdate:  mu: -0.185386017  nElectrons: 342.000000
SCF: Cycle:  2   F: -568.362146656861000   dF: -2.671e-01   |Residual|: 1.139e-01   |deigs|: 3.335e-02  t[s]:     53.33
	FillingsUpdate:  mu: -0.178859889  nElectrons: 342.000000
SCF: Cycle:  3   F: -568.399576598817134   dF: -3.743e-02   |Residual|: 7.003e-02   |deigs|: 6.435e-03  t[s]:     56.71
	FillingsUpdate:  mu: -0.168333390  nElectrons: 342.000000
SCF: Cycle:  4   F: -568.424990018156905   dF: -2.541e-02   |Residual|: 3.683e-02   |deigs|: 9.902e-03  t[s]:     60.08
	FillingsUpdate:  mu: -0.160121976  nElectrons: 342.000000
SCF: Cycle:  5   F: -568.436334770574263   dF: -1.134e-02   |Residual|: 2.498e-02   |deigs|: 7.837e-03  t[s]:     63.43
	FillingsUpdate:  mu: -0.154797982  nElectrons: 342.000000
SCF: Cycle:  6   F: -568.441877687826945   dF: -5.543e-03   |Residual|: 1.787e-02   |deigs|: 5.186e-03  t[s]:     66.77
	FillingsUpdate:  mu: -0.148496917  nElectrons: 342.000000
SCF: Cycle:  7   F: -568.444807785199828   dF: -2.930e-03   |Residual|: 1.228e-02   |deigs|: 6.743e-03  t[s]:     69.91
	FillingsUpdate:  mu: -0.146114742  nElectrons: 342.000000
SCF: Cycle:  8   F: -568.445614184981991   dF: -8.064e-04   |Residual|: 8.852e-03   |deigs|: 2.374e-03  t[s]:     72.84
	FillingsUpdate:  mu: -0.143195414  nElectrons: 342.000000
SCF: Cycle:  9   F: -568.446746539244145   dF: -1.132e-03   |Residual|: 7.773e-03   |deigs|: 2.625e-03  t[s]:     75.84
	FillingsUpdate:  mu: -0.140155741  nElectrons: 342.000000
SCF: Cycle: 10   F: -568.447317832920135   dF: -5.713e-04   |Residual|: 7.920e-03   |deigs|: 2.606e-03  t[s]:     78.81
	FillingsUpdate:  mu: -0.138329739  nElectrons: 342.000000
SCF: Cycle: 11   F: -568.447508946425842   dF: -1.911e-04   |Residual|: 5.157e-03   |deigs|: 1.490e-03  t[s]:     81.71
	FillingsUpdate:  mu: -0.136425382  nElectrons: 342.000000
SCF: Cycle: 12   F: -568.447600461759180   dF: -9.152e-05   |Residual|: 4.330e-03   |deigs|: 1.676e-03  t[s]:     84.59
	FillingsUpdate:  mu: -0.133996252  nElectrons: 342.000000
SCF: Cycle: 13   F: -568.447611557178789   dF: -1.110e-05   |Residual|: 3.482e-03   |deigs|: 2.273e-03  t[s]:     87.53
	FillingsUpdate:  mu: -0.132714959  nElectrons: 342.000000
SCF: Cycle: 14   F: -568.447622415469255   dF: -1.086e-05   |Residual|: 3.128e-03   |deigs|: 1.389e-03  t[s]:     90.42
	FillingsUpdate:  mu: -0.129593365  nElectrons: 342.000000
SCF: Cycle: 15   F: -568.447643726154070   dF: -2.131e-05   |Residual|: 2.157e-03   |deigs|: 3.279e-03  t[s]:     93.31
	FillingsUpdate:  mu: -0.128856522  nElectrons: 342.000000
SCF: Cycle: 16   F: -568.447663021361905   dF: -1.930e-05   |Residual|: 1.722e-03   |deigs|: 6.738e-04  t[s]:     96.23
	FillingsUpdate:  mu: -0.127803014  nElectrons: 342.000000
SCF: Cycle: 17   F: -568.447693177791507   dF: -3.016e-05   |Residual|: 1.228e-03   |deigs|: 1.166e-03  t[s]:     99.12
	FillingsUpdate:  mu: -0.126969905  nElectrons: 342.000000
SCF: Cycle: 18   F: -568.447705806117369   dF: -1.263e-05   |Residual|: 9.700e-04   |deigs|: 1.139e-03  t[s]:    102.00
	FillingsUpdate:  mu: -0.126405986  nElectrons: 342.000000
SCF: Cycle: 19   F: -568.447715051073033   dF: -9.245e-06   |Residual|: 8.358e-04   |deigs|: 7.664e-04  t[s]:    104.90
	FillingsUpdate:  mu: -0.126066544  nElectrons: 342.000000
SCF: Cycle: 20   F: -568.447718253027574   dF: -3.202e-06   |Residual|: 6.454e-04   |deigs|: 8.162e-04  t[s]:    107.80
	FillingsUpdate:  mu: -0.125797750  nElectrons: 342.000000
SCF: Cycle: 21   F: -568.447721928129454   dF: -3.675e-06   |Residual|: 4.274e-04   |deigs|: 6.622e-04  t[s]:    110.69
	FillingsUpdate:  mu: -0.125758079  nElectrons: 342.000000
SCF: Cycle: 22   F: -568.447725487037587   dF: -3.559e-06   |Residual|: 3.197e-04   |deigs|: 5.510e-04  t[s]:    113.58
	FillingsUpdate:  mu: -0.125713062  nElectrons: 342.000000
SCF: Cycle: 23   F: -568.447727139255562   dF: -1.652e-06   |Residual|: 2.447e-04   |deigs|: 2.735e-04  t[s]:    116.47
	FillingsUpdate:  mu: -0.125719298  nElectrons: 342.000000
SCF: Cycle: 24   F: -568.447728208198555   dF: -1.069e-06   |Residual|: 1.853e-04   |deigs|: 2.619e-04  t[s]:    119.37
	FillingsUpdate:  mu: -0.125744483  nElectrons: 342.000000
SCF: Cycle: 25   F: -568.447728398514982   dF: -1.903e-07   |Residual|: 1.237e-04   |deigs|: 1.294e-04  t[s]:    122.27
	FillingsUpdate:  mu: -0.125726321  nElectrons: 342.000000
SCF: Cycle: 26   F: -568.447728441493041   dF: -4.298e-08   |Residual|: 7.678e-05   |deigs|: 1.602e-04  t[s]:    125.16
	FillingsUpdate:  mu: -0.125701877  nElectrons: 342.000000
SCF: Cycle: 27   F: -568.447728481801960   dF: -4.031e-08   |Residual|: 5.369e-05   |deigs|: 2.030e-04  t[s]:    128.04
	FillingsUpdate:  mu: -0.125686899  nElectrons: 342.000000
SCF: Cycle: 28   F: -568.447728519552584   dF: -3.775e-08   |Residual|: 3.894e-05   |deigs|: 2.021e-04  t[s]:    130.93
	FillingsUpdate:  mu: -0.125686788  nElectrons: 342.000000
SCF: Cycle: 29   F: -568.447728542666027   dF: -2.311e-08   |Residual|: 2.608e-05   |deigs|: 1.934e-04  t[s]:    137.14
	FillingsUpdate:  mu: -0.125685841  nElectrons: 342.000000
SCF: Cycle: 30   F: -568.447728552200033   dF: -9.534e-09   |Residual|: 1.807e-05   |deigs|: 1.985e-04  t[s]:    140.05
	FillingsUpdate:  mu: -0.125684143  nElectrons: 342.000000
SCF: Cycle: 31   F: -568.447728561479948   dF: -9.280e-09   |Residual|: 1.509e-05   |deigs|: 9.871e-05  t[s]:    143.18
SCF: Converged (|Delta E|<1.000000e-08 for 2 iters).

Setting wave functions to eigenvectors of Hamiltonian
Vacuum energy after initial minimize, F = -568.447728561479948


-------- Electronic minimization -----------
Will mix electronic density at each iteration.
	FillingsUpdate:  mu: -0.125684143  nElectrons: 342.000000
	Linear fluid (dielectric constant: 7.2) occupying 0.826547 of unit cell:	Completed after 13 iterations at t[s]:    144.01
	FillingsUpdate:  mu: -0.125950182  nElectrons: 342.000000
	Linear fluid (dielectric constant: 7.2) occupying 0.826755 of unit cell:	Completed after 11 iterations at t[s]:    148.15
SCF: Cycle:  0   F: -568.459467337066826   dF: +1.019e-02   |Residual|: 3.391e-02   |deigs|: 6.384e-04  t[s]:    148.32
	Linear fluid (dielectric constant: 7.2) occupying 0.827172 of unit cell:	Completed after 11 iterations at t[s]:    148.57
	FillingsUpdate:  mu: -0.125862130  nElectrons: 342.000000
	Linear fluid (dielectric constant: 7.2) occupying 0.826754 of unit cell:	Completed after 10 iterations at t[s]:    152.06
SCF: Cycle:  1   F: -568.471815471042532   dF: -1.235e-02   |Residual|: 9.539e-03   |deigs|: 1.774e-03  t[s]:    152.22
	Linear fluid (dielectric constant: 7.2) occupying 0.827432 of unit cell:	Completed after 10 iterations at t[s]:    152.45
	FillingsUpdate:  mu: -0.125933958  nElectrons: 342.000000
	Linear fluid (dielectric constant: 7.2) occupying 0.826927 of unit cell:	Completed after 9 iterations at t[s]:    155.55
SCF: Cycle:  2   F: -568.472878683919703   dF: -1.063e-03   |Residual|: 6.584e-03   |deigs|: 5.186e-04  t[s]:    155.72
	Linear fluid (dielectric constant: 7.2) occupying 0.827487 of unit cell:	Completed after 9 iterations at t[s]:    155.93
	FillingsUpdate:  mu: -0.125975599  nElectrons: 342.000000
	Linear fluid (dielectric constant: 7.2) occupying 0.827168 of unit cell:	Completed after 9 iterations at t[s]:    159.45
SCF: Cycle:  3   F: -568.473619787827147   dF: -7.411e-04   |Residual|: 3.989e-03   |deigs|: 4.120e-04  t[s]:    159.62
	Linear fluid (dielectric constant: 7.2) occupying 0.827154 of unit cell:	Completed after 8 iterations at t[s]:    159.81
	FillingsUpdate:  mu: -0.125874092  nElectrons: 342.000000
	Linear fluid (dielectric constant: 7.2) occupying 0.827323 of unit cell:	Completed after 9 iterations at t[s]:    163.38
SCF: Cycle:  4   F: -568.474224835011569   dF: -6.050e-04   |Residual|: 2.900e-03   |deigs|: 5.891e-04  t[s]:    163.55
	Linear fluid (dielectric constant: 7.2) occupying 0.826966 of unit cell:	Completed after 8 iterations at t[s]:    163.74
	FillingsUpdate:  mu: -0.125727859  nElectrons: 342.000000
	Linear fluid (dielectric constant: 7.2) occupying 0.827337 of unit cell:	Completed after 9 iterations at t[s]:    167.27
SCF: Cycle:  5   F: -568.474502043521738   dF: -2.772e-04   |Residual|: 2.273e-03   |deigs|: 3.446e-04  t[s]:    167.45
	Linear fluid (dielectric constant: 7.2) occupying 0.826795 of unit cell:	Completed after 8 iterations at t[s]:    167.64
	FillingsUpdate:  mu: -0.125435581  nElectrons: 342.000000
	Linear fluid (dielectric constant: 7.2) occupying 0.827246 of unit cell:	Completed after 8 iterations at t[s]:    171.18
SCF: Cycle:  6   F: -568.474881310011256   dF: -3.793e-04   |Residual|: 1.633e-03   |deigs|: 5.915e-04  t[s]:    171.35
	Linear fluid (dielectric constant: 7.2) occupying 0.826571 of unit cell:	Completed after 8 iterations at t[s]:    171.53
	FillingsUpdate:  mu: -0.125316048  nElectrons: 342.000000
	Linear fluid (dielectric constant: 7.2) occupying 0.827195 of unit cell:	Completed after 7 iterations at t[s]:    175.11
SCF: Cycle:  7   F: -568.475047807352212   dF: -1.665e-04   |Residual|: 1.273e-03   |deigs|: 3.137e-04  t[s]:    175.28
	Linear fluid (dielectric constant: 7.2) occupying 0.826232 of unit cell:	Completed after 8 iterations at t[s]:    175.47
	FillingsUpdate:  mu: -0.125310853  nElectrons: 342.000000
	Linear fluid (dielectric constant: 7.2) occupying 0.827190 of unit cell:	Completed after 7 iterations at t[s]:    178.96
SCF: Cycle:  8   F: -568.475115888500227   dF: -6.808e-05   |Residual|: 1.056e-03   |deigs|: 3.609e-04  t[s]:    179.12
	Linear fluid (dielectric constant: 7.2) occupying 0.826401 of unit cell:	Completed after 7 iterations at t[s]:    179.30
	FillingsUpdate:  mu: -0.125405961  nElectrons: 342.000000
	Linear fluid (dielectric constant: 7.2) occupying 0.827195 of unit cell:	Completed after 6 iterations at t[s]:    182.32
SCF: Cycle:  9   F: -568.475129446106052   dF: -1.356e-05   |Residual|: 7.918e-04   |deigs|: 2.520e-04  t[s]:    182.49
	Linear fluid (dielectric constant: 7.2) occupying 0.826654 of unit cell:	Completed after 6 iterations at t[s]:    182.67
	FillingsUpdate:  mu: -0.125493566  nElectrons: 342.000000
	Linear fluid (dielectric constant: 7.2) occupying 0.827195 of unit cell:	Completed after 5 iterations at t[s]:    186.13
SCF: Cycle: 10   F: -568.475133357745563   dF: -3.912e-06   |Residual|: 7.919e-04   |deigs|: 3.614e-04  t[s]:    186.30
	Linear fluid (dielectric constant: 7.2) occupying 0.826711 of unit cell:	Completed after 6 iterations at t[s]:    186.47
	FillingsUpdate:  mu: -0.125533933  nElectrons: 342.000000
	Linear fluid (dielectric constant: 7.2) occupying 0.827209 of unit cell:	Completed after 5 iterations at t[s]:    189.50
SCF: Cycle: 11   F: -568.475131352977314   dF: +2.005e-06   |Residual|: 5.808e-04   |deigs|: 4.105e-04  t[s]:    189.66
	Linear fluid (dielectric constant: 7.2) occupying 0.826870 of unit cell:	Completed after 5 iterations at t[s]:    189.82
	FillingsUpdate:  mu: -0.125606524  nElectrons: 342.000000
	Linear fluid (dielectric constant: 7.2) occupying 0.827238 of unit cell:	Completed after 5 iterations at t[s]:    192.85
SCF: Cycle: 12   F: -568.475135946137243   dF: -4.593e-06   |Residual|: 5.542e-04   |deigs|: 2.046e-04  t[s]:    193.01
	Linear fluid (dielectric constant: 7.2) occupying 0.826992 of unit cell:	Completed after 5 iterations at t[s]:    193.18
	FillingsUpdate:  mu: -0.125653456  nElectrons: 342.000000
	Linear fluid (dielectric constant: 7.2) occupying 0.827253 of unit cell:	Completed after 5 iterations at t[s]:    196.16
SCF: Cycle: 13   F: -568.475142004588520   dF: -6.058e-06   |Residual|: 4.327e-04   |deigs|: 1.742e-04  t[s]:    196.32
	Linear fluid (dielectric constant: 7.2) occupying 0.827089 of unit cell:	Completed after 5 iterations at t[s]:    196.49
	FillingsUpdate:  mu: -0.125697032  nElectrons: 342.000000
	Linear fluid (dielectric constant: 7.2) occupying 0.827265 of unit cell:	Completed after 5 iterations at t[s]:    199.48
SCF: Cycle: 14   F: -568.475142333179065   dF: -3.286e-07   |Residual|: 3.747e-04   |deigs|: 2.536e-04  t[s]:    199.65
	Linear fluid (dielectric constant: 7.2) occupying 0.827141 of unit cell:	Completed after 5 iterations at t[s]:    199.81
	FillingsUpdate:  mu: -0.125755591  nElectrons: 342.000000
	Linear fluid (dielectric constant: 7.2) occupying 0.827277 of unit cell:	Completed after 5 iterations at t[s]:    203.27
SCF: Cycle: 15   F: -568.475144103378625   dF: -1.770e-06   |Residual|: 3.700e-04   |deigs|: 2.260e-04  t[s]:    203.43
	Linear fluid (dielectric constant: 7.2) occupying 0.827190 of unit cell:	Completed after 5 iterations at t[s]:    203.59
	FillingsUpdate:  mu: -0.125781266  nElectrons: 342.000000
	Linear fluid (dielectric constant: 7.2) occupying 0.827271 of unit cell:	Completed after 5 iterations at t[s]:    206.56
SCF: Cycle: 16   F: -568.475145042521262   dF: -9.391e-07   |Residual|: 2.445e-04   |deigs|: 1.770e-04  t[s]:    206.73
	Linear fluid (dielectric constant: 7.2) occupying 0.827239 of unit cell:	Completed after 5 iterations at t[s]:    206.89
	FillingsUpdate:  mu: -0.125820331  nElectrons: 342.000000
	Linear fluid (dielectric constant: 7.2) occupying 0.827264 of unit cell:	Completed after 4 iterations at t[s]:    209.86
SCF: Cycle: 17   F: -568.475146317989356   dF: -1.275e-06   |Residual|: 1.874e-04   |deigs|: 1.639e-04  t[s]:    210.02
	Linear fluid (dielectric constant: 7.2) occupying 0.827252 of unit cell:	Completed after 4 iterations at t[s]:    210.17
	FillingsUpdate:  mu: -0.125849580  nElectrons: 342.000000
	Linear fluid (dielectric constant: 7.2) occupying 0.827267 of unit cell:	Completed after 4 iterations at t[s]:    213.17
SCF: Cycle: 18   F: -568.475147317404776   dF: -9.994e-07   |Residual|: 1.202e-04   |deigs|: 1.676e-04  t[s]:    213.33
	Linear fluid (dielectric constant: 7.2) occupying 0.827262 of unit cell:	Completed after 4 iterations at t[s]:    213.49
	FillingsUpdate:  mu: -0.125871699  nElectrons: 342.000000
	Linear fluid (dielectric constant: 7.2) occupying 0.827268 of unit cell:	Completed after 4 iterations at t[s]:    216.47
SCF: Cycle: 19   F: -568.475147952132716   dF: -6.347e-07   |Residual|: 8.846e-05   |deigs|: 9.768e-05  t[s]:    216.63
	Linear fluid (dielectric constant: 7.2) occupying 0.827265 of unit cell:	Completed after 4 iterations at t[s]:    216.78
	FillingsUpdate:  mu: -0.125883053  nElectrons: 342.000000
	Linear fluid (dielectric constant: 7.2) occupying 0.827269 of unit cell:	Completed after 4 iterations at t[s]:    219.75
SCF: Cycle: 20   F: -568.475148178799827   dF: -2.267e-07   |Residual|: 6.819e-05   |deigs|: 8.352e-05  t[s]:    219.91
	Linear fluid (dielectric constant: 7.2) occupying 0.827255 of unit cell:	Completed after 4 iterations at t[s]:    220.05
	FillingsUpdate:  mu: -0.125893438  nElectrons: 342.000000
	Linear fluid (dielectric constant: 7.2) occupying 0.827268 of unit cell:	Completed after 4 iterations at t[s]:    223.01
SCF: Cycle: 21   F: -568.475148238938232   dF: -6.014e-08   |Residual|: 5.734e-05   |deigs|: 1.412e-04  t[s]:    223.17
	Linear fluid (dielectric constant: 7.2) occupying 0.827254 of unit cell:	Completed after 3 iterations at t[s]:    223.30
	FillingsUpdate:  mu: -0.125897309  nElectrons: 342.000000
	Linear fluid (dielectric constant: 7.2) occupying 0.827265 of unit cell:	Completed after 3 iterations at t[s]:    226.25
SCF: Cycle: 22   F: -568.475148362608365   dF: -1.237e-07   |Residual|: 4.556e-05   |deigs|: 6.010e-05  t[s]:    226.41
	Linear fluid (dielectric constant: 7.2) occupying 0.827253 of unit cell:	Completed after 2 iterations at t[s]:    226.54
	FillingsUpdate:  mu: -0.125902547  nElectrons: 342.000000
	Linear fluid (dielectric constant: 7.2) occupying 0.827262 of unit cell:	Completed after 2 iterations at t[s]:    229.48
SCF: Cycle: 23   F: -568.475148415450008   dF: -5.284e-08   |Residual|: 3.885e-05   |deigs|: 6.801e-05  t[s]:    229.63
	Linear fluid (dielectric constant: 7.2) occupying 0.827255 of unit cell:	Completed after 2 iterations at t[s]:    229.76
	FillingsUpdate:  mu: -0.125908530  nElectrons: 342.000000
	Linear fluid (dielectric constant: 7.2) occupying 0.827262 of unit cell:	Completed after 2 iterations at t[s]:    232.79
SCF: Cycle: 24   F: -568.475148414452178   dF: +9.978e-10   |Residual|: 3.245e-05   |deigs|: 6.281e-05  t[s]:    232.94
	Linear fluid (dielectric constant: 7.2) occupying 0.827257 of unit cell:	Completed after 1 iterations at t[s]:    233.06
	FillingsUpdate:  mu: -0.125912666  nElectrons: 342.000000
	Linear fluid (dielectric constant: 7.2) occupying 0.827262 of unit cell:	Completed after 1 iterations at t[s]:    236.47
SCF: Cycle: 25   F: -568.475148441455417   dF: -2.700e-08   |Residual|: 2.754e-05   |deigs|: 9.360e-05  t[s]:    236.61
	Linear fluid (dielectric constant: 7.2) occupying 0.827260 of unit cell:	Completed after 1 iterations at t[s]:    236.74
	FillingsUpdate:  mu: -0.125914613  nElectrons: 342.000000
	Linear fluid (dielectric constant: 7.2) occupying 0.827262 of unit cell:	Completed after 1 iterations at t[s]:    239.65
SCF: Cycle: 26   F: -568.475148434814400   dF: +6.641e-09   |Residual|: 2.526e-05   |deigs|: 3.883e-05  t[s]:    239.80
	Linear fluid (dielectric constant: 7.2) occupying 0.827259 of unit cell:	Completed after 1 iterations at t[s]:    239.91
	FillingsUpdate:  mu: -0.125914515  nElectrons: 342.000000
	Linear fluid (dielectric constant: 7.2) occupying 0.827263 of unit cell:	Completed after 1 iterations at t[s]:    242.85
SCF: Cycle: 27   F: -568.475148439248073   dF: -4.434e-09   |Residual|: 2.406e-05   |deigs|: 4.204e-05  t[s]:    242.99
	Linear fluid (dielectric constant: 7.2) occupying 0.827259 of unit cell:	Completed after 0 iterations at t[s]:    243.11
	FillingsUpdate:  mu: -0.125916331  nElectrons: 342.000000
	Linear fluid (dielectric constant: 7.2) occupying 0.827263 of unit cell:	Completed after 1 iterations at t[s]:    246.02
SCF: Cycle: 28   F: -568.475148438307542   dF: +9.405e-10   |Residual|: 3.306e-05   |deigs|: 3.803e-05  t[s]:    246.16
	Linear fluid (dielectric constant: 7.2) occupying 0.827258 of unit cell:	Completed after 1 iterations at t[s]:    246.27
	FillingsUpdate:  mu: -0.125913219  nElectrons: 342.000000
	Linear fluid (dielectric constant: 7.2) occupying 0.827264 of unit cell:	Completed after 1 iterations at t[s]:    249.22
SCF: Cycle: 29   F: -568.475148445125683   dF: -6.818e-09   |Residual|: 2.712e-05   |deigs|: 5.802e-05  t[s]:    249.36
	Linear fluid (dielectric constant: 7.2) occupying 0.827258 of unit cell:	Completed after 0 iterations at t[s]:    249.47
	FillingsUpdate:  mu: -0.125912181  nElectrons: 342.000000
	Linear fluid (dielectric constant: 7.2) occupying 0.827263 of unit cell:	Completed after 1 iterations at t[s]:    252.79
SCF: Cycle: 30   F: -568.475148448559139   dF: -3.433e-09   |Residual|: 3.988e-05   |deigs|: 4.891e-05  t[s]:    252.93
SCF: Converged (|Delta E|<1.000000e-08 for 2 iters).

Setting wave functions to eigenvectors of Hamiltonian
Single-point solvation energy estimate, DeltaF = -0.027419887079191

Computing DFT-D3 correction:
# coordination-number C 3.301 3.301 3.302 3.301 3.301 3.301 3.301 3.300 3.322 3.301 3.301 3.310 3.301 3.300 3.368 3.301 3.303 3.304 3.301 3.306 3.405 3.301 3.305 3.459 3.301 3.302 3.301 3.305 3.364 3.301 3.300 3.552 3.303 3.301 3.338 3.308 3.301 3.301 3.301 3.301 3.305 3.301 3.301 3.303 3.300 3.301 3.341 3.301 3.301 3.339 3.300 3.301 3.301 3.301 3.319 3.313 3.300 3.309 3.633 3.307 3.301 3.301 3.356 3.302 3.301 3.307 3.301 3.301 3.546 3.309 3.301 3.336
# coordination-number S 2.007 3.008 2.925 2.923 3.005 2.006
# coordination-number Na 4.360 4.388
# diagonal-C6 C 24.28 24.27 24.27 24.27 24.27 24.27 24.27 24.28 24.06 24.27 24.27 24.18 24.28 24.28 23.53 24.28 24.26 24.25 24.28 24.22 23.04 24.27 24.24 22.25 24.27 24.26 24.28 24.24 23.58 24.27 24.28 20.90 24.25 24.28 23.89 24.20 24.27 24.27 24.28 24.27 24.24 24.28 24.27 24.25 24.28 24.27 23.85 24.28 24.27 23.87 24.28 24.27 24.27 24.27 24.09 24.16 24.28 24.19 19.90 24.21 24.27 24.28 23.68 24.27 24.28 24.21 24.28 24.28 20.98 24.20 24.27 23.91
# diagonal-C6 S 125.89 125.81 125.81 125.81 125.81 125.90
# diagonal-C6 Na 186.11 186.11
EvdW_6 =   -0.066539
EvdW_8 =   -0.060781

# Ionic positions in cartesian coordinates:
ion C  28.011910236849264   0.002219763580138  18.682854412394537 1
ion C  16.343420281457064  20.215529840309792  18.682312019708569 1
ion C   2.339822181400544   4.042564294635056  18.664577991150388 1
ion C  23.344788688113091   0.002097944444792  18.680137570154951 1
ion C   4.673510582583059   0.001811926900847  18.676322909213503 1
ion C  11.675792538736948  20.215438235776229  18.663066135725625 1
ion C  25.677413408362217   4.042495453272838  18.686899079342080 1
ion C  18.677099035458252  16.173148171823758  18.685403528179492 1
ion C   4.673487420914283   8.082412064665133  18.611819215557823 1
ion C  18.677856985569925   0.002083928203987  18.680033279348404 1
ion C   9.340995715742576   0.001468680763731  18.672857248819060 1
ion C   9.342034925866171  16.176353753350615  18.611294411820769 1
ion C  23.343972355677941   8.085000631929171  18.690044008210808 1
ion C  21.010223156926127  12.129008674169796  18.690163021531578 1
ion C   7.010512740386218  12.128720830013085  18.570366099083241 1
ion C  14.009388087962492   0.001906040235317  18.680631035749016 1
ion C  14.010436070003792  16.175811440612570  18.656912995663266 1
ion C   7.006885479245672   4.041052607342899  18.643267721572780 1
ion C  21.011268752338793   4.043004030142968  18.693706847049114 1
ion C  16.345638638030920  12.130586722533257  18.673078885474609 1
ion C   9.338321362063933   8.081716254791615  18.598503948868046 1
ion C  16.344784378988400   4.041863585363015  18.691514908720226 1
ion C  11.674750981729126   4.041470537104368  18.660936585897762 1
ion C  11.676936610095854  12.134527684742556  18.614266143451228 1
ion C  18.679366663611244   8.085068545724013  18.695161820156130 1
ion C   7.008658957547139  20.216379292680088  18.653031715813221 1
ion C  -6.995713872213307  20.214703171211188  18.688477215253005 1
ion C   0.003348208513086   8.082482261229762  18.669436205521798 1
ion C  14.013719130527859   8.082877211286972  18.666738482175969 1
ion C   2.340405315289189  20.216617070754740  18.670542854467943 1
ion C  -4.662670112690889  16.173015132550599  18.693222387616760 1
ion C   2.337843775133630  12.127796393942413  18.640114111376839 1
ion C  -2.331620585801025  12.128377975048737  18.685961572814122 1
ion C  -2.328390195481717  20.215570699478960  18.686933806651240 1
ion C   4.675560676954575  16.177799457582839  18.626028906602791 1
ion C   0.004396126023920  16.174919789695490  18.678526509016976 1
ion C  14.009667092769647  21.561897211726262  18.678236418493206 1
ion C   2.339975233489926   1.348700411170866  18.676563105892225 1
ion C  25.678138720632976   1.348492482747284  18.684947587863604 1
ion C  16.344041333530967  17.521538857806590  18.677472752415042 1
ion C   4.673725458900750   5.388232415772075  18.638660383948409 1
ion C  21.011344400627163   1.348893438463100  18.686684053275581 1
ion C   7.007274620361919   1.347885698147265  18.666137575032067 1
ion C  11.676074924128731  17.521845888449882  18.641993863649990 1
ion C  23.344474331440505   5.390308092323213  18.691783116726938 1
ion C  18.678124307730791  13.478622060503485  18.683577630943212 1
ion C   7.006457771552991   9.432752629092036  18.577646700814473 1
ion C  16.343775003794505   1.347826600224892  18.685231305918876 1
ion C  11.674910052517296   1.347762477910186  18.671724103254160 1
ion C   9.341473498850080  13.481563465305443  18.585178285281202 1
ion C  21.011666714338382   9.434100928516692  18.692081040625723 1
ion C   9.342482323691250  21.562172975682746  18.665020875655312 1
ion C  -9.328954236705073  21.561780709011305  18.684888934651983 1
ion C   0.005300106435699   5.388491090450849  18.674572248064244 1
ion C  14.012834121286176  13.481674844521114  18.650446678840453 1
ion C   9.340241551693328   5.387149672731647  18.631494852239872 1
ion C  18.678237946447190   5.390176928543078  18.695799757929610 1
ion C  16.347060516622719   9.434287354562358  18.682297281373945 1
ion C  11.675195483957204   9.432756706535526  18.624085661588719 1
ion C  14.010370291847531   5.387097250625039  18.676384691981855 1
ion C   4.674488235644843  21.562176275056768  18.665762752961211 1
ion C  -6.995769635550399  17.520447348468473  18.690714188320783 1
ion C   2.338001080571558   9.428200048716308  18.639008612505936 1
ion C  -2.329402888135192   9.432702777540239  18.681537585436061 1
ion C  -4.662059564340674  21.561494861485521  18.684533450935447 1
ion C   7.009099631332127  17.523609454223557  18.624711802658275 1
ion C   0.005795293934511  21.562077222982087  18.680782045941559 1
ion C  -4.663484447779537  13.477949755459957  18.692601377861322 1
ion C   4.676614008547157  13.479772118627142  18.602733685502557 1
ion C   2.340091731986849  17.522361130276995  18.660125212203958 1
ion C  -2.329514900926092  17.521177084792019  18.691798288248290 1
ion C   0.000975118338195  13.479052558435429  18.674446562176019 1
ion S   3.835766165859495  14.739701471156863  28.995441707094283 1
ion S   7.511523834878576  14.040276560367904  28.602018175044005 1
ion S   8.635057213065766  14.519886329276712  24.991243288268290 1
ion S   6.375960294455316   8.012770307949213  25.106876454318460 1
ion S   7.548100766465572   8.603094502127380  28.685454833334742 1
ion S  11.234466375204438   7.934102030188154  29.050857519947979 1
ion Na   3.709882600781138  12.533143250516401  24.268227425962376 1
ion Na  11.287421196737338   9.970663024836618  24.243920316053924 1

# Forces in Cartesian coordinates:
force C   0.000004549697114  -0.000030436734805  -0.000213286402457 1
force C  -0.000065907087725  -0.000075262141039  -0.000281595773717 1
force C   0.000008518488264   0.000014133043959  -0.000653459436801 1
force C   0.000036414624903  -0.000004961591202  -0.000115746924977 1
force C  -0.000003846346087   0.000064609537079  -0.000244743083625 1
force C   0.000053247925950  -0.000054688400761  -0.000634868072767 1
force C   0.000100541488708  -0.000026767229986  -0.000086177134368 1
force C  -0.000063711456435   0.000002758178693  -0.000170384721095 1
force C  -0.000032440576835   0.000136517717674  -0.000266569094813 1
force C  -0.000118556249642   0.000003027757682  -0.000117569914912 1
force C   0.000076790928924   0.000106933786335  -0.000245388053664 1
force C   0.000049101076409  -0.000161294735719  -0.000305954455190 1
force C   0.000006057654383   0.000063316824767   0.000207543571512 1
force C   0.000035536712769   0.000090999671908   0.000174006300174 1
force C  -0.000070667940439  -0.000000609221890   0.000030524366261 1
force C  -0.000009444232542   0.000086993596252  -0.000215780839983 1
force C  -0.000045597101285  -0.000086749536974  -0.000834329857832 1
force C  -0.000026482710309   0.000075188200127  -0.000518473491349 1
force C   0.000023957775378   0.000073147196820   0.000336010327633 1
force C  -0.000126007873354  -0.000063513088184  -0.000603770623646 1
force C   0.000207111872731   0.000141111815563  -0.000073441341914 1
force C  -0.000037237082368   0.000049088241331   0.000005954129331 1
force C   0.000140136474486   0.000113648390863  -0.000789612917527 1
force C   0.000064756027153  -0.000084653404320  -0.000449751730272 1
force C  -0.000086695195819   0.000162540922024   0.000064775579651 1
force C  -0.000049499125063  -0.000153422554083  -0.001028193941591 1
force C   0.000015816573571   0.000024305849626  -0.000021803094655 1
force C   0.000109721855976   0.000231574934552  -0.000889340488703 1
force C  -0.000118327205392   0.000143965825776  -0.001464717734355 1
force C  -0.000012481305514  -0.000167686849381  -0.000678905366950 1
force C   0.000079852095836  -0.000166141832262   0.000323966316751 1
force C  -0.000277991260855   0.000205503384246  -0.001183403918505 1
force C   0.000429141194906   0.000113528306510  -0.000166088835832 1
force C   0.000107983015003  -0.000145369990452  -0.000020925513124 1
force C  -0.000083502859031  -0.000124072837295  -0.000363764139381 1
force C   0.000082534854992  -0.000299953718096  -0.000925602096465 1
force C  -0.000058458726459   0.000001194864082  -0.000239299079019 1
force C   0.000060133381302  -0.000000259040573  -0.000259996059305 1
force C   0.000068338346653   0.000065240692064  -0.000110383451169 1
force C  -0.000032550534456  -0.000053760911570  -0.000315974208069 1
force C  -0.000027962436639  -0.000032866510743  -0.000325269818323 1
force C  -0.000036539126433  -0.000070760291477  -0.000226286422985 1
force C  -0.000030103479561   0.000114580019055  -0.000682320919134 1
force C  -0.000038591267384  -0.000013317549448  -0.000392016695767 1
force C   0.000000602693918   0.000079954641067   0.000151820707337 1
force C  -0.000057220532439  -0.000201124251601   0.000116308093666 1
force C  -0.000086304893708   0.000024435058804  -0.000045282873327 1
force C  -0.000030943809850   0.000111512533185  -0.000037179391785 1
force C  -0.000043053953615  -0.000049675549541  -0.000201465769560 1
force C   0.000110142362626  -0.000039733869088  -0.000012712961450 1
force C  -0.000120084164383  -0.000034495083197   0.000344995351366 1
force C  -0.000124185528200  -0.000015342862511  -0.000493204108455 1
force C  -0.000000928315889  -0.000012623114873  -0.000126908720243 1
force C   0.000083007535452   0.000154976356918  -0.000426738150979 1
force C  -0.000079630519806  -0.000393263966328  -0.001246028006037 1
force C   0.000044043240529   0.000093651147574  -0.000314851675142 1
force C  -0.000178142121176   0.000045752570192   0.000359547354560 1
force C  -0.000354524254615  -0.000048591846573  -0.000706780817818 1
force C   0.000482191240743  -0.000137933744039  -0.000776417223778 1
force C   0.000009434227458   0.000418214121832  -0.000867219633464 1
force C   0.000052835283849  -0.000014942785044  -0.000245132977145 1
force C   0.000060548543386  -0.000021916412755   0.000268301228314 1
force C   0.000032338092122   0.000334483520165  -0.000634039649020 1
force C   0.000110327149827   0.000087110561616  -0.000032233424239 1
force C   0.000012825833513   0.000024079240077  -0.000101276604997 1
force C   0.000038725456176  -0.000028143207283  -0.000320465009108 1
force C  -0.000001196546308  -0.000090648145573  -0.000144598527921 1
force C   0.000045479780681  -0.000076034038838   0.000138968191220 1
force C  -0.000336065037657  -0.000210728911257  -0.000216896683940 1
force C  -0.000190603413002  -0.000029374081992  -0.000703799418161 1
force C   0.000110869451554   0.000023857753568  -0.000012630074652 1
force C   0.000276835248457  -0.000163340937073  -0.001426950416341 1
force S  -0.000557061422032   0.001193946376659   0.002857964906581 1
force S   0.001876512028826  -0.000158229156957   0.000388840230272 1
force S  -0.000483731117591   0.000564694092633   0.000364823853409 1
force S   0.000321981482126  -0.000623184075968   0.000046855375022 1
force S  -0.001533816171476   0.000164583017658   0.000173799404871 1
force S   0.000157836570167  -0.001007648310429   0.002771966727078 1
force Na  -0.003388381312453  -0.000158111552889  -0.000321383952257 1
force Na   0.003166101632143   0.000026656717441  -0.000296043381941 1

# Energy components:
   A_diel =       -0.0357663060892812
   Eewald =     5099.7320913113389906
       EH =     5544.4553049370451845
     Eloc =   -11256.4701540285550436
      Enl =      -75.0687210365154129
     EvdW =       -0.1273196502707276
      Exc =     -170.2921334792224854
 Exc_core =       13.0310488434797236
       KE =      276.3738613640661015
-------------------------------------
     Etot =     -568.4017880447230482
       TS =        0.0733604038361114
-------------------------------------
        F =     -568.4751484485591391

IonicMinimize: Iter:   0  F: -568.475148448559139  |grad|_K:  5.236e-04  alpha:  1.000e+00

#--- Lowdin population analysis ---
# oxidation-state C +0.045 +0.044 +0.045 +0.045 +0.045 +0.045 +0.044 +0.043 +0.036 +0.044 +0.045 +0.043 +0.043 +0.043 +0.032 +0.044 +0.043 +0.046 +0.044 +0.038 +0.027 +0.042 +0.042 +0.017 +0.041 +0.046 +0.044 +0.040 +0.027 +0.044 +0.043 +0.006 +0.039 +0.044 +0.034 +0.038 +0.045 +0.045 +0.044 +0.044 +0.044 +0.045 +0.046 +0.045 +0.044 +0.042 +0.035 +0.044 +0.044 +0.035 +0.043 +0.045 +0.044 +0.044 +0.035 +0.041 +0.043 +0.037 +0.001 +0.039 +0.045 +0.044 +0.028 +0.041 +0.044 +0.046 +0.044 +0.042 +0.011 +0.038 +0.042 +0.031
# oxidation-state S -0.372 +0.367 -0.416 -0.417 +0.366 -0.373
# oxidation-state Na +0.766 +0.766


Computing DFT-D3 correction:
# coordination-number C 3.301 3.301 3.302 3.301 3.301 3.301 3.301 3.300 3.322 3.301 3.301 3.310 3.301 3.300 3.368 3.301 3.303 3.304 3.301 3.306 3.405 3.301 3.305 3.460 3.301 3.302 3.301 3.305 3.364 3.301 3.300 3.552 3.303 3.300 3.338 3.308 3.301 3.301 3.301 3.301 3.305 3.301 3.301 3.303 3.300 3.301 3.341 3.301 3.301 3.339 3.300 3.301 3.301 3.301 3.320 3.313 3.300 3.309 3.633 3.307 3.301 3.301 3.356 3.302 3.301 3.307 3.301 3.301 3.546 3.309 3.301 3.336
# coordination-number S 2.006 3.005 2.923 2.921 3.003 2.005
# coordination-number Na 4.353 4.382
# diagonal-C6 C 24.28 24.28 24.27 24.27 24.27 24.27 24.27 24.28 24.06 24.27 24.27 24.18 24.28 24.28 23.53 24.28 24.26 24.25 24.28 24.22 23.04 24.27 24.24 22.25 24.27 24.26 24.28 24.24 23.58 24.27 24.28 20.89 24.25 24.28 23.89 24.20 24.27 24.27 24.28 24.27 24.24 24.28 24.27 24.25 24.28 24.27 23.86 24.28 24.27 23.87 24.28 24.27 24.28 24.27 24.09 24.16 24.28 24.19 19.91 24.21 24.27 24.28 23.68 24.27 24.28 24.21 24.28 24.28 20.98 24.20 24.27 23.90
# diagonal-C6 S 125.90 125.81 125.81 125.81 125.81 125.90
# diagonal-C6 Na 186.11 186.11
EvdW_6 =   -0.066537
EvdW_8 =   -0.060788

-------- Electronic minimization -----------
Will mix electronic density at each iteration.
	FillingsUpdate:  mu: -0.125912181  nElectrons: 342.000000
	Linear fluid (dielectric constant: 7.2) occupying 0.827249 of unit cell:	Completed after 4 iterations at t[s]:    259.47
	FillingsUpdate:  mu: -0.125902647  nElectrons: 342.000000
	Linear fluid (dielectric constant: 7.2) occupying 0.827242 of unit cell:	Completed after 2 iterations at t[s]:    262.31
SCF: Cycle:  0   F: -568.475209292775389   dF: -3.481e-06   |Residual|: 9.459e-04   |deigs|: 2.281e-06  t[s]:    262.46
	Linear fluid (dielectric constant: 7.2) occupying 0.827264 of unit cell:	Completed after 2 iterations at t[s]:    262.59
	FillingsUpdate:  mu: -0.125903378  nElectrons: 342.000000
	Linear fluid (dielectric constant: 7.2) occupying 0.827242 of unit cell:	Completed after 2 iterations at t[s]:    264.89
SCF: Cycle:  1   F: -568.475211032739480   dF: -1.740e-06   |Residual|: 3.935e-04   |deigs|: 1.478e-05  t[s]:    265.04
	Linear fluid (dielectric constant: 7.2) occupying 0.827271 of unit cell:	Completed after 2 iterations at t[s]:    265.16
	FillingsUpdate:  mu: -0.125905497  nElectrons: 342.000000
	Linear fluid (dielectric constant: 7.2) occupying 0.827246 of unit cell:	Completed after 1 iterations at t[s]:    267.45
SCF: Cycle:  2   F: -568.475211348940206   dF: -3.162e-07   |Residual|: 1.112e-04   |deigs|: 2.256e-05  t[s]:    267.59
	Linear fluid (dielectric constant: 7.2) occupying 0.827269 of unit cell:	Completed after 1 iterations at t[s]:    267.70
	FillingsUpdate:  mu: -0.125909285  nElectrons: 342.000000
	Linear fluid (dielectric constant: 7.2) occupying 0.827246 of unit cell:	Completed after 1 iterations at t[s]:    270.00
SCF: Cycle:  3   F: -568.475211383369469   dF: -3.443e-08   |Residual|: 4.492e-05   |deigs|: 2.218e-05  t[s]:    270.14
	Linear fluid (dielectric constant: 7.2) occupying 0.827265 of unit cell:	Completed after 1 iterations at t[s]:    270.25
	FillingsUpdate:  mu: -0.125910621  nElectrons: 342.000000
	Linear fluid (dielectric constant: 7.2) occupying 0.827246 of unit cell:	Completed after 1 iterations at t[s]:    272.55
SCF: Cycle:  4   F: -568.475211392842425   dF: -9.473e-09   |Residual|: 2.643e-05   |deigs|: 2.061e-05  t[s]:    272.69
	Linear fluid (dielectric constant: 7.2) occupying 0.827260 of unit cell:	Completed after 0 iterations at t[s]:    272.78
	FillingsUpdate:  mu: -0.125911061  nElectrons: 342.000000
	Linear fluid (dielectric constant: 7.2) occupying 0.827247 of unit cell:	Completed after 1 iterations at t[s]:    275.68
SCF: Cycle:  5   F: -568.475211395051019   dF: -2.209e-09   |Residual|: 2.511e-05   |deigs|: 2.058e-05  t[s]:    275.82
SCF: Converged (|Delta E|<1.000000e-08 for 2 iters).

Setting wave functions to eigenvectors of Hamiltonian
IonicMinimize: 	Predicted alpha/alphaT>3.000000, increasing alphaT to 3.000000e+00.

Computing DFT-D3 correction:
# coordination-number C 3.301 3.301 3.301 3.301 3.301 3.301 3.301 3.300 3.322 3.301 3.301 3.310 3.300 3.300 3.367 3.301 3.303 3.304 3.300 3.306 3.405 3.301 3.305 3.460 3.301 3.302 3.300 3.305 3.364 3.301 3.300 3.552 3.303 3.300 3.338 3.308 3.301 3.301 3.301 3.301 3.305 3.301 3.301 3.303 3.300 3.301 3.340 3.301 3.301 3.339 3.300 3.301 3.301 3.301 3.320 3.313 3.300 3.310 3.633 3.308 3.301 3.300 3.356 3.302 3.301 3.307 3.301 3.301 3.546 3.309 3.301 3.337
# coordination-number S 2.004 3.000 2.920 2.918 2.998 2.003
# coordination-number Na 4.340 4.370
# diagonal-C6 C 24.28 24.28 24.27 24.28 24.27 24.27 24.28 24.28 24.06 24.28 24.27 24.18 24.28 24.28 23.53 24.28 24.26 24.25 24.28 24.22 23.04 24.27 24.24 22.24 24.27 24.26 24.28 24.23 23.57 24.27 24.28 20.89 24.25 24.28 23.89 24.20 24.28 24.27 24.28 24.27 24.24 24.28 24.27 24.25 24.28 24.27 23.86 24.28 24.27 23.88 24.28 24.27 24.28 24.27 24.08 24.16 24.28 24.19 19.91 24.21 24.27 24.28 23.67 24.27 24.28 24.21 24.28 24.28 20.98 24.20 24.27 23.90
# diagonal-C6 S 125.90 125.81 125.81 125.81 125.81 125.90
# diagonal-C6 Na 186.11 186.11
EvdW_6 =   -0.066533
EvdW_8 =   -0.060802

-------- Electronic minimization -----------
Will mix electronic density at each iteration.
	FillingsUpdate:  mu: -0.125911061  nElectrons: 342.000000
	Linear fluid (dielectric constant: 7.2) occupying 0.827218 of unit cell:	Completed after 4 iterations at t[s]:    279.28
	FillingsUpdate:  mu: -0.125910916  nElectrons: 342.000000
	Linear fluid (dielectric constant: 7.2) occupying 0.827203 of unit cell:	Completed after 4 iterations at t[s]:    282.75
SCF: Cycle:  0   F: -568.475311577155935   dF: -1.092e-05   |Residual|: 1.912e-03   |deigs|: 6.411e-07  t[s]:    282.91
	Linear fluid (dielectric constant: 7.2) occupying 0.827242 of unit cell:	Completed after 4 iterations at t[s]:    283.05
	FillingsUpdate:  mu: -0.125915590  nElectrons: 342.000000
	Linear fluid (dielectric constant: 7.2) occupying 0.827205 of unit cell:	Completed after 3 iterations at t[s]:    285.38
SCF: Cycle:  1   F: -568.475321381261665   dF: -9.804e-06   |Residual|: 8.326e-04   |deigs|: 3.650e-05  t[s]:    285.53
	Linear fluid (dielectric constant: 7.2) occupying 0.827253 of unit cell:	Completed after 3 iterations at t[s]:    285.66
	FillingsUpdate:  mu: -0.125917871  nElectrons: 342.000000
	Linear fluid (dielectric constant: 7.2) occupying 0.827213 of unit cell:	Completed after 2 iterations at t[s]:    287.96
SCF: Cycle:  2   F: -568.475322927397883   dF: -1.546e-06   |Residual|: 2.431e-04   |deigs|: 3.710e-05  t[s]:    288.11
	Linear fluid (dielectric constant: 7.2) occupying 0.827249 of unit cell:	Completed after 2 iterations at t[s]:    288.22
	FillingsUpdate:  mu: -0.125918921  nElectrons: 342.000000
	Linear fluid (dielectric constant: 7.2) occupying 0.827212 of unit cell:	Completed after 2 iterations at t[s]:    290.53
SCF: Cycle:  3   F: -568.475323083226272   dF: -1.558e-07   |Residual|: 1.208e-04   |deigs|: 2.895e-05  t[s]:    290.68
	Linear fluid (dielectric constant: 7.2) occupying 0.827239 of unit cell:	Completed after 2 iterations at t[s]:    290.79
	FillingsUpdate:  mu: -0.125920662  nElectrons: 342.000000
	Linear fluid (dielectric constant: 7.2) occupying 0.827213 of unit cell:	Completed after 1 iterations at t[s]:    293.13
SCF: Cycle:  4   F: -568.475323134091695   dF: -5.087e-08   |Residual|: 5.001e-05   |deigs|: 3.801e-05  t[s]:    293.27
	Linear fluid (dielectric constant: 7.2) occupying 0.827229 of unit cell:	Completed after 1 iterations at t[s]:    293.38
	FillingsUpdate:  mu: -0.125925089  nElectrons: 342.000000
	Linear fluid (dielectric constant: 7.2) occupying 0.827213 of unit cell:	Completed after 1 iterations at t[s]:    296.29
SCF: Cycle:  5   F: -568.475323168936029   dF: -3.484e-08   |Residual|: 3.614e-05   |deigs|: 3.308e-05  t[s]:    296.43
	Linear fluid (dielectric constant: 7.2) occupying 0.827222 of unit cell:	Completed after 1 iterations at t[s]:    296.54
	FillingsUpdate:  mu: -0.125927501  nElectrons: 342.000000
	Linear fluid (dielectric constant: 7.2) occupying 0.827213 of unit cell:	Completed after 1 iterations at t[s]:    298.82
SCF: Cycle:  6   F: -568.475323168336445   dF: +5.996e-10   |Residual|: 3.006e-05   |deigs|: 1.537e-05  t[s]:    298.96
	Linear fluid (dielectric constant: 7.2) occupying 0.827215 of unit cell:	Completed after 1 iterations at t[s]:    299.07
	FillingsUpdate:  mu: -0.125928530  nElectrons: 342.000000
	Linear fluid (dielectric constant: 7.2) occupying 0.827214 of unit cell:	Completed after 1 iterations at t[s]:    302.39
SCF: Cycle:  7   F: -568.475323188310654   dF: -1.997e-08   |Residual|: 1.919e-05   |deigs|: 1.679e-05  t[s]:    302.53
	Linear fluid (dielectric constant: 7.2) occupying 0.827209 of unit cell:	Completed after 0 iterations at t[s]:    302.63
	FillingsUpdate:  mu: -0.125928455  nElectrons: 342.000000
	Linear fluid (dielectric constant: 7.2) occupying 0.827213 of unit cell:	Completed after 1 iterations at t[s]:    305.54
SCF: Cycle:  8   F: -568.475323188890002   dF: -5.793e-10   |Residual|: 2.923e-05   |deigs|: 1.231e-05  t[s]:    305.68
	Linear fluid (dielectric constant: 7.2) occupying 0.827205 of unit cell:	Completed after 1 iterations at t[s]:    305.79
	FillingsUpdate:  mu: -0.125930011  nElectrons: 342.000000
	Linear fluid (dielectric constant: 7.2) occupying 0.827213 of unit cell:	Completed after 0 iterations at t[s]:    309.14
SCF: Cycle:  9   F: -568.475323205435643   dF: -1.655e-08   |Residual|: 1.795e-05   |deigs|: 9.350e-06  t[s]:    309.28
	Linear fluid (dielectric constant: 7.2) occupying 0.827203 of unit cell:	Completed after 0 iterations at t[s]:    309.38
	FillingsUpdate:  mu: -0.125929368  nElectrons: 342.000000
	Linear fluid (dielectric constant: 7.2) occupying 0.827213 of unit cell:	Completed after 0 iterations at t[s]:    312.27
SCF: Cycle: 10   F: -568.475323212957619   dF: -7.522e-09   |Residual|: 1.529e-05   |deigs|: 1.384e-05  t[s]:    312.41
	Linear fluid (dielectric constant: 7.2) occupying 0.827204 of unit cell:	Completed after 0 iterations at t[s]:    312.51
	FillingsUpdate:  mu: -0.125930204  nElectrons: 342.000000
	Linear fluid (dielectric constant: 7.2) occupying 0.827213 of unit cell:	Completed after 0 iterations at t[s]:    315.41
SCF: Cycle: 11   F: -568.475323216524203   dF: -3.567e-09   |Residual|: 1.801e-05   |deigs|: 1.545e-05  t[s]:    315.54
SCF: Converged (|Delta E|<1.000000e-08 for 2 iters).

Setting wave functions to eigenvectors of Hamiltonian
IonicMinimize: 	Predicted alpha/alphaT>3.000000, increasing alphaT to 9.000000e+00.

Computing DFT-D3 correction:
# coordination-number C 3.301 3.301 3.301 3.300 3.301 3.301 3.300 3.300 3.322 3.300 3.301 3.310 3.300 3.300 3.366 3.301 3.303 3.303 3.300 3.307 3.404 3.301 3.305 3.461 3.301 3.302 3.300 3.305 3.365 3.301 3.300 3.553 3.304 3.300 3.338 3.309 3.301 3.301 3.300 3.300 3.305 3.300 3.301 3.303 3.300 3.301 3.339 3.300 3.301 3.338 3.300 3.301 3.300 3.301 3.320 3.312 3.300 3.311 3.633 3.308 3.301 3.300 3.357 3.302 3.301 3.307 3.301 3.300 3.545 3.309 3.301 3.338
# coordination-number S 1.997 2.984 2.908 2.907 2.985 1.997
# coordination-number Na 4.300 4.333
# diagonal-C6 C 24.28 24.28 24.27 24.28 24.28 24.27 24.28 24.28 24.06 24.28 24.28 24.19 24.28 24.28 23.55 24.28 24.25 24.25 24.28 24.22 23.05 24.27 24.24 22.23 24.27 24.27 24.28 24.23 23.56 24.27 24.28 20.88 24.24 24.28 23.88 24.19 24.28 24.27 24.28 24.28 24.24 24.28 24.27 24.26 24.28 24.28 23.87 24.28 24.28 23.88 24.28 24.27 24.28 24.27 24.08 24.16 24.28 24.17 19.91 24.20 24.27 24.28 23.66 24.27 24.28 24.22 24.28 24.28 20.99 24.19 24.27 23.88
# diagonal-C6 S 125.90 125.81 125.81 125.81 125.81 125.90
# diagonal-C6 Na 186.11 186.11
EvdW_6 =   -0.066523
EvdW_8 =   -0.060843

-------- Electronic minimization -----------
Will mix electronic density at each iteration.
	FillingsUpdate:  mu: -0.125930204  nElectrons: 342.000000
	Linear fluid (dielectric constant: 7.2) occupying 0.827211 of unit cell:	Completed after 8 iterations at t[s]:    318.97
	FillingsUpdate:  mu: -0.124128398  nElectrons: 342.000000
	Linear fluid (dielectric constant: 7.2) occupying 0.826515 of unit cell:	Completed after 10 iterations at t[s]:    326.44
SCF: Cycle:  0   F: -568.463904490878463   dF: -7.403e-03   |Residual|: 6.738e-02   |deigs|: 2.066e-04  t[s]:    326.61
	Linear fluid (dielectric constant: 7.2) occupying 0.828430 of unit cell:	Completed after 11 iterations at t[s]:    326.84
	FillingsUpdate:  mu: -0.124158243  nElectrons: 342.000000
	Linear fluid (dielectric constant: 7.2) occupying 0.826775 of unit cell:	Completed after 9 iterations at t[s]:    331.07
SCF: Cycle:  1   F: -568.472640422021527   dF: -8.736e-03   |Residual|: 3.123e-02   |deigs|: 1.375e-03  t[s]:    331.24
	Linear fluid (dielectric constant: 7.2) occupying 0.829225 of unit cell:	Completed after 10 iterations at t[s]:    331.45
	FillingsUpdate:  mu: -0.124389729  nElectrons: 342.000000
	Linear fluid (dielectric constant: 7.2) occupying 0.827017 of unit cell:	Completed after 8 iterations at t[s]:    334.96
SCF: Cycle:  2   F: -568.475111160194160   dF: -2.471e-03   |Residual|: 8.093e-03   |deigs|: 9.743e-04  t[s]:    335.13
	Linear fluid (dielectric constant: 7.2) occupying 0.828974 of unit cell:	Completed after 8 iterations at t[s]:    335.33
	FillingsUpdate:  mu: -0.124633989  nElectrons: 342.000000
	Linear fluid (dielectric constant: 7.2) occupying 0.827088 of unit cell:	Completed after 8 iterations at t[s]:    338.83
SCF: Cycle:  3   F: -568.475342347409196   dF: -2.312e-04   |Residual|: 3.804e-03   |deigs|: 5.120e-04  t[s]:    339.00
	Linear fluid (dielectric constant: 7.2) occupying 0.828464 of unit cell:	Completed after 8 iterations at t[s]:    339.20
	FillingsUpdate:  mu: -0.124931416  nElectrons: 342.000000
	Linear fluid (dielectric constant: 7.2) occupying 0.827163 of unit cell:	Completed after 8 iterations at t[s]:    342.70
SCF: Cycle:  4   F: -568.475465736998558   dF: -1.234e-04   |Residual|: 1.716e-03   |deigs|: 4.800e-04  t[s]:    342.86
	Linear fluid (dielectric constant: 7.2) occupying 0.827993 of unit cell:	Completed after 8 iterations at t[s]:    343.05
	FillingsUpdate:  mu: -0.125107466  nElectrons: 342.000000
	Linear fluid (dielectric constant: 7.2) occupying 0.827169 of unit cell:	Completed after 7 iterations at t[s]:    346.53
SCF: Cycle:  5   F: -568.475497415611130   dF: -3.168e-05   |Residual|: 1.165e-03   |deigs|: 2.520e-04  t[s]:    346.69
	Linear fluid (dielectric constant: 7.2) occupying 0.827267 of unit cell:	Completed after 7 iterations at t[s]:    346.87
	FillingsUpdate:  mu: -0.125332400  nElectrons: 342.000000
	Linear fluid (dielectric constant: 7.2) occupying 0.827147 of unit cell:	Completed after 7 iterations at t[s]:    350.35
SCF: Cycle:  6   F: -568.475521411092700   dF: -2.400e-05   |Residual|: 7.318e-04   |deigs|: 3.883e-04  t[s]:    350.53
	Linear fluid (dielectric constant: 7.2) occupying 0.826758 of unit cell:	Completed after 7 iterations at t[s]:    350.70
	FillingsUpdate:  mu: -0.125494106  nElectrons: 342.000000
	Linear fluid (dielectric constant: 7.2) occupying 0.827117 of unit cell:	Completed after 6 iterations at t[s]:    353.70
SCF: Cycle:  7   F: -568.475532433219428   dF: -1.102e-05   |Residual|: 5.766e-04   |deigs|: 3.999e-04  t[s]:    353.86
	Linear fluid (dielectric constant: 7.2) occupying 0.826437 of unit cell:	Completed after 6 iterations at t[s]:    354.04
	FillingsUpdate:  mu: -0.125619050  nElectrons: 342.000000
	Linear fluid (dielectric constant: 7.2) occupying 0.827098 of unit cell:	Completed after 6 iterations at t[s]:    357.03
SCF: Cycle:  8   F: -568.475537900576910   dF: -5.467e-06   |Residual|: 4.944e-04   |deigs|: 4.242e-04  t[s]:    357.20
	Linear fluid (dielectric constant: 7.2) occupying 0.826311 of unit cell:	Completed after 6 iterations at t[s]:    357.38
	FillingsUpdate:  mu: -0.125735518  nElectrons: 342.000000
	Linear fluid (dielectric constant: 7.2) occupying 0.827085 of unit cell:	Completed after 6 iterations at t[s]:    360.37
SCF: Cycle:  9   F: -568.475539773373498   dF: -1.873e-06   |Residual|: 3.982e-04   |deigs|: 5.872e-04  t[s]:    360.54
	Linear fluid (dielectric constant: 7.2) occupying 0.826467 of unit cell:	Completed after 6 iterations at t[s]:    360.70
	FillingsUpdate:  mu: -0.125802228  nElectrons: 342.000000
	Linear fluid (dielectric constant: 7.2) occupying 0.827086 of unit cell:	Completed after 6 iterations at t[s]:    363.70
SCF: Cycle: 10   F: -568.475539878172754   dF: -1.048e-07   |Residual|: 3.633e-04   |deigs|: 4.987e-04  t[s]:    363.87
	Linear fluid (dielectric constant: 7.2) occupying 0.826846 of unit cell:	Completed after 6 iterations at t[s]:    364.03
	FillingsUpdate:  mu: -0.125841152  nElectrons: 342.000000
	Linear fluid (dielectric constant: 7.2) occupying 0.827093 of unit cell:	Completed after 6 iterations at t[s]:    367.54
SCF: Cycle: 11   F: -568.475541484952146   dF: -1.607e-06   |Residual|: 3.054e-04   |deigs|: 5.411e-04  t[s]:    367.70
	Linear fluid (dielectric constant: 7.2) occupying 0.827173 of unit cell:	Completed after 5 iterations at t[s]:    367.87
	FillingsUpdate:  mu: -0.125868104  nElectrons: 342.000000
	Linear fluid (dielectric constant: 7.2) occupying 0.827106 of unit cell:	Completed after 5 iterations at t[s]:    370.85
SCF: Cycle: 12   F: -568.475543734905727   dF: -2.250e-06   |Residual|: 2.769e-04   |deigs|: 4.684e-04  t[s]:    371.01
	Linear fluid (dielectric constant: 7.2) occupying 0.827208 of unit cell:	Completed after 4 iterations at t[s]:    371.16
	FillingsUpdate:  mu: -0.125893917  nElectrons: 342.000000
	Linear fluid (dielectric constant: 7.2) occupying 0.827113 of unit cell:	Completed after 4 iterations at t[s]:    374.12
SCF: Cycle: 13   F: -568.475545003947673   dF: -1.269e-06   |Residual|: 2.226e-04   |deigs|: 1.643e-04  t[s]:    374.27
	Linear fluid (dielectric constant: 7.2) occupying 0.827124 of unit cell:	Completed after 3 iterations at t[s]:    374.42
	FillingsUpdate:  mu: -0.125914848  nElectrons: 342.000000
	Linear fluid (dielectric constant: 7.2) occupying 0.827118 of unit cell:	Completed after 3 iterations at t[s]:    377.37
SCF: Cycle: 14   F: -568.475545351438427   dF: -3.475e-07   |Residual|: 1.664e-04   |deigs|: 4.054e-04  t[s]:    377.53
	Linear fluid (dielectric constant: 7.2) occupying 0.827068 of unit cell:	Completed after 3 iterations at t[s]:    377.67
	FillingsUpdate:  mu: -0.125935071  nElectrons: 342.000000
	Linear fluid (dielectric constant: 7.2) occupying 0.827118 of unit cell:	Completed after 2 iterations at t[s]:    380.61
SCF: Cycle: 15   F: -568.475545496852646   dF: -1.454e-07   |Residual|: 1.267e-04   |deigs|: 2.287e-04  t[s]:    380.76
	Linear fluid (dielectric constant: 7.2) occupying 0.827049 of unit cell:	Completed after 3 iterations at t[s]:    380.91
	FillingsUpdate:  mu: -0.125955833  nElectrons: 342.000000
	Linear fluid (dielectric constant: 7.2) occupying 0.827116 of unit cell:	Completed after 3 iterations at t[s]:    383.86
SCF: Cycle: 16   F: -568.475545661235628   dF: -1.644e-07   |Residual|: 8.891e-05   |deigs|: 1.833e-04  t[s]:    384.01
	Linear fluid (dielectric constant: 7.2) occupying 0.827078 of unit cell:	Completed after 2 iterations at t[s]:    384.14
	FillingsUpdate:  mu: -0.125960991  nElectrons: 342.000000
	Linear fluid (dielectric constant: 7.2) occupying 0.827115 of unit cell:	Completed after 2 iterations at t[s]:    387.06
SCF: Cycle: 17   F: -568.475545825547442   dF: -1.643e-07   |Residual|: 6.201e-05   |deigs|: 1.180e-04  t[s]:    387.20
	Linear fluid (dielectric constant: 7.2) occupying 0.827108 of unit cell:	Completed after 1 iterations at t[s]:    387.32
	FillingsUpdate:  mu: -0.125968320  nElectrons: 342.000000
	Linear fluid (dielectric constant: 7.2) occupying 0.827114 of unit cell:	Completed after 1 iterations at t[s]:    390.23
SCF: Cycle: 18   F: -568.475545942421718   dF: -1.169e-07   |Residual|: 4.961e-05   |deigs|: 9.296e-05  t[s]:    390.37
	Linear fluid (dielectric constant: 7.2) occupying 0.827117 of unit cell:	Completed after 1 iterations at t[s]:    390.48
	FillingsUpdate:  mu: -0.125967196  nElectrons: 342.000000
	Linear fluid (dielectric constant: 7.2) occupying 0.827114 of unit cell:	Completed after 1 iterations at t[s]:    393.39
SCF: Cycle: 19   F: -568.475545992030447   dF: -4.961e-08   |Residual|: 3.414e-05   |deigs|: 5.687e-05  t[s]:    393.53
	Linear fluid (dielectric constant: 7.2) occupying 0.827131 of unit cell:	Completed after 1 iterations at t[s]:    393.65
	FillingsUpdate:  mu: -0.125968163  nElectrons: 342.000000
	Linear fluid (dielectric constant: 7.2) occupying 0.827114 of unit cell:	Completed after 1 iterations at t[s]:    396.59
SCF: Cycle: 20   F: -568.475546027467772   dF: -3.544e-08   |Residual|: 2.514e-05   |deigs|: 1.141e-04  t[s]:    396.73
	Linear fluid (dielectric constant: 7.2) occupying 0.827131 of unit cell:	Completed after 1 iterations at t[s]:    396.84
	FillingsUpdate:  mu: -0.125970301  nElectrons: 342.000000
	Linear fluid (dielectric constant: 7.2) occupying 0.827114 of unit cell:	Completed after 1 iterations at t[s]:    399.99
SCF: Cycle: 21   F: -568.475546041654184   dF: -1.419e-08   |Residual|: 2.149e-05   |deigs|: 7.431e-05  t[s]:    400.13
	Linear fluid (dielectric constant: 7.2) occupying 0.827126 of unit cell:	Completed after 1 iterations at t[s]:    400.24
	FillingsUpdate:  mu: -0.125973653  nElectrons: 342.000000
	Linear fluid (dielectric constant: 7.2) occupying 0.827114 of unit cell:	Completed after 0 iterations at t[s]:    403.15
SCF: Cycle: 22   F: -568.475546048200499   dF: -6.546e-09   |Residual|: 1.484e-05   |deigs|: 5.716e-05  t[s]:    403.29
	Linear fluid (dielectric constant: 7.2) occupying 0.827120 of unit cell:	Completed after 0 iterations at t[s]:    403.39
	FillingsUpdate:  mu: -0.125975744  nElectrons: 342.000000
	Linear fluid (dielectric constant: 7.2) occupying 0.827114 of unit cell:	Completed after 0 iterations at t[s]:    406.29
SCF: Cycle: 23   F: -568.475546050383400   dF: -2.183e-09   |Residual|: 1.180e-05   |deigs|: 4.261e-05  t[s]:    406.42
SCF: Converged (|Delta E|<1.000000e-08 for 2 iters).

Setting wave functions to eigenvectors of Hamiltonian

Computing DFT-D3 correction:
# coordination-number C 3.301 3.301 3.301 3.300 3.301 3.301 3.300 3.300 3.322 3.300 3.300 3.310 3.300 3.300 3.366 3.300 3.303 3.303 3.300 3.307 3.403 3.301 3.305 3.461 3.301 3.301 3.300 3.305 3.366 3.301 3.300 3.554 3.305 3.300 3.338 3.310 3.300 3.301 3.300 3.300 3.305 3.300 3.301 3.303 3.300 3.300 3.339 3.300 3.300 3.338 3.300 3.301 3.300 3.301 3.321 3.312 3.300 3.312 3.633 3.309 3.301 3.300 3.358 3.302 3.301 3.306 3.301 3.300 3.544 3.309 3.301 3.339
# coordination-number S 1.992 2.972 2.899 2.898 2.974 1.993
# coordination-number Na 4.269 4.303
# diagonal-C6 C 24.28 24.28 24.27 24.28 24.28 24.27 24.28 24.28 24.06 24.28 24.28 24.19 24.29 24.28 23.56 24.28 24.25 24.25 24.28 24.21 23.06 24.27 24.24 22.22 24.27 24.27 24.29 24.23 23.55 24.27 24.28 20.87 24.24 24.28 23.88 24.18 24.28 24.27 24.28 24.28 24.24 24.28 24.27 24.26 24.29 24.28 23.88 24.28 24.28 23.89 24.28 24.27 24.28 24.27 24.08 24.16 24.28 24.16 19.91 24.19 24.27 24.28 23.65 24.27 24.28 24.22 24.28 24.28 21.00 24.19 24.27 23.87
# diagonal-C6 S 125.91 125.81 125.81 125.81 125.81 125.90
# diagonal-C6 Na 186.11 186.11
EvdW_6 =   -0.066515
EvdW_8 =   -0.060876

-------- Electronic minimization -----------
Will mix electronic density at each iteration.
[...]
SCF: Cycle: 15   F: -568.482208085161915   dF: +2.248e-09   |Residual|: 1.719e-05   |deigs|: 4.133e-06  t[s]:   9550.54
	Linear fluid (dielectric constant: 7.2) occupying 0.824977 of unit cell:	Completed after 0 iterations at t[s]:   9550.65
	FillingsUpdate:  mu: -0.120163651  nElectrons: 342.000000
	Linear fluid (dielectric constant: 7.2) occupying 0.824977 of unit cell:	Completed after 0 iterations at t[s]:   9552.94
SCF: Cycle: 16   F: -568.482208085210118   dF: -4.820e-11   |Residual|: 1.243e-05   |deigs|: 2.715e-06  t[s]:   9553.08
	Linear fluid (dielectric constant: 7.2) occupying 0.824977 of unit cell:	Completed after 0 iterations at t[s]:   9553.19
	FillingsUpdate:  mu: -0.120162823  nElectrons: 342.000000
	Linear fluid (dielectric constant: 7.2) occupying 0.824976 of unit cell:	Completed after 1 iterations at t[s]:   9556.99
SCF: Cycle: 17   F: -568.482208077120163   dF: +8.090e-09   |Residual|: 2.786e-05   |deigs|: 3.592e-06  t[s]:   9557.13
	Linear fluid (dielectric constant: 7.2) occupying 0.824977 of unit cell:	Completed after 1 iterations at t[s]:   9557.25
	FillingsUpdate:  mu: -0.120162744  nElectrons: 342.000000
	Linear fluid (dielectric constant: 7.2) occupying 0.824976 of unit cell:	Completed after 0 iterations at t[s]:   9561.84
SCF: Cycle: 18   F: -568.482208088107086   dF: -1.099e-08   |Residual|: 7.425e-06   |deigs|: 2.103e-06  t[s]:   9561.97
	Linear fluid (dielectric constant: 7.2) occupying 0.824977 of unit cell:	Completed after 0 iterations at t[s]:   9562.08
	FillingsUpdate:  mu: -0.120162744  nElectrons: 342.000000
	Linear fluid (dielectric constant: 7.2) occupying 0.824976 of unit cell:	Completed after 0 iterations at t[s]:   9564.05
SCF: Cycle: 19   F: -568.482208088043421   dF: +6.366e-11   |Residual|: 7.579e-06   |deigs|: 3.312e-08  t[s]:   9564.18
	Linear fluid (dielectric constant: 7.2) occupying 0.824977 of unit cell:	Completed after 0 iterations at t[s]:   9564.28
	FillingsUpdate:  mu: -0.120162744  nElectrons: 342.000000
	Linear fluid (dielectric constant: 7.2) occupying 0.824976 of unit cell:	Completed after 0 iterations at t[s]:   9566.88
SCF: Cycle: 20   F: -568.482208088110269   dF: -6.685e-11   |Residual|: 7.505e-06   |deigs|: 3.585e-07  t[s]:   9567.01
	Linear fluid (dielectric constant: 7.2) occupying 0.824977 of unit cell:	Completed after 0 iterations at t[s]:   9567.11
	FillingsUpdate:  mu: -0.120162743  nElectrons: 342.000000
	Linear fluid (dielectric constant: 7.2) occupying 0.824976 of unit cell:	Completed after 0 iterations at t[s]:   9569.70
SCF: Cycle: 21   F: -568.482208088050925   dF: +5.934e-11   |Residual|: 7.744e-06   |deigs|: 2.339e-07  t[s]:   9569.83
	Linear fluid (dielectric constant: 7.2) occupying 0.824977 of unit cell:	Completed after 0 iterations at t[s]:   9569.93
	FillingsUpdate:  mu: -0.120162745  nElectrons: 342.000000
	Linear fluid (dielectric constant: 7.2) occupying 0.824976 of unit cell:	Completed after 0 iterations at t[s]:   9572.52
SCF: Cycle: 22   F: -568.482208088186553   dF: -1.356e-10   |Residual|: 7.285e-06   |deigs|: 4.049e-07  t[s]:   9572.65
	Linear fluid (dielectric constant: 7.2) occupying 0.824977 of unit cell:	Completed after 0 iterations at t[s]:   9572.75
	FillingsUpdate:  mu: -0.120162745  nElectrons: 342.000000
	Linear fluid (dielectric constant: 7.2) occupying 0.824976 of unit cell:	Completed after 0 iterations at t[s]:   9575.43
SCF: Cycle: 23   F: -568.482208088767493   dF: -5.809e-10   |Residual|: 6.774e-06   |deigs|: 6.073e-07  t[s]:   9575.55
SCF: Converged (|Delta E|<1.000000e-08 for 2 iters).

Setting wave functions to eigenvectors of Hamiltonian

Computing DFT-D3 correction:
# coordination-number C 3.300 3.300 3.301 3.300 3.300 3.301 3.300 3.300 3.307 3.300 3.300 3.305 3.300 3.300 3.311 3.300 3.301 3.302 3.300 3.303 3.312 3.300 3.302 3.321 3.300 3.301 3.300 3.302 3.313 3.300 3.300 3.333 3.302 3.300 3.307 3.303 3.300 3.300 3.300 3.300 3.302 3.300 3.301 3.301 3.300 3.300 3.310 3.300 3.300 3.310 3.300 3.300 3.300 3.301 3.306 3.303 3.300 3.304 3.332 3.302 3.300 3.300 3.312 3.301 3.300 3.303 3.300 3.300 3.322 3.303 3.300 3.311
# coordination-number S 1.944 2.759 2.768 2.766 2.767 1.951
# coordination-number Na 3.112 3.138
# diagonal-C6 C 24.28 24.28 24.28 24.28 24.28 24.28 24.28 24.28 24.21 24.28 24.28 24.24 24.28 24.28 24.17 24.28 24.27 24.26 24.28 24.26 24.16 24.28 24.27 24.07 24.28 24.27 24.28 24.26 24.16 24.28 24.28 23.94 24.27 24.28 24.22 24.25 24.28 24.28 24.28 24.28 24.26 24.28 24.28 24.27 24.28 24.28 24.18 24.28 24.28 24.18 24.28 24.28 24.28 24.28 24.22 24.25 24.28 24.24 23.95 24.26 24.28 24.28 24.16 24.27 24.28 24.25 24.28 24.28 24.06 24.26 24.28 24.18
# diagonal-C6 S 125.95 125.81 125.81 125.81 125.81 125.94
# diagonal-C6 Na 186.11 186.11
EvdW_6 =   -0.066251
EvdW_8 =   -0.058302

-------- Electronic minimization -----------
Will mix electronic density at each iteration.
	FillingsUpdate:  mu: -0.120162745  nElectrons: 342.000000
	Linear fluid (dielectric constant: 7.2) occupying 0.824976 of unit cell:	Completed after 0 iterations at t[s]:   9579.05
	FillingsUpdate:  mu: -0.120164212  nElectrons: 342.000000
	Linear fluid (dielectric constant: 7.2) occupying 0.824977 of unit cell:	Completed after 1 iterations at t[s]:   9581.87
SCF: Cycle:  0   F: -568.482208080113651   dF: -1.637e-09   |Residual|: 5.391e-05   |deigs|: 4.289e-08  t[s]:   9582.02
	Linear fluid (dielectric constant: 7.2) occupying 0.824976 of unit cell:	Completed after 0 iterations at t[s]:   9582.11
	FillingsUpdate:  mu: -0.120161635  nElectrons: 342.000000
	Linear fluid (dielectric constant: 7.2) occupying 0.824976 of unit cell:	Completed after 0 iterations at t[s]:   9585.01
SCF: Cycle:  1   F: -568.482208087056165   dF: -6.943e-09   |Residual|: 3.252e-05   |deigs|: 2.611e-06  t[s]:   9585.14
SCF: Converged (|Delta E|<1.000000e-08 for 2 iters).

Setting wave functions to eigenvectors of Hamiltonian

Computing DFT-D3 correction:
# coordination-number C 3.300 3.300 3.301 3.300 3.300 3.301 3.300 3.300 3.307 3.300 3.300 3.305 3.300 3.300 3.311 3.300 3.301 3.302 3.300 3.303 3.312 3.300 3.302 3.321 3.300 3.301 3.300 3.302 3.313 3.300 3.300 3.333 3.302 3.300 3.307 3.303 3.300 3.300 3.300 3.300 3.302 3.300 3.301 3.301 3.300 3.300 3.310 3.300 3.300 3.310 3.300 3.300 3.300 3.301 3.306 3.303 3.300 3.304 3.332 3.302 3.300 3.300 3.312 3.301 3.300 3.303 3.300 3.300 3.322 3.303 3.300 3.311
# coordination-number S 1.944 2.759 2.768 2.766 2.767 1.951
# coordination-number Na 3.112 3.138
# diagonal-C6 C 24.28 24.28 24.28 24.28 24.28 24.28 24.28 24.28 24.21 24.28 24.28 24.24 24.28 24.28 24.17 24.28 24.27 24.26 24.28 24.26 24.16 24.28 24.27 24.07 24.28 24.27 24.28 24.26 24.16 24.28 24.28 23.94 24.27 24.28 24.22 24.25 24.28 24.28 24.28 24.28 24.26 24.28 24.28 24.27 24.28 24.28 24.18 24.28 24.28 24.18 24.28 24.28 24.28 24.28 24.22 24.25 24.28 24.24 23.95 24.26 24.28 24.28 24.16 24.27 24.28 24.25 24.28 24.28 24.06 24.26 24.28 24.18
# diagonal-C6 S 125.95 125.81 125.81 125.81 125.81 125.94
# diagonal-C6 Na 186.11 186.11
EvdW_6 =   -0.066251
EvdW_8 =   -0.058302

# Ionic positions in cartesian coordinates:
ion C  28.016604476643320   0.002765783896262  18.582351656483294 1
ion C  16.347253855713177  20.215217948622389  18.579322326686938 1
ion C   2.345203815258255   4.044453536547556  18.594380960602777 1
ion C  23.349269166498761   0.002384123125212  18.584943510862086 1
ion C   4.678686732937118   0.003014658547946  18.592512991504798 1
ion C  11.679779516865890  20.214906306721925  18.582871428931060 1
ion C  25.683455673786654   4.044217792037999  18.583240917202886 1
ion C  18.680973784933290  16.173163609610498  18.575806527526183 1
ion C   4.679294204475186   8.085942849345605  18.611638377686113 1
ion C  18.681833979142468   0.002680707825017  18.590640914823819 1
ion C   9.345611481361676   0.003067277781329  18.596025151124024 1
ion C   9.345772139569492  16.173465654721788  18.591412812486290 1
ion C  23.349056258526439   8.086523337771080  18.588435356560520 1
ion C  21.014956815084126  12.129939093332343  18.582018713282107 1
ion C   7.013204556159044  12.129485904285248  18.603422518579695 1
ion C  14.013448465221249   0.003201320064738  18.593007671091648 1
ion C  14.013276008721872  16.173746732523814  18.578106326089426 1
ion C   7.011832754190198   4.044499184985562  18.603743877317186 1
ion C  21.015589898919885   4.044026651140658  18.582468923067538 1
ion C  16.347920523978996  12.130409970430955  18.573944759782997 1
ion C   9.344340952117669   8.085844870960303  18.603528066124696 1
ion C  16.347886734213809   4.044139609467114  18.582704793807796 1
ion C  11.679082375856268   4.044271973059546  18.592683638559244 1
ion C  11.679485218669802  12.131542744091300  18.592733633952456 1
ion C  18.682221769586480   8.086538435910697  18.578220518172998 1
ion C   7.012630378596617  20.214605517282376  18.592858120483815 1
ion C  -6.990876072681123  20.215353750017343  18.586766268306377 1
ion C   0.010623735979261   8.085864543703751  18.597237181816986 1
ion C  14.014543604641897   8.086042580176629  18.582725032170078 1
ion C   2.345167920610232  20.215326784097616  18.594712643412880 1
ion C  -4.657283980097358  16.172922714616686  18.581205319237579 1
ion C   2.345090512221228  12.129383413020294  18.608160443231387 1
ion C  -2.323992178239727  12.129567488592501  18.591604566543563 1
ion C  -2.323266170781803  20.215368764557294  18.590399024777174 1
ion C   4.679626928811450  16.173922579074585  18.602549470616186 1
ion C   0.010545887409879  16.173717664594204  18.589103820047782 1
ion C  14.013513169641548  21.562131053848212  18.580385240644507 1
ion C   2.344808553079858   1.349987871727194  18.588924984895375 1
ion C  25.683014466665636   1.349559033083426  18.580946449544129 1
ion C  16.347125029668174  17.520903349310419  18.575327797149768 1
ion C   4.678687074560966   5.391275860253244  18.606454503333111 1
ion C  21.015613159799972   1.349375764502392  18.586446524055646 1
ion C   7.012201340570186   1.350261860147004  18.597411103632702 1
ion C  11.679406903166100  17.520519504163854  18.583692264616321 1
ion C  23.349321169449620   5.391573208276689  18.583840218940303 1
ion C  18.681654827082969  13.478193532232446  18.576237473350904 1
ion C   7.012037092880498   9.434628848316427  18.606797258749314 1
ion C  16.347870199005534   1.349879316451034  18.588616088964411 1
ion C  11.679354718348691   1.349850504991401  18.594088685095187 1
ion C   9.344985686620808  13.478909951034302  18.594870851337788 1
ion C  21.015530049804973   9.434770487496392  18.584128516231079 1
ion C   9.345876841338725  21.561888797402467  18.587699676206395 1
ion C  -9.324554212250728  21.562287674612950  18.586250989784418 1
ion C   0.011224387422334   5.391126901951896  18.590340124611711 1
ion C  14.014100664624959  13.478906571516557  18.579017075607283 1
ion C   9.345053594219904   5.391553464727803  18.601868671191319 1
ion C  18.681874748791781   5.391497844537706  18.580839121440633 1
ion C  16.348582273064363   9.434970762627961  18.574501580857092 1
ion C  11.679053275062124   9.434326548963261  18.596707193752412 1
ion C  14.013777834199049   5.390797631587890  18.584129335510482 1
ion C   4.678992143839105  21.561810329261295  18.595309284032535 1
ion C  -6.990986602031104  17.520628176991046  18.579420322264433 1
ion C   2.344870443949951   9.432554307578084  18.609123935791260 1
ion C  -2.323236245086434   9.433978277160900  18.593478275914272 1
ion C  -4.657099048258309  21.562512792372189  18.591090215108395 1
ion C   7.012643467337265  17.520669571887822  18.596462593440606 1
ion C   0.010822223122462  21.562087057034148  18.594000718926775 1
ion C  -4.657610542052542  13.478072017774220  18.583850362281787 1
ion C   4.680356386768985  13.478268661427990  18.608577442160236 1
ion C   2.345265132071059  17.520827904211625  18.595259597482055 1
ion C  -2.323540746831640  17.520665208552494  18.585743901094659 1
ion C   0.009458628749234  13.478146734436413  18.594013138340660 1
ion S   4.264960079913374  15.124990998964376  29.922732960038957 1
ion S   7.777921791984161  14.095620176094592  28.960889788214690 1
ion S   8.311096391552663  14.109779910572861  25.213192551778331 1
ion S   6.609345686879275   8.406296667963545  25.312714678993856 1
ion S   7.203185629633418   8.535156982235950  29.050441270113112 1
ion S  10.727709774340163   7.513213741865941  29.981894650570094 1
ion Na   2.836392704848056  12.452796698061258  25.429394703394479 1
ion Na  12.083546510480904  10.069789966450186  25.426249398993896 1

# Forces in Cartesian coordinates:
force C   0.000111146031326   0.000064925830132   0.000009870809852 1
force C   0.000071259074542   0.000084594592127   0.000106249786484 1
force C   0.000044096581989  -0.000033699726742  -0.000013687773993 1
force C  -0.000005858806303   0.000055650306665  -0.000067791589781 1
force C  -0.000108389436721   0.000067044320773  -0.000194197950383 1
force C  -0.000083855897085  -0.000065267871435   0.000070225779377 1
force C  -0.000193660951876  -0.000020329848827   0.000065138522614 1
force C   0.000088697514717   0.000047574105065   0.000110635641829 1
force C  -0.000051165389538  -0.000108301851583  -0.000319328112900 1
force C  -0.000069296137993  -0.000060662053096  -0.000078387753448 1
force C   0.000075365443056   0.000074662265414  -0.000235617694967 1
force C  -0.000016652728975   0.000030039645157   0.000021207819835 1
force C  -0.000085091272166  -0.000037947562532  -0.000164542134828 1
force C  -0.000007178832115  -0.000006676977454  -0.000069329631552 1
force C  -0.000072102250896  -0.000038020962546  -0.000012058499246 1
force C   0.000119334262127  -0.000097942257055  -0.000174356603880 1
force C  -0.000004961618600   0.000054131912636   0.000112293857449 1
force C   0.000038173924251  -0.000049347661565  -0.000124122483744 1
force C   0.000042448371674   0.000092531126383   0.000112196201050 1
force C   0.000061969019911   0.000011659523052   0.000046483160618 1
force C   0.000117405916642   0.000039827515687  -0.000123664635220 1
force C   0.000052886209858   0.000033607699978   0.000040529439806 1
force C   0.000007011814394   0.000104888892982  -0.000085234383102 1
force C  -0.000042662745661  -0.000076396044558  -0.000074177768868 1
force C   0.000006278583916   0.000080745105087   0.000102871357741 1
force C  -0.000029658893142  -0.000002143114915  -0.000113882263609 1
force C   0.000025501212862  -0.000056904298662  -0.000227772311620 1
force C   0.000059059370234  -0.000108399409751  -0.000079974198152 1
force C   0.000026062505159   0.000038162831890  -0.000169908723095 1
force C  -0.000108287705688   0.000011598754877  -0.000117598841522 1
force C  -0.000048241679123   0.000035232500770   0.000130231816274 1
force C  -0.000009968539055   0.000039171635948  -0.000234642744217 1
force C  -0.000057249971463  -0.000004834733293  -0.000294292118724 1
force C   0.000027140922935   0.000021174618751  -0.000100322399388 1
force C  -0.000079209908469  -0.000108903871789  -0.000281104434754 1
force C   0.000021370023260  -0.000053601832262  -0.000106404982103 1
force C  -0.000046800183445  -0.000068447460055   0.000051610659494 1
force C   0.000007796809288   0.000025053509066  -0.000022822118588 1
force C  -0.000001179205518   0.000070671333392   0.000206284283062 1
force C   0.000005779805714  -0.000153311497597   0.000178105745423 1
force C   0.000015345446941   0.000101837796458  -0.000282733867053 1
force C   0.000005641034875   0.000074617218448  -0.000125280861755 1
force C  -0.000073437506348   0.000061609449208  -0.000108205163578 1
force C  -0.000059343610313   0.000014851290248   0.000042514423885 1
force C   0.000053292245155  -0.000010606426680   0.000048391178915 1
force C  -0.000037610393152   0.000033404293841   0.000045286594135 1
force C   0.000008838592432   0.000071485398385  -0.000073728300291 1
force C  -0.000086678564809  -0.000162071456961   0.000007433161047 1
force C   0.000047475657410   0.000067444337375  -0.000102872085831 1
force C   0.000093323470873   0.000007134074449   0.000207698905358 1
force C   0.000005916473029  -0.000032965543486  -0.000153945078211 1
force C   0.000175136602967  -0.000137475820748  -0.000132613128762 1
force C  -0.000060370095440   0.000000400685054  -0.000069561333424 1
force C   0.000056614927934   0.000052330336711   0.000039023573286 1
force C  -0.000083143411901  -0.000002360905876   0.000156497453632 1
force C   0.000082164554858   0.000031433222766  -0.000218254782291 1
force C  -0.000014106277825   0.000050543970407  -0.000004922715191 1
force C  -0.000041781398472  -0.000121370283027   0.000123526232241 1
force C  -0.000104036851751  -0.000009088446450  -0.000179426548886 1
force C  -0.000101482333887  -0.000001142453534  -0.000025630208516 1
force C  -0.000004234284984   0.000029778027737  -0.000339129148392 1
force C  -0.000016773216850  -0.000079020912162   0.000187075666262 1
force C   0.000088175849398   0.000138833810511  -0.000286186488076 1
force C   0.000036999714810   0.000131714683960  -0.000193434203480 1
force C  -0.000002093181845  -0.000074507845926  -0.000014176597299 1
force C   0.000116864727406   0.000024379177603  -0.000048074375799 1
force C   0.000015229833444   0.000114431409273  -0.000220671747089 1
force C   0.000080209640052  -0.000072911297220   0.000082459325101 1
force C  -0.000055324914129   0.000035146111476  -0.000218684920566 1
force C   0.000039973654913  -0.000076391393503  -0.000262651445257 1
force C  -0.000025779376003   0.000038698245677  -0.000002259777994 1
force C   0.000155968210700   0.000036704749206  -0.000200730649980 1
force S  -0.000086881251828   0.000117565857388  -0.000233456412273 1
force S  -0.000137751529216  -0.000030609270080  -0.000072561342874 1
force S   0.000118934845688  -0.000041966536276  -0.000200322048277 1
force S  -0.000150685517934   0.000095203524606  -0.000267519823388 1
force S   0.000071178156764  -0.000049176683758   0.000109858541368 1
force S   0.000061519538173  -0.000102945141184  -0.000207982867680 1
force Na   0.000080536743273  -0.000011172171770  -0.000015572238960 1
force Na  -0.000100164715989   0.000028635523251  -0.000241847987427 1

# Energy components:
   A_diel =       -0.0618682168093728
   Eewald =     5006.5247967390341728
       EH =     5452.4346196108335789
     Eloc =   -11071.1833437753939506
      Enl =      -75.0992172096433990
     EvdW =       -0.1245532862169045
      Exc =     -170.2814734763429669
 Exc_core =       13.0310495936031412
       KE =      276.3500975958859271
-------------------------------------
     Etot =     -568.4098924250500886
       TS =        0.0723156620061311
-------------------------------------
        F =     -568.4822080870561649

IonicMinimize: Iter:  81  F: -568.482208087056165  |grad|_K:  9.956e-05  alpha:  1.566e+00  linmin:  7.112e-03  t[s]:   9588.52
IonicMinimize: Converged (|grad|_K<1.000000e-04).

#--- Lowdin population analysis ---
# oxidation-state C +0.042 +0.041 +0.042 +0.042 +0.042 +0.042 +0.041 +0.040 +0.038 +0.041 +0.042 +0.042 +0.039 +0.039 +0.039 +0.041 +0.040 +0.044 +0.040 +0.035 +0.037 +0.039 +0.040 +0.028 +0.038 +0.043 +0.041 +0.037 +0.030 +0.041 +0.039 +0.022 +0.035 +0.040 +0.038 +0.036 +0.042 +0.042 +0.041 +0.040 +0.043 +0.041 +0.043 +0.042 +0.040 +0.038 +0.039 +0.041 +0.041 +0.037 +0.039 +0.042 +0.041 +0.040 +0.034 +0.041 +0.039 +0.034 +0.023 +0.037 +0.042 +0.040 +0.032 +0.037 +0.041 +0.044 +0.041 +0.038 +0.030 +0.038 +0.039 +0.031
# oxidation-state S -0.415 +0.329 -0.353 -0.355 +0.329 -0.416
# oxidation-state Na +0.818 +0.817


Dumping 'Na2S6@graphene_vdw-glyme.fillings' ... done
Dumping 'Na2S6@graphene_vdw-glyme.wfns' ... done
Dumping 'Na2S6@graphene_vdw-glyme.fluidState' ... done
Dumping 'Na2S6@graphene_vdw-glyme.ionpos' ... done
Dumping 'Na2S6@graphene_vdw-glyme.eigenvals' ... done
End date and time: Fri Jan  3 18:14:24 2025  (Duration: 0-2:39:50.41)
Done!
