
*************** JDFTx 1.7.0  ***************

Start date and time: Mon Dec 30 08:20:18 2024
Executable jdftx_gpu with command-line: -i /home/akim2/JDFTx/Na2S8@graphene-vdw/Na2S8@graphene-vdw.in -o /home/akim2/JDFTx/Na2S8@graphene-vdw/Na2S8@graphene-vdw.out
Running on hosts (process indices):  exp-1-58 (0)
Divided in process groups (process indices):  0 (0)
gpuInit: Found compatible cuda device 0 'Tesla V100-SXM2-32GB'
gpuInit: Selected device 0
Resource initialization completed at t[s]:      0.37
Run totals: 1 processes, 1 threads, 1 GPUs


Input parsed successfully to the following command list (including defaults):

basis kpoint-dependent
coords-type Cartesian
core-overlap-check vector
coulomb-interaction Slab 001
coulomb-truncation-embed 0 0 6
davidson-band-ratio 1.1
dump End State
dump Ionic State
dump-interval Ionic 5
dump-name Na2S8@graphene-vdw.$VAR
elec-cutoff 20 100
elec-eigen-algo Davidson
elec-ex-corr gga-PBE
elec-smearing Fermi 0.01
electronic-minimize  \
	dirUpdateScheme      FletcherReeves \
	linminMethod         DirUpdateRecommended \
	nIterations          100 \
	history              15 \
	knormThreshold       0 \
	energyDiffThreshold  1e-08 \
	nEnergyDiff          2 \
	alphaTstart          1 \
	alphaTmin            1e-10 \
	updateTestStepSize   yes \
	alphaTreduceFactor   0.1 \
	alphaTincreaseFactor 3 \
	nAlphaAdjustMax      3 \
	wolfeEnergy          0.0001 \
	wolfeGradient        0.9 \
	fdTest               no
electronic-scf  \
	nIterations	50 \
	energyDiffThreshold	1e-08 \
	residualThreshold	1e-07 \
	mixFraction	0.5 \
	qMetric	0.8 \
	history	10 \
	nEigSteps	2 \
	eigDiffThreshold	1e-08 \
	mixedVariable	Density \
	qKerker	0.8 \
	qKappa	-1 \
	verbose	no \
	mixFractionMag	1.5
exchange-regularization WignerSeitzTruncated
fluid None
fluid-ex-corr lda-TF lda-PZ
fluid-gummel-loop 10 1.000000e-05
fluid-minimize  \
	dirUpdateScheme      PolakRibiere \
	linminMethod         DirUpdateRecommended \
	nIterations          100 \
	history              15 \
	knormThreshold       0 \
	energyDiffThreshold  0 \
	nEnergyDiff          2 \
	alphaTstart          1 \
	alphaTmin            1e-10 \
	updateTestStepSize   yes \
	alphaTreduceFactor   0.1 \
	alphaTincreaseFactor 3 \
	nAlphaAdjustMax      3 \
	wolfeEnergy          0.0001 \
	wolfeGradient        0.9 \
	fdTest               no
fluid-solvent H2O 55.338 ScalarEOS \
	epsBulk 78.4 \
	pMol 0.92466 \
	epsInf 1.77 \
	Pvap 1.06736e-10 \
	sigmaBulk 4.62e-05 \
	Rvdw 2.61727 \
	Res 1.42 \
	tauNuc 343133 \
	poleEl 15 7 1
forces-output-coords Positions
ion C  28.005798599999999   0.000000000000000   0.897300000000001 0
ion C  16.336715849999997  20.211437139299999   0.897300000000001 0
ion C   2.333816549999999   4.042283648400000   0.897300000000001 0
ion C  23.338165499999999   0.000000000000000   0.897300000000001 0
ion C   4.667633100000000   0.000000000000000   0.897300000000001 0
ion C  11.669082749999999  20.211437139299999   0.897300000000001 0
ion C  25.671982050000000   4.042283648400000   0.897300000000001 0
ion C  18.670532399999999  16.169153490900001   0.897300000000001 0
ion C   4.667633099999997   8.084586194100000   0.897300000000001 0
ion C  18.670532399999999   0.000000000000000   0.897300000000001 0
ion C   9.335266200000000   0.000000000000000   0.897300000000001 0
ion C   9.335266200000001  16.169153490900001   0.897300000000001 0
ion C  23.338165500000002   8.084586194100000   0.897300000000001 0
ion C  21.004348950000001  12.126869842500000   0.897300000000001 0
ion C   7.001449649999998  12.126869842500000   0.897300000000001 0
ion C  14.002899299999999   0.000000000000000   0.897300000000001 0
ion C  14.002899299999997  16.169153490900001   0.897300000000001 0
ion C   7.001449650000000   4.042283648400000   0.897300000000001 0
ion C  21.004348950000001   4.042283648400000   0.897300000000001 0
ion C  16.336715849999997  12.126869842500000   0.897300000000001 0
ion C   9.335266200000000   8.084586194100000   0.897300000000001 0
ion C  16.336715849999994   4.042283648400000   0.897300000000001 0
ion C  11.669082749999999   4.042283648400000   0.897300000000001 0
ion C  11.669082749999999  12.126869842500000   0.897300000000001 0
ion C  18.670532399999988   8.084586194100000   0.897300000000001 0
ion C   7.001449650000000  20.211437139299999   0.897300000000001 0
ion C  -7.001449650000000  20.211437139299999   0.897300000000001 0
ion C   0.000000000000000   8.084586194100000   0.897300000000001 0
ion C  14.002899299999999   8.084586194100000   0.897300000000001 0
ion C   2.333816550000000  20.211437139299999   0.897300000000001 0
ion C  -4.667633100000000  16.169153490900001   0.897300000000001 0
ion C   2.333816550000000  12.126869842500000   0.897300000000001 0
ion C  -2.333816549999999  12.126869842500000   0.897300000000001 0
ion C  -2.333816549999998  20.211437139299999   0.897300000000001 0
ion C   4.667633099999998  16.169153490900001   0.897300000000001 0
ion C   0.000000000000000  16.169153490900001   0.897300000000001 0
ion C  14.002880402700006  21.558890218500000   0.897300000000001 0
ion C   2.333816549999999   1.347415284600000   0.897300000000001 0
ion C  25.672000947299999   1.347434181900000   0.897300000000001 0
ion C  16.336696952700002  17.516587672800000   0.897300000000001 0
ion C   4.667633100000000   5.389698933000000   0.897300000000001 0
ion C  21.004367847299999   1.347434181900000   0.897300000000001 0
ion C   7.001430752700000   1.347434181900000   0.897300000000001 0
ion C  11.669101647299998  17.516587672800000   0.897300000000001 0
ion C  23.338165499999999   5.389698933000000   0.897300000000001 0
ion C  18.670513502700000  13.474304024400000   0.897300000000001 0
ion C   7.001449649999999   9.432001478699998   0.897300000000001 0
ion C  16.336734747299996   1.347434181900000   0.897300000000001 0
ion C  11.669063852700001   1.347434181900000   0.897300000000001 0
ion C   9.335285097299998  13.474304024400000   0.897300000000001 0
ion C  21.004348950000001   9.432001478699998   0.897300000000001 0
ion C   9.335247302699999  21.558890218500000   0.897300000000001 0
ion C  -9.335266200000000  21.558871321199998   0.897300000000001 0
ion C   0.000018897300000   5.389717830300000   0.897300000000001 0
ion C  14.002880402699990  13.474304024400000   0.897300000000001 0
ion C   9.335266200000000   5.389698933000000   0.897300000000001 0
ion C  18.670551297300001   5.389717830300000   0.897300000000001 0
ion C  16.336696952699999   9.432020376000001   0.897300000000001 0
ion C  11.669082750000001   9.432001478699998   0.897300000000001 0
ion C  14.002918197299991   5.389717830300000   0.897300000000001 0
ion C   4.667614202699999  21.558890218500000   0.897300000000001 0
ion C  -7.001449650000000  17.516568775499998   0.897300000000001 0
ion C   2.333835447300000   9.432020376000001   0.897300000000001 0
ion C  -2.333835447300000   9.432020376000001   0.897300000000001 0
ion C  -4.667614202700001  21.558890218500000   0.897300000000001 0
ion C   7.001449650000000  17.516568775499998   0.897300000000001 0
ion C  -0.000018897300000  21.558890218500000   0.897300000000001 0
ion C  -4.667633100000000  13.474285127100000   0.897300000000001 0
ion C   4.667651997299994  13.474304024400000   0.897300000000001 0
ion C   2.333797652700000  17.516587672800000   0.897300000000001 0
ion C  -2.333816549999999  17.516568775499998   0.897300000000001 0
ion C   0.000018897299999  13.474304024400000   0.897300000000001 0
ion S   4.449104293970800  11.462992905480981   8.674214740549475 1
ion S   4.967234593340783   8.145870437991139  11.463835063486414 1
ion S   6.223121967217237   9.607348830851933  14.625366516119843 1
ion S  11.321734681986751   5.890406970961506   8.996354369662413 1
ion S  14.996500152864940   6.831207125344372   8.551942688508746 1
ion S  16.311055088028333   9.045156214394455  11.280577488389619 1
ion S   6.583687050503215  14.239634229436117  10.182798887371305 1
ion S  10.319470191335972  13.795756203366127   9.279273454853577 1
ion Na  11.214039145585122   9.817404191830846  12.753743155532616 1
ion Na   9.080575753304295   9.786984084390392   6.207309018664454 1
ion-species GBRV/$ID_pbe.uspp
ion-width 0
ionic-minimize  \
	dirUpdateScheme      FletcherReeves \
	linminMethod         DirUpdateRecommended \
	nIterations          200 \
	history              15 \
	knormThreshold       0.0001 \
	energyDiffThreshold  1e-06 \
	nEnergyDiff          2 \
	alphaTstart          1 \
	alphaTmin            1e-10 \
	updateTestStepSize   yes \
	alphaTreduceFactor   0.1 \
	alphaTincreaseFactor 3 \
	nAlphaAdjustMax      3 \
	wolfeEnergy          0.0001 \
	wolfeGradient        0.9 \
	fdTest               no
kpoint   0.000000000000   0.000000000000   0.000000000000  1.00000000000000
kpoint-folding 1 1 1 
latt-move-scale 1 1 1
latt-scale 1 1 1 
lattice Triclinic 28.0058 28.0058 37.7946 90 90 120
lattice-minimize  \
	dirUpdateScheme      L-BFGS \
	linminMethod         DirUpdateRecommended \
	nIterations          0 \
	history              15 \
	knormThreshold       0 \
	energyDiffThreshold  1e-06 \
	nEnergyDiff          2 \
	alphaTstart          1 \
	alphaTmin            1e-10 \
	updateTestStepSize   yes \
	alphaTreduceFactor   0.1 \
	alphaTincreaseFactor 3 \
	nAlphaAdjustMax      3 \
	wolfeEnergy          0.0001 \
	wolfeGradient        0.9 \
	fdTest               no
lcao-params -1 1e-06 0.01
pcm-variant GLSSA13
spintype no-spin
subspace-rotation-factor 1 yes
symmetries automatic
symmetry-threshold 0.0001
van-der-waals D3



---------- Setting up symmetries ----------

Found 24 point-group symmetries of the bravais lattice
Found 1 space-group symmetries with basis
Applied RMS atom displacement 0 bohrs to make symmetries exact.

---------- Initializing the Grid ----------
R = 
[      28.0058     -14.0029            0  ]
[            0      24.2537            0  ]
[            0            0      37.7946  ]
unit cell volume = 25671.8
G =
[   0.224353    0.12953         -0  ]
[          0   0.259061          0  ]
[          0         -0   0.166246  ]
Minimum fftbox size, Smin = [  128  128  172  ]
Chosen fftbox size, S = [  128  128  180  ]

---------- Initializing tighter grid for wavefunction operations ----------
R = 
[      28.0058     -14.0029            0  ]
[            0      24.2537            0  ]
[            0            0      37.7946  ]
unit cell volume = 25671.8
G =
[   0.224353    0.12953         -0  ]
[          0   0.259061          0  ]
[          0         -0   0.166246  ]
Minimum fftbox size, Smin = [  116  116  156  ]
Chosen fftbox size, S = [  120  120  160  ]

---------- Exchange Correlation functional ----------
Initalized PBE GGA exchange.
Initalized PBE GGA correlation.

---------- Setting up pseudopotentials ----------
Width of ionic core gaussian charges (only for fluid interactions / plotting) set to 0

Reading pseudopotential file '/home/akim2/jdftx_install/build/pseudopotentials/GBRV/c_pbe.uspp':
  Title: C.  Created by USPP 7.3.6 on 3-2-2014
  Reference state energy: -5.406344.  4 valence electrons in orbitals:
    |200>  occupation: 2  eigenvalue: -0.504890
    |210>  occupation: 2  eigenvalue: -0.194356
  lMax: 1  lLocal: 2  QijEcut: 5
  4 projectors sampled on a log grid with 503 points:
    l: 0  eig: -0.504890  rCut: 1.3
    l: 0  eig: 0.000000  rCut: 1.3
    l: 1  eig: -0.194357  rCut: 1.3
    l: 1  eig: 0.000000  rCut: 1.3
  Partial core density with radius 1.1
  Transforming core density to a uniform radial grid of dG=0.02 with 1625 points.
  Transforming local potential to a uniform radial grid of dG=0.02 with 1625 points.
  Transforming nonlocal projectors to a uniform radial grid of dG=0.02 with 432 points.
  Transforming density augmentations to a uniform radial grid of dG=0.02 with 1625 points.
  Transforming atomic orbitals to a uniform radial grid of dG=0.02 with 432 points.
  Core radius for overlap checks: 1.30 bohrs.

Reading pseudopotential file '/home/akim2/jdftx_install/build/pseudopotentials/GBRV/s_pbe.uspp':
  Title: S.  Created by USPP 7.3.6 on 1-4-15
  Reference state energy: -11.898476.  6 valence electrons in orbitals:
    |300>  occupation: 2  eigenvalue: -0.634167
    |310>  occupation: 4  eigenvalue: -0.257568
  lMax: 2  lLocal: 3  QijEcut: 6
  6 projectors sampled on a log grid with 635 points:
    l: 0  eig: -0.634161  rCut: 1.5
    l: 0  eig: 1.500000  rCut: 1.5
    l: 1  eig: -0.257567  rCut: 1.5
    l: 1  eig: 1.500000  rCut: 1.5
    l: 2  eig: -1.000000  rCut: 1.5
    l: 2  eig: 1.500000  rCut: 1.5
  Partial core density with radius 1.15
  Transforming core density to a uniform radial grid of dG=0.02 with 1625 points.
  Transforming local potential to a uniform radial grid of dG=0.02 with 1625 points.
  Transforming nonlocal projectors to a uniform radial grid of dG=0.02 with 432 points.
  Transforming density augmentations to a uniform radial grid of dG=0.02 with 1625 points.
  Transforming atomic orbitals to a uniform radial grid of dG=0.02 with 432 points.
  Core radius for overlap checks: 1.50 bohrs.

Reading pseudopotential file '/home/akim2/jdftx_install/build/pseudopotentials/GBRV/na_pbe.uspp':
  Title: Na.  Created by USPP 7.3.6 on 23-9-15
  Reference state energy: -47.625620.  9 valence electrons in orbitals:
    |200>  occupation: 2  eigenvalue: -2.085638
    |210>  occupation: 6  eigenvalue: -1.053708
    |300>  occupation: 1  eigenvalue: -0.100838
  lMax: 2  lLocal: 0  QijEcut: 6
  5 projectors sampled on a log grid with 657 points:
    l: 0  eig: -2.085640  rCut: 1.37
    l: 0  eig: -0.100839  rCut: 1.37
    l: 1  eig: -1.053708  rCut: 1.47
    l: 1  eig: 0.500000  rCut: 1.47
    l: 2  eig: 0.750000  rCut: 2
  Transforming local potential to a uniform radial grid of dG=0.02 with 1625 points.
  Transforming nonlocal projectors to a uniform radial grid of dG=0.02 with 432 points.
  Transforming density augmentations to a uniform radial grid of dG=0.02 with 1625 points.
  Transforming atomic orbitals to a uniform radial grid of dG=0.02 with 432 points.
  Core radius for overlap checks: 2.00 bohrs.

Initialized 3 species with 82 total atoms.

Folded 1 k-points by 1x1x1 to 1 k-points.

---------- Setting up k-points, bands, fillings ----------
No reducable k-points. 
Computing the number of bands and number of electrons
Calculating initial fillings.
nElectrons: 354.000000   nBands: 330   nStates: 1

----- Setting up reduced wavefunction bases (one per k-point) -----
average nbasis = 109673.000 , ideal nbasis = 109671.883

---------- Setting up coulomb interaction ----------
Setting up double-sized grid for truncated Coulomb potentials:
R = 
[      28.0058     -14.0029            0  ]
[            0      24.2537            0  ]
[            0            0      75.5892  ]
unit cell volume = 51343.6
G =
[   0.224353    0.12953         -0  ]
[          0   0.259061          0  ]
[          0         -0  0.0831228  ]
Chosen fftbox size, S = [  128  128  360  ]
Integer grid location selected as the embedding center:
   Grid: [  0  0  29  ]
   Lattice: [  0  0  0.158753  ]
   Cartesian: [  0  0  6  ]
Constructing Wigner-Seitz cell: 8 faces (6 quadrilaterals, 2 hexagons)
Range-separation parameter for embedded mesh potentials due to point charges: 0.590105 bohrs.
Initialized slab truncation along lattice direction 001

Initializing DFT-D3 calculator:
	Parameters set for gga-PBE functional
	s6:  1.000  s_r6:  1.217
	s8:  0.722  s_r8:  1.000
	Per-atom parameters loaded for:
	 C:  sqrtQ[a0]:  3.105  Rcov[a0]:  1.417  CN: [ 0.00 0.99 2.00 3.00 3.98 ]
	 S:  sqrtQ[a0]:  4.041  Rcov[a0]:  1.928  CN: [ 0.00 0.99 1.99 ]
	Na:  sqrtQ[a0]:  6.586  Rcov[a0]:  2.646  CN: [ 0.00 0.97 ]

---------- Setting up 2D ewald sum ----------
Optimum gaussian width for ewald sums = 15.547689 bohr.
Real space sums over 289 unit cells with max indices [  8  8  0  ]
Reciprocal space sums over 81 terms with max indices [  4  4  0  ]

Computing DFT-D3 correction:
# coordination-number C 3.300 3.300 3.300 3.300 3.300 3.300 3.300 3.300 3.322 3.300 3.300 3.304 3.300 3.300 3.427 3.300 3.301 3.305 3.300 3.301 3.685 3.301 3.305 3.387 3.301 3.300 3.300 3.300 3.314 3.300 3.300 3.302 3.300 3.300 3.301 3.300 3.300 3.300 3.300 3.300 3.304 3.300 3.300 3.301 3.300 3.300 3.604 3.300 3.301 3.370 3.300 3.300 3.300 3.300 3.305 3.332 3.300 3.302 3.506 3.304 3.300 3.300 3.303 3.300 3.300 3.301 3.300 3.300 3.308 3.300 3.300 3.300
# coordination-number S 2.898 2.370 1.994 2.863 2.438 1.958 2.493 2.904
# coordination-number Na 4.894 5.146
# diagonal-C6 C 24.29 24.28 24.28 24.29 24.28 24.28 24.28 24.28 24.06 24.28 24.28 24.24 24.28 24.28 22.73 24.28 24.27 24.23 24.28 24.27 19.43 24.27 24.24 23.28 24.28 24.28 24.29 24.28 24.14 24.28 24.29 24.26 24.28 24.29 24.27 24.28 24.28 24.28 24.29 24.28 24.24 24.28 24.28 24.27 24.28 24.28 20.22 24.28 24.28 23.51 24.28 24.28 24.29 24.28 24.23 23.96 24.28 24.26 21.55 24.24 24.28 24.29 24.25 24.28 24.28 24.27 24.28 24.28 24.20 24.28 24.28 24.28
# diagonal-C6 S 125.81 125.82 125.90 125.81 125.81 125.93 125.81 125.81
# diagonal-C6 Na 186.11 186.11
EvdW_6 =   -0.068392
EvdW_8 =   -0.058718

---------- Allocating electronic variables ----------
Initializing wave functions:  linear combination of atomic orbitals
C pseudo-atom occupations:   s ( 2 )  p ( 2 )
S pseudo-atom occupations:   s ( 2 )  p ( 4 )
Na pseudo-atom occupations:   s ( 2 1 )  p ( 6 )
	FillingsUpdate:  mu: -0.112522119  nElectrons: 354.000000
LCAOMinimize: Iter:   0  F: -582.7099115239335561  |grad|_K:  1.286e-02  alpha:  1.000e+00
	FillingsUpdate:  mu: -0.314089078  nElectrons: 354.000000
LCAOMinimize: Iter:   1  F: -583.4975992832996781  |grad|_K:  9.405e-03  alpha:  1.631e-01  linmin:  7.416e-02  cgtest: -8.516e-01  t[s]:     10.47
LCAOMinimize: 	Bad step direction: g.d > 0.
LCAOMinimize: 	Undoing step.
LCAOMinimize: 	Step failed: resetting search direction.
	FillingsUpdate:  mu: -0.314089078  nElectrons: 354.000000
LCAOMinimize: Iter:   2  F: -583.4975992832996781  |grad|_K:  9.405e-03  alpha:  0.000e+00
	FillingsUpdate:  mu: -0.265682622  nElectrons: 354.000000
LCAOMinimize: Iter:   3  F: -584.0527959147440242  |grad|_K:  4.103e-03  alpha:  8.144e-02  linmin: -2.140e-01  cgtest:  2.492e-01  t[s]:     13.32
	FillingsUpdate:  mu: -0.273783238  nElectrons: 354.000000
LCAOMinimize: Iter:   4  F: -584.0922867210121012  |grad|_K:  5.703e-03  alpha:  1.077e-01  linmin:  2.592e-01  cgtest: -5.153e-01  t[s]:     15.01
LCAOMinimize: 	Bad step direction: g.d > 0.
LCAOMinimize: 	Undoing step.
LCAOMinimize: 	Step failed: resetting search direction.
	FillingsUpdate:  mu: -0.273783238  nElectrons: 354.000000
LCAOMinimize: Iter:   5  F: -584.0922867210121012  |grad|_K:  5.703e-03  alpha:  0.000e+00
	FillingsUpdate:  mu: -0.280055990  nElectrons: 354.000000
LCAOMinimize: Iter:   6  F: -584.1924242476400195  |grad|_K:  7.815e-04  alpha:  5.777e-02  linmin:  6.409e-02  cgtest: -3.713e-01  t[s]:     17.85
	FillingsUpdate:  mu: -0.277873676  nElectrons: 354.000000
LCAOMinimize: Iter:   7  F: -584.1966576535071454  |grad|_K:  7.061e-04  alpha:  1.573e-01  linmin:  1.517e-02  cgtest:  3.085e-01  t[s]:     19.53
	FillingsUpdate:  mu: -0.277938162  nElectrons: 354.000000
LCAOMinimize: Iter:   8  F: -584.1990768659377409  |grad|_K:  5.042e-04  alpha:  9.220e-02  linmin: -7.186e-04  cgtest:  5.481e-02  t[s]:     21.24
	FillingsUpdate:  mu: -0.278783654  nElectrons: 354.000000
LCAOMinimize: Iter:   9  F: -584.2012431346126959  |grad|_K:  2.901e-04  alpha:  1.543e-01  linmin: -2.134e-03  cgtest: -3.038e-02  t[s]:     22.91
	FillingsUpdate:  mu: -0.278001327  nElectrons: 354.000000
LCAOMinimize: Iter:  10  F: -584.2020844539184736  |grad|_K:  2.732e-04  alpha:  1.806e-01  linmin:  9.377e-05  cgtest: -2.727e-02  t[s]:     24.59
	FillingsUpdate:  mu: -0.278268949  nElectrons: 354.000000
LCAOMinimize: Iter:  11  F: -584.2024599078117717  |grad|_K:  1.294e-04  alpha:  9.069e-02  linmin: -1.141e-03  cgtest:  4.749e-02  t[s]:     26.26
	FillingsUpdate:  mu: -0.278514066  nElectrons: 354.000000
LCAOMinimize: Iter:  12  F: -584.2025892296763914  |grad|_K:  6.030e-05  alpha:  1.401e-01  linmin:  2.589e-04  cgtest: -1.347e-02  t[s]:     27.94
	FillingsUpdate:  mu: -0.278468991  nElectrons: 354.000000
LCAOMinimize: Iter:  13  F: -584.2026061489556241  |grad|_K:  3.724e-05  alpha:  8.515e-02  linmin:  4.955e-05  cgtest:  2.592e-03  t[s]:     29.61
          1e-10 \
	updateTestStepSize   yes \
	alphaTreduceFactor   0.1 \
	alphaTincreaseFactor 3 \
	nAlphaAdjustMax      3 \
	wolfeEnergy          0.0001 \
	wolfeGradient        0.9 \
	fdTest               no
electronic-scf  \
	nIterations	50 \
	energyDiffThreshold	1e-08 \
	residualThreshold	1e-07 \
	mixFraction	0.5 \
	qMetric	0.8 \
	history	10 \
	nEigSteps	2 \
	eigDiffThreshold	1e-08 \
	mixedVariable	Density \
	qKerker	0.8 \
	qKappa	-1 \
	verbose	no \
	mixFractionMag	1.5
exchange-regularization WignerSeitzTruncated
fluid None
fluid-ex-corr lda-TF lda-PZ
fluid-gummel-loop 10 1.000000e-05
fluid-minimize  \
	dirUpdateScheme      PolakRibiere \
	linminMethod         DirUpdateRecommended \
	nIterations          100 \
	history              15 \
	knormThreshold       0 \
	energyDiffThreshold  0 \
	nEnergyDiff          2 \
	alphaTstart          1 \
	alphaTmin            1e-10 \
	updateTestStepSize   yes \
	alphaTreduceFactor   0.1 \
	alphaTincreaseFactor 3 \
	nAlphaAdjustMax      3 \
	wolfeEnergy          0.0001 \
	wolfeGradient        0.9 \
	fdTest               no
fluid-solvent H2O 55.338 ScalarEOS \
	epsBulk 78.4 \
	pMol 0.92466 \
	epsInf 1.77 \
	Pvap 1.06736e-10 \
	sigmaBulk 4.62e-05 \
	Rvdw 2.61727 \
	Res 1.42 \
	tauNuc 343133 \
	poleEl 15 7 1
forces-output-coords Positions
ion C  28.005798599999999   0.000000000000000   0.897300000000001 0
ion C  16.336715849999997  20.211437139299999   0.897300000000001 0
ion C   2.333816549999999   4.042283648400000   0.897300000000001 0
ion C  23.338165499999999   0.000000000000000   0.897300000000001 0
ion C   4.667633100000000   0.000000000000000   0.897300000000001 0
ion C  11.669082749999999  20.211437139299999   0.897300000000001 0
ion C  25.671982050000000   4.042283648400000   0.897300000000001 0
ion C  18.670532399999999  16.169153490900001   0.897300000000001 0
ion C   4.667633099999997   8.084586194100000   0.897300000000001 0
ion C  18.670532399999999   0.000000000000000   0.897300000000001 0
ion C   9.335266200000000   0.000000000000000   0.897300000000001 0
ion C   9.335266200000001  16.169153490900001   0.897300000000001 0
ion C  23.338165500000002   8.084586194100000   0.897300000000001 0
ion C  21.004348950000001  12.126869842500000   0.897300000000001 0
ion C   7.001449649999998  12.126869842500000   0.897300000000001 0
ion C  14.002899299999999   0.000000000000000   0.897300000000001 0
ion C  14.002899299999997  16.169153490900001   0.897300000000001 0
ion C   7.001449650000000   4.042283648400000   0.897300000000001 0
ion C  21.004348950000001   4.042283648400000   0.897300000000001 0
ion C  16.336715849999997  12.126869842500000   0.897300000000001 0
ion C   9.335266200000000   8.084586194100000   0.897300000000001 0
ion C  16.336715849999994   4.042283648400000   0.897300000000001 0
ion C  11.669082749999999   4.042283648400000   0.897300000000001 0
ion C  11.669082749999999  12.126869842500000   0.897300000000001 0
ion C  18.670532399999988   8.084586194100000   0.897300000000001 0
ion C   7.001449650000000  20.211437139299999   0.897300000000001 0
ion C  -7.001449650000000  20.211437139299999   0.897300000000001 0
ion C   0.000000000000000   8.084586194100000   0.897300000000001 0
ion C  14.002899299999999   8.084586194100000   0.897300000000001 0
ion C   2.333816550000000  20.211437139299999   0.897300000000001 0
ion C  -4.667633100000000  16.169153490900001   0.897300000000001 0
ion C   2.333816550000000  12.126869842500000   0.897300000000001 0
ion C  -2.333816549999999  12.126869842500000   0.897300000000001 0
ion C  -2.333816549999998  20.211437139299999   0.897300000000001 0
ion C   4.667633099999998  16.169153490900001   0.897300000000001 0
ion C   0.000000000000000  16.169153490900001   0.897300000000001 0
ion C  14.002880402700006  21.558890218500000   0.897300000000001 0
ion C   2.333816549999999   1.347415284600000   0.897300000000001 0
ion C  25.672000947299999   1.347434181900000   0.897300000000001 0
ion C  16.336696952700002  17.516587672800000   0.897300000000001 0
ion C   4.667633100000000   5.389698933000000   0.897300000000001 0
ion C  21.004367847299999   1.347434181900000   0.897300000000001 0
ion C   7.001430752700000   1.347434181900000   0.897300000000001 0
ion C  11.669101647299998  17.516587672800000   0.897300000000001 0
ion C  23.338165499999999   5.389698933000000   0.897300000000001 0
ion C  18.670513502700000  13.474304024400000   0.897300000000001 0
ion C   7.001449649999999   9.432001478699998   0.897300000000001 0
ion C  16.336734747299996   1.347434181900000   0.897300000000001 0
ion C  11.669063852700001   1.347434181900000   0.897300000000001 0
ion C   9.335285097299998  13.474304024400000   0.897300000000001 0
ion C  21.004348950000001   9.432001478699998   0.897300000000001 0
ion C   9.335247302699999  21.558890218500000   0.897300000000001 0
ion C  -9.335266200000000  21.558871321199998   0.897300000000001 0
ion C   0.000018897300000   5.389717830300000   0.897300000000001 0
ion C  14.002880402699990  13.474304024400000   0.897300000000001 0
ion C   9.335266200000000   5.389698933000000   0.897300000000001 0
ion C  18.670551297300001   5.389717830300000   0.897300000000001 0
ion C  16.336696952699999   9.432020376000001   0.897300000000001 0
ion C  11.669082750000001   9.432001478699998   0.897300000000001 0
ion C  14.002918197299991   5.389717830300000   0.897300000000001 0
ion C   4.667614202699999  21.558890218500000   0.897300000000001 0
ion C  -7.001449650000000  17.516568775499998   0.897300000000001 0
ion C   2.333835447300000   9.432020376000001   0.897300000000001 0
ion C  -2.333835447300000   9.432020376000001   0.897300000000001 0
ion C  -4.667614202700001  21.558890218500000   0.897300000000001 0
ion C   7.001449650000000  17.516568775499998   0.897300000000001 0
ion C  -0.000018897300000  21.558890218500000   0.897300000000001 0
ion C  -4.667633100000000  13.474285127100000   0.897300000000001 0
ion C   4.667651997299994  13.474304024400000   0.897300000000001 0
ion C   2.333797652700000  17.516587672800000   0.897300000000001 0
ion C  -2.333816549999999  17.516568775499998   0.897300000000001 0
ion C   0.000018897299999  13.474304024400000   0.897300000000001 0
ion S   4.449104293970800  11.462992905480981   8.674214740549475 1
ion S   4.967234593340783   8.145870437991139  11.463835063486414 1
ion S   6.223121967217237   9.607348830851933  14.625366516119843 1
ion S  11.321734681986751   5.890406970961506   8.996354369662413 1
ion S  14.996500152864940   6.831207125344372   8.551942688508746 1
ion S  16.311055088028333   9.045156214394455  11.280577488389619 1
ion S   6.583687050503215  14.239634229436117  10.182798887371305 1
ion S  10.319470191335972  13.795756203366127   9.279273454853577 1
ion Na  11.214039145585122   9.817404191830846  12.753743155532616 1
ion Na   9.080575753304295   9.786984084390392   6.207309018664454 1
ion-species GBRV/$ID_pbe.uspp
ion-width 0
ionic-minimize  \
	dirUpdateScheme      FletcherReeves \
	linminMethod         DirUpdateRecommended \
	nIterations          200 \
	history              15 \
	knormThreshold       0.0001 \
	energyDiffThreshold  1e-06 \
	nEnergyDiff          2 \
	alphaTstart          1 \
	alphaTmin            1e-10 \
	updateTestStepSize   yes \
	alphaTreduceFactor   0.1 \
	alphaTincreaseFactor 3 \
	nAlphaAdjustMax      3 \
	wolfeEnergy          0.0001 \
	wolfeGradient        0.9 \
	fdTest               no
kpoint   0.000000000000   0.000000000000   0.000000000000  1.00000000000000
kpoint-folding 1 1 1 
latt-move-scale 1 1 1
latt-scale 1 1 1 
lattice Triclinic 28.0058 28.0058 37.7946 90 90 120
lattice-minimize  \
	dirUpdateScheme      L-BFGS \
	linminMethod         DirUpdateRecommended \
	nIterations          0 \
	history              15 \
	knormThreshold       0 \
	energyDiffThreshold  1e-06 \
	nEnergyDiff          2 \
	alphaTstart          1 \
	alphaTmin            1e-10 \
	updateTestStepSize   yes \
	alphaTreduceFactor   0.1 \
	alphaTincreaseFactor 3 \
	nAlphaAdjustMax      3 \
	wolfeEnergy          0.0001 \
	wolfeGradient        0.9 \
	fdTest               no
lcao-params -1 1e-06 0.01
pcm-variant GLSSA13
spintype no-spin
subspace-rotation-factor 1 yes
symmetries automatic
symmetry-threshold 0.0001
van-der-waals D3



---------- Setting up symmetries ----------

Found 24 point-group symmetries of the bravais lattice
Found 1 space-group symmetries with basis
Applied RMS atom displacement 0 bohrs to make symmetries exact.

---------- Initializing the Grid ----------
R = 
[      28.0058     -14.0029            0  ]
[            0      24.2537            0  ]
[            0            0      37.7946  ]
unit cell volume = 25671.8
G =
[   0.224353    0.12953         -0  ]
[          0   0.259061          0  ]
[          0         -0   0.166246  ]
Minimum fftbox size, Smin = [  128  128  172  ]
Chosen fftbox size, S = [  128  128  180  ]

---------- Initializing tighter grid for wavefunction operations ----------
R = 
[      28.0058     -14.0029            0  ]
[            0      24.2537            0  ]
[            0            0      37.7946  ]
unit cell volume = 25671.8
G =
[   0.224353    0.12953         -0  ]
[          0   0.259061          0  ]
[          0         -0   0.166246  ]
Minimum fftbox size, Smin = [  116  116  156  ]
Chosen fftbox size, S = [  120  120  160  ]

---------- Exchange Correlation functional ----------
Initalized PBE GGA exchange.
Initalized PBE GGA correlation.

---------- Setting up pseudopotentials ----------
Width of ionic core gaussian charges (only for fluid interactions / plotting) set to 0

Reading pseudopotential file '/home/akim2/jdftx_install/build/pseudopotentials/GBRV/c_pbe.uspp':
  Title: C.  Created by USPP 7.3.6 on 3-2-2014
  Reference state energy: -5.406344.  4 valence electrons in orbitals:
    |200>  occupation: 2  eigenvalue: -0.504890
    |210>  occupation: 2  eigenvalue: -0.194356
  lMax: 1  lLocal: 2  QijEcut: 5
  4 projectors sampled on a log grid with 503 points:
    l: 0  eig: -0.504890  rCut: 1.3
    l: 0  eig: 0.000000  rCut: 1.3
    l: 1  eig: -0.194357  rCut: 1.3
    l: 1  eig: 0.000000  rCut: 1.3
  Partial core density with radius 1.1
  Transforming core density to a uniform radial grid of dG=0.02 with 1625 points.
  Transforming local potential to a uniform radial grid of dG=0.02 with 1625 points.
  Transforming nonlocal projectors to a uniform radial grid of dG=0.02 with 432 points.
  Transforming density augmentations to a uniform radial grid of dG=0.02 with 1625 points.
  Transforming atomic orbitals to a uniform radial grid of dG=0.02 with 432 points.
  Core radius for overlap checks: 1.30 bohrs.

Reading pseudopotential file '/home/akim2/jdftx_install/build/pseudopotentials/GBRV/s_pbe.uspp':
  Title: S.  Created by USPP 7.3.6 on 1-4-15
  Reference state energy: -11.898476.  6 valence electrons in orbitals:
    |300>  occupation: 2  eigenvalue: -0.634167
    |310>  occupation: 4  eigenvalue: -0.257568
  lMax: 2  lLocal: 3  QijEcut: 6
  6 projectors sampled on a log grid with 635 points:
    l: 0  eig: -0.634161  rCut: 1.5
    l: 0  eig: 1.500000  rCut: 1.5
    l: 1  eig: -0.257567  rCut: 1.5
    l: 1  eig: 1.500000  rCut: 1.5
    l: 2  eig: -1.000000  rCut: 1.5
    l: 2  eig: 1.500000  rCut: 1.5
  Partial core density with radius 1.15
  Transforming core density to a uniform radial grid of dG=0.02 with 1625 points.
  Transforming local potential to a uniform radial grid of dG=0.02 with 1625 points.
  Transforming nonlocal projectors to a uniform radial grid of dG=0.02 with 432 points.
  Transforming density augmentations to a uniform radial grid of dG=0.02 with 1625 points.
  Transforming atomic orbitals to a uniform radial grid of dG=0.02 with 432 points.
  Core radius for overlap checks: 1.50 bohrs.

Reading pseudopotential file '/home/akim2/jdftx_install/build/pseudopotentials/GBRV/na_pbe.uspp':
  Title: Na.  Created by USPP 7.3.6 on 23-9-15
  Reference state energy: -47.625620.  9 valence electrons in orbitals:
    |200>  occupation: 2  eigenvalue: -2.085638
    |210>  occupation: 6  eigenvalue: -1.053708
    |300>  occupation: 1  eigenvalue: -0.100838
  lMax: 2  lLocal: 0  QijEcut: 6
  5 projectors sampled on a log grid with 657 points:
    l: 0  eig: -2.085640  rCut: 1.37
    l: 0  eig: -0.100839  rCut: 1.37
    l: 1  eig: -1.053708  rCut: 1.47
    l: 1  eig: 0.500000  rCut: 1.47
    l: 2  eig: 0.750000  rCut: 2
  Transforming local potential to a uniform radial grid of dG=0.02 with 1625 points.
  Transforming nonlocal projectors to a uniform radial grid of dG=0.02 with 432 points.
  Transforming density augmentations to a uniform radial grid of dG=0.02 with 1625 points.
  Transforming atomic orbitals to a uniform radial grid of dG=0.02 with 432 points.
  Core radius for overlap checks: 2.00 bohrs.

Initialized 3 species with 82 total atoms.

Folded 1 k-points by 1x1x1 to 1 k-points.

---------- Setting up k-points, bands, fillings ----------
No reducable k-points. 
Computing the number of bands and number of electrons
Calculating initial fillings.
nElectrons: 354.000000   nBands: 330   nStates: 1

----- Setting up reduced wavefunction bases (one per k-point) -----
average nbasis = 109673.000 , ideal nbasis = 109671.883

---------- Setting up coulomb interaction ----------
Setting up double-sized grid for truncated Coulomb potentials:
R = 
[      28.0058     -14.0029            0  ]
[            0      24.2537            0  ]
[            0            0      75.5892  ]
unit cell volume = 51343.6
G =
[   0.224353    0.12953         -0  ]
[          0   0.259061          0  ]
[          0         -0  0.0831228  ]
Chosen fftbox size, S = [  128  128  360  ]
Integer grid location selected as the embedding center:
   Grid: [  0  0  29  ]
   Lattice: [  0  0  0.158753  ]
   Cartesian: [  0  0  6  ]
Constructing Wigner-Seitz cell: 8 faces (6 quadrilaterals, 2 hexagons)
Range-separation parameter for embedded mesh potentials due to point charges: 0.590105 bohrs.
Initialized slab truncation along lattice direction 001

Initializing DFT-D3 calculator:
	Parameters set for gga-PBE functional
	s6:  1.000  s_r6:  1.217
	s8:  0.722  s_r8:  1.000
	Per-atom parameters loaded for:
	 C:  sqrtQ[a0]:  3.105  Rcov[a0]:  1.417  CN: [ 0.00 0.99 2.00 3.00 3.98 ]
	 S:  sqrtQ[a0]:  4.041  Rcov[a0]:  1.928  CN: [ 0.00 0.99 1.99 ]
	Na:  sqrtQ[a0]:  6.586  Rcov[a0]:  2.646  CN: [ 0.00 0.97 ]

---------- Setting up 2D ewald sum ----------
Optimum gaussian width for ewald sums = 15.547689 bohr.
Real space sums over 289 unit cells with max indices [  8  8  0  ]
Reciprocal space sums over 81 terms with max indices [  4  4  0  ]

Computing DFT-D3 correction:
# coordination-number C 3.300 3.300 3.300 3.300 3.300 3.300 3.300 3.300 3.322 3.300 3.300 3.304 3.300 3.300 3.427 3.300 3.301 3.305 3.300 3.301 3.685 3.301 3.305 3.387 3.301 3.300 3.300 3.300 3.314 3.300 3.300 3.302 3.300 3.300 3.301 3.300 3.300 3.300 3.300 3.300 3.304 3.300 3.300 3.301 3.300 3.300 3.604 3.300 3.301 3.370 3.300 3.300 3.300 3.300 3.305 3.332 3.300 3.302 3.506 3.304 3.300 3.300 3.303 3.300 3.300 3.301 3.300 3.300 3.308 3.300 3.300 3.300
# coordination-number S 2.898 2.370 1.994 2.863 2.438 1.958 2.493 2.904
# coordination-number Na 4.894 5.146
# diagonal-C6 C 24.29 24.28 24.28 24.29 24.28 24.28 24.28 24.28 24.06 24.28 24.28 24.24 24.28 24.28 22.73 24.28 24.27 24.23 24.28 24.27 19.43 24.27 24.24 23.28 24.28 24.28 24.29 24.28 24.14 24.28 24.29 24.26 24.28 24.29 24.27 24.28 24.28 24.28 24.29 24.28 24.24 24.28 24.28 24.27 24.28 24.28 20.22 24.28 24.28 23.51 24.28 24.28 24.29 24.28 24.23 23.96 24.28 24.26 21.55 24.24 24.28 24.29 24.25 24.28 24.28 24.27 24.28 24.28 24.20 24.28 24.28 24.28
# diagonal-C6 S 125.81 125.82 125.90 125.81 125.81 125.93 125.81 125.81
# diagonal-C6 Na 186.11 186.11
EvdW_6 =   -0.068392
EvdW_8 =   -0.058718

---------- Allocating electronic variables ----------
Initializing wave functions:  linear combination of atomic orbitals
C pseudo-atom occupations:   s ( 2 )  p ( 2 )
S pseudo-atom occupations:   s ( 2 )  p ( 4 )
Na pseudo-atom occupations:   s ( 2 1 )  p ( 6 )
	FillingsUpdate:  mu: -0.112522119  nElectrons: 354.000000
LCAOMinimize: Iter:   0  F: -582.7099115239335561  |grad|_K:  1.286e-02  alpha:  1.000e+00
	FillingsUpdate:  mu: -0.278498456  nElectrons: 354.000000
LCAOMinimize: Iter:  17  F: -584.2026239784212294  |grad|_K:  7.249e-06  alpha:  1.986e-01  linmin:  2.311e-05  cgtest:  1.206e-03  t[s]:     36.32
	FillingsUpdate:  mu: -0.278502319  nElectrons: 354.000000
LCAOMinimize: Iter:  18  F: -584.2026242207439282  |grad|_K:  4.041e-06  alpha:  8.418e-02  linmin: -1.036e-05  cgtest:  7.295e-04  t[s]:     38.00
	FillingsUpdate:  mu: -0.278508455  nElectrons: 354.000000
LCAOMinimize: Iter:  19  F: -584.2026243285173450  |grad|_K:  1.773e-06  alpha:  1.205e-01  linmin: -1.905e-05  cgtest: -2.917e-04  t[s]:     39.68
LCAOMinimize: Converged (|Delta F|<1.000000e-06 for 2 iters).


---- Citations for features of the code used in this run ----

   Software package:
      R. Sundararaman, K. Letchworth-Weaver, K.A. Schwarz, D. Gunceler, Y. Ozhabes and T.A. Arias, 'JDFTx: software for joint density-functional theory', SoftwareX 6, 278 (2017)

   gga-PBE exchange-correlation functional:
      J.P. Perdew, K. Burke and M. Ernzerhof, Phys. Rev. Lett. 77, 3865 (1996)

   Pseudopotentials:
      KF Garrity, JW Bennett, KM Rabe and D Vanderbilt, Comput. Mater. Sci. 81, 446 (2014)

   Truncated Coulomb potentials:
      R. Sundararaman and T.A. Arias, Phys. Rev. B 87, 165122 (2013)

   DFT-D3 dispersion correction:
      S. Grimme, J. Antony, S. Ehrlich and H. Krieg, J. Chem. Phys. 132, 154104 (2010)

This list may not be complete. Please suggest additional citations or
report any other bugs at https://github.com/shankar1729/jdftx/issues

Initialization completed successfully at t[s]:     39.88


Computing DFT-D3 correction:
# coordination-number C 3.300 3.300 3.300 3.300 3.300 3.300 3.300 3.300 3.322 3.300 3.300 3.304 3.300 3.300 3.427 3.300 3.301 3.305 3.300 3.301 3.685 3.301 3.305 3.387 3.301 3.300 3.300 3.300 3.314 3.300 3.300 3.302 3.300 3.300 3.301 3.300 3.300 3.300 3.300 3.300 3.304 3.300 3.300 3.301 3.300 3.300 3.604 3.300 3.301 3.370 3.300 3.300 3.300 3.300 3.305 3.332 3.300 3.302 3.506 3.304 3.300 3.300 3.303 3.300 3.300 3.301 3.300 3.300 3.308 3.300 3.300 3.300
# coordination-number S 2.898 2.370 1.994 2.863 2.438 1.958 2.493 2.904
# coordination-number Na 4.894 5.146
# diagonal-C6 C 24.29 24.28 24.28 24.29 24.28 24.28 24.28 24.28 24.06 24.28 24.28 24.24 24.28 24.28 22.73 24.28 24.27 24.23 24.28 24.27 19.43 24.27 24.24 23.28 24.28 24.28 24.29 24.28 24.14 24.28 24.29 24.26 24.28 24.29 24.27 24.28 24.28 24.28 24.29 24.28 24.24 24.28 24.28 24.27 24.28 24.28 20.22 24.28 24.28 23.51 24.28 24.28 24.29 24.28 24.23 23.96 24.28 24.26 21.55 24.24 24.28 24.29 24.25 24.28 24.28 24.27 24.28 24.28 24.20 24.28 24.28 24.28
# diagonal-C6 S 125.81 125.82 125.90 125.81 125.81 125.93 125.81 125.81
# diagonal-C6 Na 186.11 186.11
EvdW_6 =   -0.068392
EvdW_8 =   -0.058718

-------- Electronic minimization -----------
Will mix electronic density at each iteration.
	FillingsUpdate:  mu: -0.278508455  nElectrons: 354.000000
	FillingsUpdate:  mu: -0.286766794  nElectrons: 354.000000
SCF: Cycle:  0   F: -587.911066758279276   dF: -3.708e+00   |Residual|: 1.002e+00   |deigs|: 1.297e-01  t[s]:     46.81
	FillingsUpdate:  mu: -0.262031935  nElectrons: 354.000000
SCF: Cycle:  1   F: -588.473292870923046   dF: -5.622e-01   |Residual|: 5.079e-01   |deigs|: 3.358e-02  t[s]:     50.31
	FillingsUpdate:  mu: -0.231419867  nElectrons: 354.000000
SCF: Cycle:  2   F: -588.897330815860869   dF: -4.240e-01   |Residual|: 1.282e-01   |deigs|: 3.019e-02  t[s]:     53.77
                                                                                    	FillingsUpdate:  mu: -0.224660784  nElectrons: 354.000000
SCF: Cycle:  3   F: -588.895454188126109   dF: +1.877e-03   |Residual|: 7.988e-02   |deigs|: 8.592e-03  t[s]:     57.23
	FillingsUpdate:  mu: -0.216851763  nElectrons: 354.000000
SCF: Cycle:  4   F: -588.961927796631358   dF: -6.647e-02   |Residual|: 4.519e-02   |deigs|: 7.409e-03  t[s]:     60.71
                                                                                                                                                                                                                                                                       	FillingsUpdate:  mu: -0.209760762  nElectrons: 354.000000
SCF: Cycle:  5   F: -588.984617084323190   dF: -2.269e-02   |Residual|: 3.256e-02   |deigs|: 7.087e-03  t[s]:     64.20
 1.206e-03  t[s]:     36.56
	FillingsUpdate:  mu: -0.278502319  nElectrons: 354.000000
LCAOMinimize: Iter:  18  F: -584.2026242207439282  |grad|_K:  4.041e-06  alpha:  8.418e-02  linmin: -1.036e-05  cgtest:  7.295e-04  t[s]:     38.24
	FillingsUpdate:  mu: -0.278508455  nElectrons: 354.000000
LCAOMinimize: Iter:  19  F: -584.2026243285173450  |grad|_K:  1.773e-06  alpha:  1.205e-01  linmin: -1.905e-05  cgtest: -2.917e-04  t[s]:     39.92
LCAOMinimize: Converged (|Delta F|<1.000000e-06 for 2 iters).


---- Citations for features of the code used in this run ----

   Software package:
      R. Sundararaman, K. Letchworth-Weaver, K.A. Schwarz, D. Gunceler, Y. Ozhabes and T.A. Arias, 'JDFTx: software for joint density-functional theory', SoftwareX 6, 278 (2017)

   gga-PBE exchange-correlation functional:
      J.P. Perdew, K. Burke and M. Ernzerhof, Phys. Rev. Lett. 77, 3865 (1996)

   Pseudopotentials:
      KF Garrity, JW Bennett, KM Rabe and D Vanderbilt, Comput. Mater. Sci. 81, 446 (2014)

   Truncated Coulomb potentials:
      R. Sundararaman and T.A. Arias, Phys. Rev. B 87, 165122 (2013)

   DFT-D3 dispersion correction:
      S. Grimme, J. Antony, S. Ehrlich and H. Krieg, J. Chem. Phys. 132, 154104 (2010)

This list may not be complete. Please suggest additional citations or
report any other bugs at https://github.com/shankar1729/jdftx/issues

Initialization completed successfully at t[s]:     40.11


Computing DFT-D3 correction:
# coordination-number C 3.300 3.300 3.300 3.300 3.300 3.300 3.300 3.300 3.322 3.300 3.300 3.304 3.300 3.300 3.427 3.300 3.301 3.305 3.300 3.301 3.685 3.301 3.305 3.387 3.301 3.300 3.300 3.300 3.314 3.300 3.300 3.302 3.300 3.300 3.301 3.300 3.300 3.300 3.300 3.300 3.304 3.300 3.300 3.301 3.300 3.300 3.604 3.300 3.301 3.370 3.300 3.300 3.300 3.300 3.305 3.332 3.300 3.302 3.506 3.304 3.300 3.300 3.303 3.300 3.300 3.301 3.300 3.300 3.308 3.300 3.300 3.300
# coordination-number S 2.898 2.370 1.994 2.863 2.438 1.958 2.493 2.904
# coordination-number Na 4.894 5.146
# diagonal-C6 C 24.29 24.28 24.28 24.29 24.28 24.28 24.28 24.28 24.06 24.28 24.28 24.24 24.28 24.28 22.73 24.28 24.27 24.23 24.28 24.27 19.43 24.27 24.24 23.28 24.28 24.28 24.29 24.28 24.14 24.28 24.29 24.26 24.28 24.29 24.27 24.28 24.28 24.28 24.29 24.28 24.24 24.28 24.28 24.27 24.28 24.28 20.22 24.28 24.28 23.51 24.28 24.28 24.29 24.28 24.23 23.96 24.28 24.26 21.55 24.24 24.28 24.29 24.25 24.28 24.28 24.27 24.28 24.28 24.20 24.28 24.28 24.28
# diagonal-C6 S 125.81 125.82 125.90 125.81 125.81 125.93 125.81 125.81
# diagonal-C6 Na 186.11 186.11
EvdW_6 =   -0.068392
EvdW_8 =   -0.058718

-------- Electronic minimization -----------
Will mix electronic density at each iteration.
	FillingsUpdate:  mu: -0.278508455  nElectrons: 354.000000
	FillingsUpdate:  mu: -0.286766794  nElectrons: 354.000000
SCF: Cycle:  0   F: -587.911066758279276   dF: -3.708e+00   |Residual|: 1.002e+00   |deigs|: 1.297e-01  t[s]:     46.80
	FillingsUpdate:  mu: -0.262031935  nElectrons: 354.000000
SCF: Cycle:  1   F: -588.473292870923046   dF: -5.622e-01   |Residual|: 5.079e-01   |deigs|: 3.358e-02  t[s]:     50.29
	FillingsUpdate:  mu: -0.231419867  nElectrons: 354.000000
SCF: Cycle:  2   F: -588.897330815860869   dF: -4.240e-01   |Residual|: 1.282e-01   |deigs|: 3.019e-02  t[s]:     53.74
	FillingsUpdate:  mu: -0.224660784  nElectrons: 354.000000
SCF: Cycle:  3   F: -588.895454188126109   dF: +1.877e-03   |Residual|: 7.988e-02   |deigs|: 8.592e-03  t[s]:     57.22
	FillingsUpdate:  mu: -0.216851763  nElectrons: 354.000000
SCF: Cycle:  4   F: -588.961927796631358   dF: -6.647e-02   |Residual|: 4.519e-02   |deigs|: 7.409e-03  t[s]:     60.68
	FillingsUpdate:  mu: -0.209760762  nElectrons: 354.000000
SCF: Cycle:  5   F: -588.984617084323190   dF: -2.269e-02   |Residual|: 3.256e-02   |deigs|: 7.087e-03  t[s]:     64.13
	FillingsUpdate:  mu: -0.205035711  nElectrons: 354.000000
SCF: Cycle:  6   F: -588.997934472290694   dF: -1.332e-02   |Residual|: 2.229e-02   |deigs|: 4.518e-03  t[s]:     67.56
	FillingsUpdate:  mu: -0.201858500  nElectrons: 354.000000
SCF: Cycle: 14   F: -589.010883859852811   dF: -3.496e-04   |Residual|: 4.192e-03   |deigs|: 2.208e-03  t[s]:     92.28
	FillingsUpdate:  mu: -0.198683769  nElectrons: 354.000000
SCF: Cycle:  8   F: -589.009509628510045   dF: -3.133e-03   |Residual|: 1.232e-02   |deigs|: 3.473e-03  t[s]:     74.01
	FillingsUpdate:  mu: -0.197008312  nElectrons: 354.000000
SCF: Cycle:  9   F: -589.009413967934847   dF: +9.566e-05   |Residual|: 1.129e-02   |deigs|: 1.928e-03  t[s]:     77.04
	FillingsUpdate:  mu: -0.195108980  nElectrons: 354.000000
SCF: Cycle: 10   F: -589.008892478686221   dF: +5.215e-04   |Residual|: 8.616e-03   |deigs|: 2.007e-03  t[s]:     80.14
	FillingsUpdate:  mu: -0.193116780  nElectrons: 354.000000
SCF: Cycle: 11   F: -589.008944495292553   dF: -5.202e-05   |Residual|: 6.779e-03   |deigs|: 1.741e-03  t[s]:     83.14
	FillingsUpdate:  mu: -0.189365695  nElectrons: 354.000000
SCF: Cycle: 12   F: -589.009526227203423   dF: -5.817e-04   |Residual|: 5.770e-03   |deigs|: 3.826e-03  t[s]:     86.16
	FillingsUpdate:  mu: -0.184794897  nElectrons: 354.000000
SCF: Cycle: 13   F: -589.010534303131067   dF: -1.008e-03   |Residual|: 4.862e-03   |deigs|: 4.923e-03  t[s]:     89.12
	FillingsUpdate:  mu: -0.182602488  nElectrons: 354.000000
SCF: Cycle: 14   F: -589.010883859852811   dF: -3.496e-04   |Residual|: 4.192e-03   |deigs|: 2.208e-03  t[s]:     92.10
	FillingsUpdate:  mu: -0.177889433  nElectrons: 354.000000
SCF: Cycle: 15   F: -589.011307347261550   dF: -4.235e-04   |Residual|: 3.577e-03   |deigs|: 4.477e-03  t[s]:     95.12
	FillingsUpdate:  mu: -0.176330327  nElectrons: 354.000000
SCF: Cycle: 16   F: -589.011368679387374   dF: -6.133e-05   |Residual|: 3.094e-03   |deigs|: 1.408e-03  t[s]:     98.10
	FillingsUpdate:  mu: -0.172392408  nElectrons: 354.000000
SCF: Cycle: 17   F: -589.011460452298024   dF: -9.177e-05   |Residual|: 2.558e-03   |deigs|: 4.010e-03  t[s]:    101.08
	FillingsUpdate:  mu: -0.171030887  nElectrons: 354.000000
SCF: Cycle: 18   F: -589.011472366005705   dF: -1.191e-05   |Residual|: 2.087e-03   |deigs|: 1.536e-03  t[s]:    104.05
	FillingsUpdate:  mu: -0.170094469  nElectrons: 354.000000
SCF: Cycle: 19   F: -589.011473345245577   dF: -9.792e-07   |Residual|: 1.559e-03   |deigs|: 1.232e-03  t[s]:    107.01
	FillingsUpdate:  mu: -0.169451291  nElectrons: 354.000000
SCF: Cycle: 20   F: -589.011466260605971   dF: +7.085e-06   |Residual|: 1.395e-03   |deigs|: 8.507e-04  t[s]:    110.03
	FillingsUpdate:  mu: -0.169141979  nElectrons: 354.000000
SCF: Cycle: 21   F: -589.011483015337603   dF: -1.675e-05   |Residual|: 1.101e-03   |deigs|: 6.123e-04  t[s]:    113.02
	FillingsUpdate:  mu: -0.168163806  nElectrons: 354.000000
SCF: Cycle: 22   F: -589.011493250068042   dF: -1.023e-05   |Residual|: 7.636e-04   |deigs|: 1.032e-03  t[s]:    115.99
	FillingsUpdate:  mu: -0.168010887  nElectrons: 354.000000
SCF: Cycle: 23   F: -589.011500360920650   dF: -7.111e-06   |Residual|: 5.904e-04   |deigs|: 2.406e-04  t[s]:    118.94
	FillingsUpdate:  mu: -0.167900476  nElectrons: 354.000000
SCF: Cycle: 24   F: -589.011501603258125   dF: -1.242e-06   |Residual|: 4.131e-04   |deigs|: 2.774e-04  t[s]:    121.90
	FillingsUpdate:  mu: -0.167889924  nElectrons: 354.000000
SCF: Cycle: 25   F: -589.011502250431022   dF: -6.472e-07   |Residual|: 3.138e-04   |deigs|: 1.978e-04  t[s]:    124.87
	FillingsUpdate:  mu: -0.167824456  nElectrons: 354.000000
SCF: Cycle: 26   F: -589.011501880834317   dF: +3.696e-07   |Residual|: 2.106e-04   |deigs|: 3.085e-04  t[s]:    127.83
	FillingsUpdate:  mu: -0.167880236  nElectrons: 354.000000
SCF: Cycle: 27   F: -589.011502796110221   dF: -9.153e-07   |Residual|: 1.447e-04   |deigs|: 2.261e-04  t[s]:    130.81
	FillingsUpdate:  mu: -0.167928956  nElectrons: 354.000000
                                                                                                                                                                                                                                                                                                                                                                                                                       SCF: Cycle: 28   F: -589.011503034698649   dF: -2.386e-07   |Residual|: 1.047e-04   |deigs|: 8.926e-05  t[s]:    138.32
                                                                                                                                                                                                                                                                                                                                                                                                                                                                                           	FillingsUpdate:  mu: -0.167976753  nElectrons: 354.000000
SCF: Cycle: 29   F: -589.011503465350870   dF: -4.307e-07   |Residual|: 8.505e-05   |deigs|: 7.936e-05  t[s]:    141.33
	FillingsUpdate:  mu: -0.167968933  nElectrons: 354.000000
24.28 24.29 24.28 24.24 24.28 24.28 24.27 24.28 24.28 20.22 24.28 24.28 23.51 24.28 24.28 24.29 24.28 24.23 23.96 24.28 24.26 21.55 24.24 24.28 24.29 24.25 24.28 24.28 24.27 24.28 24.28 24.20 24.28 24.28 24.28
# diagonal-C6 S 125.81 125.82 125.90 125.81 125.81 125.93 125.81 125.81
# diagonal-C6 Na 186.11 186.11
EvdW_6 =   -0.068392
EvdW_8 =   -0.058718

# Ionic positions in cartesian coordinates:
ion C  28.005798599999999   0.000000000000000   0.897300000000001 0
ion C  16.336715849999997  20.211437139299999   0.897300000000001 0
ion C   2.333816549999999   4.042283648400000   0.897300000000001 0
ion C  23.338165499999999   0.000000000000000   0.897300000000001 0
ion C   4.667633100000000   0.000000000000000   0.897300000000001 0
ion C  11.669082749999999  20.211437139299999   0.897300000000001 0
ion C  25.671982050000000   4.042283648400000   0.897300000000001 0
ion C  18.670532399999999  16.169153490900001   0.897300000000001 0
ion C   4.667633099999997   8.084586194100000   0.897300000000001 0
ion C  18.670532399999999   0.000000000000000   0.897300000000001 0
ion C   9.335266200000000   0.000000000000000   0.897300000000001 0
ion C   9.335266200000001  16.169153490900001   0.897300000000001 0
ion C  23.338165500000002   8.084586194100000   0.897300000000001 0
ion C  21.004348950000001  12.126869842500000   0.897300000000001 0
ion C   7.001449649999998  12.126869842500000   0.897300000000001 0
ion C  14.002899299999999   0.000000000000000   0.897300000000001 0
ion C  14.002899299999997  16.169153490900001   0.897300000000001 0
ion C   7.001449650000000   4.042283648400000   0.897300000000001 0
ion C  21.004348950000001   4.042283648400000   0.897300000000001 0
ion C  16.336715849999997  12.126869842500000   0.897300000000001 0
ion C   9.335266200000000   8.084586194100000   0.897300000000001 0
ion C  16.336715849999994   4.042283648400000   0.897300000000001 0
ion C  11.669082749999999   4.042283648400000   0.897300000000001 0
ion C  11.669082749999999  12.126869842500000   0.897300000000001 0
ion C  18.670532399999988   8.084586194100000   0.897300000000001 0
ion C   7.001449650000000  20.211437139299999   0.897300000000001 0
ion C  -7.001449650000000  20.211437139299999   0.897300000000001 0
ion C   0.000000000000000   8.084586194100000   0.897300000000001 0
ion C  14.002899299999999   8.084586194100000   0.897300000000001 0
ion C   2.333816550000000  20.211437139299999   0.897300000000001 0
ion C  -4.667633100000000  16.169153490900001   0.897300000000001 0
ion C   2.333816550000000  12.126869842500000   0.897300000000001 0
ion C  -2.333816549999999  12.126869842500000   0.897300000000001 0
ion C  -2.333816549999998  20.211437139299999   0.897300000000001 0
ion C   4.667633099999998  16.169153490900001   0.897300000000001 0
ion C   0.000000000000000  16.169153490900001   0.897300000000001 0
ion C  14.002880402700006  21.558890218500000   0.897300000000001 0
ion C   2.333816549999999   1.347415284600000   0.897300000000001 0
ion C  25.672000947299999   1.347434181900000   0.897300000000001 0
ion C  16.336696952700002  17.516587672800000   0.897300000000001 0
ion C   4.667633100000000   5.389698933000000   0.897300000000001 0
ion C  21.004367847299999   1.347434181900000   0.897300000000001 0
ion C   7.001430752700000   1.347434181900000   0.897300000000001 0
ion C  11.669101647299998  17.516587672800000   0.897300000000001 0
ion C  23.338165499999999   5.389698933000000   0.897300000000001 0
ion C  18.670513502700000  13.474304024400000   0.897300000000001 0
ion C   7.001449649999999   9.432001478699998   0.897300000000001 0
ion C  16.336734747299996   1.347434181900000   0.897300000000001 0
ion C  11.669063852700001   1.347434181900000   0.897300000000001 0
ion C   9.335285097299998  13.474304024400000   0.897300000000001 0
ion C  21.004348950000001   9.432001478699998   0.897300000000001 0
ion C   9.335247302699999  21.558890218500000   0.897300000000001 0
ion C  -9.335266200000000  21.558871321199998   0.897300000000001 0
ion C   0.000018897300000   5.389717830300000   0.897300000000001 0
ion C  14.002880402699990  13.474304024400000   0.897300000000001 0
ion C   9.335266200000000   5.389698933000000   0.897300000000001 0
ion C  18.670551297300001   5.389717830300000   0.897300000000001 0
ion C  16.336696952699999   9.432020376000001   0.897300000000001 0
ion C  11.669082750000001   9.432001478699998   0.897300000000001 0
ion C  14.002918197299991   5.389717830300000   0.897300000000001 0
ion C   4.667614202699999  21.558890218500000   0.897300000000001 0
ion C  -7.001449650000000  17.516568775499998   0.897300000000001 0
ion C   2.333835447300000   9.432020376000001   0.897300000000001 0
ion C  -2.333835447300000   9.432020376000001   0.897300000000001 0
ion C  -4.667614202700001  21.558890218500000   0.897300000000001 0
ion C   7.001449650000000  17.516568775499998   0.897300000000001 0
ion C  -0.000018897300000  21.558890218500000   0.897300000000001 0
ion C  -4.667633100000000  13.474285127100000   0.897300000000001 0
ion C   4.667651997299994  13.474304024400000   0.897300000000001 0
ion C   2.333797652700000  17.516587672800000   0.897300000000001 0
ion C  -2.333816549999999  17.516568775499998   0.897300000000001 0
ion C   0.000018897299999  13.474304024400000   0.897300000000001 0
ion S   4.449104293970800  11.462992905480981   8.674214740549475 1
ion S   4.967234593340783   8.145870437991139  11.463835063486414 1
ion S   6.223121967217237   9.607348830851933  14.625366516119843 1
ion S  11.321734681986751   5.890406970961506   8.996354369662413 1
ion S  14.996500152864940   6.831207125344372   8.551942688508746 1
ion S  16.311055088028333   9.045156214394455  11.280577488389619 1
ion S   6.583687050503215  14.239634229436117  10.182798887371305 1
ion S  10.319470191335972  13.795756203366127   9.279273454853577 1
ion Na  11.214039145585122   9.817404191830846  12.753743155532616 1
ion Na   9.080575753304295   9.786984084390392   6.207309018664454 1

# Forces in Cartesian coordinates:
force C  -0.000101938170553   0.000046254664829   0.000030551529313 0
force C  -0.000200141688101   0.000113233610453   0.000043606083644 0
force C  -0.000244943139158  -0.000008557107985   0.000122169780887 0
force C  -0.000024122722090   0.000036817393152   0.000034420899375 0
force C  -0.000113488368087   0.000064211199485   0.000031856077817 0
force C  -0.000160119707414  -0.000042456677001   0.000064634729801 0
force C  -0.000046982670267  -0.000077441867781   0.000042717110415 0
force C  -0.000087767125565  -0.000026932608044   0.000054850911737 0
force C  -0.001748445008342  -0.000915851344746   0.000375241698993 0
force C   0.000043526947984   0.000067968784493   0.000055699207392 0
force C   0.000096827314086   0.000144657671851   0.000098880485874 0
force C   0.000003006493008   0.000891271631513   0.000328148363928 0
force C  -0.000036304781368  -0.000133315456522   0.000052494873664 0
force C   0.000001481084629  -0.000187682197031   0.000064104672301 0
force C  -0.000813054077211   0.001858203441442  -0.000199280195123 0
force C   0.000103361478132   0.000147762202461   0.000093112651251 0
force C  -0.000177654749209   0.000026499767803   0.000132964185376 0
force C   0.000164193805588  -0.000200000346709   0.000072941302340 0
force C  -0.000021170834143  -0.000051717685045   0.000070186758075 0
force C  -0.000017499348847   0.000008709297516   0.000107064540620 0
force C   0.000386923068563  -0.001814929281575  -0.000183260489985 0
force C   0.000046269794967   0.000093025735784   0.000223386491417 0
force C   0.000154094625027  -0.000153375940081   0.000115922419788 0
force C   0.000874341921247   0.001345815222440  -0.000113187507158 0
force C  -0.000043383351889  -0.000239123386152   0.000167800132755 0
force C   0.000114177424845  -0.000011457144393   0.000090459638646 0
force C  -0.000024242889328   0.000039257101297   0.000033234684356 0
force C  -0.000014308731710  -0.000178320943796   0.000100174937278 0
force C   0.001363336789651  -0.000930204225340   0.000438794310001 0
force C   0.000138886643164   0.000111417851644   0.000058828197501 0
force C   0.000012819456032  -0.000018767965575   0.000038273560501 0
force C   0.000009971537884   0.000175253731013   0.000131224328420 0
force C   0.000003598182395  -0.000139247739460   0.000069114149839 0
force C   0.000103343304343   0.000064046377045   0.000041138817741 0
force C   0.000099008949483  -0.000012765678882   0.000167311174585 0
force C   0.000127069696727   0.000000460466013   0.000091226620293 0
force C   0.000163875720010  -0.000131748873069   0.000042369274124 0
force C   0.000098183171977  -0.000140740097357   0.000039265326953 0
force C   0.000018157558204  -0.000038107413698   0.000033395654992 0
force C   0.000082642335520  -0.000148324583839   0.000055050094618 0
force C  -0.000181141070321  -0.000144129267281   0.000084869232085 0
force C  -0.000023657063094  -0.000006566321712   0.000053136770841 0
force C   0.000225143291927  -0.000221005047860   0.000140587238818 0
force C  -0.000084018700168  -0.000140767359779   0.000128888897106 0
force C  -0.000025307489968   0.000135655932209   0.000048458477999 0
force C   0.000007640723725   0.000086835314812   0.000105949618015 0
force C  -0.001964018713985   0.000164479375145  -0.000242773624156 0
force C  -0.000187422743312  -0.000050328386255   0.000115989022703 0
force C  -0.000144072774300   0.000057423280814   0.000127070897961 0
force C   0.000103984880270   0.001480832791615  -0.000175366642860 0
force C  -0.000034571719061   0.000204482505844   0.000082686377107 0
force C   0.000040554381916  -0.000124952116354   0.000064741553577 0
force C   0.000087662927622  -0.000078628690503   0.000033192652527 0
force C  -0.000006712114129   0.000061948530302   0.000066904627965 0
force C   0.000903675412536   0.000533653862852   0.000347748845372 0
force C   0.000218843556526  -0.002493310044464   0.000179329492876 0
force C  -0.000105725071109   0.000139984384409   0.000168785628760 0
force C   0.000106524278640   0.000084139834533   0.000169729205722 0
force C   0.002223601542580   0.000219190636538  -0.000145642842983 0
force C   0.000021524097285  -0.000160837246060   0.000122762730527 0
force C  -0.000132858831255  -0.000097688101833   0.000054095261959 0
force C   0.000046023589892  -0.000029000390896   0.000033333189539 0
force C  -0.000186587516318   0.000202901251887   0.000176155467642 0
force C  -0.000052309408827   0.000211695295581   0.000069140084373 0
force C  -0.000033269392235  -0.000019553858070   0.000041241289057 0
force C   0.000148140762725  -0.000116974699980   0.000151269810741 0
force C  -0.000094574288965  -0.000028574986034   0.000048528154545 0
force C  -0.000037263980404   0.000073331458026   0.000042878184501 0
force C  -0.001049011192882   0.000591053712310   0.000367480680470 0
force C  -0.000103322683337  -0.000148978154522   0.000098642874710 0
force C  -0.000073535042070  -0.000019690229456   0.000039049445684 0
force C   0.000030404708751   0.000079479458985   0.000132930884140 0
force S  -0.000389748258833   0.000100488987241  -0.001121002711506 1
force S   0.000064882689376  -0.000219385099902  -0.000234547048347 1
force S  -0.000311974447566  -0.000463780338614   0.000047561503906 1
force S   0.000050024688307  -0.000373999760871  -0.001272591737125 1
force S  -0.000208663703542  -0.000007566872432  -0.001656290010375 1
force S   0.000210212579977   0.000141848649387  -0.000677650446760 1
force S  -0.000018718465302   0.000820129650068  -0.000909669779186 1
force S   0.000391394713833   0.000379123559171  -0.000975843102071 1
force Na  -0.000118794313226   0.000389562749016   0.000825110809911 1
force Na   0.000324326168197  -0.000840339584277   0.000857586478225 1

# Energy components:
   Eewald =    -2359.2335200528650603
       EH =    -1909.6882987917658738
     Eloc =     3629.8537282604015672
      Enl =      -71.5387631893509877
     EvdW =       -0.1271100854196879
      Exc =     -178.5964305259279570
 Exc_core =       16.5665103591864948
       KE =      283.8442221405047690
-------------------------------------
     Etot =     -588.9196618852370193
       TS =        0.0918417113105282
-------------------------------------
        F =     -589.0115035965475272

IonicMinimize: Iter:   0  F: -589.011503596547527  |grad|_K:  6.339e-04  alpha:  1.000e+00

#--- Lowdin population analysis ---
# oxidation-state C +0.045 +0.045 +0.043 +0.045 +0.045 +0.046 +0.045 +0.046 +0.035 +0.045 +0.046 +0.046 +0.045 +0.046 +0.022 +0.046 +0.047 +0.041 +0.045 +0.045 +0.002 +0.045 +0.046 +0.026 +0.046 +0.046 +0.045 +0.044 +0.039 +0.046 +0.045 +0.044 +0.046 +0.045 +0.045 +0.046 +0.046 +0.045 +0.045 +0.046 +0.040 +0.045 +0.045 +0.047 +0.045 +0.045 +0.006 +0.046 +0.047 +0.030 +0.046 +0.046 +0.045 +0.044 +0.043 +0.037 +0.046 +0.044 +0.014 +0.044 +0.046 +0.045 +0.042 +0.045 +0.045 +0.046 +0.045 +0.045 +0.042 +0.046 +0.045 +0.045
# oxidation-state S -0.064 +0.109 -0.230 -0.389 +0.320 -0.277 +0.217 -0.435
# oxidation-state Na +0.698 +0.722


Computing DFT-D3 correction:
# coordination-number C 3.300 3.300 3.300 3.300 3.300 3.300 3.300 3.300 3.322 3.300 3.300 3.304 3.300 3.300 3.426 3.300 3.301 3.305 3.300 3.301 3.684 3.301 3.305 3.387 3.301 3.300 3.300 3.300 3.314 3.300 3.300 3.302 3.300 3.300 3.301 3.300 3.300 3.300 3.300 3.300 3.304 3.300 3.300 3.301 3.300 3.300 3.604 3.300 3.301 3.370 3.300 3.300 3.300 3.300 3.305 3.332 3.300 3.302 3.506 3.304 3.300 3.300 3.303 3.300 3.300 3.301 3.300 3.300 3.308 3.300 3.300 3.300
# coordination-number S 2.898 2.370 1.994 2.862 2.437 1.958 2.492 2.903
# coordination-number Na 4.892 5.145
# diagonal-C6 C 24.29 24.28 24.28 24.29 24.28 24.28 24.28 24.28 24.06 24.28 24.28 24.24 24.28 24.28 22.73 24.28 24.27 24.23 24.28 24.27 19.43 24.27 24.24 23.28 24.28 24.28 24.29 24.28 24.14 24.28 24.29 24.26 24.28 24.28 24.27 24.28 24.28 24.28 24.29 24.28 24.24 24.28 24.28 24.27 24.28 24.28 20.23 24.28 24.28 23.51 24.28 24.28 24.29 24.28 24.23 23.96 24.28 24.26 21.55 24.24 24.28 24.29 24.25 24.28 24.28 24.27 24.28 24.28 24.20 24.28 24.28 24.28
# diagonal-C6 S 125.81 125.82 125.90 125.81 125.81 125.93 125.81 125.81
# diagonal-C6 Na 186.11 186.11
EvdW_6 =   -0.068397
EvdW_8 =   -0.058724

-------- Electronic minimization -----------
Will mix electronic density at each iteration.
	FillingsUpdate:  mu: -0.167865910  nElectrons: 354.000000
	FillingsUpdate:  mu: -0.167863717  nElectrons: 354.000000
                                                             SCF: Cycle:  0   F: -589.011514300205249   dF: +2.076e-08   |Residual|: 4.663e-04   |deigs|: 8.808e-07  t[s]:    174.12
                                                                                                                      	FillingsUpdate:  mu: -0.167859101  nElectrons: 354.000000
SCF: Cycle:  1   F: -589.011515336353114   dF: -1.036e-06   |Residual|: 1.865e-04   |deigs|: 8.738e-06  t[s]:    182.28
                                                                                                                        	FillingsUpdate:  mu: -0.167861194  nElectrons: 354.000000
SCF: Cycle:  2   F: -589.011515352417746   dF: -1.606e-08   |Residual|: 8.098e-05   |deigs|: 3.911e-06  t[s]:    184.61
	FillingsUpdate:  mu: -0.167861240  nElectrons: 354.000000
SCF: Cycle:  3   F: -589.011515392412321   dF: -3.999e-08   |Residual|: 3.552e-05   |deigs|: 4.790e-06  t[s]:    186.94
	FillingsUpdate:  mu: -0.167861705  nElectrons: 354.000000
SCF: Cycle:  4   F: -589.011515394997105   dF: -2.585e-09   |Residual|: 1.984e-05   |deigs|: 4.022e-06  t[s]:    189.21
	FillingsUpdate:  mu: -0.167862414  nElectrons: 354.000000
SCF: Cycle:  5   F: -589.011515398905658   dF: -3.909e-09   |Residual|: 7.241e-06   |deigs|: 7.101e-06  t[s]:    192.15
SCF: Converged (|Delta E|<1.000000e-08 for 2 iters).

Setting wave functions to eigenvectors of Hamiltonian
IonicMinimize: 	Predicted alpha/alphaT>3.000000, increasing alphaT to 3.000000e+00.

Computing DFT-D3 correction:
# coordination-number C 3.300 3.300 3.300 3.300 3.300 3.300 3.300 3.300 3.322 3.300 3.300 3.304 3.300 3.300 3.426 3.300 3.301 3.305 3.300 3.301 3.684 3.301 3.305 3.387 3.301 3.300 3.300 3.300 3.314 3.300 3.300 3.302 3.300 3.300 3.301 3.300 3.300 3.300 3.300 3.300 3.304 3.300 3.300 3.301 3.300 3.300 3.603 3.300 3.301 3.369 3.300 3.300 3.300 3.300 3.305 3.332 3.300 3.302 3.505 3.304 3.300 3.300 3.303 3.300 3.300 3.301 3.300 3.300 3.308 3.300 3.300 3.300
# coordination-number S 2.897 2.369 1.993 2.862 2.436 1.957 2.491 2.903
# coordination-number Na 4.887 5.143
# diagonal-C6 C 24.29 24.28 24.28 24.29 24.28 24.28 24.28 24.28 24.06 24.28 24.28 24.24 24.28 24.28 22.74 24.28 24.27 24.23 24.28 24.27 19.44 24.27 24.24 23.29 24.28 24.28 24.29 24.28 24.14 24.28 24.29 24.26 24.28 24.28 24.27 24.28 24.28 24.28 24.29 24.28 24.24 24.28 24.28 24.27 24.28 24.28 20.24 24.28 24.28 23.51 24.28 24.28 24.29 24.28 24.23 23.96 24.28 24.26 21.56 24.24 24.28 24.29 24.25 24.28 24.28 24.27 24.28 24.28 24.20 24.28 24.28 24.28
# diagonal-C6 S 125.81 125.82 125.90 125.81 125.81 125.93 125.81 125.81
# diagonal-C6 Na 186.11 186.11
EvdW_6 =   -0.068407
EvdW_8 =   -0.058736

-------- Electronic minimization -----------
Will mix electronic density at each iteration.
	FillingsUpdate:  mu: -0.167862414  nElectrons: 354.000000
	FillingsUpdate:  mu: -0.167859772  nElectrons: 354.000000
SCF: Cycle:  0   F: -589.011535159969867   dF: -1.941e-06   |Residual|: 8.706e-04   |deigs|: 4.228e-07  t[s]:    198.48
   4.667633099999997   8.084586194100000   0.897300000000001 0
ion C  18.670532399999999   0.000000000000000   0.897300000000001 0
ion C   9.335266200000000   0.000000000000000   0.897300000000001 0
ion C   9.335266200000001  16.169153490900001   0.897300000000001 0
ion C  23.338165500000002   8.084586194100000   0.897300000000001 0
ion C  21.004348950000001  12.126869842500000   0.897300000000001 0
ion C   7.001449649999998  12.126869842500000   0.897300000000001 0
ion C  14.002899299999999   0.000000000000000   0.897300000000001 0
ion C  14.002899299999997  16.169153490900001   0.897300000000001 0
ion C   7.001449650000000   4.042283648400000   0.897300000000001 0
ion C  21.004348950000001   4.042283648400000   0.897300000000001 0
ion C  16.336715849999997  12.126869842500000   0.897300000000001 0
ion C   9.335266200000000   8.084586194100000   0.897300000000001 0
ion C  16.336715849999994   4.042283648400000   0.897300000000001 0
ion C  11.669082749999999   4.042283648400000   0.897300000000001 0
ion C  11.669082749999999  12.126869842500000   0.897300000000001 0
ion C  18.670532399999988   8.084586194100000   0.897300000000001 0
ion C   7.001449650000000  20.211437139299999   0.897300000000001 0
ion C  -7.001449650000000  20.211437139299999   0.897300000000001 0
ion C   0.000000000000000   8.084586194100000   0.897300000000001 0
ion C  14.002899299999999   8.084586194100000   0.897300000000001 0
ion C   2.333816550000000  20.211437139299999   0.897300000000001 0
ion C  -4.667633100000000  16.169153490900001   0.897300000000001 0
ion C   2.333816550000000  12.126869842500000   0.897300000000001 0
ion C  -2.333816549999999  12.126869842500000   0.897300000000001 0
ion C  -2.333816549999998  20.211437139299999   0.897300000000001 0
ion C   4.667633099999998  16.169153490900001   0.897300000000001 0
ion C   0.000000000000000  16.169153490900001   0.897300000000001 0
ion C  14.002880402700006  21.558890218500000   0.897300000000001 0
ion C   2.333816549999999   1.347415284600000   0.897300000000001 0
ion C  25.672000947299999   1.347434181900000   0.897300000000001 0
ion C  16.336696952700002  17.516587672800000   0.897300000000001 0
ion C   4.667633100000000   5.389698933000000   0.897300000000001 0
ion C  21.004367847299999   1.347434181900000   0.897300000000001 0
ion C   7.001430752700000   1.347434181900000   0.897300000000001 0
ion C  11.669101647299998  17.516587672800000   0.897300000000001 0
ion C  23.338165499999999   5.389698933000000   0.897300000000001 0
ion C  18.670513502700000  13.474304024400000   0.897300000000001 0
ion C   7.001449649999999   9.432001478699998   0.897300000000001 0
ion C  16.336734747299996   1.347434181900000   0.897300000000001 0
ion C  11.669063852700001   1.347434181900000   0.897300000000001 0
ion C   9.335285097299998  13.474304024400000   0.897300000000001 0
ion C  21.004348950000001   9.432001478699998   0.897300000000001 0
ion C   9.335247302699999  21.558890218500000   0.897300000000001 0
ion C  -9.335266200000000  21.558871321199998   0.897300000000001 0
ion C   0.000018897300000   5.389717830300000   0.897300000000001 0
ion C  14.002880402699990  13.474304024400000   0.897300000000001 0
ion C   9.335266200000000   5.389698933000000   0.897300000000001 0
ion C  18.670551297300001   5.389717830300000   0.897300000000001 0
ion C  16.336696952699999   9.432020376000001   0.897300000000001 0
ion C  11.669082750000001   9.432001478699998   0.897300000000001 0
ion C  14.002918197299991   5.389717830300000   0.897300000000001 0
ion C   4.667614202699999  21.558890218500000   0.897300000000001 0
ion C  -7.001449650000000  17.516568775499998   0.897300000000001 0
ion C   2.333835447300000   9.432020376000001   0.897300000000001 0
ion C  -2.333835447300000   9.432020376000001   0.897300000000001 0
ion C  -4.667614202700001  21.558890218500000   0.897300000000001 0
ion C   7.001449650000000  17.516568775499998   0.897300000000001 0
ion C  -0.000018897300000  21.558890218500000   0.897300000000001 0
ion C  -4.667633100000000  13.474285127100000   0.897300000000001 0
ion C   4.667651997299994  13.474304024400000   0.897300000000001 0
ion C   2.333797652700000  17.516587672800000   0.897300000000001 0
ion C  -2.333816549999999  17.516568775499998   0.897300000000001 0
ion C   0.000018897299999  13.474304024400000   0.897300000000001 0
ion S   4.449104293970800  11.462992905480981   8.674214740549475 1
ion S   4.967234593340783   8.145870437991139  11.463835063486414 1
ion S   6.223121967217237   9.607348830851933  14.625366516119843 1
ion S  11.321734681986751   5.890406970961506   8.996354369662413 1
ion S  14.996500152864940   6.831207125344372   8.551942688508746 1
ion S  16.311055088028333   9.045156214394455  11.280577488389619 1
ion S   6.583687050503215  14.239634229436117  10.182798887371305 1
ion S  10.319470191335972  13.795756203366127   9.279273454853577 1
ion Na  11.214039145585122   9.817404191830846  12.753743155532616 1
ion Na   9.080575753304295   9.786984084390392   6.207309018664454 1

# Forces in Cartesian coordinates:
force C  -0.000101938170554   0.000046254664829   0.000030551529313 0
force C  -0.000200141688101   0.000113233610453   0.000043606083644 0
force C  -0.000244943139158  -0.000008557107985   0.000122169780887 0
force C  -0.000024122722090   0.000036817393151   0.000034420899375 0
force C  -0.000113488368088   0.000064211199484   0.000031856077817 0
force C  -0.000160119707413  -0.000042456677001   0.000064634729801 0
force C  -0.000046982670268  -0.000077441867780   0.000042717110415 0
force C  -0.000087767125565  -0.000026932608044   0.000054850911737 0
force C  -0.001748445008342  -0.000915851344746   0.000375241698993 0
force C   0.000043526947984   0.000067968784493   0.000055699207392 0
force C   0.000096827314086   0.000144657671851   0.000098880485874 0
force C   0.000003006493008   0.000891271631513   0.000328148363928 0
force C  -0.000036304781368  -0.000133315456520   0.000052494873664 0
force C   0.000001481084629  -0.000187682197031   0.000064104672301 0
force C  -0.000813054077210   0.001858203441443  -0.000199280195123 0
force C   0.000103361478132   0.000147762202461   0.000093112651251 0
force C  -0.000177654749209   0.000026499767803   0.000132964185376 0
force C   0.000164193805588  -0.000200000346709   0.000072941302340 0
force C  -0.000021170834139  -0.000051717685044   0.000070186758075 0
force C  -0.000017499348847   0.000008709297516   0.000107064540620 0
force C   0.000386923068563  -0.001814929281575  -0.000183260489985 0
force C   0.000046269794967   0.000093025735785   0.000223386491417 0
force C   0.000154094625027  -0.000153375940081   0.000115922419788 0
force C   0.000874341921247   0.001345815222440  -0.000113187507158 0
force C  -0.000043383351889  -0.000239123386153   0.000167800132755 0
force C   0.000114177424845  -0.000011457144393   0.000090459638646 0
force C  -0.000024242889328   0.000039257101297   0.000033234684356 0
force C  -0.000014308731710  -0.000178320943796   0.000100174937278 0
force C   0.001363336789652  -0.000930204225340   0.000438794310001 0
force C   0.000138886643164   0.000111417851644   0.000058828197501 0
force C   0.000012819456032  -0.000018767965575   0.000038273560501 0
force C   0.000009971537884   0.000175253731013   0.000131224328420 0
force C   0.000003598182395  -0.000139247739460   0.000069114149839 0
force C   0.000103343304343   0.000064046377045   0.000041138817741 0
force C   0.000099008949483  -0.000012765678882   0.000167311174585 0
force C   0.000127069696727   0.000000460466013   0.000091226620293 0
force C   0.000163875720010  -0.000131748873069   0.000042369274124 0
force C   0.000098183171976  -0.000140740097357   0.000039265326953 0
force C   0.000018157558206  -0.000038107413700   0.000033395654992 0
force C   0.000082642335520  -0.000148324583839   0.000055050094618 0
force C  -0.000181141070321  -0.000144129267281   0.000084869232085 0
force C  -0.000023657063094  -0.000006566321713   0.000053136770841 0
force C   0.000225143291927  -0.000221005047860   0.000140587238818 0
force C  -0.000084018700168  -0.000140767359779   0.000128888897106 0
force C  -0.000025307489966   0.000135655932208   0.000048458477999 0
force C   0.000007640723725   0.000086835314812   0.000105949618015 0
force C  -0.001964018713985   0.000164479375145  -0.000242773624156 0
force C  -0.000187422743312  -0.000050328386254   0.000115989022703 0
force C  -0.000144072774300   0.000057423280814   0.000127070897961 0
force C   0.000103984880270   0.001480832791615  -0.000175366642860 0
force C  -0.000034571719062   0.000204482505845   0.000082686377107 0
force C   0.000040554381916  -0.000124952116354   0.000064741553577 0
force C   0.000087662927621  -0.000078628690502   0.000033192652527 0
force C  -0.000006712114129   0.000061948530301   0.000066904627965 0
force C   0.000903675412536   0.000533653862852   0.000347748845372 0
force C   0.000218843556526  -0.002493310044464   0.000179329492876 0
force C  -0.000105725071112   0.000139984384412   0.000168785628760 0
force C   0.000106524278641   0.000084139834533   0.000169729205722 0
force C   0.002223601542580   0.000219190636538  -0.000145642842983 0
force C   0.000021524097286  -0.000160837246060   0.000122762730527 0
force C  -0.000132858831255  -0.000097688101833   0.000054095261959 0
force C   0.000046023589892  -0.000029000390896   0.000033333189539 0
force C  -0.000186587516318   0.000202901251888   0.000176155467642 0
force C  -0.000052309408827   0.000211695295580   0.000069140084373 0
force C  -0.000033269392235  -0.000019553858070   0.000041241289057 0
force C   0.000148140762725  -0.000116974699980   0.000151269810741 0
force C  -0.000094574288966  -0.000028574986034   0.000048528154545 0
force C  -0.000037263980404   0.000073331458026   0.000042878184501 0
force C  -0.001049011192882   0.000591053712310   0.000367480680470 0
force C  -0.000103322683337  -0.000148978154522   0.000098642874710 0
force C  -0.000073535042070  -0.000019690229456   0.000039049445684 0
force C   0.000030404708751   0.000079479458985   0.000132930884140 0
force S  -0.000389748258833   0.000100488987241  -0.001121002711506 1
force S   0.000064882689376  -0.000219385099902  -0.000234547048347 1
force S  -0.000311974447566  -0.000463780338614   0.000047561503906 1
force S   0.000050024688307  -0.000373999760871  -0.001272591737125 1
force S  -0.000208663703542  -0.000007566872432  -0.001656290010375 1
force S   0.000210212579977   0.000141848649387  -0.000677650446760 1
force S  -0.000018718465302   0.000820129650068  -0.000909669779186 1
force S   0.000391394713833   0.000379123559171  -0.000975843102071 1
force Na  -0.000118794313226   0.000389562749016   0.000825110809911 1
force Na   0.000324326168197  -0.000840339584277   0.000857586478225 1

# Energy components:
   Eewald =    -2359.2335200528650603
       EH =    -1909.6882987917658738
     Eloc =     3629.8537282604015672
      Enl =      -71.5387631893509877
     EvdW =       -0.1271100854196879
      Exc =     -178.5964305259279570
 Exc_core =       16.5665103591864948
       KE =      283.8442221405047690
-------------------------------------
     Etot =     -588.9196618852370193
       TS =        0.0918417113105282
-------------------------------------
        F =     -589.0115035965475272

IonicMinimize: Iter:   0  F: -589.011503596547527  |grad|_K:  6.339e-04  alpha:  1.000e+00

#--- Lowdin population analysis ---
# oxidation-state C +0.045 +0.045 +0.043 +0.045 +0.045 +0.046 +0.045 +0.046 +0.035 +0.045 +0.046 +0.046 +0.045 +0.046 +0.022 +0.046 +0.047 +0.041 +0.045 +0.045 +0.002 +0.045 +0.046 +0.026 +0.046 +0.046 +0.045 +0.044 +0.039 +0.046 +0.045 +0.044 +0.046 +0.045 +0.045 +0.046 +0.046 +0.045 +0.045 +0.046 +0.040 +0.045 +0.045 +0.047 +0.045 +0.045 +0.006 +0.046 +0.047 +0.030 +0.046 +0.046 +0.045 +0.044 +0.043 +0.037 +0.046 +0.044 +0.014 +0.044 +0.046 +0.045 +0.042 +0.045 +0.045 +0.046 +0.045 +0.045 +0.042 +0.046 +0.045 +0.045
# oxidation-state S -0.064 +0.109 -0.230 -0.389 +0.320 -0.277 +0.217 -0.435
# oxidation-state Na +0.698 +0.722


Computing DFT-D3 correction:
# coordination-number C 3.300 3.300 3.300 3.300 3.300 3.300 3.300 3.300 3.322 3.300 3.300 3.304 3.300 3.300 3.426 3.300 3.301 3.305 3.300 3.301 3.684 3.301 3.305 3.387 3.301 3.300 3.300 3.300 3.314 3.300 3.300 3.302 3.300 3.300 3.301 3.300 3.300 3.300 3.300 3.300 3.304 3.300 3.300 3.301 3.300 3.300 3.604 3.300 3.301 3.370 3.300 3.300 3.300 3.300 3.305 3.332 3.300 3.302 3.506 3.304 3.300 3.300 3.303 3.300 3.300 3.301 3.300 3.300 3.308 3.300 3.300 3.300
[...]
# diagonal-C6 S 125.81 125.81 125.91 125.81 125.81 125.96 125.82 125.81
# diagonal-C6 Na 186.11 186.11
EvdW_6 =   -0.073669
EvdW_8 =   -0.064716

-------- Electronic minimization -----------
Will mix electronic density at each iteration.
	FillingsUpdate:  mu: -0.165913216  nElectrons: 354.000000
	FillingsUpdate:  mu: -0.165965765  nElectrons: 354.000000
SCF: Cycle:  0   F: -589.018807542393233   dF: -3.649e-05   |Residual|: 4.300e-03   |deigs|: 3.045e-06  t[s]:  12870.30
	FillingsUpdate:  mu: -0.165937638  nElectrons: 354.000000
SCF: Cycle:  1   F: -589.018872289569231   dF: -6.475e-05   |Residual|: 1.676e-03   |deigs|: 3.144e-05  t[s]:  12872.66
	FillingsUpdate:  mu: -0.165946328  nElectrons: 354.000000
SCF: Cycle:  2   F: -589.018877084371297   dF: -4.795e-06   |Residual|: 7.382e-04   |deigs|: 2.108e-05  t[s]:  12875.00
	FillingsUpdate:  mu: -0.165942084  nElectrons: 354.000000
SCF: Cycle:  3   F: -589.018878405348573   dF: -1.321e-06   |Residual|: 2.910e-04   |deigs|: 1.361e-05  t[s]:  12877.36
	FillingsUpdate:  mu: -0.165940651  nElectrons: 354.000000
SCF: Cycle:  4   F: -589.018878495758713   dF: -9.041e-08   |Residual|: 1.437e-04   |deigs|: 9.624e-06  t[s]:  12879.67
	FillingsUpdate:  mu: -0.165938804  nElectrons: 354.000000
SCF: Cycle:  5   F: -589.018878583086689   dF: -8.733e-08   |Residual|: 5.852e-05   |deigs|: 1.404e-05  t[s]:  12882.00
	FillingsUpdate:  mu: -0.165936900  nElectrons: 354.000000
SCF: Cycle:  6   F: -589.018878599693039   dF: -1.661e-08   |Residual|: 3.837e-05   |deigs|: 1.106e-05  t[s]:  12884.35
	FillingsUpdate:  mu: -0.165934636  nElectrons: 354.000000
SCF: Cycle:  7   F: -589.018878622384477   dF: -2.269e-08   |Residual|: 2.228e-05   |deigs|: 1.654e-05  t[s]:  12887.29
	FillingsUpdate:  mu: -0.165932697  nElectrons: 354.000000
SCF: Cycle:  8   F: -589.018878628521520   dF: -6.137e-09   |Residual|: 1.630e-05   |deigs|: 1.115e-05  t[s]:  12889.64
	FillingsUpdate:  mu: -0.165930676  nElectrons: 354.000000
SCF: Cycle:  9   F: -589.018878634402881   dF: -5.881e-09   |Residual|: 1.067e-05   |deigs|: 9.814e-06  t[s]:  12892.61
SCF: Converged (|Delta E|<1.000000e-08 for 2 iters).

Setting wave functions to eigenvectors of Hamiltonian

Computing DFT-D3 correction:
# coordination-number C 3.300 3.300 3.301 3.300 3.300 3.300 3.300 3.300 3.332 3.300 3.301 3.304 3.300 3.300 3.338 3.300 3.301 3.320 3.300 3.303 3.863 3.303 3.317 3.331 3.303 3.300 3.300 3.301 3.323 3.300 3.300 3.304 3.300 3.300 3.302 3.300 3.300 3.300 3.300 3.300 3.312 3.300 3.301 3.301 3.300 3.301 3.551 3.301 3.302 3.321 3.301 3.300 3.300 3.300 3.304 3.447 3.302 3.307 3.471 3.312 3.300 3.300 3.305 3.300 3.300 3.301 3.300 3.300 3.306 3.300 3.300 3.301
# coordination-number S 2.850 2.888 1.992 2.831 2.400 1.938 2.378 2.926
# coordination-number Na 4.769 5.966
# diagonal-C6 C 24.28 24.28 24.27 24.28 24.28 24.28 24.28 24.28 23.95 24.28 24.28 24.24 24.28 24.28 23.88 24.28 24.27 24.08 24.28 24.25 18.55 24.25 24.12 23.97 24.25 24.28 24.28 24.28 24.05 24.28 24.28 24.25 24.28 24.28 24.26 24.28 24.28 24.28 24.28 24.28 24.17 24.28 24.27 24.27 24.28 24.28 20.91 24.28 24.27 24.07 24.28 24.28 24.28 24.28 24.24 22.43 24.26 24.22 22.07 24.17 24.28 24.28 24.24 24.28 24.28 24.27 24.28 24.28 24.22 24.28 24.28 24.28
# diagonal-C6 S 125.81 125.81 125.90 125.81 125.81 125.96 125.82 125.81
# diagonal-C6 Na 186.11 186.11
EvdW_6 =   -0.073665
EvdW_8 =   -0.064718

-------- Electronic minimization -----------
Will mix electronic density at each iteration.
	FillingsUpdate:  mu: -0.165930676  nElectrons: 354.000000
	FillingsUpdate:  mu: -0.165888743  nElectrons: 354.000000
SCF: Cycle:  0   F: -589.018851916635981   dF: -1.228e-05   |Residual|: 2.652e-03   |deigs|: 2.307e-06  t[s]:  12899.90
	FillingsUpdate:  mu: -0.165906280  nElectrons: 354.000000
SCF: Cycle:  1   F: -589.018877296401683   dF: -2.538e-05   |Residual|: 1.050e-03   |deigs|: 2.111e-05  t[s]:  12902.23
	FillingsUpdate:  mu: -0.165901032  nElectrons: 354.000000
SCF: Cycle:  2   F: -589.018879298571733   dF: -2.002e-06   |Residual|: 4.623e-04   |deigs|: 1.410e-05  t[s]:  12904.53
	FillingsUpdate:  mu: -0.165903725  nElectrons: 354.000000
SCF: Cycle:  3   F: -589.018879839765418   dF: -5.412e-07   |Residual|: 1.818e-04   |deigs|: 1.034e-05  t[s]:  12906.85
	FillingsUpdate:  mu: -0.165904799  nElectrons: 354.000000
SCF: Cycle:  4   F: -589.018879874044956   dF: -3.428e-08   |Residual|: 8.952e-05   |deigs|: 8.163e-06  t[s]:  12909.18
	FillingsUpdate:  mu: -0.165906061  nElectrons: 354.000000
SCF: Cycle:  5   F: -589.018879912973716   dF: -3.893e-08   |Residual|: 3.744e-05   |deigs|: 1.208e-05  t[s]:  12911.50
	FillingsUpdate:  mu: -0.165907388  nElectrons: 354.000000
SCF: Cycle:  6   F: -589.018879919823348   dF: -6.850e-09   |Residual|: 2.453e-05   |deigs|: 9.484e-06  t[s]:  12913.83
	FillingsUpdate:  mu: -0.165908945  nElectrons: 354.000000
SCF: Cycle:  7   F: -589.018879930629851   dF: -1.081e-08   |Residual|: 1.464e-05   |deigs|: 1.226e-05  t[s]:  12916.79
	FillingsUpdate:  mu: -0.165910329  nElectrons: 354.000000
SCF: Cycle:  8   F: -589.018879933505104   dF: -2.875e-09   |Residual|: 1.072e-05   |deigs|: 6.710e-06  t[s]:  12919.11
	FillingsUpdate:  mu: -0.165911754  nElectrons: 354.000000
SCF: Cycle:  9   F: -589.018879936482449   dF: -2.977e-09   |Residual|: 7.135e-06   |deigs|: 5.032e-06  t[s]:  12922.09
SCF: Converged (|Delta E|<1.000000e-08 for 2 iters).

Setting wave functions to eigenvectors of Hamiltonian

Computing DFT-D3 correction:
# coordination-number C 3.300 3.300 3.301 3.300 3.300 3.300 3.300 3.300 3.332 3.300 3.301 3.304 3.300 3.300 3.338 3.300 3.301 3.320 3.300 3.303 3.863 3.303 3.317 3.331 3.303 3.300 3.300 3.301 3.323 3.300 3.300 3.304 3.300 3.300 3.302 3.300 3.300 3.300 3.300 3.300 3.312 3.300 3.301 3.301 3.300 3.301 3.551 3.301 3.302 3.321 3.301 3.300 3.300 3.300 3.304 3.447 3.302 3.307 3.471 3.312 3.300 3.300 3.305 3.300 3.300 3.301 3.300 3.300 3.306 3.300 3.300 3.301
# coordination-number S 2.850 2.888 1.992 2.831 2.400 1.938 2.378 2.926
# coordination-number Na 4.769 5.966
# diagonal-C6 C 24.28 24.28 24.27 24.28 24.28 24.28 24.28 24.28 23.95 24.28 24.28 24.24 24.28 24.28 23.88 24.28 24.27 24.08 24.28 24.25 18.55 24.25 24.12 23.97 24.25 24.28 24.28 24.28 24.05 24.28 24.28 24.25 24.28 24.28 24.26 24.28 24.28 24.28 24.28 24.28 24.17 24.28 24.27 24.27 24.28 24.28 20.91 24.28 24.27 24.07 24.28 24.28 24.28 24.28 24.24 22.43 24.26 24.22 22.07 24.17 24.28 24.28 24.24 24.28 24.28 24.27 24.28 24.28 24.22 24.28 24.28 24.28
# diagonal-C6 S 125.81 125.81 125.90 125.81 125.81 125.96 125.82 125.81
# diagonal-C6 Na 186.11 186.11
EvdW_6 =   -0.073665
EvdW_8 =   -0.064718

# Ionic positions in cartesian coordinates:
ion C  28.005798599999999   0.000000000000000   0.897300000000001 0
ion C  16.336715849999997  20.211437139299999   0.897300000000001 0
ion C   2.333816549999999   4.042283648400000   0.897300000000001 0
ion C  23.338165499999999   0.000000000000000   0.897300000000001 0
ion C   4.667633100000000   0.000000000000000   0.897300000000001 0
ion C  11.669082749999999  20.211437139299999   0.897300000000001 0
ion C  25.671982050000000   4.042283648400000   0.897300000000001 0
ion C  18.670532399999999  16.169153490900001   0.897300000000001 0
ion C   4.667633099999997   8.084586194100000   0.897300000000001 0
ion C  18.670532399999999   0.000000000000000   0.897300000000001 0
ion C   9.335266200000000   0.000000000000000   0.897300000000001 0
ion C   9.335266200000001  16.169153490900001   0.897300000000001 0
ion C  23.338165500000002   8.084586194100000   0.897300000000001 0
ion C  21.004348950000001  12.126869842500000   0.897300000000001 0
ion C   7.001449649999998  12.126869842500000   0.897300000000001 0
ion C  14.002899299999999   0.000000000000000   0.897300000000001 0
ion C  14.002899299999997  16.169153490900001   0.897300000000001 0
ion C   7.001449650000000   4.042283648400000   0.897300000000001 0
ion C  21.004348950000001   4.042283648400000   0.897300000000001 0
ion C  16.336715849999997  12.126869842500000   0.897300000000001 0
ion C   9.335266200000000   8.084586194100000   0.897300000000001 0
ion C  16.336715849999994   4.042283648400000   0.897300000000001 0
ion C  11.669082749999999   4.042283648400000   0.897300000000001 0
ion C  11.669082749999999  12.126869842500000   0.897300000000001 0
ion C  18.670532399999988   8.084586194100000   0.897300000000001 0
ion C   7.001449650000000  20.211437139299999   0.897300000000001 0
ion C  -7.001449650000000  20.211437139299999   0.897300000000001 0
ion C   0.000000000000000   8.084586194100000   0.897300000000001 0
ion C  14.002899299999999   8.084586194100000   0.897300000000001 0
ion C   2.333816550000000  20.211437139299999   0.897300000000001 0
ion C  -4.667633100000000  16.169153490900001   0.897300000000001 0
ion C   2.333816550000000  12.126869842500000   0.897300000000001 0
ion C  -2.333816549999999  12.126869842500000   0.897300000000001 0
ion C  -2.333816549999998  20.211437139299999   0.897300000000001 0
ion C   4.667633099999998  16.169153490900001   0.897300000000001 0
ion C   0.000000000000000  16.169153490900001   0.897300000000001 0
ion C  14.002880402700006  21.558890218500000   0.897300000000001 0
ion C   2.333816549999999   1.347415284600000   0.897300000000001 0
ion C  25.672000947299999   1.347434181900000   0.897300000000001 0
ion C  16.336696952700002  17.516587672800000   0.897300000000001 0
ion C   4.667633100000000   5.389698933000000   0.897300000000001 0
ion C  21.004367847299999   1.347434181900000   0.897300000000001 0
ion C   7.001430752700000   1.347434181900000   0.897300000000001 0
ion C  11.669101647299998  17.516587672800000   0.897300000000001 0
ion C  23.338165499999999   5.389698933000000   0.897300000000001 0
ion C  18.670513502700000  13.474304024400000   0.897300000000001 0
ion C   7.001449649999999   9.432001478699998   0.897300000000001 0
ion C  16.336734747299996   1.347434181900000   0.897300000000001 0
ion C  11.669063852700001   1.347434181900000   0.897300000000001 0
ion C   9.335285097299998  13.474304024400000   0.897300000000001 0
ion C  21.004348950000001   9.432001478699998   0.897300000000001 0
ion C   9.335247302699999  21.558890218500000   0.897300000000001 0
ion C  -9.335266200000000  21.558871321199998   0.897300000000001 0
ion C   0.000018897300000   5.389717830300000   0.897300000000001 0
ion C  14.002880402699990  13.474304024400000   0.897300000000001 0
ion C   9.335266200000000   5.389698933000000   0.897300000000001 0
ion C  18.670551297300001   5.389717830300000   0.897300000000001 0
ion C  16.336696952699999   9.432020376000001   0.897300000000001 0
ion C  11.669082750000001   9.432001478699998   0.897300000000001 0
ion C  14.002918197299991   5.389717830300000   0.897300000000001 0
ion C   4.667614202699999  21.558890218500000   0.897300000000001 0
ion C  -7.001449650000000  17.516568775499998   0.897300000000001 0
ion C   2.333835447300000   9.432020376000001   0.897300000000001 0
ion C  -2.333835447300000   9.432020376000001   0.897300000000001 0
ion C  -4.667614202700001  21.558890218500000   0.897300000000001 0
ion C   7.001449650000000  17.516568775499998   0.897300000000001 0
ion C  -0.000018897300000  21.558890218500000   0.897300000000001 0
ion C  -4.667633100000000  13.474285127100000   0.897300000000001 0
ion C   4.667651997299994  13.474304024400000   0.897300000000001 0
ion C   2.333797652700000  17.516587672800000   0.897300000000001 0
ion C  -2.333816549999999  17.516568775499998   0.897300000000001 0
ion C   0.000018897299999  13.474304024400000   0.897300000000001 0
ion S   4.439050135089645  11.161302531084688   7.637295214005772 1
ion S   5.550911129906252   8.246628390823048  10.646920942762589 1
ion S   7.139170320708070  10.032600620911051  13.503150501060897 1
ion S  12.626562045827066   5.643582821667373   8.982509698621367 1
ion S  15.765134544424486   7.033493553104383   7.307185054733286 1
ion S  16.655780900779469  10.514830324581936   8.409359875597950 1
ion S   6.734581228877602  14.132036672861863   8.349421144649261 1
ion S  10.374775199273579  13.366249718221173   7.323930847354156 1
ion Na  12.100381424607114  10.544489924740009  11.481575360187671 1
ion Na   9.083136701574968   8.333954907754610   6.220355444751563 1

# Forces in Cartesian coordinates:
force C  -0.000064269839004  -0.000024492947326   0.000044728383949 0
force C  -0.000192749712699   0.000017155155500   0.000074144592428 0
force C  -0.000345116152710  -0.000198421047001   0.000211336319027 0
force C  -0.000035276099398  -0.000030754939152   0.000048596920681 0
force C  -0.000101588339873   0.000013348013919   0.000035196652481 0
force C  -0.000113817240143  -0.000309718623050   0.000097566197397 0
force C  -0.000023298728618  -0.000134511149245   0.000056966576655 0
force C  -0.000094404264058  -0.000161434545070   0.000121653648947 0
force C  -0.001235090166848  -0.000312497671226  -0.000114867197456 0
force C  -0.000009130053914   0.000020650573766   0.000100195096895 0
force C   0.000148287446746   0.000016114540616   0.000078245116518 0
force C  -0.000062332636813  -0.000016441322457  -0.000239475344815 0
force C  -0.000161330959808  -0.000065630349234   0.000096847263709 0
force C  -0.000186028609549  -0.000082792667700   0.000176629250152 0
force C   0.000321596398318   0.001767319466026  -0.000527406399501 0
force C   0.000096972116305   0.000129092486194   0.000132796763151 0
force C  -0.000369592268483  -0.000132716048838   0.000273688831220 0
force C  -0.000497356133544  -0.000713270134825   0.000200156327481 0
force C  -0.000126092589289  -0.000052494514422   0.000105962146667 0
force C  -0.000163349677131  -0.000230732527359   0.000252155609459 0
force C   0.000277063288857   0.000195799348011  -0.000187048352557 0
force C  -0.000022136192533  -0.000096080248176  -0.000023307168230 0
force C   0.001223802604606  -0.000625735449911   0.000165054728071 0
force C   0.000369875037007   0.000887228486090  -0.000856771606388 0
force C  -0.000226786299113  -0.000027850411339   0.000062894093029 0
force C   0.000075855888557  -0.000109819501959   0.000145964659381 0
force C  -0.000021229929150   0.000027053197622   0.000045327916109 0
force C   0.000130134208608  -0.000037277897486   0.000085915861736 0
force C   0.000922142114631  -0.000143064993502   0.000011734945180 0
force C   0.000109013050593   0.000096590157222   0.000104358728962 0
force C   0.000010500688891  -0.000008231637013   0.000067726210242 0
force C   0.000169603660567   0.000185185326787   0.000055444472824 0
force C   0.000050284356351  -0.000018408628924   0.000119938864240 0
force C   0.000133279623550   0.000074582412261   0.000052662910402 0
force C   0.000055494224079  -0.000017236353368   0.000081200390473 0
force C   0.000142179537538   0.000033449464617   0.000160833866207 0
force C   0.000128577022838  -0.000093495041432   0.000071158560224 0
force C  -0.000017353013664  -0.000051357102621   0.000050079502224 0
force C  -0.000035773862358   0.000028731982699   0.000044973547713 0
force C  -0.000083616367181  -0.000229934664649   0.000133602936660 0
force C  -0.000608085142334   0.000066224462339   0.000072927686076 0
force C  -0.000000993003809   0.000066498744931   0.000088518928137 0
force C   0.000140578733916  -0.000551649327917   0.000162076567410 0
force C  -0.000186765901690  -0.000354591294085   0.000125132765419 0
force C  -0.000052903680838   0.000218344552620   0.000092498937927 0
force C  -0.000032068323475  -0.000213509037226   0.000203058117166 0
force C  -0.002308554465287   0.001781630761464  -0.000596480036296 0
force C  -0.000149059214790   0.000162512479276   0.000153179270252 0
force C   0.000008321478677  -0.000147638970059   0.000162212410560 0
force C  -0.000236535705755   0.000483474373508  -0.000818380617829 0
force C  -0.000135976426106   0.000210586294535   0.000220372553454 0
force C  -0.000002734022887  -0.000082288463173   0.000110784075474 0
force C   0.000079936896576  -0.000100330610944   0.000043985820056 0
force C  -0.000046862924242   0.000132771619579   0.000094450546777 0
force C   0.000025538104848  -0.000191083611681   0.000070620837136 0
force C   0.000218136507634  -0.002856345632765   0.000055179181051 0
force C  -0.000095935510036   0.000228506701579   0.000078688811529 0
force C   0.000293784575879   0.000565073687271  -0.000281431798890 0
force C   0.002824143316947   0.002133081002667  -0.000690606988627 0
force C   0.000287725572451  -0.000449167542128  -0.000348266178438 0
force C  -0.000102650078193  -0.000072026362567   0.000090346531157 0
force C   0.000013501212399  -0.000128211709336   0.000063466652414 0
force C  -0.000274063094947   0.000307496861840   0.000121870344355 0
force C  -0.000049184463693   0.000169153585132   0.000124542958017 0
force C  -0.000032604297675  -0.000052636206272   0.000069249644865 0
force C   0.000335215471155  -0.000451029240177   0.000267483677116 0
force C  -0.000067888701878  -0.000011956341403   0.000060385881801 0
force C  -0.000150602770076  -0.000060662241331   0.000071508115408 0
force C  -0.000181668934088   0.000089155086875   0.000078516858517 0
force C   0.000166104055003  -0.000319197047171   0.000104354706335 0
force C  -0.000063554931336  -0.000103209343705   0.000055822880942 0
force C   0.000033314404040  -0.000082956195532   0.000142747044087 0
force S  -0.000044634628934   0.000251826845136   0.000089770592920 1
force S   0.000359657540903   0.000018385188763   0.000516217660222 1
force S  -0.000121383399746  -0.000169479890339  -0.000376430618840 1
force S   0.000034233769037   0.000181792560150  -0.000266799485507 1
force S   0.000080054327721   0.000599837288321   0.000170624598017 1
force S  -0.000066654617063  -0.000644718897234  -0.000310396399162 1
force S  -0.000217663090055  -0.000003893472161  -0.000274911962249 1
force S   0.000052344414887  -0.000069677301502   0.000138567372395 1
force Na   0.000099916486521  -0.000184644952544  -0.000145352183347 1
force Na  -0.000015972327664   0.000037176716855   0.000026457283548 1

# Energy components:
   Eewald =    -2152.0735443813687198
       EH =    -1701.7900659174249540
     Eloc =     3214.8090210164264136
      Enl =      -71.5388083491851603
     EvdW =       -0.1383828326077649
      Exc =     -178.6029171438107994
 Exc_core =       16.5665096159846286
       KE =      283.8407461221939911
-------------------------------------
     Etot =     -588.9274418697926876
       TS =        0.0914380666898140
-------------------------------------
        F =     -589.0188799364824490

IonicMinimize: Iter: 113  F: -589.018879936482449  |grad|_K:  2.510e-04  alpha:  1.777e+00  linmin:  1.466e-03  t[s]:  12928.89
IonicMinimize: Converged (|Delta F|<1.000000e-06 for 2 iters).

#--- Lowdin population analysis ---
# oxidation-state C +0.045 +0.045 +0.042 +0.045 +0.044 +0.046 +0.045 +0.047 +0.035 +0.045 +0.045 +0.050 +0.046 +0.048 +0.040 +0.046 +0.049 +0.033 +0.046 +0.050 -0.007 +0.045 +0.040 +0.046 +0.046 +0.046 +0.045 +0.045 +0.040 +0.045 +0.045 +0.045 +0.046 +0.045 +0.047 +0.046 +0.045 +0.044 +0.045 +0.046 +0.035 +0.045 +0.042 +0.050 +0.046 +0.049 +0.016 +0.046 +0.046 +0.051 +0.047 +0.046 +0.045 +0.044 +0.049 +0.019 +0.046 +0.046 +0.023 +0.042 +0.046 +0.045 +0.044 +0.045 +0.045 +0.048 +0.046 +0.046 +0.046 +0.046 +0.045 +0.046
# oxidation-state S -0.051 +0.073 -0.264 -0.393 +0.315 -0.292 +0.206 -0.426
# oxidation-state Na +0.707 +0.714


Dumping 'Na2S8@graphene-vdw.fillings' ... done
Dumping 'Na2S8@graphene-vdw.wfns' ... done
Dumping 'Na2S8@graphene-vdw.ionpos' ... done
Dumping 'Na2S8@graphene-vdw.eigenvals' ... done
End date and time: Mon Dec 30 12:08:05 2024  (Duration: 0-3:35:30.95)
Done!
