
*************** JDFTx 1.7.0  ***************

Start date and time: Fri Jan  3 15:34:33 2025
Executable jdftx_gpu with command-line: -i /home/akim2/JDFTx/Na2S4@graphene_vdw-glyme/Na2S4@graphene_vdw-glyme.in -o /home/akim2/JDFTx/Na2S4@graphene_vdw-glyme/Na2S4@graphene_vdw-glyme.out
Running on hosts (process indices):  exp-3-60 (0)
Divided in process groups (process indices):  0 (0)
gpuInit: Found compatible cuda device 0 'Tesla V100-SXM2-32GB'
gpuInit: Selected device 0
Resource initialization completed at t[s]:      0.74
Run totals: 1 processes, 1 threads, 1 GPUs


Input parsed successfully to the following command list (including defaults):

basis kpoint-dependent
coords-type Cartesian
core-overlap-check vector
coulomb-interaction Slab 001
coulomb-truncation-embed 0 0 14.173
davidson-band-ratio 1.1
dump End State
dump-name Na2S4@graphene_vdw-glyme.$VAR
elec-cutoff 20 100
elec-eigen-algo Davidson
elec-ex-corr gga-PBE
elec-smearing Fermi 0.01
electronic-minimize  \
	dirUpdateScheme      FletcherReeves \
	linminMethod         DirUpdateRecommended \
	nIterations          100 \
	history              15 \
	knormThreshold       0 \
	energyDiffThreshold  1e-08 \
	nEnergyDiff          2 \
	alphaTstart          1 \
	alphaTmin            1e-10 \
	updateTestStepSize   yes \
	alphaTreduceFactor   0.1 \
	alphaTincreaseFactor 3 \
	nAlphaAdjustMax      3 \
	wolfeEnergy          0.0001 \
	wolfeGradient        0.9 \
	fdTest               no
exchange-regularization WignerSeitzTruncated
fluid LinearPCM 298.000000 1.013250
fluid-ex-corr lda-TF lda-PZ
fluid-gummel-loop 10 1.000000e-05
fluid-minimize  \
	dirUpdateScheme      PolakRibiere \
	linminMethod         DirUpdateRecommended \
	nIterations          400 \
	history              15 \
	knormThreshold       1e-11 \
	energyDiffThreshold  0 \
	nEnergyDiff          2 \
	alphaTstart          1 \
	alphaTmin            1e-10 \
	updateTestStepSize   yes \
	alphaTreduceFactor   0.1 \
	alphaTincreaseFactor 3 \
	nAlphaAdjustMax      6 \
	wolfeEnergy          0.0001 \
	wolfeGradient        0.9 \
	fdTest               no
fluid-solvent Glyme 9.62137 ScalarEOS \
	epsBulk 7.2 \
	pMol 0 \
	epsInf 1.9 \
	Pvap 0 \
	sigmaBulk 0 \
	Rvdw 0 \
	Res 0 \
	tauNuc 343133
forces-output-coords Positions
ion C  28.002971165896351  -0.005669888928994  14.126281811595085 1
ion C  16.335697565654762  20.206808884037493  14.120988568190668 1
ion C   2.329986959364466   4.033447887776432  14.114030925786279 1
ion C  23.334998159986984  -0.004984833570236  14.112070505081522 1
ion C   4.666161403276635  -0.006327597362961  14.113551595444463 1
ion C  11.666823080855989  20.210084343634787  14.114930073300609 1
ion C  25.667887279408539   4.035906122976681  14.118112836715115 1
ion C  18.670649416641979  16.163178246804605  14.109011904150144 1
ion C   4.665269041193969   8.077478209530167  14.051625823264210 1
ion C  18.667535689661861  -0.005238763230463  14.095116637248466 1
ion C   9.334824875776629  -0.006889722778106  14.088714841054401 1
ion C   9.330685483240572  16.168372015872468  14.052098326326352 1
ion C  23.334378944332702   8.078585746254797  14.108014189314080 1
ion C  21.002988695218374  12.120559168845876  14.103838944629354 1
ion C   6.995829121054020  12.122293440396598  13.991742414501411 1
ion C  14.001085787460124  -0.006122683167330  14.082809548978299 1
ion C  14.004158646542896  16.164708913994151  14.096758372790346 1
ion C   7.002582339988493   4.033076716385350  14.071600683779947 1
ion C  21.001224956020629   4.036163481326343  14.104196652172863 1
ion C  16.338924087582505  12.118443592324921  14.085354609790606 1
ion C   9.337943915255481   8.074918450820750  14.006178651165866 1
ion C  16.335117753319956   4.035446702176966  14.080016383313570 1
ion C  11.668938404711268   4.035017828625628  14.053169922360651 1
ion C  11.670410310156530  12.116919185944251  14.025352676852338 1
ion C  18.668864366582945   8.077658090113617  14.091890223609260 1
ion C   6.997116795121912  20.207992087599010  14.082980525313502 1
ion C  -7.002530605600277  20.205566393191031  14.107642228532729 1
ion C  -0.006887473974489   8.078415564969223  14.100616648194547 1
ion C  14.003410124856142   8.075609625122571  14.047876027211910 1
ion C   2.330973676559225  20.206371164226542  14.075518159667446 1
ion C  -4.668914586211762  16.163494261797481  14.099679421452509 1
ion C   2.328493803456094  12.125974498971106  14.046153625447062 1
ion C  -2.337259363572545  12.122475464499828  14.093713754643714 1
ion C  -2.335525034552072  20.205810312177206  14.091895390125281 1
ion C   4.662561991437309  16.166257236764835  14.038562030386569 1
ion C  -0.003327584702685  16.165075997514574  14.070504035669385 1
ion C  14.001574567021031  21.554366164296969  14.125350070176005 1
ion C   2.331695591998793   1.339268258613245  14.122224563822060 1
ion C  25.668937731425601   1.341091736169032  14.120030289017230 1
ion C  16.338199464284791  17.512311649471442  14.113979986692261 1
ion C   4.666211750715571   5.377194079472979  14.085887303811887 1
ion C  21.000999020898767   1.341855923832942  14.104741776450721 1
ion C   7.000780692251607   1.338948486476615  14.093030291480520 1
ion C  11.668712346619593  17.515000376010676  14.092254137777132 1
ion C  23.334650080435843   5.383851712225790  14.110207944241075 1
ion C  18.670476286102364  13.468095717315547  14.101630738227160 1
ion C   7.003797193675875   9.426274896209923  13.998135933612938 1
ion C  16.334364377386432   1.341389362230010  14.086890396458967 1
ion C  11.667761139433340   1.340534483354972  14.074677721743207 1
ion C   9.332600524437261  13.468415048790009  14.011293792889667 1
ion C  21.001408325955431   9.426037298518031  14.102987929893283 1
ion C   9.332111829049083  21.554794163897260  14.105176637491521 1
ion C  -9.336209559413589  21.552881430322131  14.115185299960455 1
ion C  -0.004498295622494   5.382453356248921  14.114145549756723 1
ion C  14.005292180533582  13.467315401112499  14.070451605594691 1
ion C   9.336258998047406   5.381233865112956  14.037332779004391 1
ion C  18.668136330742438   5.383147649243985  14.091452765761330 1
ion C  16.336436095864684   9.424237252411553  14.074566283157901 1
ion C  11.670609338978096   9.420674377417248  14.017940047090098 1
ion C  14.002073745578340   5.381956557090382  14.056539064377912 1
ion C   4.663622894877529  21.554207181614967  14.083700183207897 1
ion C  -7.002402171522069  17.511081854270302  14.107502649959731 1
ion C   2.326480830229192   9.429226267751634  14.068257102292980 1
ion C  -2.339364220466333   9.427381648406010  14.102541904491217 1
ion C  -4.668827383866290  21.552639863358607  14.098279458724281 1
ion C   6.994615361500145  17.514781762590182  14.056336394803566 1
ion C  -0.002746516585798  21.553179117206646  14.085079174702956 1
ion C  -4.669950093233260  13.469329926345436  14.101293910259688 1
ion C   4.662613110753351  13.472063010531985  14.014831054836174 1
ion C   2.329945985723464  17.512342021448493  14.059499315708665 1
ion C  -2.336447179307112  17.511526966982647  14.088185367838475 1
ion C  -0.005269628567452  13.471733512533687  14.071019297666886 1
ion S   5.109404521625473  14.032936543786040  20.793265729936181 1
ion S   7.016215535737645  13.329369512985220  24.101926727962081 1
ion S   8.352765491018740   9.549835085109326  24.095053789924926 1
ion S  10.252826380526361   8.859135406403006  20.780513932967285 1
ion Na   5.189264258525802   8.965463909588923  19.497812479071364 1
ion Na  10.165771992499291  13.930489736205127  19.492782794976687 1
ion-species GBRV/$ID_pbe.uspp
ion-width Ecut
ionic-minimize  \
	dirUpdateScheme      FletcherReeves \
	linminMethod         DirUpdateRecommended \
	nIterations          200 \
	history              15 \
	knormThreshold       0.0001 \
	energyDiffThreshold  1e-06 \
	nEnergyDiff          2 \
	alphaTstart          1 \
	alphaTmin            1e-10 \
	updateTestStepSize   yes \
	alphaTreduceFactor   0.1 \
	alphaTincreaseFactor 3 \
	nAlphaAdjustMax      3 \
	wolfeEnergy          0.0001 \
	wolfeGradient        0.9 \
	fdTest               no
kpoint   0.000000000000   0.000000000000   0.000000000000  1.00000000000000
kpoint-folding 1 1 1 
latt-move-scale 1 1 1
latt-scale 1 1 1 
lattice Triclinic 28.0058 28.0058 32.1253 90 90 120
lattice-minimize  \
	dirUpdateScheme      L-BFGS \
	linminMethod         DirUpdateRecommended \
	nIterations          0 \
	history              15 \
	knormThreshold       0 \
	energyDiffThreshold  1e-06 \
	nEnergyDiff          2 \
	alphaTstart          1 \
	alphaTmin            1e-10 \
	updateTestStepSize   yes \
	alphaTreduceFactor   0.1 \
	alphaTincreaseFactor 3 \
	nAlphaAdjustMax      3 \
	wolfeEnergy          0.0001 \
	wolfeGradient        0.9 \
	fdTest               no
lcao-params -1 1e-06 0.01
pcm-variant GLSSA13
spintype no-spin
subspace-rotation-factor 1 yes
symmetries automatic
symmetry-threshold 0.0001
van-der-waals D3



---------- Setting up symmetries ----------

Found 24 point-group symmetries of the bravais lattice
Found 1 space-group symmetries with basis
Applied RMS atom displacement 0 bohrs to make symmetries exact.

---------- Initializing the Grid ----------
R = 
[      28.0058     -14.0029            0  ]
[            0      24.2537            0  ]
[            0            0      32.1253  ]
unit cell volume = 21821
G =
[   0.224353    0.12953         -0  ]
[          0   0.259061          0  ]
[          0         -0   0.195584  ]
Minimum fftbox size, Smin = [  128  128  148  ]
Chosen fftbox size, S = [  128  128  150  ]

---------- Initializing tighter grid for wavefunction operations ----------
R = 
[      28.0058     -14.0029            0  ]
[            0      24.2537            0  ]
[            0            0      32.1253  ]
unit cell volume = 21821
G =
[   0.224353    0.12953         -0  ]
[          0   0.259061          0  ]
[          0         -0   0.195584  ]
Minimum fftbox size, Smin = [  116  116  132  ]
Chosen fftbox size, S = [  120  120  140  ]

---------- Exchange Correlation functional ----------
Initalized PBE GGA exchange.
Initalized PBE GGA correlation.

---------- Setting up pseudopotentials ----------
Width of ionic core gaussian charges (only for fluid interactions / plotting) set to 0.397384

Reading pseudopotential file '/home/akim2/jdftx_install/build/pseudopotentials/GBRV/c_pbe.uspp':
  Title: C.  Created by USPP 7.3.6 on 3-2-2014
  Reference state energy: -5.406344.  4 valence electrons in orbitals:
    |200>  occupation: 2  eigenvalue: -0.504890
    |210>  occupation: 2  eigenvalue: -0.194356
  lMax: 1  lLocal: 2  QijEcut: 5
  4 projectors sampled on a log grid with 503 points:
    l: 0  eig: -0.504890  rCut: 1.3
    l: 0  eig: 0.000000  rCut: 1.3
    l: 1  eig: -0.194357  rCut: 1.3
    l: 1  eig: 0.000000  rCut: 1.3
  Partial core density with radius 1.1
  Transforming core density to a uniform radial grid of dG=0.02 with 1618 points.
  Transforming local potential to a uniform radial grid of dG=0.02 with 1618 points.
  Transforming nonlocal projectors to a uniform radial grid of dG=0.02 with 432 points.
  Transforming density augmentations to a uniform radial grid of dG=0.02 with 1618 points.
  Transforming atomic orbitals to a uniform radial grid of dG=0.02 with 432 points.
  Core radius for overlap checks: 1.30 bohrs.

Reading pseudopotential file '/home/akim2/jdftx_install/build/pseudopotentials/GBRV/s_pbe.uspp':
  Title: S.  Created by USPP 7.3.6 on 1-4-15
  Reference state energy: -11.898476.  6 valence electrons in orbitals:
    |300>  occupation: 2  eigenvalue: -0.634167
    |310>  occupation: 4  eigenvalue: -0.257568
  lMax: 2  lLocal: 3  QijEcut: 6
  6 projectors sampled on a log grid with 635 points:
    l: 0  eig: -0.634161  rCut: 1.5
    l: 0  eig: 1.500000  rCut: 1.5
    l: 1  eig: -0.257567  rCut: 1.5
    l: 1  eig: 1.500000  rCut: 1.5
    l: 2  eig: -1.000000  rCut: 1.5
    l: 2  eig: 1.500000  rCut: 1.5
  Partial core density with radius 1.15
  Transforming core density to a uniform radial grid of dG=0.02 with 1618 points.
  Transforming local potential to a uniform radial grid of dG=0.02 with 1618 points.
  Transforming nonlocal projectors to a uniform radial grid of dG=0.02 with 432 points.
  Transforming density augmentations to a uniform radial grid of dG=0.02 with 1618 points.
  Transforming atomic orbitals to a uniform radial grid of dG=0.02 with 432 points.
  Core radius for overlap checks: 1.50 bohrs.

Reading pseudopotential file '/home/akim2/jdftx_install/build/pseudopotentials/GBRV/na_pbe.uspp':
  Title: Na.  Created by USPP 7.3.6 on 23-9-15
  Reference state energy: -47.625620.  9 valence electrons in orbitals:
    |200>  occupation: 2  eigenvalue: -2.085638
    |210>  occupation: 6  eigenvalue: -1.053708
    |300>  occupation: 1  eigenvalue: -0.100838
  lMax: 2  lLocal: 0  QijEcut: 6
  5 projectors sampled on a log grid with 657 points:
    l: 0  eig: -2.085640  rCut: 1.37
    l: 0  eig: -0.100839  rCut: 1.37
    l: 1  eig: -1.053708  rCut: 1.47
    l: 1  eig: 0.500000  rCut: 1.47
    l: 2  eig: 0.750000  rCut: 2
  Transforming local potential to a uniform radial grid of dG=0.02 with 1618 points.
  Transforming nonlocal projectors to a uniform radial grid of dG=0.02 with 432 points.
  Transforming density augmentations to a uniform radial grid of dG=0.02 with 1618 points.
  Transforming atomic orbitals to a uniform radial grid of dG=0.02 with 432 points.
  Core radius for overlap checks: 2.00 bohrs.

Initialized 3 species with 78 total atoms.

Folded 1 k-points by 1x1x1 to 1 k-points.

---------- Setting up k-points, bands, fillings ----------
No reducable k-points. 
Computing the number of bands and number of electrons
Calculating initial fillings.
nElectrons: 330.000000   nBands: 314   nStates: 1

----- Setting up reduced wavefunction bases (one per k-point) -----
average nbasis = 93173.000 , ideal nbasis = 93220.781

---------- Setting up coulomb interaction ----------
Fluid mode embedding: using embedded box, but periodic Coulomb kernel.
(Fluid response is responsible for (approximate) separation between periodic images.)
Setting up double-sized grid for truncated Coulomb potentials:
R = 
[      28.0058     -14.0029            0  ]
[            0      24.2537            0  ]
[            0            0      64.2506  ]
unit cell volume = 43641.9
G =
[   0.224353    0.12953         -0  ]
[          0   0.259061          0  ]
[          0         -0  0.0977919  ]
Chosen fftbox size, S = [  128  128  300  ]
Integer grid location selected as the embedding center:
   Grid: [  0  0  66  ]
   Lattice: [  0  0  0.441178  ]
   Cartesian: [  0  0  14.173  ]
Constructing Wigner-Seitz cell: 8 faces (6 quadrilaterals, 2 hexagons)
Range-separation parameter for embedded mesh potentials due to point charges: 0.590105 bohrs.

Initializing DFT-D3 calculator:
	Parameters set for gga-PBE functional
	s6:  1.000  s_r6:  1.217
	s8:  0.722  s_r8:  1.000
	Per-atom parameters loaded for:
	 C:  sqrtQ[a0]:  3.105  Rcov[a0]:  1.417  CN: [ 0.00 0.99 2.00 3.00 3.98 ]
	 S:  sqrtQ[a0]:  4.041  Rcov[a0]:  1.928  CN: [ 0.00 0.99 1.99 ]
	Na:  sqrtQ[a0]:  6.586  Rcov[a0]:  2.646  CN: [ 0.00 0.97 ]

---------- Setting up ewald sum ----------
Optimum gaussian width for ewald sums = 6.795095 bohr.
Real space sum over 567 unit cells with max indices [  4  4  3  ]
Reciprocal space sum over 9537 terms with max indices [  8  8  16  ]

Computing DFT-D3 correction:
# coordination-number C 3.301 3.300 3.306 3.301 3.300 3.303 3.300 3.300 3.708 3.301 3.301 3.494 3.300 3.301 3.407 3.301 3.324 3.310 3.300 3.303 3.336 3.301 3.302 3.491 3.301 3.302 3.300 3.309 3.304 3.301 3.300 3.331 3.301 3.301 3.310 3.302 3.301 3.301 3.300 3.301 3.361 3.300 3.301 3.346 3.300 3.301 3.560 3.301 3.301 3.698 3.301 3.301 3.300 3.302 3.346 3.310 3.301 3.302 3.323 3.302 3.301 3.300 3.425 3.301 3.301 3.318 3.301 3.301 3.332 3.303 3.301 3.303
# coordination-number S 2.930 3.051 3.050 2.930
# coordination-number Na 4.469 4.455
# diagonal-C6 C 24.28 24.28 24.23 24.28 24.28 24.26 24.28 24.28 19.25 24.28 24.28 21.73 24.28 24.28 23.01 24.28 24.04 24.18 24.28 24.25 23.90 24.27 24.26 21.77 24.27 24.26 24.28 24.19 24.24 24.27 24.28 23.96 24.27 24.28 24.19 24.26 24.28 24.27 24.28 24.27 23.62 24.28 24.27 23.79 24.28 24.28 20.79 24.28 24.27 19.32 24.28 24.27 24.28 24.26 23.79 24.19 24.28 24.26 24.05 24.26 24.27 24.28 22.75 24.27 24.28 24.10 24.28 24.28 23.96 24.26 24.27 24.25
# diagonal-C6 S 125.81 125.81 125.81 125.81
# diagonal-C6 Na 186.11 186.11
EvdW_6 =   -0.063451
EvdW_8 =   -0.056205

---------- Allocating electronic variables ----------
Initializing wave functions:  linear combination of atomic orbitals
C pseudo-atom occupations:   s ( 2 )  p ( 2 )
S pseudo-atom occupations:   s ( 2 )  p ( 4 )
Na pseudo-atom occupations:   s ( 2 1 )  p ( 6 )
	FillingsUpdate:  mu: -0.142849814  nElectrons: 330.000000
LCAOMinimize: Iter:   0  F: -542.3701045678651553  |grad|_K:  1.149e-02  alpha:  1.000e+00
LCAOMinimize: 	Step increased F by 4.016046e-03, reducing alpha to 2.509868e-02.
	FillingsUpdate:  mu: -0.172978867  nElectrons: 330.000000
LCAOMinimize: Iter:   1  F: -542.7232583029990565  |grad|_K:  1.091e-02  alpha:  2.510e-02  linmin: -1.179e-01  cgtest:  8.450e-01  t[s]:      9.85
LCAOMinimize: 	Predicted alpha/alphaT>3.000000, increasing alphaT to 7.529603e-02.
	FillingsUpdate:  mu: -0.194870677  nElectrons: 330.000000
LCAOMinimize: Iter:   2  F: -543.3018355449817136  |grad|_K:  3.296e-03  alpha:  1.059e-01  linmin:  1.075e-01  cgtest: -1.027e+00  t[s]:     11.69
LCAOMinimize: 	Bad step direction: g.d > 0.
LCAOMinimize: 	Undoing step.
LCAOMinimize: 	Step failed: resetting search direction.
	FillingsUpdate:  mu: -0.194870677  nElectrons: 330.000000
LCAOMinimize: Iter:   3  F: -543.3018355449817136  |grad|_K:  3.296e-03  alpha:  0.000e+00
LCAOMinimize: 	Step increased F by 1.815305e-02, reducing alpha to 1.844507e-02.
	FillingsUpdate:  mu: -0.191555420  nElectrons: 330.000000
LCAOMinimize: Iter:   4  F: -543.3221251955847038  |grad|_K:  3.108e-03  alpha:  1.845e-02  linmin: -2.621e-01  cgtest:  9.162e-01  t[s]:     19.13
LCAOMinimize: 	Predicted alpha/alphaT>3.000000, increasing alphaT to 5.533520e-02.
LCAOMinimize: 	Predicted alpha/alphaT>3.000000, increasing alphaT to 1.660056e-01.
	FillingsUpdate:  mu: -0.221331324  nElectrons: 330.000000
LCAOMinimize: Iter:   5  F: -543.3830963247680756  |grad|_K:  7.387e-04  alpha:  8.481e-02  linmin: -2.773e-01  cgtest:  5.135e-01  t[s]:     23.28
LCAOMinimize: Encountered beta<0, resetting CG.
	FillingsUpdate:  mu: -0.225175598  nElectrons: 330.000000
LCAOMinimize: Iter:   6  F: -543.3883978345289734  |grad|_K:  7.129e-04  alpha:  2.156e-01  linmin:  2.448e-02  cgtest: -1.221e-01  t[s]:     24.71
	FillingsUpdate:  mu: -0.227238434  nElectrons: 330.000000
LCAOMinimize: Iter:   7  F: -543.3912254303904774  |grad|_K:  4.452e-04  alpha:  1.380e-01  linmin: -1.539e-04  cgtest:  6.069e-01  t[s]:     27.60
	FillingsUpdate:  mu: -0.225147496  nElectrons: 330.000000
LCAOMinimize: Iter:   8  F: -543.3927356930682890  |grad|_K:  2.888e-04  alpha:  1.526e-01  linmin: -9.047e-03  cgtest:  3.372e-02  t[s]:     29.00
	FillingsUpdate:  mu: -0.225022709  nElectrons: 330.000000
LCAOMinimize: Iter:   9  F: -543.3934087917238003  |grad|_K:  1.373e-04  alpha:  1.571e-01  linmin:  7.635e-03  cgtest: -1.472e-01  t[s]:     31.13
	FillingsUpdate:  mu: -0.224522248  nElectrons: 330.000000
LCAOMinimize: Iter:  10  F: -543.3938104642298867  |grad|_K:  8.059e-05  alpha:  4.479e-01  linmin:  2.158e-03  cgtest:  1.919e-01  t[s]:     32.54
	FillingsUpdate:  mu: -0.224939697  nElectrons: 330.000000
LCAOMinimize: Iter:  11  F: -543.3938683772430522  |grad|_K:  4.101e-05  alpha:  1.783e-01  linmin: -2.476e-03  cgtest:  5.226e-02  t[s]:     33.96
	FillingsUpdate:  mu: -0.224932350  nElectrons: 330.000000
LCAOMinimize: Iter:  12  F: -543.3938780195361460  |grad|_K:  1.264e-05  alpha:  1.145e-01  linmin:  8.106e-05  cgtest: -4.401e-02  t[s]:     35.36
	FillingsUpdate:  mu: -0.224985702  nElectrons: 330.000000
LCAOMinimize: Iter:  13  F: -543.3938806143679585  |grad|_K:  1.019e-05  alpha:  3.278e-01  linmin:  1.972e-04  cgtest:  3.718e-03  t[s]:     36.77
	FillingsUpdate:  mu: -0.224973191  nElectrons: 330.000000
LCAOMinimize: Iter:  14  F: -543.3938818410665590  |grad|_K:  7.593e-06  alpha:  2.384e-01  linmin: -3.992e-05  cgtest:  1.344e-03  t[s]:     38.19
	FillingsUpdate:  mu: -0.224993631  nElectrons: 330.000000
LCAOMinimize: Iter:  15  F: -543.3938822593187297  |grad|_K:  2.067e-06  alpha:  1.462e-01  linmin: -2.209e-05  cgtest: -2.232e-03  t[s]:     39.60
	FillingsUpdate:  mu: -0.224991562  nElectrons: 330.000000
LCAOMinimize: Iter:  16  F: -543.3938822889264202  |grad|_K:  9.277e-07  alpha:  1.397e-01  linmin: -2.573e-04  cgtest:  1.136e-03  t[s]:     41.00
LCAOMinimize: Converged (|Delta F|<1.000000e-06 for 2 iters).
----- createFluidSolver() ----- (Fluid-side solver setup)
   Initializing fluid molecule 'Glyme'
     Net charge: 0   dipole magnitude: 0
     Initializing spherical shell mfKernel with radius 0 Bohr
     deltaS corrections:

Correction to mu due to finite nuclear width = -0.00750257
   Cavity determined by nc: 8.36e-05 and sigma: 0.6
   Effective cavity tension: -8.03e-06 Eh/bohr^2 to account for cavitation and dispersion.


---- Citations for features of the code used in this run ----

   Software package:
      R. Sundararaman, K. Letchworth-Weaver, K.A. Schwarz, D. Gunceler, Y. Ozhabes and T.A. Arias, 'JDFTx: software for joint density-functional theory', SoftwareX 6, 278 (2017)

   gga-PBE exchange-correlation functional:
      J.P. Perdew, K. Burke and M. Ernzerhof, Phys. Rev. Lett. 77, 3865 (1996)

   Pseudopotentials:
      KF Garrity, JW Bennett, KM Rabe and D Vanderbilt, Comput. Mater. Sci. 81, 446 (2014)

   Truncated Coulomb potentials:
      R. Sundararaman and T.A. Arias, Phys. Rev. B 87, 165122 (2013)

   DFT-D3 dispersion correction:
      S. Grimme, J. Antony, S. Ehrlich and H. Krieg, J. Chem. Phys. 132, 154104 (2010)

   Linear/nonlinear dielectric/ionic fluid model with effective cavity tension:
      D. Gunceler, K. Letchworth-Weaver, R. Sundararaman, K.A. Schwarz and T.A. Arias, Modelling Simul. Mater. Sci. Eng. 21, 074005 (2013)

   Total energy minimization with Auxiliary Hamiltonian:
      C. Freysoldt, S. Boeck, and J. Neugebauer, Phys. Rev. B 79, 241103(R) (2009)

This list may not be complete. Please suggest additional citations or
report any other bugs at https://github.com/shankar1729/jdftx/issues

Initialization completed successfully at t[s]:     41.16


Computing DFT-D3 correction:
# coordination-number C 3.301 3.300 3.306 3.301 3.300 3.303 3.300 3.300 3.708 3.301 3.301 3.494 3.300 3.301 3.407 3.301 3.324 3.310 3.300 3.303 3.336 3.301 3.302 3.491 3.301 3.302 3.300 3.309 3.304 3.301 3.300 3.331 3.301 3.301 3.310 3.302 3.301 3.301 3.300 3.301 3.361 3.300 3.301 3.346 3.300 3.301 3.560 3.301 3.301 3.698 3.301 3.301 3.300 3.302 3.346 3.310 3.301 3.302 3.323 3.302 3.301 3.300 3.425 3.301 3.301 3.318 3.301 3.301 3.332 3.303 3.301 3.303
# coordination-number S 2.930 3.051 3.050 2.930
# coordination-number Na 4.469 4.455
# diagonal-C6 C 24.28 24.28 24.23 24.28 24.28 24.26 24.28 24.28 19.25 24.28 24.28 21.73 24.28 24.28 23.01 24.28 24.04 24.18 24.28 24.25 23.90 24.27 24.26 21.77 24.27 24.26 24.28 24.19 24.24 24.27 24.28 23.96 24.27 24.28 24.19 24.26 24.28 24.27 24.28 24.27 23.62 24.28 24.27 23.79 24.28 24.28 20.79 24.28 24.27 19.32 24.28 24.27 24.28 24.26 23.79 24.19 24.28 24.26 24.05 24.26 24.27 24.28 22.75 24.27 24.28 24.10 24.28 24.28 23.96 24.26 24.27 24.25
# diagonal-C6 S 125.81 125.81 125.81 125.81
# diagonal-C6 Na 186.11 186.11
EvdW_6 =   -0.063451
EvdW_8 =   -0.056205
Fluid solver invoked on fresh (random / LCAO) wavefunctions
Running a vacuum solve first:

-------- Initial electronic minimization -----------
	FillingsUpdate:  mu: -0.224991562  nElectrons: 330.000000
ElecMinimize: Iter:   0  F: -543.393882288928921  |grad|_K:  4.410e-04  alpha:  1.000e+00
	FillingsUpdate:  mu: -0.093435111  nElectrons: 330.000000
	SubspaceRotationAdjust: set factor to 1
ElecMinimize: Iter:   1  F: -547.453862607899737  |grad|_K:  1.530e-04  alpha:  7.212e-01  linmin: -1.159e-04  t[s]:     46.46
	FillingsUpdate:  mu: -0.077867691  nElectrons: 330.000000
	SubspaceRotationAdjust: set factor to 0.916
ElecMinimize: Iter:   2  F: -547.679799232919891  |grad|_K:  8.980e-05  alpha:  4.796e-01  linmin: -7.702e-04  t[s]:     48.29
	FillingsUpdate:  mu: -0.085332157  nElectrons: 330.000000
	SubspaceRotationAdjust: set factor to 0.853
ElecMinimize: Iter:   3  F: -547.746703224142379  |grad|_K:  7.610e-05  alpha:  1.265e-01  linmin: -3.343e-03  t[s]:     50.18
	FillingsUpdate:  mu: -0.098572771  nElectrons: 330.000000
	SubspaceRotationAdjust: set factor to 0.396
ElecMinimize: Iter:   4  F: -547.795457138545089  |grad|_K:  6.862e-05  alpha:  1.137e-01  linmin:  3.358e-03  t[s]:     52.01
ElecMinimize: 	Bad step direction: g.d > 0.
ElecMinimize: 	Undoing step.
ElecMinimize: 	Step failed: resetting search direction.
	FillingsUpdate:  mu: -0.098572771  nElectrons: 330.000000
	SubspaceRotationAdjust: set factor to 0.402
ElecMinimize: Iter:   5  F: -547.795457138545316  |grad|_K:  5.480e-05  alpha:  0.000e+00
ElecMinimize: 	Predicted alpha/alphaT>3.000000, increasing alphaT to 3.410122e-01.
	FillingsUpdate:  mu: -0.108597032  nElectrons: 330.000000
	SubspaceRotationAdjust: set factor to 0.266
ElecMinimize: Iter:   6  F: -547.830175170195616  |grad|_K:  3.290e-05  alpha:  3.853e-01  linmin: -1.302e-03  t[s]:     55.68
	FillingsUpdate:  mu: -0.111679202  nElectrons: 330.000000
	SubspaceRotationAdjust: set factor to 0.199
ElecMinimize: Iter:   7  F: -547.865371949749033  |grad|_K:  1.873e-05  alpha:  9.960e-01  linmin:  1.879e-04  t[s]:     57.56
	FillingsUpdate:  mu: -0.109979430  nElectrons: 330.000000
	SubspaceRotationAdjust: set factor to 0.228
ElecMinimize: Iter:   8  F: -547.874886962325263  |grad|_K:  8.202e-06  alpha:  9.525e-01  linmin: -5.249e-06  t[s]:     59.39
	FillingsUpdate:  mu: -0.109708330  nElectrons: 330.000000
	SubspaceRotationAdjust: set factor to 0.242
ElecMinimize: Iter:   9  F: -547.876124690183929  |grad|_K:  6.577e-06  alpha:  6.276e-01  linmin:  5.641e-06  t[s]:     61.28
	FillingsUpdate:  mu: -0.110019757  nElectrons: 330.000000
	SubspaceRotationAdjust: set factor to 0.264
ElecMinimize: Iter:  10  F: -547.877009222126730  |grad|_K:  3.954e-06  alpha:  6.992e-01  linmin:  1.466e-05  t[s]:     63.11
	FillingsUpdate:  mu: -0.110556487  nElectrons: 330.000000
	SubspaceRotationAdjust: set factor to 0.286
ElecMinimize: Iter:  11  F: -547.877355961897365  |grad|_K:  3.050e-06  alpha:  7.622e-01  linmin:  7.988e-06  t[s]:     64.99
	FillingsUpdate:  mu: -0.110719133  nElectrons: 330.000000
	SubspaceRotationAdjust: set factor to 0.316
ElecMinimize: Iter:  12  F: -547.877520869634282  |grad|_K:  2.255e-06  alpha:  6.108e-01  linmin:  4.480e-06  t[s]:     66.82
	FillingsUpdate:  mu: -0.110687220  nElectrons: 330.000000
	SubspaceRotationAdjust: set factor to 0.351
ElecMinimize: Iter:  13  F: -547.877607195939959  |grad|_K:  1.646e-06  alpha:  5.854e-01  linmin:  3.231e-06  t[s]:     68.71
	FillingsUpdate:  mu: -0.110660653  nElectrons: 330.000000
	SubspaceRotationAdjust: set factor to 0.405
ElecMinimize: Iter:  14  F: -547.877657618941271  |grad|_K:  9.078e-07  alpha:  6.437e-01  linmin:  3.653e-06  t[s]:     70.54
	FillingsUpdate:  mu: -0.110637677  nElectrons: 330.000000
	SubspaceRotationAdjust: set factor to 0.463
ElecMinimize: Iter:  15  F: -547.877679045972400  |grad|_K:  6.205e-07  alpha:  9.073e-01  linmin:  2.427e-06  t[s]:     72.43
	FillingsUpdate:  mu: -0.110638315  nElectrons: 330.000000
	SubspaceRotationAdjust: set factor to 0.52
ElecMinimize: Iter:  16  F: -547.877686021102249  |grad|_K:  5.323e-07  alpha:  6.287e-01  linmin:  1.824e-07  t[s]:     74.26
	FillingsUpdate:  mu: -0.110647099  nElectrons: 330.000000
	SubspaceRotationAdjust: set factor to 0.642
ElecMinimize: Iter:  17  F: -547.877690038850005  |grad|_K:  3.119e-07  alpha:  4.800e-01  linmin:  6.386e-07  t[s]:     76.15
	FillingsUpdate:  mu: -0.110652321  nElectrons: 330.000000
	SubspaceRotationAdjust: set factor to 0.796
ElecMinimize: Iter:  18  F: -547.877692148625442  |grad|_K:  2.693e-07  alpha:  7.660e-01  linmin:  1.582e-06  t[s]:     77.99
	FillingsUpdate:  mu: -0.110645581  nElectrons: 330.000000
	SubspaceRotationAdjust: set factor to 0.766
ElecMinimize: Iter:  19  F: -547.877693014905049  |grad|_K:  2.180e-07  alpha:  3.708e-01  linmin: -2.781e-06  t[s]:     79.88
	FillingsUpdate:  mu: -0.110633803  nElectrons: 330.000000
	SubspaceRotationAdjust: set factor to 0.812
ElecMinimize: Iter:  20  F: -547.877693696806091  |grad|_K:  2.016e-07  alpha:  4.497e-01  linmin:  1.828e-06  t[s]:     81.72
	FillingsUpdate:  mu: -0.110630018  nElectrons: 330.000000
	SubspaceRotationAdjust: set factor to 0.635
ElecMinimize: Iter:  21  F: -547.877693928749636  |grad|_K:  1.831e-07  alpha:  2.135e-01  linmin: -5.688e-07  t[s]:     83.59
	FillingsUpdate:  mu: -0.110628524  nElectrons: 330.000000
	SubspaceRotationAdjust: set factor to 0.542
ElecMinimize: Iter:  22  F: -547.877694168014159  |grad|_K:  1.513e-07  alpha:  2.321e-01  linmin:  1.483e-07  t[s]:     85.44
	FillingsUpdate:  mu: -0.110628973  nElectrons: 330.000000
	SubspaceRotationAdjust: set factor to 0.58
ElecMinimize: Iter:  23  F: -547.877694337161415  |grad|_K:  1.303e-07  alpha:  2.558e-01  linmin: -6.242e-08  t[s]:     87.33
	FillingsUpdate:  mu: -0.110629750  nElectrons: 330.000000
	SubspaceRotationAdjust: set factor to 0.512
ElecMinimize: Iter:  24  F: -547.877694458193560  |grad|_K:  1.078e-07  alpha:  2.414e-01  linmin: -9.952e-08  t[s]:     89.18
	FillingsUpdate:  mu: -0.110630099  nElectrons: 330.000000
	SubspaceRotationAdjust: set factor to 0.507
ElecMinimize: Iter:  25  F: -547.877694550721003  |grad|_K:  9.753e-08  alpha:  2.682e-01  linmin: -1.645e-07  t[s]:     91.07
	FillingsUpdate:  mu: -0.110630515  nElectrons: 330.000000
	SubspaceRotationAdjust: set factor to 0.517
ElecMinimize: Iter:  26  F: -547.877694647604585  |grad|_K:  8.945e-08  alpha:  3.385e-01  linmin: -1.223e-07  t[s]:     92.92
	FillingsUpdate:  mu: -0.110631740  nElectrons: 330.000000
	SubspaceRotationAdjust: set factor to 0.541
ElecMinimize: Iter:  27  F: -547.877694724601383  |grad|_K:  7.832e-08  alpha:  3.226e-01  linmin:  4.234e-08  t[s]:     94.81
	FillingsUpdate:  mu: -0.110633630  nElectrons: 330.000000
	SubspaceRotationAdjust: set factor to 0.655
ElecMinimize: Iter:  28  F: -547.877694782146250  |grad|_K:  7.102e-08  alpha:  3.222e-01  linmin:  4.488e-08  t[s]:     96.65
	FillingsUpdate:  mu: -0.110634934  nElectrons: 330.000000
	SubspaceRotationAdjust: set factor to 0.707
ElecMinimize: Iter:  29  F: -547.877694825429899  |grad|_K:  6.619e-08  alpha:  2.939e-01  linmin:  9.873e-08  t[s]:     98.54
	FillingsUpdate:  mu: -0.110634962  nElectrons: 330.000000
	SubspaceRotationAdjust: set factor to 0.688
ElecMinimize: Iter:  30  F: -547.877694857586221  |grad|_K:  6.322e-08  alpha:  2.524e-01  linmin:  8.821e-08  t[s]:    100.38
	FillingsUpdate:  mu: -0.110634257  nElectrons: 330.000000
	SubspaceRotationAdjust: set factor to 0.649
ElecMinimize: Iter:  31  F: -547.877694881414186  |grad|_K:  5.691e-08  alpha:  2.035e-01  linmin:  5.432e-08  t[s]:    102.27
	FillingsUpdate:  mu: -0.110633706  nElectrons: 330.000000
	SubspaceRotationAdjust: set factor to 0.613
ElecMinimize: Iter:  32  F: -547.877694896763501  |grad|_K:  5.123e-08  alpha:  1.609e-01  linmin:  2.861e-08  t[s]:    104.10
	FillingsUpdate:  mu: -0.110633499  nElectrons: 330.000000
	SubspaceRotationAdjust: set factor to 0.558
ElecMinimize: Iter:  33  F: -547.877694908198919  |grad|_K:  4.870e-08  alpha:  1.492e-01  linmin:  8.532e-08  t[s]:    106.00
	FillingsUpdate:  mu: -0.110633577  nElectrons: 330.000000
	SubspaceRotationAdjust: set factor to 0.486
ElecMinimize: Iter:  34  F: -547.877694916792166  |grad|_K:  4.698e-08  alpha:  1.244e-01  linmin:  7.377e-08  t[s]:    107.84
	FillingsUpdate:  mu: -0.110633763  nElectrons: 330.000000
	SubspaceRotationAdjust: set factor to 0.408
ElecMinimize: Iter:  35  F: -547.877694923227068  |grad|_K:  4.496e-08  alpha:  9.910e-02  linmin:  6.052e-08  t[s]:    109.74
ElecMinimize: Converged (|Delta F|<1.000000e-08 for 2 iters).
Setting wave functions to eigenvectors of Hamiltonian
Vacuum energy after initial minimize, F = -547.877694923227068


-------- Electronic minimization -----------
	Linear fluid (dielectric constant: 7.2) occupying 0.810205 of unit cell:	Completed after 13 iterations at t[s]:    110.31
	FillingsUpdate:  mu: -0.114119516  nElectrons: 330.000000
ElecMinimize: Iter:   0  F: -547.905418294571518  |grad|_K:  1.284e-05  alpha:  1.000e+00
	Linear fluid (dielectric constant: 7.2) occupying 0.811107 of unit cell:	Completed after 10 iterations at t[s]:    111.89
	Linear fluid (dielectric constant: 7.2) occupying 0.811009 of unit cell:	Completed after 7 iterations at t[s]:    112.62
	FillingsUpdate:  mu: -0.113818613  nElectrons: 330.000000
	SubspaceRotationAdjust: set factor to 0.539
ElecMinimize: Iter:   1  F: -547.909390831488281  |grad|_K:  9.012e-06  alpha:  8.357e-01  linmin: -2.180e-04  t[s]:    113.50
	Linear fluid (dielectric constant: 7.2) occupying 0.811282 of unit cell:	Completed after 10 iterations at t[s]:    114.21
	Linear fluid (dielectric constant: 7.2) occupying 0.811312 of unit cell:	Completed after 7 iterations at t[s]:    114.93
	FillingsUpdate:  mu: -0.113409526  nElectrons: 330.000000
	SubspaceRotationAdjust: set factor to 0.661
ElecMinimize: Iter:   2  F: -547.911820300751401  |grad|_K:  6.522e-06  alpha:  9.619e-01  linmin: -2.306e-04  t[s]:    115.78
	Linear fluid (dielectric constant: 7.2) occupying 0.811212 of unit cell:	Completed after 9 iterations at t[s]:    116.50
	Linear fluid (dielectric constant: 7.2) occupying 0.811248 of unit cell:	Completed after 7 iterations at t[s]:    117.24
	FillingsUpdate:  mu: -0.113096300  nElectrons: 330.000000
	SubspaceRotationAdjust: set factor to 0.767
ElecMinimize: Iter:   3  F: -547.912716969590974  |grad|_K:  4.398e-06  alpha:  6.875e-01  linmin: -3.797e-05  t[s]:    118.12
	Linear fluid (dielectric constant: 7.2) occupying 0.811183 of unit cell:	Completed after 8 iterations at t[s]:    118.81
	Linear fluid (dielectric constant: 7.2) occupying 0.811200 of unit cell:	Completed after 5 iterations at t[s]:    119.51
	FillingsUpdate:  mu: -0.112934396  nElectrons: 330.000000
	SubspaceRotationAdjust: set factor to 0.872
ElecMinimize: Iter:   4  F: -547.913024814802498  |grad|_K:  2.496e-06  alpha:  5.334e-01  linmin: -7.648e-06  t[s]:    120.35
	Linear fluid (dielectric constant: 7.2) occupying 0.811176 of unit cell:	Completed after 5 iterations at t[s]:    121.02
	Linear fluid (dielectric constant: 7.2) occupying 0.811178 of unit cell:	Completed after 2 iterations at t[s]:    121.71
	FillingsUpdate:  mu: -0.112874251  nElectrons: 330.000000
	SubspaceRotationAdjust: set factor to 0.957
ElecMinimize: Iter:   5  F: -547.913117069214877  |grad|_K:  1.321e-06  alpha:  5.004e-01  linmin: -2.668e-06  t[s]:    122.57
	Linear fluid (dielectric constant: 7.2) occupying 0.811144 of unit cell:	Completed after 5 iterations at t[s]:    123.23
	Linear fluid (dielectric constant: 7.2) occupying 0.811137 of unit cell:	Completed after 2 iterations at t[s]:    123.89
	FillingsUpdate:  mu: -0.112851029  nElectrons: 330.000000
	SubspaceRotationAdjust: set factor to 0.915
ElecMinimize: Iter:   6  F: -547.913147343519995  |grad|_K:  8.585e-07  alpha:  5.893e-01  linmin:  1.820e-06  t[s]:    124.72
	Linear fluid (dielectric constant: 7.2) occupying 0.811100 of unit cell:	Completed after 4 iterations at t[s]:    125.37
	Linear fluid (dielectric constant: 7.2) occupying 0.811102 of unit cell:	Completed after 1 iterations at t[s]:    126.02
	FillingsUpdate:  mu: -0.112890646  nElectrons: 330.000000
	SubspaceRotationAdjust: set factor to 0.701
ElecMinimize: Iter:   7  F: -547.913159433300279  |grad|_K:  7.177e-07  alpha:  5.631e-01  linmin:  2.855e-06  t[s]:    126.85
	Linear fluid (dielectric constant: 7.2) occupying 0.811063 of unit cell:	Completed after 4 iterations at t[s]:    127.50
	Linear fluid (dielectric constant: 7.2) occupying 0.811075 of unit cell:	Completed after 3 iterations at t[s]:    128.16
	FillingsUpdate:  mu: -0.112876994  nElectrons: 330.000000
	SubspaceRotationAdjust: set factor to 0.478
ElecMinimize: Iter:   8  F: -547.913165552431110  |grad|_K:  4.951e-07  alpha:  4.056e-01  linmin:  3.298e-07  t[s]:    129.00
	Linear fluid (dielectric constant: 7.2) occupying 0.811061 of unit cell:	Completed after 3 iterations at t[s]:    129.64
	Linear fluid (dielectric constant: 7.2) occupying 0.811056 of unit cell:	Completed after 2 iterations at t[s]:    130.29
	FillingsUpdate:  mu: -0.112872185  nElectrons: 330.000000
	SubspaceRotationAdjust: set factor to 0.54
ElecMinimize: Iter:   9  F: -547.913169417420477  |grad|_K:  3.361e-07  alpha:  5.427e-01  linmin:  2.151e-06  t[s]:    131.12
	Linear fluid (dielectric constant: 7.2) occupying 0.811045 of unit cell:	Completed after 3 iterations at t[s]:    131.76
	Linear fluid (dielectric constant: 7.2) occupying 0.811045 of unit cell:	Completed after 0 iterations at t[s]:    132.39
	FillingsUpdate:  mu: -0.112877556  nElectrons: 330.000000
	SubspaceRotationAdjust: set factor to 0.61
ElecMinimize: Iter:  10  F: -547.913171211741997  |grad|_K:  2.368e-07  alpha:  5.514e-01  linmin: -3.852e-07  t[s]:    136.73
	Linear fluid (dielectric constant: 7.2) occupying 0.811039 of unit cell:	Completed after 3 iterations at t[s]:    137.40
	Linear fluid (dielectric constant: 7.2) occupying 0.811039 of unit cell:	Completed after 0 iterations at t[s]:    138.04
	FillingsUpdate:  mu: -0.112888834  nElectrons: 330.000000
	SubspaceRotationAdjust: set factor to 0.552
ElecMinimize: Iter:  11  F: -547.913172112781467  |grad|_K:  1.588e-07  alpha:  5.471e-01  linmin: -2.692e-08  t[s]:    138.86
	Linear fluid (dielectric constant: 7.2) occupying 0.811037 of unit cell:	Completed after 1 iterations at t[s]:    139.49
	Linear fluid (dielectric constant: 7.2) occupying 0.811037 of unit cell:	Completed after 0 iterations at t[s]:    140.10
	FillingsUpdate:  mu: -0.112888437  nElectrons: 330.000000
	SubspaceRotationAdjust: set factor to 0.707
ElecMinimize: Iter:  12  F: -547.913172561413376  |grad|_K:  1.063e-07  alpha:  6.061e-01  linmin: -8.779e-07  t[s]:    140.92
	Linear fluid (dielectric constant: 7.2) occupying 0.811037 of unit cell:	Completed after 1 iterations at t[s]:    141.55
	Linear fluid (dielectric constant: 7.2) occupying 0.811037 of unit cell:	Completed after 0 iterations at t[s]:    142.18
	FillingsUpdate:  mu: -0.112891374  nElectrons: 330.000000
	SubspaceRotationAdjust: set factor to 0.681
ElecMinimize: Iter:  13  F: -547.913172722968966  |grad|_K:  7.766e-08  alpha:  4.852e-01  linmin:  5.246e-07  t[s]:    143.00
	Linear fluid (dielectric constant: 7.2) occupying 0.811036 of unit cell:	Completed after 1 iterations at t[s]:    143.62
	Linear fluid (dielectric constant: 7.2) occupying 0.811036 of unit cell:	Completed after 0 iterations at t[s]:    144.23
	FillingsUpdate:  mu: -0.112894447  nElectrons: 330.000000
	SubspaceRotationAdjust: set factor to 0.627
ElecMinimize: Iter:  14  F: -547.913172802922873  |grad|_K:  4.916e-08  alpha:  4.577e-01  linmin:  9.505e-08  t[s]:    145.05
	Linear fluid (dielectric constant: 7.2) occupying 0.811036 of unit cell:	Completed after 0 iterations at t[s]:    145.67
	Linear fluid (dielectric constant: 7.2) occupying 0.811036 of unit cell:	Completed after 0 iterations at t[s]:    146.29
	FillingsUpdate:  mu: -0.112891012  nElectrons: 330.000000
	SubspaceRotationAdjust: set factor to 0.769
ElecMinimize: Iter:  15  F: -547.913172842457016  |grad|_K:  3.288e-08  alpha:  5.507e-01  linmin: -1.489e-06  t[s]:    147.10
	Linear fluid (dielectric constant: 7.2) occupying 0.811037 of unit cell:	Completed after 1 iterations at t[s]:    147.73
	Linear fluid (dielectric constant: 7.2) occupying 0.811037 of unit cell:	Completed after 0 iterations at t[s]:    148.34
	FillingsUpdate:  mu: -0.112891319  nElectrons: 330.000000
	SubspaceRotationAdjust: set factor to 0.731
ElecMinimize: Iter:  16  F: -547.913172859096676  |grad|_K:  2.894e-08  alpha:  5.031e-01  linmin: -1.462e-06  t[s]:    149.16
	Linear fluid (dielectric constant: 7.2) occupying 0.811037 of unit cell:	Completed after 0 iterations at t[s]:    149.78
	Linear fluid (dielectric constant: 7.2) occupying 0.811037 of unit cell:	Completed after 0 iterations at t[s]:    150.40
	FillingsUpdate:  mu: -0.112892147  nElectrons: 330.000000
	SubspaceRotationAdjust: set factor to 0.695
ElecMinimize: Iter:  17  F: -547.913172869854407  |grad|_K:  2.054e-08  alpha:  4.103e-01  linmin:  5.361e-07  t[s]:    151.21
	Linear fluid (dielectric constant: 7.2) occupying 0.811037 of unit cell:	Completed after 0 iterations at t[s]:    151.82
	Linear fluid (dielectric constant: 7.2) occupying 0.811037 of unit cell:	Completed after 0 iterations at t[s]:    152.44
	FillingsUpdate:  mu: -0.112892822  nElectrons: 330.000000
	SubspaceRotationAdjust: set factor to 0.868
ElecMinimize: Iter:  18  F: -547.913172875240093  |grad|_K:  1.254e-08  alpha:  4.431e-01  linmin: -3.076e-06  t[s]:    153.25
	Linear fluid (dielectric constant: 7.2) occupying 0.811037 of unit cell:	Completed after 0 iterations at t[s]:    153.88
	Linear fluid (dielectric constant: 7.2) occupying 0.811038 of unit cell:	Completed after 0 iterations at t[s]:    154.49
	FillingsUpdate:  mu: -0.112892847  nElectrons: 330.000000
	SubspaceRotationAdjust: set factor to 0.98
ElecMinimize: Iter:  19  F: -547.913172878991986  |grad|_K:  1.142e-08  alpha:  6.791e-01  linmin:  1.696e-07  t[s]:    155.30
ElecMinimize: Converged (|Delta F|<1.000000e-08 for 2 iters).
Setting wave functions to eigenvectors of Hamiltonian
Single-point solvation energy estimate, DeltaF = -0.035477955764918

Computing DFT-D3 correction:
# coordination-number C 3.301 3.300 3.306 3.301 3.300 3.303 3.300 3.300 3.708 3.301 3.301 3.494 3.300 3.301 3.407 3.301 3.324 3.310 3.300 3.303 3.336 3.301 3.302 3.491 3.301 3.302 3.300 3.309 3.304 3.301 3.300 3.331 3.301 3.301 3.310 3.302 3.301 3.301 3.300 3.301 3.361 3.300 3.301 3.346 3.300 3.301 3.560 3.301 3.301 3.698 3.301 3.301 3.300 3.302 3.346 3.310 3.301 3.302 3.323 3.302 3.301 3.300 3.425 3.301 3.301 3.318 3.301 3.301 3.332 3.303 3.301 3.303
# coordination-number S 2.930 3.051 3.050 2.930
# coordination-number Na 4.469 4.455
# diagonal-C6 C 24.28 24.28 24.23 24.28 24.28 24.26 24.28 24.28 19.25 24.28 24.28 21.73 24.28 24.28 23.01 24.28 24.04 24.18 24.28 24.25 23.90 24.27 24.26 21.77 24.27 24.26 24.28 24.19 24.24 24.27 24.28 23.96 24.27 24.28 24.19 24.26 24.28 24.27 24.28 24.27 23.62 24.28 24.27 23.79 24.28 24.28 20.79 24.28 24.27 19.32 24.28 24.27 24.28 24.26 23.79 24.19 24.28 24.26 24.05 24.26 24.27 24.28 22.75 24.27 24.28 24.10 24.28 24.28 23.96 24.26 24.27 24.25
# diagonal-C6 S 125.81 125.81 125.81 125.81
# diagonal-C6 Na 186.11 186.11
EvdW_6 =   -0.063451
EvdW_8 =   -0.056205

# Ionic positions in cartesian coordinates:
ion C  28.002971165896351  -0.005669888928994  14.126281811595085 1
ion C  16.335697565654762  20.206808884037493  14.120988568190668 1
ion C   2.329986959364466   4.033447887776432  14.114030925786279 1
ion C  23.334998159986984  -0.004984833570236  14.112070505081522 1
ion C   4.666161403276635  -0.006327597362961  14.113551595444463 1
ion C  11.666823080855989  20.210084343634787  14.114930073300609 1
ion C  25.667887279408539   4.035906122976681  14.118112836715115 1
ion C  18.670649416641979  16.163178246804605  14.109011904150144 1
ion C   4.665269041193969   8.077478209530167  14.051625823264210 1
ion C  18.667535689661861  -0.005238763230463  14.095116637248466 1
ion C   9.334824875776629  -0.006889722778106  14.088714841054401 1
ion C   9.330685483240572  16.168372015872468  14.052098326326352 1
ion C  23.334378944332702   8.078585746254797  14.108014189314080 1
ion C  21.002988695218374  12.120559168845876  14.103838944629354 1
ion C   6.995829121054020  12.122293440396598  13.991742414501411 1
ion C  14.001085787460124  -0.006122683167330  14.082809548978299 1
ion C  14.004158646542896  16.164708913994151  14.096758372790346 1
ion C   7.002582339988493   4.033076716385350  14.071600683779947 1
ion C  21.001224956020629   4.036163481326343  14.104196652172863 1
ion C  16.338924087582505  12.118443592324921  14.085354609790606 1
ion C   9.337943915255481   8.074918450820750  14.006178651165866 1
ion C  16.335117753319956   4.035446702176966  14.080016383313570 1
ion C  11.668938404711268   4.035017828625628  14.053169922360651 1
ion C  11.670410310156530  12.116919185944251  14.025352676852338 1
ion C  18.668864366582945   8.077658090113617  14.091890223609260 1
ion C   6.997116795121912  20.207992087599010  14.082980525313502 1
ion C  -7.002530605600277  20.205566393191031  14.107642228532729 1
ion C  -0.006887473974489   8.078415564969223  14.100616648194547 1
ion C  14.003410124856142   8.075609625122571  14.047876027211910 1
ion C   2.330973676559225  20.206371164226542  14.075518159667446 1
ion C  -4.668914586211762  16.163494261797481  14.099679421452509 1
ion C   2.328493803456094  12.125974498971106  14.046153625447062 1
ion C  -2.337259363572545  12.122475464499828  14.093713754643714 1
ion C  -2.335525034552072  20.205810312177206  14.091895390125281 1
ion C   4.662561991437309  16.166257236764835  14.038562030386569 1
ion C  -0.003327584702685  16.165075997514574  14.070504035669385 1
ion C  14.001574567021031  21.554366164296969  14.125350070176005 1
ion C   2.331695591998793   1.339268258613245  14.122224563822060 1
ion C  25.668937731425601   1.341091736169032  14.120030289017230 1
ion C  16.338199464284791  17.512311649471442  14.113979986692261 1
ion C   4.666211750715571   5.377194079472979  14.085887303811887 1
ion C  21.000999020898767   1.341855923832942  14.104741776450721 1
ion C   7.000780692251607   1.338948486476615  14.093030291480520 1
ion C  11.668712346619593  17.515000376010676  14.092254137777132 1
ion C  23.334650080435843   5.383851712225790  14.110207944241075 1
ion C  18.670476286102364  13.468095717315547  14.101630738227160 1
ion C   7.003797193675875   9.426274896209923  13.998135933612938 1
ion C  16.334364377386432   1.341389362230010  14.086890396458967 1
ion C  11.667761139433340   1.340534483354972  14.074677721743207 1
ion C   9.332600524437261  13.468415048790009  14.011293792889667 1
ion C  21.001408325955431   9.426037298518031  14.102987929893283 1
ion C   9.332111829049083  21.554794163897260  14.105176637491521 1
ion C  -9.336209559413589  21.552881430322131  14.115185299960455 1
ion C  -0.004498295622494   5.382453356248921  14.114145549756723 1
ion C  14.005292180533582  13.467315401112499  14.070451605594691 1
ion C   9.336258998047406   5.381233865112956  14.037332779004391 1
ion C  18.668136330742438   5.383147649243985  14.091452765761330 1
ion C  16.336436095864684   9.424237252411553  14.074566283157901 1
ion C  11.670609338978096   9.420674377417248  14.017940047090098 1
ion C  14.002073745578340   5.381956557090382  14.056539064377912 1
ion C   4.663622894877529  21.554207181614967  14.083700183207897 1
ion C  -7.002402171522069  17.511081854270302  14.107502649959731 1
ion C   2.326480830229192   9.429226267751634  14.068257102292980 1
ion C  -2.339364220466333   9.427381648406010  14.102541904491217 1
ion C  -4.668827383866290  21.552639863358607  14.098279458724281 1
ion C   6.994615361500145  17.514781762590182  14.056336394803566 1
ion C  -0.002746516585798  21.553179117206646  14.085079174702956 1
ion C  -4.669950093233260  13.469329926345436  14.101293910259688 1
ion C   4.662613110753351  13.472063010531985  14.014831054836174 1
ion C   2.329945985723464  17.512342021448493  14.059499315708665 1
ion C  -2.336447179307112  17.511526966982647  14.088185367838475 1
ion C  -0.005269628567452  13.471733512533687  14.071019297666886 1
ion S   5.109404521625473  14.032936543786040  20.793265729936181 1
ion S   7.016215535737645  13.329369512985220  24.101926727962081 1
ion S   8.352765491018740   9.549835085109326  24.095053789924926 1
ion S  10.252826380526361   8.859135406403006  20.780513932967285 1
ion Na   5.189264258525802   8.965463909588923  19.497812479071364 1
ion Na  10.165771992499291  13.930489736205127  19.492782794976687 1

# Forces in Cartesian coordinates:
force C  -0.000039979364954  -0.000013090667712  -0.000491398987547 1
force C   0.000013354020530  -0.000017421842215  -0.000355971756698 1
force C   0.000109651489373   0.000197505808097  -0.000744251997235 1
force C  -0.000071376877126  -0.000012610877425  -0.000362440909833 1
force C   0.000004869342128  -0.000193253824414  -0.000495984807428 1
force C   0.000024117086568  -0.000403640852478  -0.000783470528072 1
force C   0.000035146876576  -0.000007883198439  -0.000460020685753 1
force C   0.000009109680723   0.000119144129918  -0.000342492020605 1
force C  -0.000369556854591  -0.000350477583999  -0.000709768671605 1
force C   0.000076801213381  -0.000005509616923  -0.000464359733708 1
force C  -0.000119520703040  -0.000149380109402  -0.000369570603259 1
force C   0.000423826793487   0.000314812829009  -0.000408238410279 1
force C  -0.000088630053901  -0.000093996159419  -0.000442454718334 1
force C   0.000025967053695  -0.000058596643018  -0.000365342096742 1
force C  -0.000009372967123   0.000098542474087  -0.000013799314013 1
force C   0.000020518407671   0.000026540397996  -0.000171152636547 1
force C  -0.000236856036069   0.000093198103178  -0.001159827063505 1
force C  -0.000421063450920   0.000039776473962  -0.000577628165318 1
force C   0.000143176207219   0.000026476115601  -0.000401262831782 1
force C  -0.000325015366053   0.000130736450498  -0.000701206610642 1
force C   0.000067289553914  -0.000110397627205   0.000067537751472 1
force C  -0.000019434920492   0.000044723386343  -0.000320871598071 1
force C   0.000086613002086  -0.000225705300936   0.000171083491718 1
force C   0.000391121881245   0.000254793816880   0.000138097447506 1
force C   0.000017483402651  -0.000090258238060  -0.000415413302561 1
force C   0.000084652910041   0.000024511799569  -0.000544712858652 1
force C   0.000029892016153   0.000023224456845  -0.000396601686150 1
force C   0.000247709953827   0.000004750495780  -0.000712575419537 1
force C   0.000134165548908  -0.000004688957594   0.000136184864852 1
force C  -0.000123467253365  -0.000004877354075  -0.000261026731709 1
force C  -0.000196159069726   0.000092009997372  -0.000406647801017 1
force C  -0.000155890579281  -0.000433031595089   0.000059871993199 1
force C   0.000004487664370  -0.000087447515420  -0.000458995558756 1
force C  -0.000090021956586   0.000047295984236  -0.000513639370747 1
force C   0.000020188710589   0.000102950565457   0.000117980074968 1
force C  -0.000091845712734   0.000094770302084  -0.000376350775571 1
force C   0.000025800121473  -0.000077612054735  -0.000515254480747 1
force C   0.000051098794560   0.000257842527564  -0.000489869115735 1
force C   0.000062826644293   0.000103276891514  -0.000258227543776 1
force C  -0.000332809481840  -0.000268176616158  -0.000439535115349 1
force C   0.000009513711125   0.000323462154031  -0.001648916155051 1
force C  -0.000015282894572  -0.000016835319977  -0.000431351198119 1
force C   0.000110224829531   0.000268282231384  -0.000199264182697 1
force C   0.000057935376285  -0.000297016969914  -0.001485793005572 1
force C  -0.000033914088552   0.000016603005195  -0.000243789666753 1
force C  -0.000010361302374   0.000032133480785  -0.000255976728413 1
force C  -0.000291473370150  -0.000187734400672   0.000285776096905 1
force C  -0.000059179232513   0.000001872021725  -0.000343852419043 1
force C   0.000065848972561   0.000200144780785  -0.000071080754137 1
force C   0.000075480595233   0.000206076083971   0.000030270480538 1
force C   0.000088862996685   0.000079524699517  -0.000386987063163 1
force C  -0.000097697993761  -0.000034637232780  -0.000378715177359 1
force C   0.000029788622132   0.000064223412638  -0.000245248447275 1
force C   0.000227710243542   0.000216439067870  -0.000472871136217 1
force C   0.000019380675794   0.000158956904264  -0.000891048713624 1
force C  -0.000092941462598   0.000065124579652   0.000273041197389 1
force C  -0.000073171057246   0.000026126206814  -0.000194451987208 1
force C  -0.000057226138454   0.000086228459202  -0.000443073440712 1
force C  -0.000033777564101   0.000058507393286   0.000139246801036 1
force C   0.000030646122901  -0.000121101986571   0.000131552435701 1
force C   0.000063070306130  -0.000009755695340  -0.000177509437257 1
force C   0.000029437625992  -0.000095427464532  -0.000386641671264 1
force C   0.000069502933126  -0.000230107305283  -0.000913125748147 1
force C   0.000297621750429  -0.000053389249409  -0.000299687152380 1
force C  -0.000039132947624   0.000005667730334  -0.000338114526754 1
force C   0.000207939613843  -0.000075612289403   0.000009389291078 1
force C   0.000148858506629  -0.000053394892343  -0.000279269501593 1
force C   0.000000518360261  -0.000001923616570  -0.000369312908327 1
force C   0.000107449321726  -0.000060642827845   0.000178573412558 1
force C  -0.000038280068178   0.000055553207772   0.000162485716771 1
force C   0.000152984159372  -0.000004231950381  -0.000179234740537 1
force C   0.000004835832977  -0.000055974882046  -0.000255138159283 1
force S  -0.000122458896454   0.001495309229287   0.001580220191564 1
force S  -0.001944834582912  -0.000031544501503   0.000367743025815 1
force S   0.001918056931667   0.000138943010693   0.000318742606172 1
force S   0.000123307816601  -0.001336495417723   0.001581243282415 1
force Na  -0.003812860383509  -0.003558763410278   0.000989733226899 1
force Na   0.003477289937219   0.003434925660769   0.001110541824205 1

# Energy components:
   A_diel =       -0.0447014444390429
   Eewald =     3983.0037321531376620
       EH =     4416.0677015665341969
     Eloc =    -8984.5395013172801555
      Enl =      -78.5967899612753911
     EvdW =       -0.1196558590287683
      Exc =     -161.9468976955793380
 Exc_core =        9.4955886333743180
       KE =      268.8373431066013381
-------------------------------------
     Etot =     -547.8431808179545897
       TS =        0.0699920610374336
-------------------------------------
        F =     -547.9131728789919862

IonicMinimize: Iter:   0  F: -547.913172878991986  |grad|_K:  6.076e-04  alpha:  1.000e+00

#--- Lowdin population analysis ---
# oxidation-state C +0.039 +0.039 +0.034 +0.039 +0.039 +0.036 +0.038 +0.039 -0.004 +0.040 +0.040 +0.013 +0.039 +0.040 +0.025 +0.041 +0.029 +0.036 +0.040 +0.038 +0.037 +0.041 +0.042 +0.014 +0.040 +0.040 +0.040 +0.034 +0.041 +0.042 +0.040 +0.032 +0.040 +0.040 +0.041 +0.042 +0.038 +0.038 +0.039 +0.037 +0.025 +0.040 +0.039 +0.025 +0.039 +0.039 +0.013 +0.041 +0.041 +0.001 +0.040 +0.039 +0.039 +0.036 +0.026 +0.039 +0.041 +0.040 +0.037 +0.042 +0.041 +0.040 +0.018 +0.038 +0.040 +0.037 +0.041 +0.040 +0.035 +0.042 +0.041 +0.040
# oxidation-state S -0.486 +0.050 +0.050 -0.485
# oxidation-state Na +0.821 +0.821


Computing DFT-D3 correction:
# coordination-number C 3.300 3.300 3.306 3.300 3.300 3.303 3.300 3.300 3.708 3.301 3.301 3.494 3.300 3.301 3.406 3.301 3.324 3.310 3.300 3.303 3.336 3.301 3.302 3.491 3.301 3.302 3.300 3.309 3.304 3.301 3.300 3.331 3.301 3.301 3.309 3.302 3.301 3.301 3.300 3.301 3.361 3.300 3.301 3.347 3.300 3.301 3.559 3.301 3.301 3.697 3.300 3.301 3.300 3.303 3.346 3.310 3.301 3.302 3.323 3.302 3.301 3.300 3.426 3.301 3.300 3.318 3.301 3.301 3.331 3.303 3.301 3.303
# coordination-number S 2.928 3.048 3.047 2.928
# coordination-number Na 4.456 4.443
# diagonal-C6 C 24.28 24.28 24.23 24.28 24.28 24.26 24.28 24.28 19.25 24.28 24.28 21.73 24.28 24.28 23.02 24.28 24.03 24.18 24.28 24.25 23.91 24.27 24.26 21.78 24.27 24.26 24.28 24.19 24.24 24.27 24.28 23.96 24.27 24.28 24.19 24.26 24.28 24.27 24.28 24.27 23.61 24.28 24.27 23.79 24.28 24.28 20.80 24.28 24.27 19.33 24.28 24.27 24.28 24.26 23.79 24.19 24.28 24.27 24.05 24.26 24.27 24.28 22.75 24.27 24.28 24.10 24.28 24.28 23.96 24.26 24.27 24.25
# diagonal-C6 S 125.81 125.81 125.81 125.81
# diagonal-C6 Na 186.11 186.11
EvdW_6 =   -0.063452
EvdW_8 =   -0.056216

-------- Electronic minimization -----------
	Linear fluid (dielectric constant: 7.2) occupying 0.811028 of unit cell:	Completed after 4 iterations at t[s]:    161.15
	FillingsUpdate:  mu: -0.112841849  nElectrons: 330.000000
ElecMinimize: Iter:   0  F: -547.913252078418168  |grad|_K:  5.101e-07  alpha:  1.000e+00
	Linear fluid (dielectric constant: 7.2) occupying 0.811027 of unit cell:	Completed after 5 iterations at t[s]:    162.71
	Linear fluid (dielectric constant: 7.2) occupying 0.811028 of unit cell:	Completed after 4 iterations at t[s]:    163.41
	FillingsUpdate:  mu: -0.112843808  nElectrons: 330.000000
	SubspaceRotationAdjust: set factor to 0.646
ElecMinimize: Iter:   1  F: -547.913255149727547  |grad|_K:  3.916e-07  alpha:  4.024e-01  linmin: -1.240e-05  t[s]:    164.28
	Linear fluid (dielectric constant: 7.2) occupying 0.811031 of unit cell:	Completed after 4 iterations at t[s]:    164.93
	Linear fluid (dielectric constant: 7.2) occupying 0.811030 of unit cell:	Completed after 1 iterations at t[s]:    165.57
	FillingsUpdate:  mu: -0.112852061  nElectrons: 330.000000
	SubspaceRotationAdjust: set factor to 0.411
ElecMinimize: Iter:   2  F: -547.913256460705384  |grad|_K:  1.480e-07  alpha:  2.919e-01  linmin:  4.278e-06  t[s]:    166.40
	Linear fluid (dielectric constant: 7.2) occupying 0.811029 of unit cell:	Completed after 1 iterations at t[s]:    167.03
	Linear fluid (dielectric constant: 7.2) occupying 0.811029 of unit cell:	Completed after 1 iterations at t[s]:    167.66
	FillingsUpdate:  mu: -0.112847304  nElectrons: 330.000000
	SubspaceRotationAdjust: set factor to 0.505
ElecMinimize: Iter:   3  F: -547.913256812777718  |grad|_K:  6.992e-08  alpha:  5.473e-01  linmin: -3.215e-06  t[s]:    168.49
	Linear fluid (dielectric constant: 7.2) occupying 0.811029 of unit cell:	Completed after 1 iterations at t[s]:    169.12
	Linear fluid (dielectric constant: 7.2) occupying 0.811029 of unit cell:	Completed after 0 iterations at t[s]:    169.73
	FillingsUpdate:  mu: -0.112847721  nElectrons: 330.000000
	SubspaceRotationAdjust: set factor to 0.526
ElecMinimize: Iter:   4  F: -547.913256897988504  |grad|_K:  3.863e-08  alpha:  5.886e-01  linmin: -1.220e-05  t[s]:    170.55
	Linear fluid (dielectric constant: 7.2) occupying 0.811029 of unit cell:	Completed after 0 iterations at t[s]:    171.17
	Linear fluid (dielectric constant: 7.2) occupying 0.811029 of unit cell:	Completed after 0 iterations at t[s]:    171.80
	FillingsUpdate:  mu: -0.112844752  nElectrons: 330.000000
	SubspaceRotationAdjust: set factor to 0.595
ElecMinimize: Iter:   5  F: -547.913256924278016  |grad|_K:  2.013e-08  alpha:  5.719e-01  linmin: -2.109e-06  t[s]:    172.61
	Linear fluid (dielectric constant: 7.2) occupying 0.811029 of unit cell:	Completed after 0 iterations at t[s]:    173.23
	Linear fluid (dielectric constant: 7.2) occupying 0.811029 of unit cell:	Completed after 0 iterations at t[s]:    173.84
	FillingsUpdate:  mu: -0.112848969  nElectrons: 330.000000
	SubspaceRotationAdjust: set factor to 0.642
ElecMinimize: Iter:   6  F: -547.913256931368437  |grad|_K:  1.206e-08  alpha:  5.796e-01  linmin: -5.182e-06  t[s]:    174.67
	Linear fluid (dielectric constant: 7.2) occupying 0.811029 of unit cell:	Completed after 0 iterations at t[s]:    175.28
	Linear fluid (dielectric constant: 7.2) occupying 0.811029 of unit cell:	Completed after 0 iterations at t[s]:    175.90
	FillingsUpdate:  mu: -0.112844466  nElectrons: 330.000000
	SubspaceRotationAdjust: set factor to 0.647
ElecMinimize: Iter:   7  F: -547.913256933961520  |grad|_K:  9.899e-09  alpha:  9.104e-01  linmin:  3.184e-06  t[s]:    176.73
ElecMinimize: Converged (|Delta F|<1.000000e-08 for 2 iters).
Setting wave functions to eigenvectors of Hamiltonian
IonicMinimize: 	Predicted alpha/alphaT>3.000000, increasing alphaT to 3.000000e+00.

Computing DFT-D3 correction:
# coordination-number C 3.300 3.300 3.306 3.300 3.300 3.303 3.300 3.300 3.707 3.301 3.301 3.494 3.300 3.300 3.404 3.301 3.325 3.310 3.300 3.303 3.335 3.301 3.302 3.490 3.301 3.302 3.300 3.310 3.304 3.301 3.300 3.331 3.301 3.301 3.309 3.302 3.300 3.301 3.300 3.301 3.361 3.300 3.301 3.347 3.300 3.301 3.557 3.301 3.301 3.695 3.300 3.301 3.300 3.303 3.347 3.310 3.301 3.302 3.322 3.302 3.301 3.300 3.426 3.301 3.300 3.318 3.301 3.301 3.331 3.302 3.301 3.303
# coordination-number S 2.924 3.043 3.043 2.924
# coordination-number Na 4.432 4.419
# diagonal-C6 C 24.28 24.28 24.22 24.28 24.28 24.25 24.28 24.28 19.26 24.28 24.28 21.74 24.28 24.28 23.05 24.28 24.03 24.18 24.28 24.25 23.91 24.27 24.26 21.79 24.27 24.26 24.28 24.19 24.24 24.27 24.28 23.96 24.27 24.28 24.19 24.27 24.28 24.28 24.28 24.27 23.61 24.28 24.27 23.78 24.28 24.28 20.83 24.28 24.27 19.35 24.28 24.27 24.28 24.26 23.79 24.19 24.28 24.27 24.06 24.26 24.27 24.28 22.74 24.27 24.28 24.10 24.28 24.28 23.96 24.26 24.27 24.25
# diagonal-C6 S 125.81 125.81 125.81 125.81
# diagonal-C6 Na 186.11 186.11
EvdW_6 =   -0.063455
EvdW_8 =   -0.056238

-------- Electronic minimization -----------
	Linear fluid (dielectric constant: 7.2) occupying 0.811008 of unit cell:	Completed after 5 iterations at t[s]:    179.75
	FillingsUpdate:  mu: -0.112741757  nElectrons: 330.000000
ElecMinimize: Iter:   0  F: -547.913391316460775  |grad|_K:  9.381e-07  alpha:  1.000e+00
	Linear fluid (dielectric constant: 7.2) occupying 0.811014 of unit cell:	Completed after 5 iterations at t[s]:    181.31
	Linear fluid (dielectric constant: 7.2) occupying 0.811011 of unit cell:	Completed after 4 iterations at t[s]:    182.01
	FillingsUpdate:  mu: -0.112751921  nElectrons: 330.000000
	SubspaceRotationAdjust: set factor to 0.518
ElecMinimize: Iter:   1  F: -547.913405251502240  |grad|_K:  5.605e-07  alpha:  5.400e-01  linmin: -3.926e-06  t[s]:    182.88
	Linear fluid (dielectric constant: 7.2) occupying 0.811013 of unit cell:	Completed after 4 iterations at t[s]:    183.54
	Linear fluid (dielectric constant: 7.2) occupying 0.811013 of unit cell:	Completed after 2 iterations at t[s]:    184.20
	FillingsUpdate:  mu: -0.112759236  nElectrons: 330.000000
	SubspaceRotationAdjust: set factor to 0.334
ElecMinimize: Iter:   2  F: -547.913409109860140  |grad|_K:  2.511e-07  alpha:  4.197e-01  linmin: -3.880e-06  t[s]:    185.03
	Linear fluid (dielectric constant: 7.2) occupying 0.811011 of unit cell:	Completed after 2 iterations at t[s]:    185.67
	Linear fluid (dielectric constant: 7.2) occupying 0.811011 of unit cell:	Completed after 1 iterations at t[s]:    186.31
	FillingsUpdate:  mu: -0.112757059  nElectrons: 330.000000
	SubspaceRotationAdjust: set factor to 0.416
ElecMinimize: Iter:   3  F: -547.913410227270333  |grad|_K:  1.327e-07  alpha:  6.037e-01  linmin: -3.839e-06  t[s]:    187.14
	Linear fluid (dielectric constant: 7.2) occupying 0.811012 of unit cell:	Completed after 2 iterations at t[s]:    187.78
	Linear fluid (dielectric constant: 7.2) occupying 0.811012 of unit cell:	Completed after 0 iterations at t[s]:    188.39
	FillingsUpdate:  mu: -0.112754171  nElectrons: 330.000000
	SubspaceRotationAdjust: set factor to 0.468
ElecMinimize: Iter:   4  F: -547.913410541976532  |grad|_K:  7.024e-08  alpha:  6.073e-01  linmin: -7.774e-06  t[s]:    189.21
	Linear fluid (dielectric constant: 7.2) occupying 0.811011 of unit cell:	Completed after 1 iterations at t[s]:    189.84
	Linear fluid (dielectric constant: 7.2) occupying 0.811011 of unit cell:	Completed after 0 iterations at t[s]:    190.47
	FillingsUpdate:  mu: -0.112754248  nElectrons: 330.000000
	SubspaceRotationAdjust: set factor to 0.414
ElecMinimize: Iter:   5  F: -547.913410625211441  |grad|_K:  3.588e-08  alpha:  5.671e-01  linmin:  2.785e-06  t[s]:    191.31
	Linear fluid (dielectric constant: 7.2) occupying 0.811011 of unit cell:	Completed after 0 iterations at t[s]:    191.94
	Linear fluid (dielectric constant: 7.2) occupying 0.811011 of unit cell:	Completed after 0 iterations at t[s]:    192.57
	FillingsUpdate:  mu: -0.112756385  nElectrons: 330.000000
	SubspaceRotationAdjust: set factor to 0.511
ElecMinimize: Iter:   6  F: -547.913410649203684  |grad|_K:  1.956e-08  alpha:  6.403e-01  linmin: -3.473e-06  t[s]:    193.39
	Linear fluid (dielectric constant: 7.2) occupying 0.811011 of unit cell:	Completed after 0 iterations at t[s]:    194.01
	Linear fluid (dielectric constant: 7.2) occupying 0.811011 of unit cell:	Completed after 0 iterations at t[s]:    194.64
	FillingsUpdate:  mu: -0.112753399  nElectrons: 330.000000
	SubspaceRotationAdjust: set factor to 0.503
ElecMinimize: Iter:   7  F: -547.913410654696690  |grad|_K:  1.215e-08  alpha:  4.986e-01  linmin: -2.435e-06  t[s]:    195.49
	Linear fluid (dielectric constant: 7.2) occupying 0.811011 of unit cell:	Completed after 0 iterations at t[s]:    196.11
	Linear fluid (dielectric constant: 7.2) occupying 0.811011 of unit cell:	Completed after 0 iterations at t[s]:    196.73
	FillingsUpdate:  mu: -0.112756654  nElectrons: 330.000000
	SubspaceRotationAdjust: set factor to 0.716
ElecMinimize: Iter:   8  F: -547.913410657222812  |grad|_K:  7.287e-09  alpha:  5.278e-01  linmin: -5.444e-06  t[s]:    197.55
ElecMinimize: Converged (|Delta F|<1.000000e-08 for 2 iters).
Setting wave functions to eigenvectors of Hamiltonian
IonicMinimize: 	Predicted alpha/alphaT>3.000000, increasing alphaT to 9.000000e+00.

Computing DFT-D3 correction:
# coordination-number C 3.300 3.300 3.307 3.300 3.300 3.304 3.300 3.300 3.704 3.300 3.301 3.493 3.300 3.300 3.399 3.301 3.327 3.310 3.301 3.303 3.333 3.301 3.302 3.488 3.301 3.303 3.301 3.311 3.304 3.301 3.300 3.331 3.301 3.301 3.308 3.301 3.300 3.300 3.300 3.302 3.363 3.300 3.301 3.348 3.300 3.301 3.551 3.301 3.301 3.687 3.300 3.301 3.300 3.303 3.347 3.310 3.300 3.302 3.321 3.302 3.301 3.300 3.427 3.301 3.300 3.318 3.301 3.301 3.330 3.302 3.301 3.303
# coordination-number S 2.912 3.028 3.028 2.911
# coordination-number Na 4.357 4.346
# diagonal-C6 C 24.28 24.28 24.21 24.28 24.28 24.25 24.28 24.28 19.28 24.28 24.28 21.75 24.28 24.28 23.12 24.28 24.01 24.18 24.28 24.25 23.94 24.27 24.27 21.83 24.27 24.26 24.28 24.18 24.24 24.27 24.28 23.97 24.27 24.27 24.20 24.27 24.28 24.28 24.29 24.27 23.60 24.28 24.27 23.77 24.29 24.27 20.91 24.27 24.27 19.41 24.28 24.28 24.29 24.25 23.78 24.18 24.28 24.27 24.07 24.26 24.27 24.28 22.73 24.27 24.28 24.10 24.28 24.28 23.98 24.26 24.27 24.25
# diagonal-C6 S 125.81 125.81 125.81 125.81
# diagonal-C6 Na 186.11 186.11
EvdW_6 =   -0.063464
EvdW_8 =   -0.056305

-------- Electronic minimization -----------
	Linear fluid (dielectric constant: 7.2) occupying 0.811009 of unit cell:	Completed after 8 iterations at t[s]:    200.55
	FillingsUpdate:  mu: -0.110277835  nElectrons: 330.000000
ElecMinimize: Iter:   0  F: -547.872860824429381  |grad|_K:  6.111e-05  alpha:  1.000e+00
	Linear fluid (dielectric constant: 7.2) occupying 0.810690 of unit cell:	Completed after 10 iterations at t[s]:    202.18
	Linear fluid (dielectric constant: 7.2) occupying 0.810904 of unit cell:	Completed after 9 iterations at t[s]:    202.93
	FillingsUpdate:  mu: -0.112085609  nElectrons: 330.000000
	SubspaceRotationAdjust: set factor to 0.624
ElecMinimize: Iter:   1  F: -547.911348287466922  |grad|_K:  1.233e-05  alpha:  3.527e-01  linmin:  1.375e-04  t[s]:    203.81
	Linear fluid (dielectric constant: 7.2) occupying 0.810923 of unit cell:	Completed after 8 iterations at t[s]:    204.51
	Linear fluid (dielectric constant: 7.2) occupying 0.810926 of unit cell:	Completed after 5 iterations at t[s]:    205.22
	FillingsUpdate:  mu: -0.112281666  nElectrons: 330.000000
	SubspaceRotationAdjust: set factor to 0.396
ElecMinimize: Iter:   2  F: -547.913137443396295  |grad|_K:  6.104e-06  alpha:  4.012e-01  linmin: -1.938e-04  t[s]:    206.06
	Linear fluid (dielectric constant: 7.2) occupying 0.810908 of unit cell:	Completed after 6 iterations at t[s]:    206.75
	Linear fluid (dielectric constant: 7.2) occupying 0.810908 of unit cell:	Completed after 2 iterations at t[s]:    207.44
	FillingsUpdate:  mu: -0.112415779  nElectrons: 330.000000
	SubspaceRotationAdjust: set factor to 0.332
ElecMinimize: Iter:   3  F: -547.913591792403508  |grad|_K:  2.328e-06  alpha:  4.095e-01  linmin:  4.867e-05  t[s]:    208.30
	Linear fluid (dielectric constant: 7.2) occupying 0.810924 of unit cell:	Completed after 4 iterations at t[s]:    208.95
	Linear fluid (dielectric constant: 7.2) occupying 0.810934 of unit cell:	Completed after 4 iterations at t[s]:    209.65
	FillingsUpdate:  mu: -0.112462746  nElectrons: 330.000000
	SubspaceRotationAdjust: set factor to 0.421
ElecMinimize: Iter:   4  F: -547.913700133804582  |grad|_K:  1.459e-06  alpha:  6.863e-01  linmin: -2.441e-06  t[s]:    210.49
	Linear fluid (dielectric constant: 7.2) occupying 0.810940 of unit cell:	Completed after 6 iterations at t[s]:    211.16
	Linear fluid (dielectric constant: 7.2) occupying 0.810939 of unit cell:	Completed after 4 iterations at t[s]:    211.86
	FillingsUpdate:  mu: -0.112486673  nElectrons: 330.000000
	SubspaceRotationAdjust: set factor to 0.492
ElecMinimize: Iter:   5  F: -547.913734486449243  |grad|_K:  8.851e-07  alpha:  5.502e-01  linmin: -4.294e-07  t[s]:    212.74
	Linear fluid (dielectric constant: 7.2) occupying 0.810945 of unit cell:	Completed after 3 iterations at t[s]:    213.38
	Linear fluid (dielectric constant: 7.2) occupying 0.810947 of unit cell:	Completed after 2 iterations at t[s]:    214.06
	FillingsUpdate:  mu: -0.112467878  nElectrons: 330.000000
	SubspaceRotationAdjust: set factor to 0.578
ElecMinimize: Iter:   6  F: -547.913750317212362  |grad|_K:  5.112e-07  alpha:  6.895e-01  linmin:  3.340e-07  t[s]:    214.89
	Linear fluid (dielectric constant: 7.2) occupying 0.810958 of unit cell:	Completed after 4 iterations at t[s]:    215.56
	Linear fluid (dielectric constant: 7.2) occupying 0.810956 of unit cell:	Completed after 2 iterations at t[s]:    216.22
	FillingsUpdate:  mu: -0.112472192  nElectrons: 330.000000
	SubspaceRotationAdjust: set factor to 0.531
ElecMinimize: Iter:   7  F: -547.913754785083256  |grad|_K:  3.131e-07  alpha:  5.833e-01  linmin:  1.249e-06  t[s]:    217.05
	Linear fluid (dielectric constant: 7.2) occupying 0.810959 of unit cell:	Completed after 3 iterations at t[s]:    217.70
	Linear fluid (dielectric constant: 7.2) occupying 0.810958 of unit cell:	Completed after 0 iterations at t[s]:    218.33
	FillingsUpdate:  mu: -0.112480580  nElectrons: 330.000000
	SubspaceRotationAdjust: set factor to 0.402
ElecMinimize: Iter:   8  F: -547.913756346883474  |grad|_K:  1.755e-07  alpha:  5.446e-01  linmin:  2.725e-06  t[s]:    219.15
	Linear fluid (dielectric constant: 7.2) occupying 0.810957 of unit cell:	Completed after 2 iterations at t[s]:    219.78
	Linear fluid (dielectric constant: 7.2) occupying 0.810957 of unit cell:	Completed after 0 iterations at t[s]:    220.40
	FillingsUpdate:  mu: -0.112476121  nElectrons: 330.000000
	SubspaceRotationAdjust: set factor to 0.412
ElecMinimize: Iter:   9  F: -547.913756807083928  |grad|_K:  9.489e-08  alpha:  5.131e-01  linmin:  2.538e-06  t[s]:    221.21
	Linear fluid (dielectric constant: 7.2) occupying 0.810958 of unit cell:	Completed after 1 iterations at t[s]:    221.84
	Linear fluid (dielectric constant: 7.2) occupying 0.810958 of unit cell:	Completed after 0 iterations at t[s]:    222.46
	FillingsUpdate:  mu: -0.112478205  nElectrons: 330.000000
	SubspaceRotationAdjust: set factor to 0.459
ElecMinimize: Iter:  10  F: -547.913756952921972  |grad|_K:  5.193e-08  alpha:  5.567e-01  linmin: -4.935e-06  t[s]:    223.28
	Linear fluid (dielectric constant: 7.2) occupying 0.810957 of unit cell:	Completed after 0 iterations at t[s]:    223.89
	Linear fluid (dielectric constant: 7.2) occupying 0.810957 of unit cell:	Completed after 0 iterations at t[s]:    224.52
	FillingsUpdate:  mu: -0.112478891  nElectrons: 330.000000
	SubspaceRotationAdjust: set factor to 0.56
ElecMinimize: Iter:  11  F: -547.913757000822670  |grad|_K:  3.195e-08  alpha:  5.907e-01  linmin: -3.821e-07  t[s]:    225.34
	Linear fluid (dielectric constant: 7.2) occupying 0.810957 of unit cell:	Completed after 0 iterations at t[s]:    225.96
	Linear fluid (dielectric constant: 7.2) occupying 0.810957 of unit cell:	Completed after 0 iterations at t[s]:    226.57
	FillingsUpdate:  mu: -0.112481096  nElectrons: 330.000000
	SubspaceRotationAdjust: set factor to 0.659
ElecMinimize: Iter:  12  F: -547.913757019611808  |grad|_K:  1.934e-08  alpha:  6.244e-01  linmin: -1.648e-06  t[s]:    227.39
	Linear fluid (dielectric constant: 7.2) occupying 0.810957 of unit cell:	Completed after 0 iterations at t[s]:    228.02
	Linear fluid (dielectric constant: 7.2) occupying 0.810957 of unit cell:	Completed after 0 iterations at t[s]:    228.62
	FillingsUpdate:  mu: -0.112478421  nElectrons: 330.000000
	SubspaceRotationAdjust: set factor to 0.832
ElecMinimize: Iter:  13  F: -547.913757026978715  |grad|_K:  1.130e-08  alpha:  6.476e-01  linmin: -2.677e-06  t[s]:    229.44
	Linear fluid (dielectric constant: 7.2) occupying 0.810957 of unit cell:	Completed after 0 iterations at t[s]:    230.05
	Linear fluid (dielectric constant: 7.2) occupying 0.810957 of unit cell:	Completed after 0 iterations at t[s]:    230.66
	FillingsUpdate:  mu: -0.112478373  nElectrons: 330.000000
	SubspaceRotationAdjust: set factor to 0.909
ElecMinimize: Iter:  14  F: -547.913757029621365  |grad|_K:  7.197e-09  alpha:  6.417e-01  linmin:  1.705e-08  t[s]:    231.48
ElecMinimize: Converged (|Delta F|<1.000000e-08 for 2 iters).
Setting wave functions to eigenvectors of Hamiltonian

Computing DFT-D3 correction:
# coordination-number C 3.299 3.300 3.308 3.300 3.301 3.305 3.300 3.300 3.700 3.300 3.301 3.491 3.300 3.299 3.391 3.301 3.329 3.310 3.301 3.303 3.330 3.301 3.301 3.484 3.301 3.303 3.301 3.312 3.304 3.301 3.300 3.330 3.301 3.301 3.307 3.301 3.299 3.300 3.299 3.302 3.364 3.300 3.301 3.350 3.299 3.301 3.542 3.301 3.301 3.676 3.300 3.300 3.299 3.304 3.349 3.310 3.300 3.301 3.320 3.302 3.301 3.299 3.428 3.302 3.299 3.318 3.301 3.300 3.328 3.302 3.301 3.303
# coordination-number S 2.891 3.005 3.004 2.890
# coordination-number Na 4.244 4.236
# diagonal-C6 C 24.29 24.28 24.20 24.28 24.28 24.24 24.28 24.28 19.31 24.28 24.28 21.77 24.28 24.29 23.23 24.27 23.99 24.18 24.27 24.25 23.97 24.27 24.27 21.88 24.27 24.26 24.27 24.16 24.24 24.27 24.28 23.97 24.28 24.27 24.21 24.28 24.29 24.28 24.29 24.26 23.57 24.28 24.27 23.75 24.29 24.27 21.03 24.27 24.27 19.50 24.29 24.28 24.30 24.24 23.76 24.18 24.28 24.27 24.08 24.26 24.27 24.29 22.72 24.27 24.29 24.10 24.28 24.28 23.99 24.26 24.27 24.26
# diagonal-C6 S 125.81 125.81 125.81 125.81
# diagonal-C6 Na 186.11 186.11
EvdW_6 =   -0.063478
EvdW_8 =   -0.056408

-------- Electronic minimization -----------
	Linear fluid (dielectric constant: 7.2) occupying 0.810953 of unit cell:	Completed after 9 iterations at t[s]:    234.48
	FillingsUpdate:  mu: -0.108574878  nElectrons: 330.000000
ElecMinimize: Iter:   0  F: -547.819890945993620  |grad|_K:  9.322e-05  alpha:  1.000e+00
	Linear fluid (dielectric constant: 7.2) occupying 0.810186 of unit cell:	Completed after 11 iterations at t[s]:    236.10
	Linear fluid (dielectric constant: 7.2) occupying 0.810708 of unit cell:	Completed after 10 iterations at t[s]:    236.86
	FillingsUpdate:  mu: -0.111252283  nElectrons: 330.000000
	SubspaceRotationAdjust: set factor to 0.71
ElecMinimize: Iter:   1  F: -547.907804294917923  |grad|_K:  2.232e-05  alpha:  3.472e-01  linmin:  2.136e-04  t[s]:    237.74
	Linear fluid (dielectric constant: 7.2) occupying 0.810825 of unit cell:	Completed after 9 iterations at t[s]:    238.44
	Linear fluid (dielectric constant: 7.2) occupying 0.810804 of unit cell:	Completed after 7 iterations at t[s]:    239.15
	FillingsUpdate:  mu: -0.111591027  nElectrons: 330.000000
	SubspaceRotationAdjust: set factor to 0.405
ElecMinimize: Iter:   2  F: -547.911873389419043  |grad|_K:  1.134e-05  alpha:  2.850e-01  linmin: -1.979e-04  t[s]:    240.00
	Linear fluid (dielectric constant: 7.2) occupying 0.810794 of unit cell:	Completed after 7 iterations at t[s]:    240.68
	Linear fluid (dielectric constant: 7.2) occupying 0.810788 of unit cell:	Completed after 5 iterations at t[s]:    241.38
	FillingsUpdate:  mu: -0.111894433  nElectrons: 330.000000
	SubspaceRotationAdjust: set factor to 0.421
ElecMinimize: Iter:   3  F: -547.913461156453195  |grad|_K:  4.598e-06  alpha:  4.145e-01  linmin:  1.047e-04  t[s]:    242.22
	Linear fluid (dielectric constant: 7.2) occupying 0.810813 of unit cell:	Completed after 5 iterations at t[s]:    242.88
	Linear fluid (dielectric constant: 7.2) occupying 0.810815 of unit cell:	Completed after 3 iterations at t[s]:    243.56
	FillingsUpdate:  mu: -0.111988421  nElectrons: 330.000000
	SubspaceRotationAdjust: set factor to 0.498
ElecMinimize: Iter:   4  F: -547.913744385734844  |grad|_K:  3.039e-06  alpha:  4.626e-01  linmin: -1.806e-06  t[s]:    244.39
	Linear fluid (dielectric constant: 7.2) occupying 0.810843 of unit cell:	Completed after 6 iterations at t[s]:    245.06
	Linear fluid (dielectric constant: 7.2) occupying 0.810845 of unit cell:	Completed after 2 iterations at t[s]:    245.73
	FillingsUpdate:  mu: -0.112077810  nElectrons: 330.000000
	SubspaceRotationAdjust: set factor to 0.551
ElecMinimize: Iter:   5  F: -547.913880208536852  |grad|_K:  1.694e-06  alpha:  5.017e-01  linmin: -2.892e-06  t[s]:    246.56
	Linear fluid (dielectric constant: 7.2) occupying 0.810855 of unit cell:	Completed after 5 iterations at t[s]:    247.21
	Linear fluid (dielectric constant: 7.2) occupying 0.810856 of unit cell:	Completed after 3 iterations at t[s]:    247.88
	FillingsUpdate:  mu: -0.112041617  nElectrons: 330.000000
	SubspaceRotationAdjust: set factor to 0.634
ElecMinimize: Iter:   6  F: -547.913930166873342  |grad|_K:  1.139e-06  alpha:  5.936e-01  linmin: -1.332e-06  t[s]:    248.72
	Linear fluid (dielectric constant: 7.2) occupying 0.810872 of unit cell:	Completed after 4 iterations at t[s]:    249.37
	Linear fluid (dielectric constant: 7.2) occupying 0.810869 of unit cell:	Completed after 2 iterations at t[s]:    250.02
	FillingsUpdate:  mu: -0.112027811  nElectrons: 330.000000
	SubspaceRotationAdjust: set factor to 0.621
ElecMinimize: Iter:   7  F: -547.913948351687509  |grad|_K:  6.621e-07  alpha:  4.776e-01  linmin:  9.134e-07  t[s]:    250.85
	Linear fluid (dielectric constant: 7.2) occupying 0.810878 of unit cell:	Completed after 3 iterations at t[s]:    251.49
	Linear fluid (dielectric constant: 7.2) occupying 0.810878 of unit cell:	Completed after 0 iterations at t[s]:    252.11
	FillingsUpdate:  mu: -0.112054619  nElectrons: 330.000000
	SubspaceRotationAdjust: set factor to 0.56
ElecMinimize: Iter:   8  F: -547.913954279236123  |grad|_K:  3.933e-07  alpha:  4.616e-01  linmin:  3.901e-06  t[s]:    252.94
	Linear fluid (dielectric constant: 7.2) occupying 0.810878 of unit cell:	Completed after 2 iterations at t[s]:    253.57
	Linear fluid (dielectric constant: 7.2) occupying 0.810878 of unit cell:	Completed after 0 iterations at t[s]:    254.20
	FillingsUpdate:  mu: -0.112060331  nElectrons: 330.000000
	SubspaceRotationAdjust: set factor to 0.634
ElecMinimize: Iter:   9  F: -547.913956651635090  |grad|_K:  2.412e-07  alpha:  5.255e-01  linmin: -1.399e-06  t[s]:    255.03
	Linear fluid (dielectric constant: 7.2) occupying 0.810877 of unit cell:	Completed after 2 iterations at t[s]:    255.66
	Linear fluid (dielectric constant: 7.2) occupying 0.810877 of unit cell:	Completed after 0 iterations at t[s]:    256.28
	FillingsUpdate:  mu: -0.112051901  nElectrons: 330.000000
	SubspaceRotationAdjust: set factor to 0.573
[...]
ElecMinimize: 	Step increased F by 4.391723e-10, reducing alpha to 2.177854e-03.
	Linear fluid (dielectric constant: 7.2) occupying 0.809790 of unit cell:	Completed after 0 iterations at t[s]:   2191.52
ElecMinimize: 	Step increased F by 4.110916e-10, reducing alpha to 2.177854e-04.
ElecMinimize: 	Step failed to reduce F after 3 attempts. Quitting step.
ElecMinimize: 	Undoing step.
	Linear fluid (dielectric constant: 7.2) occupying 0.809790 of unit cell:	Completed after 0 iterations at t[s]:   2192.82
ElecMinimize: 	Step failed: resetting search direction.
	FillingsUpdate:  mu: -0.104556700  nElectrons: 330.000000
	SubspaceRotationAdjust: set factor to 0.591
ElecMinimize: Iter:   5  F: -547.919325058032655  |grad|_K:  1.717e-08  alpha:  2.178e-04
	Linear fluid (dielectric constant: 7.2) occupying 0.809790 of unit cell:	Completed after 1 iterations at t[s]:   2194.24
	Linear fluid (dielectric constant: 7.2) occupying 0.809790 of unit cell:	Completed after 0 iterations at t[s]:   2194.89
	FillingsUpdate:  mu: -0.104555366  nElectrons: 330.000000
	SubspaceRotationAdjust: set factor to 0.362
ElecMinimize: Iter:   6  F: -547.919325058783556  |grad|_K:  1.799e-08  alpha:  2.054e-01  linmin:  5.827e-03  t[s]:   2195.72
	Linear fluid (dielectric constant: 7.2) occupying 0.809790 of unit cell:	Completed after 0 iterations at t[s]:   2196.34
	Linear fluid (dielectric constant: 7.2) occupying 0.809790 of unit cell:	Completed after 0 iterations at t[s]:   2196.98
ElecMinimize: 	Step increased F by 4.378080e-10, reducing alpha to 9.241890e-03.
	Linear fluid (dielectric constant: 7.2) occupying 0.809790 of unit cell:	Completed after 0 iterations at t[s]:   2198.28
ElecMinimize: 	Step increased F by 9.100631e-10, reducing alpha to 9.241890e-04.
	Linear fluid (dielectric constant: 7.2) occupying 0.809790 of unit cell:	Completed after 0 iterations at t[s]:   2199.58
ElecMinimize: 	Step increased F by 9.773657e-10, reducing alpha to 9.241890e-05.
ElecMinimize: 	Step failed to reduce F after 3 attempts. Quitting step.
ElecMinimize: 	Undoing step.
	Linear fluid (dielectric constant: 7.2) occupying 0.809790 of unit cell:	Completed after 0 iterations at t[s]:   2200.89
ElecMinimize: 	Step failed: resetting search direction.
	FillingsUpdate:  mu: -0.104556003  nElectrons: 330.000000
	SubspaceRotationAdjust: set factor to 0.269
ElecMinimize: Iter:   7  F: -547.919325057816081  |grad|_K:  1.374e-08  alpha:  9.242e-05
	Linear fluid (dielectric constant: 7.2) occupying 0.809790 of unit cell:	Completed after 0 iterations at t[s]:   2202.28
ElecMinimize: 	Predicted alpha/alphaT>3.000000, increasing alphaT to 6.161603e-01.
	Linear fluid (dielectric constant: 7.2) occupying 0.809790 of unit cell:	Completed after 1 iterations at t[s]:   2202.93
	Linear fluid (dielectric constant: 7.2) occupying 0.809790 of unit cell:	Completed after 0 iterations at t[s]:   2203.57
	FillingsUpdate:  mu: -0.104557154  nElectrons: 330.000000
	SubspaceRotationAdjust: set factor to 0.148
ElecMinimize: Iter:   8  F: -547.919325059840048  |grad|_K:  1.176e-08  alpha:  2.842e-01  linmin:  6.589e-03  t[s]:   2204.39
	Linear fluid (dielectric constant: 7.2) occupying 0.809790 of unit cell:	Completed after 0 iterations at t[s]:   2204.99
	Linear fluid (dielectric constant: 7.2) occupying 0.809790 of unit cell:	Completed after 0 iterations at t[s]:   2205.63
ElecMinimize: 	Step increased F by 7.914878e-10, reducing alpha to 5.034054e-02.
	Linear fluid (dielectric constant: 7.2) occupying 0.809790 of unit cell:	Completed after 0 iterations at t[s]:   2206.93
ElecMinimize: 	Step increased F by 7.165681e-10, reducing alpha to 5.034054e-03.
	Linear fluid (dielectric constant: 7.2) occupying 0.809790 of unit cell:	Completed after 0 iterations at t[s]:   2208.23
ElecMinimize: 	Step increased F by 7.784138e-10, reducing alpha to 5.034054e-04.
ElecMinimize: 	Step failed to reduce F after 3 attempts. Quitting step.
ElecMinimize: 	Undoing step.
	Linear fluid (dielectric constant: 7.2) occupying 0.809790 of unit cell:	Completed after 0 iterations at t[s]:   2209.54
ElecMinimize: 	Step failed: resetting search direction.
	FillingsUpdate:  mu: -0.104556486  nElectrons: 330.000000
	SubspaceRotationAdjust: set factor to 0.283
ElecMinimize: Iter:   9  F: -547.919325059068115  |grad|_K:  5.648e-09  alpha:  5.034e-04
	Linear fluid (dielectric constant: 7.2) occupying 0.809790 of unit cell:	Completed after 0 iterations at t[s]:   2210.94
ElecMinimize: 	Predicted alpha/alphaT>3.000000, increasing alphaT to 8.524740e-01.
	Linear fluid (dielectric constant: 7.2) occupying 0.809790 of unit cell:	Completed after 0 iterations at t[s]:   2211.57
	Linear fluid (dielectric constant: 7.2) occupying 0.809790 of unit cell:	Completed after 0 iterations at t[s]:   2212.21
ElecMinimize: 	Step increased F by 3.637979e-11, reducing alpha to 3.695377e-02.
	Linear fluid (dielectric constant: 7.2) occupying 0.809790 of unit cell:	Completed after 0 iterations at t[s]:   2213.51
	FillingsUpdate:  mu: -0.104556449  nElectrons: 330.000000
	SubspaceRotationAdjust: set factor to 0.285
ElecMinimize: Iter:  10  F: -547.919325059075049  |grad|_K:  7.627e-09  alpha:  3.695e-02  linmin:  3.125e-05  t[s]:   2214.33
	Linear fluid (dielectric constant: 7.2) occupying 0.809790 of unit cell:	Completed after 0 iterations at t[s]:   2214.94
ElecMinimize: 	Predicted alpha/alphaT>3.000000, increasing alphaT to 1.108613e-01.
	Linear fluid (dielectric constant: 7.2) occupying 0.809790 of unit cell:	Completed after 0 iterations at t[s]:   2215.56
ElecMinimize: 	Predicted alpha/alphaT>3.000000, increasing alphaT to 3.325839e-01.
	Linear fluid (dielectric constant: 7.2) occupying 0.809790 of unit cell:	Completed after 0 iterations at t[s]:   2216.19
	Linear fluid (dielectric constant: 7.2) occupying 0.809790 of unit cell:	Completed after 0 iterations at t[s]:   2216.83
	FillingsUpdate:  mu: -0.104556498  nElectrons: 330.000000
	SubspaceRotationAdjust: set factor to 0.295
ElecMinimize: Iter:  11  F: -547.919325059742391  |grad|_K:  6.999e-09  alpha:  3.925e-01  linmin:  1.924e-05  t[s]:   2217.64
ElecMinimize: Converged (|Delta F|<1.000000e-08 for 2 iters).
Setting wave functions to eigenvectors of Hamiltonian

Computing DFT-D3 correction:
# coordination-number C 3.300 3.300 3.305 3.300 3.300 3.302 3.300 3.300 3.425 3.300 3.300 3.350 3.300 3.300 3.323 3.300 3.318 3.305 3.300 3.302 3.312 3.300 3.301 3.355 3.300 3.301 3.300 3.309 3.302 3.300 3.300 3.315 3.301 3.300 3.305 3.301 3.301 3.301 3.300 3.301 3.327 3.300 3.301 3.324 3.300 3.300 3.348 3.300 3.300 3.378 3.300 3.301 3.300 3.303 3.326 3.304 3.300 3.301 3.310 3.301 3.300 3.300 3.360 3.301 3.300 3.307 3.300 3.300 3.312 3.301 3.300 3.302
# coordination-number S 2.851 2.571 2.569 2.848
# coordination-number Na 2.733 2.710
# diagonal-C6 C 24.28 24.28 24.23 24.28 24.28 24.26 24.28 24.28 22.75 24.28 24.28 23.75 24.28 24.28 24.05 24.28 24.10 24.24 24.28 24.26 24.17 24.28 24.27 23.69 24.28 24.27 24.28 24.20 24.26 24.28 24.28 24.13 24.28 24.28 24.24 24.27 24.28 24.28 24.28 24.27 24.01 24.28 24.27 24.04 24.28 24.28 23.77 24.28 24.28 23.40 24.28 24.28 24.28 24.25 24.01 24.24 24.28 24.27 24.19 24.27 24.28 24.28 23.63 24.27 24.28 24.22 24.28 24.28 24.16 24.27 24.28 24.26
# diagonal-C6 S 125.81 125.81 125.81 125.81
# diagonal-C6 Na 186.11 186.11
EvdW_6 =   -0.063896
EvdW_8 =   -0.056759

# Ionic positions in cartesian coordinates:
ion C  28.005222438839422  -0.006871826596984  14.047876597972929 1
ion C  16.337095400802596  20.205113975626912  14.046843768412101 1
ion C   2.332997223015690   4.033505984485010  14.043794938844423 1
ion C  23.337449621204573  -0.006766027691613  14.048623538999070 1
ion C   4.667833042957927  -0.007500625740609  14.047878691055635 1
ion C  11.668944209799363  20.206534454748169  14.045751429302301 1
ion C  25.670380928373248   4.034351112105352  14.047149326379939 1
ion C  18.671466557568948  16.161835381460520  14.045002354878740 1
ion C   4.668263444895616   8.077207768716914  14.051826746355719 1
ion C  18.669725431990521  -0.007240021645108  14.046117465352362 1
ion C   9.335966861210091  -0.007877691290249  14.044907185064041 1
ion C   9.333642253876450  16.163839647066535  14.048022574725307 1
ion C  23.336569146630630   8.076933061065981  14.046794201136455 1
ion C  21.004578181403957  12.119005280060113  14.048014680626514 1
ion C   6.999683587209421  12.120059420602765  14.050340407160986 1
ion C  14.002453531318226  -0.007476979469894  14.044907603336593 1
ion C  14.004059713401334  16.162595371055719  14.038651077126156 1
ion C   7.003039264386707   4.033377783272794  14.046915049483417 1
ion C  21.003472687976245   4.034650646029603  14.045432856667018 1
ion C  16.338264933188704  12.118013129051427  14.045574131359048 1
ion C   9.337337924522751   8.075917686056354  14.051323455668070 1
ion C  16.336087870186326   4.034489791741680  14.046114879596294 1
ion C  11.669658896469441   4.034453411809150  14.046835974268273 1
ion C  11.669829818310248  12.117311974954273  14.049225610706548 1
ion C  18.670292202179152   8.076578375268756  14.047307931056853 1
ion C   6.999974390649520  20.204707099631452  14.048727502811408 1
ion C  -7.001378029057548  20.204123411763973  14.048235733840672 1
ion C  -0.002969448219777   8.077113334028342  14.042614875953628 1
ion C  14.003429907426089   8.075619943683650  14.048802902981048 1
ion C   2.333163859433892  20.203846878690982  14.047378837719460 1
ion C  -4.667589630988305  16.161758982422679  14.048333720041283 1
ion C   2.332461903933237  12.122539946947144  14.050048824627082 1
ion C  -2.334553266117283  12.120325063091702  14.047368427250730 1
ion C  -2.333958533652917  20.204072226019655  14.046002665643140 1
ion C   4.666058011819468  16.162935266689288  14.054248180255039 1
ion C  -0.000420493641503  16.162664869463544  14.046619907113763 1
ion C  14.003135906508101  21.552384069988481  14.047518058840449 1
ion C   2.333628818885392   1.339129138267489  14.046839341685407 1
ion C  25.671159150631347   1.339611178709883  14.048953968899690 1
ion C  16.338192982705401  17.510329078892397  14.043192082717415 1
ion C   4.668220330663197   5.378883593189173  14.046868875030421 1
ion C  21.003434549341151   1.339965790079793  14.046223544750788 1
ion C   7.001955035136750   1.338823836059851  14.046965232364579 1
ion C  11.669610199604344  17.511463607685211  14.040791292196689 1
ion C  23.336894626667060   5.382019316468160  14.047088198820896 1
ion C  18.671062573469520  13.466436685556708  14.045564668815668 1
ion C   7.004059675199623   9.425753124491886  14.051421547827779 1
ion C  16.336225667579310   1.340065720502938  14.045609514833387 1
ion C  11.668908313081998   1.339931916126647  14.043753449423134 1
ion C   9.334034093895944  13.466538107024208  14.050489272055007 1
ion C  21.003252284194470   9.424428639204821  14.048356948867328 1
ion C   9.334328415144130  21.552247414337213  14.048115689504002 1
ion C  -9.334898606792738  21.551598712129458  14.048482229466856 1
ion C  -0.001578020920352   5.381590931147754  14.042945934916016 1
ion C  14.004572946638580  13.466396231394098  14.042682608871710 1
ion C   9.336402151290647   5.381241753334077  14.048869224005507 1
ion C  18.669697158910839   5.381753010060160  14.045579652695116 1
ion C  16.336673161866806   9.423543115864470  14.047966937797378 1
ion C  11.670315469010713   9.421695836864020  14.052455750821222 1
ion C  14.002799601816140   5.381553642354738  14.048030152375599 1
ion C   4.666599811235745  21.551544779479912  14.047433199861331 1
ion C  -7.001234553236140  17.509464146020527  14.047889529379065 1
ion C   2.331013968809438   9.426629508226940  14.047847950565881 1
ion C  -2.335902167677682   9.425332960276311  14.045007288849440 1
ion C  -4.667777125944187  21.551129146253835  14.046984454344896 1
ion C   6.998898303612311  17.511151299586984  14.053315154725883 1
ion C  -0.000635934684663  21.551239986332675  14.044949226440229 1
ion C  -4.668169263594146  13.467295490442407  14.048881467212519 1
ion C   4.666864646268635  13.468296766343599  14.051980584273075 1
ion C   2.332566432237213  17.509950451358311  14.049271154146870 1
ion C  -2.334340577321115  17.509539722452310  14.046422533110178 1
ion C  -0.001618323129156  13.468679288854174  14.047725002948212 1
ion S   5.512881659986105  13.880494238830860  20.914698378053576 1
ion S   6.216807489668009  13.036218782583013  24.543717661753728 1
ion S   9.114374512550539   9.876937133904002  24.532968907415999 1
ion S   9.800453323044195   9.042636460489774  20.898562991464846 1
ion Na   4.429373571460309   8.646401547298307  20.184334777347694 1
ion Na  10.884172016753750  14.294854454956985  20.220224652633188 1

# Forces in Cartesian coordinates:
force C  -0.000033097985448  -0.000146568620925   0.000224423531069 1
force C   0.000016761272863  -0.000105609859320   0.000114700746244 1
force C  -0.000120543322140  -0.000016240693932   0.000182218415411 1
force C  -0.000134557508504  -0.000247766535510   0.000114129152050 1
force C  -0.000004574879619  -0.000053928808154   0.000171970159333 1
force C  -0.000131690846603   0.000025024910508   0.000169466799918 1
force C   0.000129165998649   0.000084304001000   0.000088276139302 1
force C  -0.000039292612813  -0.000005110789839   0.000262375620189 1
force C   0.000003935292510  -0.000156234052914   0.000112738988796 1
force C   0.000051351571875  -0.000058691938919   0.000154118230852 1
force C  -0.000167182751732  -0.000104926819832   0.000309240580496 1
force C   0.000013377040311   0.000100617816877   0.000214121451022 1
force C   0.000088589351570  -0.000032830907184   0.000167656446613 1
force C  -0.000131256589577   0.000027232838368   0.000170388859122 1
force C   0.000056140304278  -0.000064201037838   0.000283591268459 1
force C   0.000092085055121  -0.000047171813319   0.000105570447606 1
force C   0.000125443345490   0.000181294852719   0.000103852496067 1
force C  -0.000061586988484  -0.000142412229532   0.000205756738386 1
force C  -0.000083278252567  -0.000070819293640   0.000286630311901 1
force C   0.000031653148191  -0.000067871875565   0.000208365820334 1
force C  -0.000091462076465  -0.000140212499593   0.000213859516418 1
force C   0.000113263342659  -0.000022722206495   0.000168089369140 1
force C  -0.000103537719610  -0.000084380397430   0.000236739561026 1
force C   0.000016786690877   0.000075457131009   0.000169791688774 1
force C  -0.000167600693784  -0.000095999931851   0.000206753210895 1
force C   0.000051392250420   0.000124864149564   0.000236278046320 1
force C   0.000089100774533  -0.000012124945405   0.000112534314622 1
force C  -0.000066566139355  -0.000077913106108   0.000226330081120 1
force C   0.000062696489225  -0.000120222218999   0.000230851128519 1
force C  -0.000008985201795   0.000144113548844   0.000169079365119 1
force C  -0.000012593199268   0.000111212690610   0.000116975886827 1
force C  -0.000202004317081  -0.000069043297392   0.000110745270996 1
force C  -0.000052944067385   0.000032538880999   0.000164868148349 1
force C  -0.000052415128859   0.000009361816254   0.000177521663615 1
force C   0.000007592835005   0.000098088514427   0.000068597203646 1
force C  -0.000225905844641  -0.000012009191911   0.000350812399102 1
force C  -0.000021749677958   0.000068673980953   0.000083534372579 1
force C   0.000080538148087   0.000015383674845   0.000157712011466 1
force C   0.000043024684900   0.000131309282771   0.000030921122608 1
force C   0.000033062704351  -0.000102854256597   0.000156269842687 1
force C   0.000043617588170   0.000124044909176   0.000083324032097 1
force C  -0.000112984556834   0.000063550769483   0.000228733562025 1
force C   0.000148354031406   0.000082403566850   0.000073032405070 1
force C  -0.000107073372826  -0.000110056142188   0.000171292634120 1
force C  -0.000052457786397   0.000132695886273   0.000066938226436 1
force C   0.000091630889796   0.000080382921481   0.000223122919044 1
force C   0.000068556943916   0.000089682280793   0.000064458419531 1
force C  -0.000133474540029  -0.000072038107260   0.000169898312962 1
force C   0.000195612452157  -0.000025400511568   0.000378690008336 1
force C   0.000005968981867  -0.000023399343899   0.000054124064363 1
force C   0.000108016801773   0.000001982452968   0.000056604789139 1
force C   0.000032742260621   0.000068422545611   0.000135310974870 1
force C   0.000027263860414   0.000040526236362   0.000115581473472 1
force C  -0.000005691815228  -0.000008051102103   0.000155485593906 1
force C  -0.000030075689565  -0.000160447407294   0.000085857395670 1
force C   0.000182338083804   0.000155594001090   0.000088924988440 1
force C  -0.000022932073225   0.000093691312436   0.000257890726429 1
force C   0.000044262481888  -0.000004603799835   0.000121336677686 1
force C   0.000029727311742   0.000029514450328   0.000100998234788 1
force C  -0.000026580996637   0.000024199236072   0.000091450872639 1
force C  -0.000152355627488   0.000088956442532   0.000210195608162 1
force C   0.000053802191156  -0.000101192662604   0.000138308949322 1
force C   0.000023496781849   0.000130489318639   0.000133883281066 1
force C  -0.000084110771360  -0.000030812739593   0.000232826395428 1
force C   0.000170979464122   0.000132158210137   0.000080573314617 1
force C  -0.000089210543409  -0.000134308637745  -0.000009571205128 1
force C   0.000054983886854   0.000109602952448   0.000279792236489 1
force C   0.000099366568628   0.000016583204746   0.000072573876379 1
force C   0.000039107487257   0.000143344604645   0.000081896104307 1
force C   0.000143040324477  -0.000094677478276   0.000230773826362 1
force C   0.000128954028173  -0.000061171320638   0.000203884813507 1
force C   0.000134062822740   0.000020992122932   0.000182280537143 1
force S   0.000037970875894   0.000047562785137   0.000191593220887 1
force S   0.000151539558906   0.000162894112734   0.000049448623133 1
force S  -0.000151986595869  -0.000099327134363   0.000071606209068 1
force S  -0.000029187975484   0.000002099032960   0.000185374663562 1
force Na   0.000206797087776   0.000016963451180  -0.000166334259659 1
force Na  -0.000274325525832  -0.000015144610754  -0.000038033338383 1

# Energy components:
   A_diel =       -0.0675776119544470
   Eewald =     3936.0909868955809543
       EH =     4371.9024649145385411
     Eloc =    -8893.4355079093711538
      Enl =      -78.6144346293689580
     EvdW =       -0.1206549333854422
      Exc =     -161.9424235993320735
 Exc_core =        9.4955894647492016
       KE =      268.8423148572726404
-------------------------------------
     Etot =     -547.8492425512710042
       TS =        0.0700825084713458
-------------------------------------
        F =     -547.9193250597423912

IonicMinimize: Iter:  31  F: -547.919325059742391  |grad|_K:  9.461e-05  alpha:  2.983e+00  linmin:  1.339e-02  t[s]:   2220.64
IonicMinimize: Converged (|grad|_K<1.000000e-04).

#--- Lowdin population analysis ---
# oxidation-state C +0.034 +0.034 +0.030 +0.035 +0.035 +0.032 +0.034 +0.034 +0.006 +0.036 +0.036 +0.019 +0.035 +0.035 +0.033 +0.037 +0.024 +0.033 +0.036 +0.033 +0.034 +0.037 +0.038 +0.020 +0.036 +0.036 +0.036 +0.028 +0.038 +0.038 +0.036 +0.030 +0.035 +0.037 +0.037 +0.038 +0.034 +0.033 +0.035 +0.032 +0.024 +0.036 +0.035 +0.023 +0.035 +0.034 +0.025 +0.037 +0.037 +0.017 +0.036 +0.034 +0.035 +0.031 +0.023 +0.036 +0.037 +0.036 +0.035 +0.038 +0.037 +0.035 +0.017 +0.033 +0.036 +0.035 +0.037 +0.036 +0.034 +0.038 +0.037 +0.036
# oxidation-state S -0.399 -0.002 -0.002 -0.398
# oxidation-state Na +0.864 +0.865


Dumping 'Na2S4@graphene_vdw-glyme.fillings' ... done
Dumping 'Na2S4@graphene_vdw-glyme.wfns' ... done
Dumping 'Na2S4@graphene_vdw-glyme.fluidState' ... done
Dumping 'Na2S4@graphene_vdw-glyme.ionpos' ... done
Dumping 'Na2S4@graphene_vdw-glyme.eigenvals' ... done
End date and time: Fri Jan  3 16:11:35 2025  (Duration: 0-0:37:02.27)
Done!
