
*************** JDFTx 1.7.0  ***************

Start date and time: Fri Jan  3 15:34:33 2025
Executable jdftx_gpu with command-line: -i /home/akim2/JDFTx/Na2S4@graphene_vdw-PC/Na2S4@graphene_vdw-PC.in -o /home/akim2/JDFTx/Na2S4@graphene_vdw-PC/Na2S4@graphene_vdw-PC.out
Running on hosts (process indices):  exp-6-60 (0)
Divided in process groups (process indices):  0 (0)
gpuInit: Found compatible cuda device 0 'Tesla V100-SXM2-32GB'
gpuInit: Selected device 0
Resource initialization completed at t[s]:      0.92
Run totals: 1 processes, 1 threads, 1 GPUs


Input parsed successfully to the following command list (including defaults):

basis kpoint-dependent
coords-type Cartesian
core-overlap-check vector
coulomb-interaction Slab 001
coulomb-truncation-embed 0 0 14.173
davidson-band-ratio 1.1
dump End State
dump-name Na2S4@graphene_vdw-PC.$VAR
elec-cutoff 20 100
elec-eigen-algo Davidson
elec-ex-corr gga-PBE
elec-smearing Fermi 0.01
electronic-minimize  \
	dirUpdateScheme      FletcherReeves \
	linminMethod         DirUpdateRecommended \
	nIterations          100 \
	history              15 \
	knormThreshold       0 \
	energyDiffThreshold  1e-08 \
	nEnergyDiff          2 \
	alphaTstart          1 \
	alphaTmin            1e-10 \
	updateTestStepSize   yes \
	alphaTreduceFactor   0.1 \
	alphaTincreaseFactor 3 \
	nAlphaAdjustMax      3 \
	wolfeEnergy          0.0001 \
	wolfeGradient        0.9 \
	fdTest               no
exchange-regularization WignerSeitzTruncated
fluid LinearPCM 298.000000 1.013250
fluid-ex-corr lda-TF lda-PZ
fluid-gummel-loop 10 1.000000e-05
fluid-minimize  \
	dirUpdateScheme      PolakRibiere \
	linminMethod         DirUpdateRecommended \
	nIterations          400 \
	history              15 \
	knormThreshold       1e-11 \
	energyDiffThreshold  0 \
	nEnergyDiff          2 \
	alphaTstart          1 \
	alphaTmin            1e-10 \
	updateTestStepSize   yes \
	alphaTreduceFactor   0.1 \
	alphaTincreaseFactor 3 \
	nAlphaAdjustMax      6 \
	wolfeEnergy          0.0001 \
	wolfeGradient        0.9 \
	fdTest               no
fluid-solvent PC 11.6429 ScalarEOS \
	epsBulk 64 \
	pMol 2.95 \
	epsInf 2.02 \
	Pvap 1.53277e-13 \
	sigmaBulk 2.88e-05 \
	Rvdw 0 \
	Res 0 \
	tauNuc 343133
forces-output-coords Positions
ion C  28.002971165896351  -0.005669888928994  14.126281811595085 1
ion C  16.335697565654762  20.206808884037493  14.120988568190668 1
ion C   2.329986959364466   4.033447887776432  14.114030925786279 1
ion C  23.334998159986984  -0.004984833570236  14.112070505081522 1
ion C   4.666161403276635  -0.006327597362961  14.113551595444463 1
ion C  11.666823080855989  20.210084343634787  14.114930073300609 1
ion C  25.667887279408539   4.035906122976681  14.118112836715115 1
ion C  18.670649416641979  16.163178246804605  14.109011904150144 1
ion C   4.665269041193969   8.077478209530167  14.051625823264210 1
ion C  18.667535689661861  -0.005238763230463  14.095116637248466 1
ion C   9.334824875776629  -0.006889722778106  14.088714841054401 1
ion C   9.330685483240572  16.168372015872468  14.052098326326352 1
ion C  23.334378944332702   8.078585746254797  14.108014189314080 1
ion C  21.002988695218374  12.120559168845876  14.103838944629354 1
ion C   6.995829121054020  12.122293440396598  13.991742414501411 1
ion C  14.001085787460124  -0.006122683167330  14.082809548978299 1
ion C  14.004158646542896  16.164708913994151  14.096758372790346 1
ion C   7.002582339988493   4.033076716385350  14.071600683779947 1
ion C  21.001224956020629   4.036163481326343  14.104196652172863 1
ion C  16.338924087582505  12.118443592324921  14.085354609790606 1
ion C   9.337943915255481   8.074918450820750  14.006178651165866 1
ion C  16.335117753319956   4.035446702176966  14.080016383313570 1
ion C  11.668938404711268   4.035017828625628  14.053169922360651 1
ion C  11.670410310156530  12.116919185944251  14.025352676852338 1
ion C  18.668864366582945   8.077658090113617  14.091890223609260 1
ion C   6.997116795121912  20.207992087599010  14.082980525313502 1
ion C  -7.002530605600277  20.205566393191031  14.107642228532729 1
ion C  -0.006887473974489   8.078415564969223  14.100616648194547 1
ion C  14.003410124856142   8.075609625122571  14.047876027211910 1
ion C   2.330973676559225  20.206371164226542  14.075518159667446 1
ion C  -4.668914586211762  16.163494261797481  14.099679421452509 1
ion C   2.328493803456094  12.125974498971106  14.046153625447062 1
ion C  -2.337259363572545  12.122475464499828  14.093713754643714 1
ion C  -2.335525034552072  20.205810312177206  14.091895390125281 1
ion C   4.662561991437309  16.166257236764835  14.038562030386569 1
ion C  -0.003327584702685  16.165075997514574  14.070504035669385 1
ion C  14.001574567021031  21.554366164296969  14.125350070176005 1
ion C   2.331695591998793   1.339268258613245  14.122224563822060 1
ion C  25.668937731425601   1.341091736169032  14.120030289017230 1
ion C  16.338199464284791  17.512311649471442  14.113979986692261 1
ion C   4.666211750715571   5.377194079472979  14.085887303811887 1
ion C  21.000999020898767   1.341855923832942  14.104741776450721 1
ion C   7.000780692251607   1.338948486476615  14.093030291480520 1
ion C  11.668712346619593  17.515000376010676  14.092254137777132 1
ion C  23.334650080435843   5.383851712225790  14.110207944241075 1
ion C  18.670476286102364  13.468095717315547  14.101630738227160 1
ion C   7.003797193675875   9.426274896209923  13.998135933612938 1
ion C  16.334364377386432   1.341389362230010  14.086890396458967 1
ion C  11.667761139433340   1.340534483354972  14.074677721743207 1
ion C   9.332600524437261  13.468415048790009  14.011293792889667 1
ion C  21.001408325955431   9.426037298518031  14.102987929893283 1
ion C   9.332111829049083  21.554794163897260  14.105176637491521 1
ion C  -9.336209559413589  21.552881430322131  14.115185299960455 1
ion C  -0.004498295622494   5.382453356248921  14.114145549756723 1
ion C  14.005292180533582  13.467315401112499  14.070451605594691 1
ion C   9.336258998047406   5.381233865112956  14.037332779004391 1
ion C  18.668136330742438   5.383147649243985  14.091452765761330 1
ion C  16.336436095864684   9.424237252411553  14.074566283157901 1
ion C  11.670609338978096   9.420674377417248  14.017940047090098 1
ion C  14.002073745578340   5.381956557090382  14.056539064377912 1
ion C   4.663622894877529  21.554207181614967  14.083700183207897 1
ion C  -7.002402171522069  17.511081854270302  14.107502649959731 1
ion C   2.326480830229192   9.429226267751634  14.068257102292980 1
ion C  -2.339364220466333   9.427381648406010  14.102541904491217 1
ion C  -4.668827383866290  21.552639863358607  14.098279458724281 1
ion C   6.994615361500145  17.514781762590182  14.056336394803566 1
ion C  -0.002746516585798  21.553179117206646  14.085079174702956 1
ion C  -4.669950093233260  13.469329926345436  14.101293910259688 1
ion C   4.662613110753351  13.472063010531985  14.014831054836174 1
ion C   2.329945985723464  17.512342021448493  14.059499315708665 1
ion C  -2.336447179307112  17.511526966982647  14.088185367838475 1
ion C  -0.005269628567452  13.471733512533687  14.071019297666886 1
ion S   5.109404521625473  14.032936543786040  20.793265729936181 1
ion S   7.016215535737645  13.329369512985220  24.101926727962081 1
ion S   8.352765491018740   9.549835085109326  24.095053789924926 1
ion S  10.252826380526361   8.859135406403006  20.780513932967285 1
ion Na   5.189264258525802   8.965463909588923  19.497812479071364 1
ion Na  10.165771992499291  13.930489736205127  19.492782794976687 1
ion-species GBRV/$ID_pbe.uspp
ion-width Ecut
ionic-minimize  \
	dirUpdateScheme      FletcherReeves \
	linminMethod         DirUpdateRecommended \
	nIterations          200 \
	history              15 \
	knormThreshold       0.0001 \
	energyDiffThreshold  1e-06 \
	nEnergyDiff          2 \
	alphaTstart          1 \
	alphaTmin            1e-10 \
	updateTestStepSize   yes \
	alphaTreduceFactor   0.1 \
	alphaTincreaseFactor 3 \
	nAlphaAdjustMax      3 \
	wolfeEnergy          0.0001 \
	wolfeGradient        0.9 \
	fdTest               no
kpoint   0.000000000000   0.000000000000   0.000000000000  1.00000000000000
kpoint-folding 1 1 1 
latt-move-scale 1 1 1
latt-scale 1 1 1 
lattice Triclinic 28.0058 28.0058 32.1253 90 90 120
lattice-minimize  \
	dirUpdateScheme      L-BFGS \
	linminMethod         DirUpdateRecommended \
	nIterations          0 \
	history              15 \
	knormThreshold       0 \
	energyDiffThreshold  1e-06 \
	nEnergyDiff          2 \
	alphaTstart          1 \
	alphaTmin            1e-10 \
	updateTestStepSize   yes \
	alphaTreduceFactor   0.1 \
	alphaTincreaseFactor 3 \
	nAlphaAdjustMax      3 \
	wolfeEnergy          0.0001 \
	wolfeGradient        0.9 \
	fdTest               no
lcao-params -1 1e-06 0.01
pcm-variant GLSSA13
spintype no-spin
subspace-rotation-factor 1 yes
symmetries automatic
symmetry-threshold 0.0001
van-der-waals D3



---------- Setting up symmetries ----------

Found 24 point-group symmetries of the bravais lattice
Found 1 space-group symmetries with basis
Applied RMS atom displacement 0 bohrs to make symmetries exact.

---------- Initializing the Grid ----------
R = 
[      28.0058     -14.0029            0  ]
[            0      24.2537            0  ]
[            0            0      32.1253  ]
unit cell volume = 21821
G =
[   0.224353    0.12953         -0  ]
[          0   0.259061          0  ]
[          0         -0   0.195584  ]
Minimum fftbox size, Smin = [  128  128  148  ]
Chosen fftbox size, S = [  128  128  150  ]

---------- Initializing tighter grid for wavefunction operations ----------
R = 
[      28.0058     -14.0029            0  ]
[            0      24.2537            0  ]
[            0            0      32.1253  ]
unit cell volume = 21821
G =
[   0.224353    0.12953         -0  ]
[          0   0.259061          0  ]
[          0         -0   0.195584  ]
Minimum fftbox size, Smin = [  116  116  132  ]
Chosen fftbox size, S = [  120  120  140  ]

---------- Exchange Correlation functional ----------
Initalized PBE GGA exchange.
Initalized PBE GGA correlation.

---------- Setting up pseudopotentials ----------
Width of ionic core gaussian charges (only for fluid interactions / plotting) set to 0.397384

Reading pseudopotential file '/home/akim2/jdftx_install/build/pseudopotentials/GBRV/c_pbe.uspp':
  Title: C.  Created by USPP 7.3.6 on 3-2-2014
  Reference state energy: -5.406344.  4 valence electrons in orbitals:
    |200>  occupation: 2  eigenvalue: -0.504890
    |210>  occupation: 2  eigenvalue: -0.194356
  lMax: 1  lLocal: 2  QijEcut: 5
  4 projectors sampled on a log grid with 503 points:
    l: 0  eig: -0.504890  rCut: 1.3
    l: 0  eig: 0.000000  rCut: 1.3
    l: 1  eig: -0.194357  rCut: 1.3
    l: 1  eig: 0.000000  rCut: 1.3
  Partial core density with radius 1.1
  Transforming core density to a uniform radial grid of dG=0.02 with 1618 points.
  Transforming local potential to a uniform radial grid of dG=0.02 with 1618 points.
  Transforming nonlocal projectors to a uniform radial grid of dG=0.02 with 432 points.
  Transforming density augmentations to a uniform radial grid of dG=0.02 with 1618 points.
  Transforming atomic orbitals to a uniform radial grid of dG=0.02 with 432 points.
  Core radius for overlap checks: 1.30 bohrs.

Reading pseudopotential file '/home/akim2/jdftx_install/build/pseudopotentials/GBRV/s_pbe.uspp':
  Title: S.  Created by USPP 7.3.6 on 1-4-15
  Reference state energy: -11.898476.  6 valence electrons in orbitals:
    |300>  occupation: 2  eigenvalue: -0.634167
    |310>  occupation: 4  eigenvalue: -0.257568
  lMax: 2  lLocal: 3  QijEcut: 6
  6 projectors sampled on a log grid with 635 points:
    l: 0  eig: -0.634161  rCut: 1.5
    l: 0  eig: 1.500000  rCut: 1.5
    l: 1  eig: -0.257567  rCut: 1.5
    l: 1  eig: 1.500000  rCut: 1.5
    l: 2  eig: -1.000000  rCut: 1.5
    l: 2  eig: 1.500000  rCut: 1.5
  Partial core density with radius 1.15
  Transforming core density to a uniform radial grid of dG=0.02 with 1618 points.
  Transforming local potential to a uniform radial grid of dG=0.02 with 1618 points.
  Transforming nonlocal projectors to a uniform radial grid of dG=0.02 with 432 points.
  Transforming density augmentations to a uniform radial grid of dG=0.02 with 1618 points.
  Transforming atomic orbitals to a uniform radial grid of dG=0.02 with 432 points.
  Core radius for overlap checks: 1.50 bohrs.

Reading pseudopotential file '/home/akim2/jdftx_install/build/pseudopotentials/GBRV/na_pbe.uspp':
  Title: Na.  Created by USPP 7.3.6 on 23-9-15
  Reference state energy: -47.625620.  9 valence electrons in orbitals:
    |200>  occupation: 2  eigenvalue: -2.085638
    |210>  occupation: 6  eigenvalue: -1.053708
    |300>  occupation: 1  eigenvalue: -0.100838
  lMax: 2  lLocal: 0  QijEcut: 6
  5 projectors sampled on a log grid with 657 points:
    l: 0  eig: -2.085640  rCut: 1.37
    l: 0  eig: -0.100839  rCut: 1.37
    l: 1  eig: -1.053708  rCut: 1.47
    l: 1  eig: 0.500000  rCut: 1.47
    l: 2  eig: 0.750000  rCut: 2
  Transforming local potential to a uniform radial grid of dG=0.02 with 1618 points.
  Transforming nonlocal projectors to a uniform radial grid of dG=0.02 with 432 points.
  Transforming density augmentations to a uniform radial grid of dG=0.02 with 1618 points.
  Transforming atomic orbitals to a uniform radial grid of dG=0.02 with 432 points.
  Core radius for overlap checks: 2.00 bohrs.

Initialized 3 species with 78 total atoms.

Folded 1 k-points by 1x1x1 to 1 k-points.

---------- Setting up k-points, bands, fillings ----------
No reducable k-points. 
Computing the number of bands and number of electrons
Calculating initial fillings.
nElectrons: 330.000000   nBands: 314   nStates: 1

----- Setting up reduced wavefunction bases (one per k-point) -----
average nbasis = 93173.000 , ideal nbasis = 93220.781

---------- Setting up coulomb interaction ----------
Fluid mode embedding: using embedded box, but periodic Coulomb kernel.
(Fluid response is responsible for (approximate) separation between periodic images.)
Setting up double-sized grid for truncated Coulomb potentials:
R = 
[      28.0058     -14.0029            0  ]
[            0      24.2537            0  ]
[            0            0      64.2506  ]
unit cell volume = 43641.9
G =
[   0.224353    0.12953         -0  ]
[          0   0.259061          0  ]
[          0         -0  0.0977919  ]
Chosen fftbox size, S = [  128  128  300  ]
Integer grid location selected as the embedding center:
   Grid: [  0  0  66  ]
   Lattice: [  0  0  0.441178  ]
   Cartesian: [  0  0  14.173  ]
Constructing Wigner-Seitz cell: 8 faces (6 quadrilaterals, 2 hexagons)
Range-separation parameter for embedded mesh potentials due to point charges: 0.590105 bohrs.

Initializing DFT-D3 calculator:
	Parameters set for gga-PBE functional
	s6:  1.000  s_r6:  1.217
	s8:  0.722  s_r8:  1.000
	Per-atom parameters loaded for:
	 C:  sqrtQ[a0]:  3.105  Rcov[a0]:  1.417  CN: [ 0.00 0.99 2.00 3.00 3.98 ]
	 S:  sqrtQ[a0]:  4.041  Rcov[a0]:  1.928  CN: [ 0.00 0.99 1.99 ]
	Na:  sqrtQ[a0]:  6.586  Rcov[a0]:  2.646  CN: [ 0.00 0.97 ]

---------- Setting up ewald sum ----------
Optimum gaussian width for ewald sums = 6.795095 bohr.
Real space sum over 567 unit cells with max indices [  4  4  3  ]
Reciprocal space sum over 9537 terms with max indices [  8  8  16  ]

Computing DFT-D3 correction:
# coordination-number C 3.301 3.300 3.306 3.301 3.300 3.303 3.300 3.300 3.708 3.301 3.301 3.494 3.300 3.301 3.407 3.301 3.324 3.310 3.300 3.303 3.336 3.301 3.302 3.491 3.301 3.302 3.300 3.309 3.304 3.301 3.300 3.331 3.301 3.301 3.310 3.302 3.301 3.301 3.300 3.301 3.361 3.300 3.301 3.346 3.300 3.301 3.560 3.301 3.301 3.698 3.301 3.301 3.300 3.302 3.346 3.310 3.301 3.302 3.323 3.302 3.301 3.300 3.425 3.301 3.301 3.318 3.301 3.301 3.332 3.303 3.301 3.303
# coordination-number S 2.930 3.051 3.050 2.930
# coordination-number Na 4.469 4.455
# diagonal-C6 C 24.28 24.28 24.23 24.28 24.28 24.26 24.28 24.28 19.25 24.28 24.28 21.73 24.28 24.28 23.01 24.28 24.04 24.18 24.28 24.25 23.90 24.27 24.26 21.77 24.27 24.26 24.28 24.19 24.24 24.27 24.28 23.96 24.27 24.28 24.19 24.26 24.28 24.27 24.28 24.27 23.62 24.28 24.27 23.79 24.28 24.28 20.79 24.28 24.27 19.32 24.28 24.27 24.28 24.26 23.79 24.19 24.28 24.26 24.05 24.26 24.27 24.28 22.75 24.27 24.28 24.10 24.28 24.28 23.96 24.26 24.27 24.25
# diagonal-C6 S 125.81 125.81 125.81 125.81
# diagonal-C6 Na 186.11 186.11
EvdW_6 =   -0.063451
EvdW_8 =   -0.056205

---------- Allocating electronic variables ----------
Initializing wave functions:  linear combination of atomic orbitals
C pseudo-atom occupations:   s ( 2 )  p ( 2 )
S pseudo-atom occupations:   s ( 2 )  p ( 4 )
Na pseudo-atom occupations:   s ( 2 1 )  p ( 6 )
	FillingsUpdate:  mu: -0.142849814  nElectrons: 330.000000
LCAOMinimize: Iter:   0  F: -542.3701045678651553  |grad|_K:  1.149e-02  alpha:  1.000e+00
LCAOMinimize: 	Step increased F by 4.016046e-03, reducing alpha to 2.509868e-02.
	FillingsUpdate:  mu: -0.172978867  nElectrons: 330.000000
LCAOMinimize: Iter:   1  F: -542.7232583029990565  |grad|_K:  1.091e-02  alpha:  2.510e-02  linmin: -1.179e-01  cgtest:  8.450e-01  t[s]:     10.74
LCAOMinimize: 	Predicted alpha/alphaT>3.000000, increasing alphaT to 7.529603e-02.
	FillingsUpdate:  mu: -0.194870677  nElectrons: 330.000000
LCAOMinimize: Iter:   2  F: -543.3018355449817136  |grad|_K:  3.296e-03  alpha:  1.059e-01  linmin:  1.075e-01  cgtest: -1.027e+00  t[s]:     12.66
LCAOMinimize: 	Bad step direction: g.d > 0.
LCAOMinimize: 	Undoing step.
LCAOMinimize: 	Step failed: resetting search direction.
	FillingsUpdate:  mu: -0.194870677  nElectrons: 330.000000
LCAOMinimize: Iter:   3  F: -543.3018355449817136  |grad|_K:  3.296e-03  alpha:  0.000e+00
LCAOMinimize: 	Step increased F by 1.815305e-02, reducing alpha to 1.844507e-02.
	FillingsUpdate:  mu: -0.191555420  nElectrons: 330.000000
LCAOMinimize: Iter:   4  F: -543.3221251955847038  |grad|_K:  3.108e-03  alpha:  1.845e-02  linmin: -2.621e-01  cgtest:  9.162e-01  t[s]:     23.25
LCAOMinimize: 	Predicted alpha/alphaT>3.000000, increasing alphaT to 5.533520e-02.
LCAOMinimize: 	Predicted alpha/alphaT>3.000000, increasing alphaT to 1.660056e-01.
	FillingsUpdate:  mu: -0.221331324  nElectrons: 330.000000
LCAOMinimize: Iter:   5  F: -543.3830963247680756  |grad|_K:  7.387e-04  alpha:  8.481e-02  linmin: -2.773e-01  cgtest:  5.135e-01  t[s]:     27.56
LCAOMinimize: Encountered beta<0, resetting CG.
	FillingsUpdate:  mu: -0.225175598  nElectrons: 330.000000
LCAOMinimize: Iter:   6  F: -543.3883978345289734  |grad|_K:  7.129e-04  alpha:  2.156e-01  linmin:  2.448e-02  cgtest: -1.221e-01  t[s]:     29.04
	FillingsUpdate:  mu: -0.227238434  nElectrons: 330.000000
LCAOMinimize: Iter:   7  F: -543.3912254303904774  |grad|_K:  4.452e-04  alpha:  1.380e-01  linmin: -1.539e-04  cgtest:  6.069e-01  t[s]:     31.10
	FillingsUpdate:  mu: -0.225147496  nElectrons: 330.000000
LCAOMinimize: Iter:   8  F: -543.3927356930682890  |grad|_K:  2.888e-04  alpha:  1.526e-01  linmin: -9.047e-03  cgtest:  3.372e-02  t[s]:     32.57
	FillingsUpdate:  mu: -0.225022709  nElectrons: 330.000000
LCAOMinimize: Iter:   9  F: -543.3934087917238003  |grad|_K:  1.373e-04  alpha:  1.571e-01  linmin:  7.635e-03  cgtest: -1.472e-01  t[s]:     34.04
	FillingsUpdate:  mu: -0.224522248  nElectrons: 330.000000
LCAOMinimize: Iter:  10  F: -543.3938104642298867  |grad|_K:  8.059e-05  alpha:  4.479e-01  linmin:  2.158e-03  cgtest:  1.919e-01  t[s]:     35.52
	FillingsUpdate:  mu: -0.224939697  nElectrons: 330.000000
LCAOMinimize: Iter:  11  F: -543.3938683772430522  |grad|_K:  4.101e-05  alpha:  1.783e-01  linmin: -2.476e-03  cgtest:  5.226e-02  t[s]:     37.01
	FillingsUpdate:  mu: -0.224932350  nElectrons: 330.000000
LCAOMinimize: Iter:  12  F: -543.3938780195361460  |grad|_K:  1.264e-05  alpha:  1.145e-01  linmin:  8.106e-05  cgtest: -4.401e-02  t[s]:     38.48
	FillingsUpdate:  mu: -0.224985702  nElectrons: 330.000000
LCAOMinimize: Iter:  13  F: -543.3938806143679585  |grad|_K:  1.019e-05  alpha:  3.278e-01  linmin:  1.972e-04  cgtest:  3.718e-03  t[s]:     39.95
	FillingsUpdate:  mu: -0.224973191  nElectrons: 330.000000
LCAOMinimize: Iter:  14  F: -543.3938818410665590  |grad|_K:  7.593e-06  alpha:  2.384e-01  linmin: -3.992e-05  cgtest:  1.344e-03  t[s]:     41.43
	FillingsUpdate:  mu: -0.224993631  nElectrons: 330.000000
LCAOMinimize: Iter:  15  F: -543.3938822593187297  |grad|_K:  2.067e-06  alpha:  1.462e-01  linmin: -2.209e-05  cgtest: -2.232e-03  t[s]:     42.90
	FillingsUpdate:  mu: -0.224991562  nElectrons: 330.000000
LCAOMinimize: Iter:  16  F: -543.3938822889264202  |grad|_K:  9.277e-07  alpha:  1.397e-01  linmin: -2.573e-04  cgtest:  1.136e-03  t[s]:     44.36
LCAOMinimize: Converged (|Delta F|<1.000000e-06 for 2 iters).
----- createFluidSolver() ----- (Fluid-side solver setup)
   Initializing fluid molecule 'PC'
     Net charge: 0   dipole magnitude: 0
     Initializing spherical shell mfKernel with radius 0 Bohr
     deltaS corrections:

Correction to mu due to finite nuclear width = -0.00750257
   Cavity determined by nc: 0.00098 and sigma: 0.6
   Effective cavity tension: 9.53e-06 Eh/bohr^2 to account for cavitation and dispersion.


---- Citations for features of the code used in this run ----

   Software package:
      R. Sundararaman, K. Letchworth-Weaver, K.A. Schwarz, D. Gunceler, Y. Ozhabes and T.A. Arias, 'JDFTx: software for joint density-functional theory', SoftwareX 6, 278 (2017)

   gga-PBE exchange-correlation functional:
      J.P. Perdew, K. Burke and M. Ernzerhof, Phys. Rev. Lett. 77, 3865 (1996)

   Pseudopotentials:
      KF Garrity, JW Bennett, KM Rabe and D Vanderbilt, Comput. Mater. Sci. 81, 446 (2014)

   Truncated Coulomb potentials:
      R. Sundararaman and T.A. Arias, Phys. Rev. B 87, 165122 (2013)

   DFT-D3 dispersion correction:
      S. Grimme, J. Antony, S. Ehrlich and H. Krieg, J. Chem. Phys. 132, 154104 (2010)

   Linear/nonlinear dielectric/ionic fluid model with effective cavity tension:
      D. Gunceler, K. Letchworth-Weaver, R. Sundararaman, K.A. Schwarz and T.A. Arias, Modelling Simul. Mater. Sci. Eng. 21, 074005 (2013)

   Total energy minimization with Auxiliary Hamiltonian:
      C. Freysoldt, S. Boeck, and J. Neugebauer, Phys. Rev. B 79, 241103(R) (2009)

This list may not be complete. Please suggest additional citations or
report any other bugs at https://github.com/shankar1729/jdftx/issues

Initialization completed successfully at t[s]:     44.52


Computing DFT-D3 correction:
# coordination-number C 3.301 3.300 3.306 3.301 3.300 3.303 3.300 3.300 3.708 3.301 3.301 3.494 3.300 3.301 3.407 3.301 3.324 3.310 3.300 3.303 3.336 3.301 3.302 3.491 3.301 3.302 3.300 3.309 3.304 3.301 3.300 3.331 3.301 3.301 3.310 3.302 3.301 3.301 3.300 3.301 3.361 3.300 3.301 3.346 3.300 3.301 3.560 3.301 3.301 3.698 3.301 3.301 3.300 3.302 3.346 3.310 3.301 3.302 3.323 3.302 3.301 3.300 3.425 3.301 3.301 3.318 3.301 3.301 3.332 3.303 3.301 3.303
# coordination-number S 2.930 3.051 3.050 2.930
# coordination-number Na 4.469 4.455
# diagonal-C6 C 24.28 24.28 24.23 24.28 24.28 24.26 24.28 24.28 19.25 24.28 24.28 21.73 24.28 24.28 23.01 24.28 24.04 24.18 24.28 24.25 23.90 24.27 24.26 21.77 24.27 24.26 24.28 24.19 24.24 24.27 24.28 23.96 24.27 24.28 24.19 24.26 24.28 24.27 24.28 24.27 23.62 24.28 24.27 23.79 24.28 24.28 20.79 24.28 24.27 19.32 24.28 24.27 24.28 24.26 23.79 24.19 24.28 24.26 24.05 24.26 24.27 24.28 22.75 24.27 24.28 24.10 24.28 24.28 23.96 24.26 24.27 24.25
# diagonal-C6 S 125.81 125.81 125.81 125.81
# diagonal-C6 Na 186.11 186.11
EvdW_6 =   -0.063451
EvdW_8 =   -0.056205
Fluid solver invoked on fresh (random / LCAO) wavefunctions
Running a vacuum solve first:

-------- Initial electronic minimization -----------
	FillingsUpdate:  mu: -0.224991562  nElectrons: 330.000000
ElecMinimize: Iter:   0  F: -543.393882288928921  |grad|_K:  4.410e-04  alpha:  1.000e+00
	FillingsUpdate:  mu: -0.093435111  nElectrons: 330.000000
	SubspaceRotationAdjust: set factor to 1
ElecMinimize: Iter:   1  F: -547.453862607899737  |grad|_K:  1.530e-04  alpha:  7.212e-01  linmin: -1.159e-04  t[s]:     50.25
	FillingsUpdate:  mu: -0.077867691  nElectrons: 330.000000
	SubspaceRotationAdjust: set factor to 0.916
ElecMinimize: Iter:   2  F: -547.679799232919891  |grad|_K:  8.980e-05  alpha:  4.796e-01  linmin: -7.702e-04  t[s]:     52.15
	FillingsUpdate:  mu: -0.085332157  nElectrons: 330.000000
	SubspaceRotationAdjust: set factor to 0.853
ElecMinimize: Iter:   3  F: -547.746703224142379  |grad|_K:  7.610e-05  alpha:  1.265e-01  linmin: -3.343e-03  t[s]:     54.10
	FillingsUpdate:  mu: -0.098572771  nElectrons: 330.000000
	SubspaceRotationAdjust: set factor to 0.396
ElecMinimize: Iter:   4  F: -547.795457138545089  |grad|_K:  6.862e-05  alpha:  1.137e-01  linmin:  3.358e-03  t[s]:     56.01
ElecMinimize: 	Bad step direction: g.d > 0.
ElecMinimize: 	Undoing step.
ElecMinimize: 	Step failed: resetting search direction.
	FillingsUpdate:  mu: -0.098572771  nElectrons: 330.000000
	SubspaceRotationAdjust: set factor to 0.402
ElecMinimize: Iter:   5  F: -547.795457138545316  |grad|_K:  5.480e-05  alpha:  0.000e+00
ElecMinimize: 	Predicted alpha/alphaT>3.000000, increasing alphaT to 3.410122e-01.
	FillingsUpdate:  mu: -0.108597032  nElectrons: 330.000000
	SubspaceRotationAdjust: set factor to 0.266
ElecMinimize: Iter:   6  F: -547.830175170195616  |grad|_K:  3.290e-05  alpha:  3.853e-01  linmin: -1.302e-03  t[s]:     59.81
	FillingsUpdate:  mu: -0.111679202  nElectrons: 330.000000
	SubspaceRotationAdjust: set factor to 0.199
ElecMinimize: Iter:   7  F: -547.865371949749033  |grad|_K:  1.873e-05  alpha:  9.960e-01  linmin:  1.879e-04  t[s]:     61.78
	FillingsUpdate:  mu: -0.109979430  nElectrons: 330.000000
	SubspaceRotationAdjust: set factor to 0.228
ElecMinimize: Iter:   8  F: -547.874886962325263  |grad|_K:  8.202e-06  alpha:  9.525e-01  linmin: -5.249e-06  t[s]:     63.69
	FillingsUpdate:  mu: -0.109708330  nElectrons: 330.000000
	SubspaceRotationAdjust: set factor to 0.242
ElecMinimize: Iter:   9  F: -547.876124690183929  |grad|_K:  6.577e-06  alpha:  6.276e-01  linmin:  5.641e-06  t[s]:     65.65
	FillingsUpdate:  mu: -0.110019757  nElectrons: 330.000000
	SubspaceRotationAdjust: set factor to 0.264
ElecMinimize: Iter:  10  F: -547.877009222126730  |grad|_K:  3.954e-06  alpha:  6.992e-01  linmin:  1.466e-05  t[s]:     67.56
	FillingsUpdate:  mu: -0.110556487  nElectrons: 330.000000
	SubspaceRotationAdjust: set factor to 0.286
ElecMinimize: Iter:  11  F: -547.877355961897365  |grad|_K:  3.050e-06  alpha:  7.622e-01  linmin:  7.988e-06  t[s]:     69.54
	FillingsUpdate:  mu: -0.110719133  nElectrons: 330.000000
	SubspaceRotationAdjust: set factor to 0.316
ElecMinimize: Iter:  12  F: -547.877520869634282  |grad|_K:  2.255e-06  alpha:  6.108e-01  linmin:  4.480e-06  t[s]:     71.45
	FillingsUpdate:  mu: -0.110687220  nElectrons: 330.000000
	SubspaceRotationAdjust: set factor to 0.351
ElecMinimize: Iter:  13  F: -547.877607195939959  |grad|_K:  1.646e-06  alpha:  5.854e-01  linmin:  3.231e-06  t[s]:     73.42
	FillingsUpdate:  mu: -0.110660653  nElectrons: 330.000000
	SubspaceRotationAdjust: set factor to 0.405
ElecMinimize: Iter:  14  F: -547.877657618941271  |grad|_K:  9.078e-07  alpha:  6.437e-01  linmin:  3.653e-06  t[s]:     75.32
	FillingsUpdate:  mu: -0.110637677  nElectrons: 330.000000
	SubspaceRotationAdjust: set factor to 0.463
ElecMinimize: Iter:  15  F: -547.877679045972400  |grad|_K:  6.205e-07  alpha:  9.073e-01  linmin:  2.427e-06  t[s]:     77.27
	FillingsUpdate:  mu: -0.110638315  nElectrons: 330.000000
	SubspaceRotationAdjust: set factor to 0.52
ElecMinimize: Iter:  16  F: -547.877686021102249  |grad|_K:  5.323e-07  alpha:  6.287e-01  linmin:  1.824e-07  t[s]:     79.19
	FillingsUpdate:  mu: -0.110647099  nElectrons: 330.000000
	SubspaceRotationAdjust: set factor to 0.642
ElecMinimize: Iter:  17  F: -547.877690038850005  |grad|_K:  3.119e-07  alpha:  4.800e-01  linmin:  6.386e-07  t[s]:     81.15
	FillingsUpdate:  mu: -0.110652321  nElectrons: 330.000000
	SubspaceRotationAdjust: set factor to 0.796
ElecMinimize: Iter:  18  F: -547.877692148625442  |grad|_K:  2.693e-07  alpha:  7.660e-01  linmin:  1.582e-06  t[s]:     83.07
	FillingsUpdate:  mu: -0.110645581  nElectrons: 330.000000
	SubspaceRotationAdjust: set factor to 0.766
ElecMinimize: Iter:  19  F: -547.877693014905049  |grad|_K:  2.180e-07  alpha:  3.708e-01  linmin: -2.781e-06  t[s]:     85.04
	FillingsUpdate:  mu: -0.110633803  nElectrons: 330.000000
	SubspaceRotationAdjust: set factor to 0.812
ElecMinimize: Iter:  20  F: -547.877693696806091  |grad|_K:  2.016e-07  alpha:  4.497e-01  linmin:  1.828e-06  t[s]:     86.95
	FillingsUpdate:  mu: -0.110630018  nElectrons: 330.000000
	SubspaceRotationAdjust: set factor to 0.635
ElecMinimize: Iter:  21  F: -547.877693928749636  |grad|_K:  1.831e-07  alpha:  2.135e-01  linmin: -5.688e-07  t[s]:     88.91
	FillingsUpdate:  mu: -0.110628524  nElectrons: 330.000000
	SubspaceRotationAdjust: set factor to 0.542
ElecMinimize: Iter:  22  F: -547.877694168014159  |grad|_K:  1.513e-07  alpha:  2.321e-01  linmin:  1.483e-07  t[s]:     90.82
	FillingsUpdate:  mu: -0.110628973  nElectrons: 330.000000
	SubspaceRotationAdjust: set factor to 0.58
ElecMinimize: Iter:  23  F: -547.877694337161415  |grad|_K:  1.303e-07  alpha:  2.558e-01  linmin: -6.242e-08  t[s]:     92.80
	FillingsUpdate:  mu: -0.110629750  nElectrons: 330.000000
	SubspaceRotationAdjust: set factor to 0.512
ElecMinimize: Iter:  24  F: -547.877694458193560  |grad|_K:  1.078e-07  alpha:  2.414e-01  linmin: -9.952e-08  t[s]:     94.74
	FillingsUpdate:  mu: -0.110630099  nElectrons: 330.000000
	SubspaceRotationAdjust: set factor to 0.507
ElecMinimize: Iter:  25  F: -547.877694550721003  |grad|_K:  9.753e-08  alpha:  2.682e-01  linmin: -1.645e-07  t[s]:     96.72
	FillingsUpdate:  mu: -0.110630515  nElectrons: 330.000000
	SubspaceRotationAdjust: set factor to 0.517
ElecMinimize: Iter:  26  F: -547.877694647604585  |grad|_K:  8.945e-08  alpha:  3.385e-01  linmin: -1.223e-07  t[s]:     98.65
	FillingsUpdate:  mu: -0.110631740  nElectrons: 330.000000
	SubspaceRotationAdjust: set factor to 0.541
ElecMinimize: Iter:  27  F: -547.877694724601383  |grad|_K:  7.832e-08  alpha:  3.226e-01  linmin:  4.234e-08  t[s]:    100.62
	FillingsUpdate:  mu: -0.110633630  nElectrons: 330.000000
	SubspaceRotationAdjust: set factor to 0.655
ElecMinimize: Iter:  28  F: -547.877694782146250  |grad|_K:  7.102e-08  alpha:  3.222e-01  linmin:  4.488e-08  t[s]:    102.54
	FillingsUpdate:  mu: -0.110634934  nElectrons: 330.000000
	SubspaceRotationAdjust: set factor to 0.707
ElecMinimize: Iter:  29  F: -547.877694825429899  |grad|_K:  6.619e-08  alpha:  2.939e-01  linmin:  9.873e-08  t[s]:    104.52
	FillingsUpdate:  mu: -0.110634962  nElectrons: 330.000000
	SubspaceRotationAdjust: set factor to 0.688
ElecMinimize: Iter:  30  F: -547.877694857586221  |grad|_K:  6.322e-08  alpha:  2.524e-01  linmin:  8.821e-08  t[s]:    106.45
	FillingsUpdate:  mu: -0.110634257  nElectrons: 330.000000
	SubspaceRotationAdjust: set factor to 0.649
ElecMinimize: Iter:  31  F: -547.877694881414186  |grad|_K:  5.691e-08  alpha:  2.035e-01  linmin:  5.432e-08  t[s]:    108.44
	FillingsUpdate:  mu: -0.110633706  nElectrons: 330.000000
	SubspaceRotationAdjust: set factor to 0.613
ElecMinimize: Iter:  32  F: -547.877694896763501  |grad|_K:  5.123e-08  alpha:  1.609e-01  linmin:  2.861e-08  t[s]:    110.35
	FillingsUpdate:  mu: -0.110633499  nElectrons: 330.000000
	SubspaceRotationAdjust: set factor to 0.558
ElecMinimize: Iter:  33  F: -547.877694908198919  |grad|_K:  4.870e-08  alpha:  1.492e-01  linmin:  8.532e-08  t[s]:    112.32
	FillingsUpdate:  mu: -0.110633577  nElectrons: 330.000000
	SubspaceRotationAdjust: set factor to 0.486
ElecMinimize: Iter:  34  F: -547.877694916792166  |grad|_K:  4.698e-08  alpha:  1.244e-01  linmin:  7.377e-08  t[s]:    114.25
	FillingsUpdate:  mu: -0.110633763  nElectrons: 330.000000
	SubspaceRotationAdjust: set factor to 0.408
ElecMinimize: Iter:  35  F: -547.877694923227068  |grad|_K:  4.496e-08  alpha:  9.910e-02  linmin:  6.052e-08  t[s]:    116.23
ElecMinimize: Converged (|Delta F|<1.000000e-08 for 2 iters).
Setting wave functions to eigenvectors of Hamiltonian
Vacuum energy after initial minimize, F = -547.877694923227068


-------- Electronic minimization -----------
	Linear fluid (dielectric constant: 64) occupying 0.863981 of unit cell:	Completed after 42 iterations at t[s]:    117.09
	FillingsUpdate:  mu: -0.100316129  nElectrons: 330.000000
ElecMinimize: Iter:   0  F: -547.965372301596744  |grad|_K:  3.087e-05  alpha:  1.000e+00
	Linear fluid (dielectric constant: 64) occupying 0.863877 of unit cell:	Completed after 31 iterations at t[s]:    118.96
	Linear fluid (dielectric constant: 64) occupying 0.863882 of unit cell:	Completed after 14 iterations at t[s]:    119.82
	FillingsUpdate:  mu: -0.100244900  nElectrons: 330.000000
	SubspaceRotationAdjust: set factor to 0.592
ElecMinimize: Iter:   1  F: -547.991734196185575  |grad|_K:  2.037e-05  alpha:  9.457e-01  linmin: -1.485e-04  t[s]:    120.74
	Linear fluid (dielectric constant: 64) occupying 0.863628 of unit cell:	Completed after 21 iterations at t[s]:    121.59
	Linear fluid (dielectric constant: 64) occupying 0.863696 of unit cell:	Completed after 13 iterations at t[s]:    122.40
	FillingsUpdate:  mu: -0.100796609  nElectrons: 330.000000
	SubspaceRotationAdjust: set factor to 0.724
ElecMinimize: Iter:   2  F: -548.000673716715710  |grad|_K:  1.556e-05  alpha:  7.267e-01  linmin: -2.785e-05  t[s]:    123.30
	Linear fluid (dielectric constant: 64) occupying 0.863497 of unit cell:	Completed after 21 iterations at t[s]:    124.15
	Linear fluid (dielectric constant: 64) occupying 0.863559 of unit cell:	Completed after 14 iterations at t[s]:    124.99
	FillingsUpdate:  mu: -0.100900357  nElectrons: 330.000000
	SubspaceRotationAdjust: set factor to 0.915
ElecMinimize: Iter:   3  F: -548.004364322977608  |grad|_K:  8.426e-06  alpha:  5.200e-01  linmin: -1.289e-05  t[s]:    125.91
	Linear fluid (dielectric constant: 64) occupying 0.863512 of unit cell:	Completed after 13 iterations at t[s]:    126.68
	Linear fluid (dielectric constant: 64) occupying 0.863514 of unit cell:	Completed after 3 iterations at t[s]:    127.39
	FillingsUpdate:  mu: -0.100795391  nElectrons: 330.000000
	SubspaceRotationAdjust: set factor to 1.11
ElecMinimize: Iter:   4  F: -548.005407953008330  |grad|_K:  4.257e-06  alpha:  4.990e-01  linmin: -4.418e-06  t[s]:    128.25
	Linear fluid (dielectric constant: 64) occupying 0.863499 of unit cell:	Completed after 13 iterations at t[s]:    129.02
	Linear fluid (dielectric constant: 64) occupying 0.863499 of unit cell:	Completed after 0 iterations at t[s]:    129.72
	FillingsUpdate:  mu: -0.100793660  nElectrons: 330.000000
	SubspaceRotationAdjust: set factor to 1.15
ElecMinimize: Iter:   5  F: -548.005678331219087  |grad|_K:  1.965e-06  alpha:  5.076e-01  linmin: -4.145e-06  t[s]:    130.60
	Linear fluid (dielectric constant: 64) occupying 0.863492 of unit cell:	Completed after 8 iterations at t[s]:    131.32
	Linear fluid (dielectric constant: 64) occupying 0.863492 of unit cell:	Completed after 0 iterations at t[s]:    132.01
	FillingsUpdate:  mu: -0.100757869  nElectrons: 330.000000
	SubspaceRotationAdjust: set factor to 1.22
ElecMinimize: Iter:   6  F: -548.005739531292193  |grad|_K:  1.163e-06  alpha:  5.389e-01  linmin: -1.285e-07  t[s]:    133.47
	Linear fluid (dielectric constant: 64) occupying 0.863488 of unit cell:	Completed after 5 iterations at t[s]:    134.16
	Linear fluid (dielectric constant: 64) occupying 0.863487 of unit cell:	Completed after 3 iterations at t[s]:    134.86
	FillingsUpdate:  mu: -0.100754827  nElectrons: 330.000000
	SubspaceRotationAdjust: set factor to 1.4
ElecMinimize: Iter:   7  F: -548.005765961545194  |grad|_K:  6.385e-07  alpha:  6.683e-01  linmin:  2.089e-06  t[s]:    135.73
	Linear fluid (dielectric constant: 64) occupying 0.863489 of unit cell:	Completed after 5 iterations at t[s]:    136.42
	Linear fluid (dielectric constant: 64) occupying 0.863490 of unit cell:	Completed after 0 iterations at t[s]:    137.09
	FillingsUpdate:  mu: -0.100765617  nElectrons: 330.000000
	SubspaceRotationAdjust: set factor to 1.28
ElecMinimize: Iter:   8  F: -548.005775464984026  |grad|_K:  4.253e-07  alpha:  8.017e-01  linmin: -2.655e-06  t[s]:    137.94
	Linear fluid (dielectric constant: 64) occupying 0.863492 of unit cell:	Completed after 5 iterations at t[s]:    138.64
	Linear fluid (dielectric constant: 64) occupying 0.863491 of unit cell:	Completed after 2 iterations at t[s]:    139.33
	FillingsUpdate:  mu: -0.100751206  nElectrons: 330.000000
	SubspaceRotationAdjust: set factor to 0.95
ElecMinimize: Iter:   9  F: -548.005778251134075  |grad|_K:  2.872e-07  alpha:  5.096e-01  linmin:  6.323e-06  t[s]:    140.19
	Linear fluid (dielectric constant: 64) occupying 0.863490 of unit cell:	Completed after 3 iterations at t[s]:    140.87
	Linear fluid (dielectric constant: 64) occupying 0.863490 of unit cell:	Completed after 0 iterations at t[s]:    141.53
	FillingsUpdate:  mu: -0.100759599  nElectrons: 330.000000
	SubspaceRotationAdjust: set factor to 0.89
ElecMinimize: Iter:  10  F: -548.005779402489111  |grad|_K:  1.788e-07  alpha:  4.993e-01  linmin: -5.101e-06  t[s]:    142.38
	Linear fluid (dielectric constant: 64) occupying 0.863489 of unit cell:	Completed after 0 iterations at t[s]:    143.02
	Linear fluid (dielectric constant: 64) occupying 0.863488 of unit cell:	Completed after 2 iterations at t[s]:    143.68
	FillingsUpdate:  mu: -0.100765333  nElectrons: 330.000000
	SubspaceRotationAdjust: set factor to 0.869
ElecMinimize: Iter:  11  F: -548.005780031857057  |grad|_K:  1.307e-07  alpha:  8.496e-01  linmin:  1.627e-05  t[s]:    144.53
	Linear fluid (dielectric constant: 64) occupying 0.863487 of unit cell:	Completed after 0 iterations at t[s]:    145.21
	Linear fluid (dielectric constant: 64) occupying 0.863487 of unit cell:	Completed after 0 iterations at t[s]:    145.86
	FillingsUpdate:  mu: -0.100763071  nElectrons: 330.000000
	SubspaceRotationAdjust: set factor to 1.25
ElecMinimize: Iter:  12  F: -548.005780275120742  |grad|_K:  7.653e-08  alpha:  6.509e-01  linmin: -1.751e-06  t[s]:    146.70
	Linear fluid (dielectric constant: 64) occupying 0.863487 of unit cell:	Completed after 2 iterations at t[s]:    147.37
	Linear fluid (dielectric constant: 64) occupying 0.863487 of unit cell:	Completed after 0 iterations at t[s]:    148.01
	FillingsUpdate:  mu: -0.100761658  nElectrons: 330.000000
	SubspaceRotationAdjust: set factor to 1.28
ElecMinimize: Iter:  13  F: -548.005780311546232  |grad|_K:  7.308e-08  alpha:  3.627e-01  linmin: -2.685e-06  t[s]:    148.87
	Linear fluid (dielectric constant: 64) occupying 0.863487 of unit cell:	Completed after 0 iterations at t[s]:    149.52
	Linear fluid (dielectric constant: 64) occupying 0.863487 of unit cell:	Completed after 0 iterations at t[s]:    150.15
	FillingsUpdate:  mu: -0.100761242  nElectrons: 330.000000
	SubspaceRotationAdjust: set factor to 1.83
ElecMinimize: Iter:  14  F: -548.005780388166500  |grad|_K:  6.202e-08  alpha:  4.582e-01  linmin:  9.540e-08  t[s]:    151.00
	Linear fluid (dielectric constant: 64) occupying 0.863486 of unit cell:	Completed after 2 iterations at t[s]:    151.67
	Linear fluid (dielectric constant: 64) occupying 0.863487 of unit cell:	Completed after 0 iterations at t[s]:    152.32
ElecMinimize: 	Step increased F by 8.961024e-09, reducing alpha to 1.138981e-02.
	Linear fluid (dielectric constant: 64) occupying 0.863487 of unit cell:	Completed after 0 iterations at t[s]:    153.69
ElecMinimize: 	Step increased F by 1.395426e-08, reducing alpha to 1.138981e-03.
	Linear fluid (dielectric constant: 64) occupying 0.863487 of unit cell:	Completed after 0 iterations at t[s]:    155.06
ElecMinimize: 	Step increased F by 1.294995e-08, reducing alpha to 1.138981e-04.
ElecMinimize: 	Step failed to reduce F after 3 attempts. Quitting step.
ElecMinimize: 	Undoing step.
	Linear fluid (dielectric constant: 64) occupying 0.863487 of unit cell:	Completed after 0 iterations at t[s]:    156.41
ElecMinimize: 	Step failed: resetting search direction.
	FillingsUpdate:  mu: -0.100766527  nElectrons: 330.000000
	SubspaceRotationAdjust: set factor to 1.49
ElecMinimize: Iter:  15  F: -548.005780375224390  |grad|_K:  7.262e-08  alpha:  1.139e-04
	Linear fluid (dielectric constant: 64) occupying 0.863487 of unit cell:	Completed after 2 iterations at t[s]:    157.91
	Linear fluid (dielectric constant: 64) occupying 0.863487 of unit cell:	Completed after 0 iterations at t[s]:    158.56
	FillingsUpdate:  mu: -0.100761852  nElectrons: 330.000000
	SubspaceRotationAdjust: set factor to 0.87
ElecMinimize: Iter:  16  F: -548.005780389891356  |grad|_K:  7.158e-08  alpha:  1.736e-01  linmin:  3.006e-05  t[s]:    159.41
	Linear fluid (dielectric constant: 64) occupying 0.863487 of unit cell:	Completed after 0 iterations at t[s]:    160.05
	Linear fluid (dielectric constant: 64) occupying 0.863487 of unit cell:	Completed after 0 iterations at t[s]:    160.69
	FillingsUpdate:  mu: -0.100761990  nElectrons: 330.000000
	SubspaceRotationAdjust: set factor to 0.716
ElecMinimize: Iter:  17  F: -548.005780414542983  |grad|_K:  5.721e-08  alpha:  3.111e-01  linmin:  5.297e-08  t[s]:    161.54
	Linear fluid (dielectric constant: 64) occupying 0.863487 of unit cell:	Completed after 0 iterations at t[s]:    162.19
	Linear fluid (dielectric constant: 64) occupying 0.863487 of unit cell:	Completed after 0 iterations at t[s]:    162.83
ElecMinimize: 	Step increased F by 1.275680e-09, reducing alpha to 1.784486e-02.
	Linear fluid (dielectric constant: 64) occupying 0.863487 of unit cell:	Completed after 0 iterations at t[s]:    164.18
ElecMinimize: 	Step increased F by 1.776368e-08, reducing alpha to 1.784486e-03.
	Linear fluid (dielectric constant: 64) occupying 0.863487 of unit cell:	Completed after 0 iterations at t[s]:    165.54
ElecMinimize: 	Step increased F by 1.975150e-08, reducing alpha to 1.784486e-04.
ElecMinimize: 	Step failed to reduce F after 3 attempts. Quitting step.
ElecMinimize: 	Undoing step.
	Linear fluid (dielectric constant: 64) occupying 0.863487 of unit cell:	Completed after 0 iterations at t[s]:    166.90
ElecMinimize: 	Step failed: resetting search direction.
	FillingsUpdate:  mu: -0.100758184  nElectrons: 330.000000
	SubspaceRotationAdjust: set factor to 0.827
ElecMinimize: Iter:  18  F: -548.005780394754197  |grad|_K:  4.153e-08  alpha:  1.784e-04
	Linear fluid (dielectric constant: 64) occupying 0.863487 of unit cell:	Completed after 0 iterations at t[s]:    168.36
	Linear fluid (dielectric constant: 64) occupying 0.863487 of unit cell:	Completed after 0 iterations at t[s]:    169.00
	FillingsUpdate:  mu: -0.100763108  nElectrons: 330.000000
	SubspaceRotationAdjust: set factor to 1.02
ElecMinimize: Iter:  19  F: -548.005780418983022  |grad|_K:  3.822e-08  alpha:  7.702e-01  linmin:  7.657e-06  t[s]:    169.86
	Linear fluid (dielectric constant: 64) occupying 0.863486 of unit cell:	Completed after 2 iterations at t[s]:    170.54
	Linear fluid (dielectric constant: 64) occupying 0.863487 of unit cell:	Completed after 0 iterations at t[s]:    171.19
ElecMinimize: 	Step increased F by 7.704898e-09, reducing alpha to 1.097837e-02.
	Linear fluid (dielectric constant: 64) occupying 0.863487 of unit cell:	Completed after 0 iterations at t[s]:    172.55
	FillingsUpdate:  mu: -0.100767976  nElectrons: 330.000000
	SubspaceRotationAdjust: set factor to 0.728
ElecMinimize: Iter:  20  F: -548.005780428025105  |grad|_K:  1.066e-07  alpha:  1.098e-02  linmin:  3.099e-05  t[s]:    173.40
ElecMinimize: 	Bad step direction: g.d > 0.
ElecMinimize: 	Undoing step.
	Linear fluid (dielectric constant: 64) occupying 0.863487 of unit cell:	Completed after 0 iterations at t[s]:    174.02
ElecMinimize: 	Step failed: resetting search direction.
	FillingsUpdate:  mu: -0.100767976  nElectrons: 330.000000
	SubspaceRotationAdjust: set factor to 0.581
ElecMinimize: Iter:  21  F: -548.005780428024877  |grad|_K:  9.519e-08  alpha:  0.000e+00
	Linear fluid (dielectric constant: 64) occupying 0.863487 of unit cell:	Completed after 0 iterations at t[s]:    175.48
ElecMinimize: 	Predicted alpha/alphaT>3.000000, increasing alphaT to 3.293511e-02.
	Linear fluid (dielectric constant: 64) occupying 0.863487 of unit cell:	Completed after 0 iterations at t[s]:    176.15
ElecMinimize: 	Predicted alpha/alphaT>3.000000, increasing alphaT to 9.880532e-02.
	Linear fluid (dielectric constant: 64) occupying 0.863487 of unit cell:	Completed after 0 iterations at t[s]:    176.81
ElecMinimize: 	Predicted alpha/alphaT>3.000000, increasing alphaT to 2.964160e-01.
	Linear fluid (dielectric constant: 64) occupying 0.863488 of unit cell:	Completed after 3 iterations at t[s]:    177.49
ElecMinimize: 	Step increased F by 5.509672e-07, reducing alpha to 1.089202e-01.
	Linear fluid (dielectric constant: 64) occupying 0.863487 of unit cell:	Completed after 2 iterations at t[s]:    178.89
	FillingsUpdate:  mu: -0.100762994  nElectrons: 330.000000
	SubspaceRotationAdjust: set factor to 0.273
ElecMinimize: Iter:  22  F: -548.005780456653838  |grad|_K:  3.865e-08  alpha:  1.089e-01  linmin:  4.689e-05  t[s]:    179.76
	Linear fluid (dielectric constant: 64) occupying 0.863487 of unit cell:	Completed after 0 iterations at t[s]:    180.40
ElecMinimize: 	Predicted alpha/alphaT>3.000000, increasing alphaT to 3.267607e-01.
	Linear fluid (dielectric constant: 64) occupying 0.863487 of unit cell:	Completed after 0 iterations at t[s]:    181.06
	Linear fluid (dielectric constant: 64) occupying 0.863487 of unit cell:	Completed after 0 iterations at t[s]:    181.72
ElecMinimize: 	Step increased F by 1.068497e-08, reducing alpha to 4.895709e-02.
	Linear fluid (dielectric constant: 64) occupying 0.863487 of unit cell:	Completed after 0 iterations at t[s]:    183.07
ElecMinimize: 	Step increased F by 1.873684e-08, reducing alpha to 4.895709e-03.
	Linear fluid (dielectric constant: 64) occupying 0.863487 of unit cell:	Completed after 0 iterations at t[s]:    184.44
ElecMinimize: 	Step increased F by 2.115348e-08, reducing alpha to 4.895709e-04.
ElecMinimize: 	Step failed to reduce F after 3 attempts. Quitting step.
ElecMinimize: 	Undoing step.
	Linear fluid (dielectric constant: 64) occupying 0.863487 of unit cell:	Completed after 0 iterations at t[s]:    185.79
ElecMinimize: 	Step failed: resetting search direction.
	FillingsUpdate:  mu: -0.100763395  nElectrons: 330.000000
	SubspaceRotationAdjust: set factor to 0.426
ElecMinimize: Iter:  23  F: -548.005780435476936  |grad|_K:  2.834e-08  alpha:  4.896e-04
	Linear fluid (dielectric constant: 64) occupying 0.863487 of unit cell:	Completed after 0 iterations at t[s]:    187.26
ElecMinimize: 	Predicted alpha/alphaT>3.000000, increasing alphaT to 3.267607e-01.
	Linear fluid (dielectric constant: 64) occupying 0.863487 of unit cell:	Completed after 0 iterations at t[s]:    187.91
	Linear fluid (dielectric constant: 64) occupying 0.863487 of unit cell:	Completed after 0 iterations at t[s]:    188.55
	FillingsUpdate:  mu: -0.100763329  nElectrons: 330.000000
	SubspaceRotationAdjust: set factor to 0.526
ElecMinimize: Iter:  24  F: -548.005780447822417  |grad|_K:  2.398e-08  alpha:  5.234e-01  linmin: -2.148e-07  t[s]:    189.40
	Linear fluid (dielectric constant: 64) occupying 0.863487 of unit cell:	Completed after 0 iterations at t[s]:    190.05
	Linear fluid (dielectric constant: 64) occupying 0.863487 of unit cell:	Completed after 0 iterations at t[s]:    190.69
ElecMinimize: 	Step increased F by 7.870426e-09, reducing alpha to 2.350708e-02.
	Linear fluid (dielectric constant: 64) occupying 0.863487 of unit cell:	Completed after 0 iterations at t[s]:    192.05
ElecMinimize: 	Step increased F by 1.341255e-08, reducing alpha to 2.350708e-03.
	Linear fluid (dielectric constant: 64) occupying 0.863487 of unit cell:	Completed after 0 iterations at t[s]:    193.40
ElecMinimize: 	Step increased F by 1.403839e-08, reducing alpha to 2.350708e-04.
ElecMinimize: 	Step failed to reduce F after 3 attempts. Quitting step.
ElecMinimize: 	Undoing step.
	Linear fluid (dielectric constant: 64) occupying 0.863487 of unit cell:	Completed after 0 iterations at t[s]:    194.75
ElecMinimize: 	Step failed: resetting search direction.
	FillingsUpdate:  mu: -0.100762084  nElectrons: 330.000000
	SubspaceRotationAdjust: set factor to 0.694
ElecMinimize: Iter:  25  F: -548.005780433792893  |grad|_K:  2.339e-08  alpha:  2.351e-04
	Linear fluid (dielectric constant: 64) occupying 0.863487 of unit cell:	Completed after 0 iterations at t[s]:    196.21
	Linear fluid (dielectric constant: 64) occupying 0.863487 of unit cell:	Completed after 0 iterations at t[s]:    196.85
	FillingsUpdate:  mu: -0.100761983  nElectrons: 330.000000
	SubspaceRotationAdjust: set factor to 0.928
ElecMinimize: Iter:  26  F: -548.005780442734476  |grad|_K:  2.187e-08  alpha:  5.580e-01  linmin:  1.027e-08  t[s]:    197.71
	Linear fluid (dielectric constant: 64) occupying 0.863487 of unit cell:	Completed after 0 iterations at t[s]:    198.34
	Linear fluid (dielectric constant: 64) occupying 0.863487 of unit cell:	Completed after 2 iterations at t[s]:    199.01
ElecMinimize: 	Step increased F by 2.137417e-07, reducing alpha to 1.491191e-01.
	Linear fluid (dielectric constant: 64) occupying 0.863487 of unit cell:	Completed after 0 iterations at t[s]:    200.38
ElecMinimize: 	Step increased F by 3.429909e-08, reducing alpha to 1.491191e-02.
	Linear fluid (dielectric constant: 64) occupying 0.863487 of unit cell:	Completed after 0 iterations at t[s]:    201.76
ElecMinimize: 	Step increased F by 1.857677e-08, reducing alpha to 1.491191e-03.
ElecMinimize: 	Step failed to reduce F after 3 attempts. Quitting step.
ElecMinimize: 	Undoing step.
	Linear fluid (dielectric constant: 64) occupying 0.863487 of unit cell:	Completed after 0 iterations at t[s]:    203.11
ElecMinimize: 	Step failed: resetting search direction.
	FillingsUpdate:  mu: -0.100766940  nElectrons: 330.000000
	SubspaceRotationAdjust: set factor to 0.647
ElecMinimize: Iter:  27  F: -548.005780424323348  |grad|_K:  1.026e-07  alpha:  1.491e-03
	Linear fluid (dielectric constant: 64) occupying 0.863487 of unit cell:	Completed after 2 iterations at t[s]:    204.62
	Linear fluid (dielectric constant: 64) occupying 0.863487 of unit cell:	Completed after 1 iterations at t[s]:    205.28
	FillingsUpdate:  mu: -0.100761484  nElectrons: 330.000000
	SubspaceRotationAdjust: set factor to 0.269
ElecMinimize: Iter:  28  F: -548.005780434131566  |grad|_K:  4.733e-08  alpha:  2.036e-01  linmin:  1.288e-04  t[s]:    206.14
	Linear fluid (dielectric constant: 64) occupying 0.863487 of unit cell:	Completed after 0 iterations at t[s]:    206.79
ElecMinimize: 	Predicted alpha/alphaT>3.000000, increasing alphaT to 6.108347e-01.
	Linear fluid (dielectric constant: 64) occupying 0.863487 of unit cell:	Completed after 0 iterations at t[s]:    207.45
ElecMinimize: 	Predicted alpha/alphaT>3.000000, increasing alphaT to 1.832504e+00.
	Linear fluid (dielectric constant: 64) occupying 0.863487 of unit cell:	Completed after 2 iterations at t[s]:    208.14
	Linear fluid (dielectric constant: 64) occupying 0.863487 of unit cell:	Completed after 0 iterations at t[s]:    208.81
	FillingsUpdate:  mu: -0.100765703  nElectrons: 330.000000
	SubspaceRotationAdjust: set factor to 0.151
ElecMinimize: Iter:  29  F: -548.005780458230333  |grad|_K:  5.033e-08  alpha:  4.533e-01  linmin:  2.467e-05  t[s]:    209.65
	Linear fluid (dielectric constant: 64) occupying 0.863487 of unit cell:	Completed after 0 iterations at t[s]:    210.29
ElecMinimize: 	Predicted alpha/alphaT>3.000000, increasing alphaT to 1.359799e+00.
	Linear fluid (dielectric constant: 64) occupying 0.863487 of unit cell:	Completed after 1 iterations at t[s]:    210.96
	Linear fluid (dielectric constant: 64) occupying 0.863487 of unit cell:	Completed after 0 iterations at t[s]:    211.61
ElecMinimize: 	Step increased F by 2.423553e-08, reducing alpha to 4.223713e-02.
	Linear fluid (dielectric constant: 64) occupying 0.863487 of unit cell:	Completed after 0 iterations at t[s]:    212.98
ElecMinimize: 	Step increased F by 2.500508e-08, reducing alpha to 4.223713e-03.
	Linear fluid (dielectric constant: 64) occupying 0.863487 of unit cell:	Completed after 0 iterations at t[s]:    214.34
ElecMinimize: 	Step increased F by 2.535921e-08, reducing alpha to 4.223713e-04.
ElecMinimize: 	Step failed to reduce F after 3 attempts. Quitting step.
ElecMinimize: 	Undoing step.
	Linear fluid (dielectric constant: 64) occupying 0.863487 of unit cell:	Completed after 0 iterations at t[s]:    215.69
ElecMinimize: 	Step failed: resetting search direction.
	FillingsUpdate:  mu: -0.100762960  nElectrons: 330.000000
	SubspaceRotationAdjust: set factor to 0.253
ElecMinimize: Iter:  30  F: -548.005780432880897  |grad|_K:  2.488e-08  alpha:  4.224e-04
	Linear fluid (dielectric constant: 64) occupying 0.863487 of unit cell:	Completed after 0 iterations at t[s]:    217.18
	Linear fluid (dielectric constant: 64) occupying 0.863487 of unit cell:	Completed after 0 iterations at t[s]:    217.81
ElecMinimize: 	Step increased F by 1.182923e-08, reducing alpha to 1.609037e-02.
	Linear fluid (dielectric constant: 64) occupying 0.863487 of unit cell:	Completed after 0 iterations at t[s]:    219.17
ElecMinimize: 	Step increased F by 1.541105e-08, reducing alpha to 1.609037e-03.
	Linear fluid (dielectric constant: 64) occupying 0.863487 of unit cell:	Completed after 0 iterations at t[s]:    220.53
ElecMinimize: 	Step increased F by 1.581350e-08, reducing alpha to 1.609037e-04.
ElecMinimize: 	Step failed to reduce F after 3 attempts. Quitting step.
ElecMinimize: 	Undoing step.
	Linear fluid (dielectric constant: 64) occupying 0.863487 of unit cell:	Completed after 0 iterations at t[s]:    221.89
ElecMinimize: 	Step failed along negative gradient direction.
ElecMinimize: Probably at roundoff error limit. (Stopping)
Setting wave functions to eigenvectors of Hamiltonian
Single-point solvation energy estimate, DeltaF = -0.128085493842377

Computing DFT-D3 correction:
# coordination-number C 3.301 3.300 3.306 3.301 3.300 3.303 3.300 3.300 3.708 3.301 3.301 3.494 3.300 3.301 3.407 3.301 3.324 3.310 3.300 3.303 3.336 3.301 3.302 3.491 3.301 3.302 3.300 3.309 3.304 3.301 3.300 3.331 3.301 3.301 3.310 3.302 3.301 3.301 3.300 3.301 3.361 3.300 3.301 3.346 3.300 3.301 3.560 3.301 3.301 3.698 3.301 3.301 3.300 3.302 3.346 3.310 3.301 3.302 3.323 3.302 3.301 3.300 3.425 3.301 3.301 3.318 3.301 3.301 3.332 3.303 3.301 3.303
# coordination-number S 2.930 3.051 3.050 2.930
# coordination-number Na 4.469 4.455
# diagonal-C6 C 24.28 24.28 24.23 24.28 24.28 24.26 24.28 24.28 19.25 24.28 24.28 21.73 24.28 24.28 23.01 24.28 24.04 24.18 24.28 24.25 23.90 24.27 24.26 21.77 24.27 24.26 24.28 24.19 24.24 24.27 24.28 23.96 24.27 24.28 24.19 24.26 24.28 24.27 24.28 24.27 23.62 24.28 24.27 23.79 24.28 24.28 20.79 24.28 24.27 19.32 24.28 24.27 24.28 24.26 23.79 24.19 24.28 24.26 24.05 24.26 24.27 24.28 22.75 24.27 24.28 24.10 24.28 24.28 23.96 24.26 24.27 24.25
# diagonal-C6 S 125.81 125.81 125.81 125.81
# diagonal-C6 Na 186.11 186.11
EvdW_6 =   -0.063451
EvdW_8 =   -0.056205

# Ionic positions in cartesian coordinates:
ion C  28.002971165896351  -0.005669888928994  14.126281811595085 1
ion C  16.335697565654762  20.206808884037493  14.120988568190668 1
ion C   2.329986959364466   4.033447887776432  14.114030925786279 1
ion C  23.334998159986984  -0.004984833570236  14.112070505081522 1
ion C   4.666161403276635  -0.006327597362961  14.113551595444463 1
ion C  11.666823080855989  20.210084343634787  14.114930073300609 1
ion C  25.667887279408539   4.035906122976681  14.118112836715115 1
ion C  18.670649416641979  16.163178246804605  14.109011904150144 1
ion C   4.665269041193969   8.077478209530167  14.051625823264210 1
ion C  18.667535689661861  -0.005238763230463  14.095116637248466 1
ion C   9.334824875776629  -0.006889722778106  14.088714841054401 1
ion C   9.330685483240572  16.168372015872468  14.052098326326352 1
ion C  23.334378944332702   8.078585746254797  14.108014189314080 1
ion C  21.002988695218374  12.120559168845876  14.103838944629354 1
ion C   6.995829121054020  12.122293440396598  13.991742414501411 1
ion C  14.001085787460124  -0.006122683167330  14.082809548978299 1
ion C  14.004158646542896  16.164708913994151  14.096758372790346 1
ion C   7.002582339988493   4.033076716385350  14.071600683779947 1
ion C  21.001224956020629   4.036163481326343  14.104196652172863 1
ion C  16.338924087582505  12.118443592324921  14.085354609790606 1
ion C   9.337943915255481   8.074918450820750  14.006178651165866 1
ion C  16.335117753319956   4.035446702176966  14.080016383313570 1
ion C  11.668938404711268   4.035017828625628  14.053169922360651 1
ion C  11.670410310156530  12.116919185944251  14.025352676852338 1
ion C  18.668864366582945   8.077658090113617  14.091890223609260 1
ion C   6.997116795121912  20.207992087599010  14.082980525313502 1
ion C  -7.002530605600277  20.205566393191031  14.107642228532729 1
ion C  -0.006887473974489   8.078415564969223  14.100616648194547 1
ion C  14.003410124856142   8.075609625122571  14.047876027211910 1
ion C   2.330973676559225  20.206371164226542  14.075518159667446 1
ion C  -4.668914586211762  16.163494261797481  14.099679421452509 1
ion C   2.328493803456094  12.125974498971106  14.046153625447062 1
ion C  -2.337259363572545  12.122475464499828  14.093713754643714 1
ion C  -2.335525034552072  20.205810312177206  14.091895390125281 1
ion C   4.662561991437309  16.166257236764835  14.038562030386569 1
ion C  -0.003327584702685  16.165075997514574  14.070504035669385 1
ion C  14.001574567021031  21.554366164296969  14.125350070176005 1
ion C   2.331695591998793   1.339268258613245  14.122224563822060 1
ion C  25.668937731425601   1.341091736169032  14.120030289017230 1
ion C  16.338199464284791  17.512311649471442  14.113979986692261 1
ion C   4.666211750715571   5.377194079472979  14.085887303811887 1
ion C  21.000999020898767   1.341855923832942  14.104741776450721 1
ion C   7.000780692251607   1.338948486476615  14.093030291480520 1
ion C  11.668712346619593  17.515000376010676  14.092254137777132 1
ion C  23.334650080435843   5.383851712225790  14.110207944241075 1
ion C  18.670476286102364  13.468095717315547  14.101630738227160 1
ion C   7.003797193675875   9.426274896209923  13.998135933612938 1
ion C  16.334364377386432   1.341389362230010  14.086890396458967 1
ion C  11.667761139433340   1.340534483354972  14.074677721743207 1
ion C   9.332600524437261  13.468415048790009  14.011293792889667 1
ion C  21.001408325955431   9.426037298518031  14.102987929893283 1
ion C   9.332111829049083  21.554794163897260  14.105176637491521 1
ion C  -9.336209559413589  21.552881430322131  14.115185299960455 1
ion C  -0.004498295622494   5.382453356248921  14.114145549756723 1
ion C  14.005292180533582  13.467315401112499  14.070451605594691 1
ion C   9.336258998047406   5.381233865112956  14.037332779004391 1
ion C  18.668136330742438   5.383147649243985  14.091452765761330 1
ion C  16.336436095864684   9.424237252411553  14.074566283157901 1
ion C  11.670609338978096   9.420674377417248  14.017940047090098 1
ion C  14.002073745578340   5.381956557090382  14.056539064377912 1
ion C   4.663622894877529  21.554207181614967  14.083700183207897 1
ion C  -7.002402171522069  17.511081854270302  14.107502649959731 1
ion C   2.326480830229192   9.429226267751634  14.068257102292980 1
ion C  -2.339364220466333   9.427381648406010  14.102541904491217 1
ion C  -4.668827383866290  21.552639863358607  14.098279458724281 1
ion C   6.994615361500145  17.514781762590182  14.056336394803566 1
ion C  -0.002746516585798  21.553179117206646  14.085079174702956 1
ion C  -4.669950093233260  13.469329926345436  14.101293910259688 1
ion C   4.662613110753351  13.472063010531985  14.014831054836174 1
ion C   2.329945985723464  17.512342021448493  14.059499315708665 1
ion C  -2.336447179307112  17.511526966982647  14.088185367838475 1
ion C  -0.005269628567452  13.471733512533687  14.071019297666886 1
ion S   5.109404521625473  14.032936543786040  20.793265729936181 1
ion S   7.016215535737645  13.329369512985220  24.101926727962081 1
ion S   8.352765491018740   9.549835085109326  24.095053789924926 1
ion S  10.252826380526361   8.859135406403006  20.780513932967285 1
ion Na   5.189264258525802   8.965463909588923  19.497812479071364 1
ion Na  10.165771992499291  13.930489736205127  19.492782794976687 1

# Forces in Cartesian coordinates:
force C   0.000191850267326  -0.000113287664739   0.000031103844080 1
force C   0.000059759050471  -0.000068211196713   0.000152435891751 1
force C   0.000466126093103   0.000488114374399  -0.000081805120874 1
force C  -0.000074921559546  -0.000016365988087   0.000081822370602 1
force C   0.000056648247296  -0.000273872566453  -0.000020742237239 1
force C   0.000172935270250  -0.001002375901337  -0.000294950615305 1
force C   0.000115370438359  -0.000069406620765  -0.000026419009648 1
force C  -0.000090860841120   0.000093991655547   0.000104361378895 1
force C  -0.000540220149239  -0.000384562315205  -0.005020312697063 1
force C  -0.000011913367327  -0.000062755636002  -0.000124566755298 1
force C  -0.000223574899502  -0.000181647151728  -0.000071121533338 1
force C   0.000876854204055  -0.000748202596534  -0.002829944527629 1
force C  -0.000090312542437   0.000083976415783  -0.000009250779810 1
force C   0.000037163392282   0.000143880011085   0.000037043061697 1
force C   0.001530567713590   0.000022649217113  -0.001370846631259 1
force C  -0.000040832833795  -0.000066073546740   0.000040867079260 1
force C  -0.000619828356701  -0.000285190576409  -0.000456857743904 1
force C  -0.000693589207580   0.000265646602319  -0.000004799894876 1
force C   0.000103931147035   0.000041063783528   0.000006818581078 1
force C  -0.000859177353644   0.000654883479119  -0.000140114879271 1
force C  -0.000992502816744   0.000490384875995  -0.000345972814239 1
force C  -0.000027397250469   0.000030033329140  -0.000066455409222 1
force C  -0.000056270597693  -0.000258193259643   0.000143919035040 1
force C  -0.000435570126283   0.001036923182940  -0.002616787590833 1
force C   0.000037598352692  -0.000081571278792  -0.000066589224166 1
force C   0.000228790905368   0.000129807343735   0.000171497668936 1
force C  -0.000039953094316   0.000004027280872   0.000028922311977 1
force C   0.001147668314930   0.000365324072247  -0.000139635043742 1
force C   0.000244734625065   0.000113389479686   0.000172915610438 1
force C  -0.000239664965303   0.000108761903559   0.000123843749948 1
force C  -0.000314516448140   0.000191181823865  -0.000021091229198 1
force C  -0.000115380747959  -0.001165143794948  -0.000509116830299 1
force C  -0.000080270437123  -0.000146113780013   0.000002980189439 1
force C  -0.000219962391810  -0.000012447311936  -0.000200147133106 1
force C   0.000103673035155  -0.000101733861074  -0.000084606900130 1
force C  -0.000244276419023   0.000159475618758   0.000113893040923 1
force C  -0.000091736170972   0.000024401186181   0.000020304322008 1
force C  -0.000190261691162   0.000395398783266   0.000015028535625 1
force C  -0.000024773339561   0.000223265221396   0.000243597055474 1
force C  -0.000662341435497  -0.000408590786449  -0.000036878297024 1
force C  -0.000206982585097   0.002497291833708  -0.001323435899317 1
force C   0.000136186782696   0.000019204895023  -0.000018523451637 1
force C   0.000122942639779   0.000359800124515   0.000147185789220 1
force C  -0.000834802332598  -0.000925487214463  -0.000807240656300 1
force C   0.000001926259284  -0.000075378785348   0.000196513451776 1
force C   0.000048245803159  -0.000010836271889   0.000157373891997 1
force C  -0.001882988898914  -0.001187917301807  -0.002499317128848 1
force C  -0.000001890904744  -0.000046583263110  -0.000086413417765 1
force C   0.000123577445708   0.000145561395274   0.000136686764410 1
force C   0.000639770784000   0.000753111053840  -0.004187413673273 1
force C   0.000163028108782  -0.000048807412921   0.000011779936268 1
force C  -0.000220470618694  -0.000045277342188   0.000123100233140 1
force C  -0.000034053876895   0.000128941983891   0.000210687298311 1
force C   0.000395898008372   0.000335806323416   0.000199533155001 1
force C  -0.000816521775812   0.000006777200664  -0.000769172952665 1
force C  -0.000499723467898   0.000000154732564   0.000154652757683 1
force C   0.000071992015510   0.000004653994994   0.000110647740967 1
force C  -0.000104257863085  -0.000053458535380   0.000121123737786 1
force C  -0.000001731089173   0.001357361940659  -0.000352074772580 1
force C   0.000192177986127  -0.000049828790199   0.000235033951414 1
force C   0.000184319913041   0.000141092484960   0.000159416936287 1
force C   0.000125069030942  -0.000114114900841   0.000051306857290 1
force C   0.001507975556810  -0.001313593051859  -0.002212764711997 1
force C   0.000339605180649  -0.000212142043223   0.000153917013852 1
force C  -0.000007048666457  -0.000006750070774   0.000036079294556 1
force C   0.001441149025840  -0.000691419412561  -0.000304975264938 1
force C   0.000271930490766   0.000063563674061  -0.000018262480292 1
force C  -0.000059235237620  -0.000164227253062   0.000010113552291 1
force C  -0.000169771690618  -0.000298606121203  -0.000067182496995 1
force C  -0.000048318715929  -0.000020404533881   0.000266522232381 1
force C   0.000168201791933   0.000026912611110   0.000136199332739 1
force C   0.000356953405919  -0.000303287851525   0.000066114483408 1
force S  -0.006006823435669   0.007891329779054   0.009594178395015 1
force S  -0.004610329784456   0.000676569132299   0.000921622482626 1
force S   0.004570669829006  -0.000567377175415   0.000889181062725 1
force S   0.006091184261438  -0.007850672775296   0.009385515717716 1
force Na  -0.014244621771368  -0.013005494889596   0.001424260945693 1
force Na   0.014304370810400   0.012897801522551   0.001500561031520 1

# Energy components:
   A_diel =       -0.1846184680859494
   Eewald =     3983.0037321531376620
       EH =     4413.1679686482975740
     Eloc =    -8981.3609989724373008
      Enl =      -78.8588009826091394
     EvdW =       -0.1196558590287683
      Exc =     -161.9809532578343862
 Exc_core =        9.4955886333743180
       KE =      268.9017627582686600
-------------------------------------
     Etot =     -547.9359753469171892
       TS =        0.0698050701522001
-------------------------------------
        F =     -548.0057804170694453

IonicMinimize: Iter:   0  F: -548.005780417069445  |grad|_K:  2.342e-03  alpha:  1.000e+00

#--- Lowdin population analysis ---
# oxidation-state C +0.037 +0.036 +0.035 +0.037 +0.036 +0.036 +0.037 +0.036 +0.031 +0.037 +0.037 +0.033 +0.037 +0.037 +0.026 +0.037 +0.033 +0.035 +0.037 +0.036 +0.035 +0.037 +0.037 +0.031 +0.037 +0.036 +0.037 +0.035 +0.036 +0.037 +0.037 +0.033 +0.036 +0.037 +0.036 +0.037 +0.036 +0.036 +0.036 +0.036 +0.034 +0.037 +0.037 +0.033 +0.036 +0.036 +0.026 +0.037 +0.037 +0.025 +0.037 +0.036 +0.037 +0.035 +0.034 +0.035 +0.037 +0.036 +0.035 +0.037 +0.037 +0.037 +0.033 +0.036 +0.037 +0.035 +0.037 +0.037 +0.033 +0.037 +0.037 +0.036
# oxidation-state S -0.519 +0.027 +0.028 -0.518
# oxidation-state Na +0.860 +0.860


Computing DFT-D3 correction:
# coordination-number C 3.300 3.300 3.306 3.300 3.300 3.303 3.300 3.300 3.707 3.301 3.301 3.494 3.300 3.300 3.404 3.301 3.325 3.310 3.300 3.303 3.336 3.301 3.302 3.490 3.301 3.302 3.300 3.310 3.304 3.301 3.301 3.331 3.301 3.301 3.309 3.302 3.300 3.301 3.300 3.301 3.362 3.300 3.301 3.348 3.300 3.301 3.556 3.301 3.301 3.693 3.300 3.301 3.300 3.303 3.347 3.310 3.301 3.302 3.322 3.302 3.301 3.300 3.427 3.301 3.300 3.318 3.301 3.301 3.331 3.302 3.301 3.303
# coordination-number S 2.920 3.040 3.039 2.919
# coordination-number Na 4.421 4.406
# diagonal-C6 C 24.28 24.28 24.22 24.28 24.28 24.26 24.28 24.28 19.26 24.28 24.28 21.73 24.28 24.28 23.05 24.28 24.03 24.18 24.28 24.25 23.91 24.27 24.26 21.79 24.27 24.26 24.28 24.19 24.25 24.27 24.28 23.96 24.27 24.28 24.19 24.27 24.28 24.28 24.28 24.27 23.60 24.28 24.27 23.78 24.28 24.28 20.84 24.28 24.27 19.36 24.28 24.27 24.28 24.26 23.78 24.19 24.28 24.27 24.06 24.26 24.27 24.28 22.73 24.27 24.28 24.10 24.28 24.28 23.96 24.26 24.27 24.25
# diagonal-C6 S 125.81 125.81 125.81 125.81
# diagonal-C6 Na 186.11 186.11
EvdW_6 =   -0.063457
EvdW_8 =   -0.056246

-------- Electronic minimization -----------
	Linear fluid (dielectric constant: 64) occupying 0.863446 of unit cell:	Completed after 19 iterations at t[s]:    229.39
	FillingsUpdate:  mu: -0.100653005  nElectrons: 330.000000
ElecMinimize: Iter:   0  F: -548.006973777975304  |grad|_K:  1.452e-06  alpha:  1.000e+00
	Linear fluid (dielectric constant: 64) occupying 0.863446 of unit cell:	Completed after 10 iterations at t[s]:    231.09
	Linear fluid (dielectric constant: 64) occupying 0.863446 of unit cell:	Completed after 4 iterations at t[s]:    231.83
	FillingsUpdate:  mu: -0.100692141  nElectrons: 330.000000
	SubspaceRotationAdjust: set factor to 0.331
ElecMinimize: Iter:   1  F: -548.007018149014471  |grad|_K:  6.107e-07  alpha:  7.192e-01  linmin:  3.816e-05  t[s]:    232.74
	Linear fluid (dielectric constant: 64) occupying 0.863444 of unit cell:	Completed after 4 iterations at t[s]:    233.43
	Linear fluid (dielectric constant: 64) occupying 0.863444 of unit cell:	Completed after 0 iterations at t[s]:    234.08
	FillingsUpdate:  mu: -0.100692557  nElectrons: 330.000000
	SubspaceRotationAdjust: set factor to 0.438
ElecMinimize: Iter:   2  F: -548.007025728882240  |grad|_K:  4.211e-07  alpha:  6.946e-01  linmin: -3.086e-06  t[s]:    234.94
	Linear fluid (dielectric constant: 64) occupying 0.863443 of unit cell:	Completed after 3 iterations at t[s]:    235.62
	Linear fluid (dielectric constant: 64) occupying 0.863443 of unit cell:	Completed after 0 iterations at t[s]:    236.27
	FillingsUpdate:  mu: -0.100692265  nElectrons: 330.000000
	SubspaceRotationAdjust: set factor to 0.573
ElecMinimize: Iter:   3  F: -548.007029488893863  |grad|_K:  3.324e-07  alpha:  7.224e-01  linmin: -9.074e-06  t[s]:    237.12
	Linear fluid (dielectric constant: 64) occupying 0.863443 of unit cell:	Completed after 2 iterations at t[s]:    237.79
	Linear fluid (dielectric constant: 64) occupying 0.863443 of unit cell:	Completed after 0 iterations at t[s]:    238.44
	FillingsUpdate:  mu: -0.100693040  nElectrons: 330.000000
	SubspaceRotationAdjust: set factor to 0.711
ElecMinimize: Iter:   4  F: -548.007031509989929  |grad|_K:  2.018e-07  alpha:  6.146e-01  linmin:  5.294e-06  t[s]:    239.28
	Linear fluid (dielectric constant: 64) occupying 0.863444 of unit cell:	Completed after 2 iterations at t[s]:    239.95
	Linear fluid (dielectric constant: 64) occupying 0.863444 of unit cell:	Completed after 0 iterations at t[s]:    240.60
	FillingsUpdate:  mu: -0.100690508  nElectrons: 330.000000
	SubspaceRotationAdjust: set factor to 0.782
ElecMinimize: Iter:   5  F: -548.007032135010263  |grad|_K:  1.088e-07  alpha:  5.387e-01  linmin: -3.954e-06  t[s]:    241.45
	Linear fluid (dielectric constant: 64) occupying 0.863444 of unit cell:	Completed after 0 iterations at t[s]:    242.09
	Linear fluid (dielectric constant: 64) occupying 0.863444 of unit cell:	Completed after 0 iterations at t[s]:    242.73
	FillingsUpdate:  mu: -0.100690479  nElectrons: 330.000000
	SubspaceRotationAdjust: set factor to 0.804
ElecMinimize: Iter:   6  F: -548.007032336843508  |grad|_K:  6.714e-08  alpha:  5.662e-01  linmin:  1.581e-08  t[s]:    243.59
	Linear fluid (dielectric constant: 64) occupying 0.863445 of unit cell:	Completed after 0 iterations at t[s]:    244.22
	Linear fluid (dielectric constant: 64) occupying 0.863445 of unit cell:	Completed after 0 iterations at t[s]:    244.86
	FillingsUpdate:  mu: -0.100690475  nElectrons: 330.000000
	SubspaceRotationAdjust: set factor to 0.941
ElecMinimize: Iter:   7  F: -548.007032413287561  |grad|_K:  3.978e-08  alpha:  5.788e-01  linmin:  4.373e-09  t[s]:    245.71
	Linear fluid (dielectric constant: 64) occupying 0.863445 of unit cell:	Completed after 1 iterations at t[s]:    246.36
	Linear fluid (dielectric constant: 64) occupying 0.863445 of unit cell:	Completed after 0 iterations at t[s]:    247.01
ElecMinimize: 	Step increased F by 3.927755e-08, reducing alpha to 1.790238e-02.
	Linear fluid (dielectric constant: 64) occupying 0.863445 of unit cell:	Completed after 0 iterations at t[s]:    248.37
ElecMinimize: 	Step increased F by 4.729623e-08, reducing alpha to 1.790238e-03.
	Linear fluid (dielectric constant: 64) occupying 0.863445 of unit cell:	Completed after 0 iterations at t[s]:    249.73
ElecMinimize: 	Step increased F by 4.825949e-08, reducing alpha to 1.790238e-04.
ElecMinimize: 	Step failed to reduce F after 3 attempts. Quitting step.
ElecMinimize: 	Undoing step.
	Linear fluid (dielectric constant: 64) occupying 0.863445 of unit cell:	Completed after 0 iterations at t[s]:    251.09
ElecMinimize: 	Step failed: resetting search direction.
	FillingsUpdate:  mu: -0.100692473  nElectrons: 330.000000
	SubspaceRotationAdjust: set factor to 1.02
ElecMinimize: Iter:   8  F: -548.007032365017494  |grad|_K:  5.448e-08  alpha:  1.790e-04
	Linear fluid (dielectric constant: 64) occupying 0.863445 of unit cell:	Completed after 0 iterations at t[s]:    252.56
	Linear fluid (dielectric constant: 64) occupying 0.863445 of unit cell:	Completed after 0 iterations at t[s]:    253.20
	FillingsUpdate:  mu: -0.100692650  nElectrons: 330.000000
	SubspaceRotationAdjust: set factor to 1.27
ElecMinimize: Iter:   9  F: -548.007032422477209  |grad|_K:  3.312e-08  alpha:  6.606e-01  linmin: -8.831e-09  t[s]:    254.05
	Linear fluid (dielectric constant: 64) occupying 0.863445 of unit cell:	Completed after 0 iterations at t[s]:    254.69
	Linear fluid (dielectric constant: 64) occupying 0.863445 of unit cell:	Completed after 0 iterations at t[s]:    255.33
ElecMinimize: 	Step increased F by 1.429009e-08, reducing alpha to 2.512715e-02.
	Linear fluid (dielectric constant: 64) occupying 0.863445 of unit cell:	Completed after 0 iterations at t[s]:    256.68
ElecMinimize: 	Step increased F by 1.986496e-08, reducing alpha to 2.512715e-03.
	Linear fluid (dielectric constant: 64) occupying 0.863445 of unit cell:	Completed after 0 iterations at t[s]:    258.05
ElecMinimize: 	Step increased F by 2.060222e-08, reducing alpha to 2.512715e-04.
ElecMinimize: 	Step failed to reduce F after 3 attempts. Quitting step.
ElecMinimize: 	Undoing step.
	Linear fluid (dielectric constant: 64) occupying 0.863445 of unit cell:	Completed after 0 iterations at t[s]:    259.40
ElecMinimize: 	Step failed: resetting search direction.
	FillingsUpdate:  mu: -0.100692213  nElectrons: 330.000000
	SubspaceRotationAdjust: set factor to 1.37
ElecMinimize: Iter:  10  F: -548.007032401854417  |grad|_K:  3.174e-08  alpha:  2.513e-04
	Linear fluid (dielectric constant: 64) occupying 0.863445 of unit cell:	Completed after 0 iterations at t[s]:    260.86
	Linear fluid (dielectric constant: 64) occupying 0.863445 of unit cell:	Completed after 0 iterations at t[s]:    261.49
	FillingsUpdate:  mu: -0.100692168  nElectrons: 330.000000
	SubspaceRotationAdjust: set factor to 1.84
ElecMinimize: Iter:  11  F: -548.007032415717617  |grad|_K:  1.377e-08  alpha:  4.693e-01  linmin:  2.520e-08  t[s]:    262.34
	Linear fluid (dielectric constant: 64) occupying 0.863445 of unit cell:	Completed after 0 iterations at t[s]:    262.98
	Linear fluid (dielectric constant: 64) occupying 0.863445 of unit cell:	Completed after 0 iterations at t[s]:    263.61
	FillingsUpdate:  mu: -0.100692095  nElectrons: 330.000000
	SubspaceRotationAdjust: set factor to 1.75
ElecMinimize: Iter:  12  F: -548.007032420434598  |grad|_K:  1.087e-08  alpha:  8.517e-01  linmin:  2.891e-08  t[s]:    264.46
	Linear fluid (dielectric constant: 64) occupying 0.863445 of unit cell:	Completed after 0 iterations at t[s]:    265.10
	Linear fluid (dielectric constant: 64) occupying 0.863445 of unit cell:	Completed after 0 iterations at t[s]:    265.74
	FillingsUpdate:  mu: -0.100692054  nElectrons: 330.000000
	SubspaceRotationAdjust: set factor to 2.04
	SubspaceRotationAdjust: resetting CG because factor has changed by 8.03419
	Linear fluid (dielectric constant: 64) occupying 0.863445 of unit cell:	Completed after 0 iterations at t[s]:    266.98
ElecMinimize: 	State modified externally: resetting search direction.
ElecMinimize: Iter:  13  F: -548.007032422605448  |grad|_K:  6.977e-09  alpha:  6.286e-01
ElecMinimize: Converged (|Delta F|<1.000000e-08 for 2 iters).
Setting wave functions to eigenvectors of Hamiltonian
IonicMinimize: 	Predicted alpha/alphaT>3.000000, increasing alphaT to 3.000000e+00.

Computing DFT-D3 correction:
# coordination-number C 3.300 3.300 3.307 3.300 3.300 3.303 3.300 3.300 3.703 3.301 3.301 3.494 3.300 3.300 3.400 3.301 3.327 3.311 3.300 3.303 3.334 3.301 3.301 3.488 3.301 3.302 3.300 3.311 3.303 3.301 3.301 3.331 3.301 3.301 3.308 3.301 3.300 3.300 3.300 3.301 3.365 3.300 3.301 3.350 3.300 3.300 3.548 3.301 3.301 3.682 3.300 3.301 3.300 3.303 3.349 3.309 3.301 3.302 3.321 3.301 3.301 3.300 3.430 3.301 3.300 3.318 3.301 3.301 3.330 3.302 3.301 3.303
# coordination-number S 2.897 3.018 3.018 2.896
# coordination-number Na 4.323 4.307
# diagonal-C6 C 24.28 24.28 24.22 24.28 24.28 24.25 24.28 24.28 19.29 24.28 24.28 21.72 24.28 24.28 23.11 24.28 24.01 24.18 24.28 24.25 23.93 24.27 24.27 21.82 24.28 24.26 24.28 24.18 24.25 24.27 24.28 23.97 24.27 24.28 24.20 24.27 24.28 24.28 24.28 24.27 23.56 24.28 24.28 23.75 24.28 24.28 20.95 24.28 24.28 19.45 24.28 24.27 24.28 24.25 23.76 24.19 24.28 24.27 24.07 24.27 24.28 24.28 22.68 24.28 24.28 24.10 24.28 24.28 23.98 24.26 24.28 24.26
# diagonal-C6 S 125.81 125.81 125.81 125.81
# diagonal-C6 Na 186.11 186.11
EvdW_6 =   -0.063469
EvdW_8 =   -0.056330

-------- Electronic minimization -----------
	Linear fluid (dielectric constant: 64) occupying 0.863439 of unit cell:	Completed after 24 iterations at t[s]:    271.29
	FillingsUpdate:  mu: -0.099131626  nElectrons: 330.000000
ElecMinimize: Iter:   0  F: -547.947879390465232  |grad|_K:  7.500e-05  alpha:  1.000e+00
	Linear fluid (dielectric constant: 64) occupying 0.862969 of unit cell:	Completed after 33 iterations at t[s]:    273.20
	Linear fluid (dielectric constant: 64) occupying 0.863285 of unit cell:	Completed after 31 iterations at t[s]:    274.22
	FillingsUpdate:  mu: -0.100335374  nElectrons: 330.000000
	SubspaceRotationAdjust: set factor to 1.41
ElecMinimize: Iter:   1  F: -548.003684103437536  |grad|_K:  2.536e-05  alpha:  3.363e-01  linmin: -8.911e-05  t[s]:    275.15
	Linear fluid (dielectric constant: 64) occupying 0.863393 of unit cell:	Completed after 28 iterations at t[s]:    276.06
	Linear fluid (dielectric constant: 64) occupying 0.863342 of unit cell:	Completed after 22 iterations at t[s]:    276.96
	FillingsUpdate:  mu: -0.100365536  nElectrons: 330.000000
	SubspaceRotationAdjust: set factor to 0.738
ElecMinimize: Iter:   2  F: -548.006908628316637  |grad|_K:  1.216e-05  alpha:  1.898e-01  linmin:  2.595e-04  t[s]:    277.86
	Linear fluid (dielectric constant: 64) occupying 0.863348 of unit cell:	Completed after 14 iterations at t[s]:    278.64
	Linear fluid (dielectric constant: 64) occupying 0.863358 of unit cell:	Completed after 17 iterations at t[s]:    279.50
	FillingsUpdate:  mu: -0.100479713  nElectrons: 330.000000
	SubspaceRotationAdjust: set factor to 0.818
ElecMinimize: Iter:   3  F: -548.008752185419780  |grad|_K:  5.779e-06  alpha:  4.432e-01  linmin:  1.159e-04  t[s]:    280.39
[...]
	Linear fluid (dielectric constant: 64) occupying 0.862299 of unit cell:	Completed after 3 iterations at t[s]:  10848.68
	Linear fluid (dielectric constant: 64) occupying 0.862299 of unit cell:	Completed after 0 iterations at t[s]:  10849.36
	FillingsUpdate:  mu: -0.095167026  nElectrons: 330.000000
	SubspaceRotationAdjust: set factor to 0.645
ElecMinimize: Iter:   1  F: -548.063929933143527  |grad|_K:  1.125e-07  alpha:  7.895e-01  linmin:  7.174e-04  t[s]:  10850.22
	Linear fluid (dielectric constant: 64) occupying 0.862299 of unit cell:	Completed after 2 iterations at t[s]:  10850.89
	Linear fluid (dielectric constant: 64) occupying 0.862299 of unit cell:	Completed after 0 iterations at t[s]:  10851.56
	FillingsUpdate:  mu: -0.095162404  nElectrons: 330.000000
	SubspaceRotationAdjust: set factor to 0.554
ElecMinimize: Iter:   2  F: -548.063930110404044  |grad|_K:  6.585e-08  alpha:  5.564e-01  linmin: -8.875e-04  t[s]:  10852.41
	Linear fluid (dielectric constant: 64) occupying 0.862299 of unit cell:	Completed after 0 iterations at t[s]:  10853.05
	Linear fluid (dielectric constant: 64) occupying 0.862299 of unit cell:	Completed after 0 iterations at t[s]:  10853.72
	FillingsUpdate:  mu: -0.095161951  nElectrons: 330.000000
	SubspaceRotationAdjust: set factor to 0.797
ElecMinimize: Iter:   3  F: -548.063930215571986  |grad|_K:  4.245e-08  alpha:  7.867e-01  linmin: -1.866e-06  t[s]:  10854.57
	Linear fluid (dielectric constant: 64) occupying 0.862298 of unit cell:	Completed after 1 iterations at t[s]:  10855.22
	Linear fluid (dielectric constant: 64) occupying 0.862299 of unit cell:	Completed after 0 iterations at t[s]:  10855.88
ElecMinimize: 	Step increased F by 2.296326e-08, reducing alpha to 2.446901e-02.
	Linear fluid (dielectric constant: 64) occupying 0.862299 of unit cell:	Completed after 0 iterations at t[s]:  10857.25
ElecMinimize: 	Step increased F by 4.138064e-08, reducing alpha to 2.446901e-03.
	Linear fluid (dielectric constant: 64) occupying 0.862299 of unit cell:	Completed after 0 iterations at t[s]:  10858.61
ElecMinimize: 	Step increased F by 4.212791e-08, reducing alpha to 2.446901e-04.
ElecMinimize: 	Step failed to reduce F after 3 attempts. Quitting step.
ElecMinimize: 	Undoing step.
	Linear fluid (dielectric constant: 64) occupying 0.862299 of unit cell:	Completed after 0 iterations at t[s]:  10859.97
ElecMinimize: 	Step failed: resetting search direction.
	FillingsUpdate:  mu: -0.095162925  nElectrons: 330.000000
	SubspaceRotationAdjust: set factor to 0.698
ElecMinimize: Iter:   4  F: -548.063930173426229  |grad|_K:  3.881e-08  alpha:  2.447e-04
	Linear fluid (dielectric constant: 64) occupying 0.862299 of unit cell:	Completed after 0 iterations at t[s]:  10861.44
	Linear fluid (dielectric constant: 64) occupying 0.862299 of unit cell:	Completed after 0 iterations at t[s]:  10862.10
	FillingsUpdate:  mu: -0.095163194  nElectrons: 330.000000
	SubspaceRotationAdjust: set factor to 0.936
ElecMinimize: Iter:   5  F: -548.063930193223996  |grad|_K:  2.096e-08  alpha:  4.486e-01  linmin:  3.975e-06  t[s]:  10862.95
	Linear fluid (dielectric constant: 64) occupying 0.862299 of unit cell:	Completed after 0 iterations at t[s]:  10863.62
	Linear fluid (dielectric constant: 64) occupying 0.862299 of unit cell:	Completed after 0 iterations at t[s]:  10864.29
	FillingsUpdate:  mu: -0.095163681  nElectrons: 330.000000
	SubspaceRotationAdjust: set factor to 1.17
ElecMinimize: Iter:   6  F: -548.063930203335190  |grad|_K:  1.451e-08  alpha:  7.873e-01  linmin:  2.124e-05  t[s]:  10865.14
	Linear fluid (dielectric constant: 64) occupying 0.862299 of unit cell:	Completed after 0 iterations at t[s]:  10865.78
	Linear fluid (dielectric constant: 64) occupying 0.862299 of unit cell:	Completed after 0 iterations at t[s]:  10866.44
	FillingsUpdate:  mu: -0.095164175  nElectrons: 330.000000
	SubspaceRotationAdjust: set factor to 1.37
ElecMinimize: Iter:   7  F: -548.063930207874819  |grad|_K:  7.726e-09  alpha:  7.360e-01  linmin: -8.768e-06  t[s]:  10867.29
	Linear fluid (dielectric constant: 64) occupying 0.862299 of unit cell:	Completed after 0 iterations at t[s]:  10867.93
	Linear fluid (dielectric constant: 64) occupying 0.862299 of unit cell:	Completed after 0 iterations at t[s]:  10868.60
ElecMinimize: 	Step increased F by 1.853914e-08, reducing alpha to 3.900684e-03.
	Linear fluid (dielectric constant: 64) occupying 0.862299 of unit cell:	Completed after 0 iterations at t[s]:  10869.96
ElecMinimize: 	Step increased F by 1.842557e-08, reducing alpha to 3.900684e-04.
	Linear fluid (dielectric constant: 64) occupying 0.862299 of unit cell:	Completed after 0 iterations at t[s]:  10871.31
ElecMinimize: 	Step increased F by 1.842091e-08, reducing alpha to 3.900684e-05.
ElecMinimize: 	Step failed to reduce F after 3 attempts. Quitting step.
ElecMinimize: 	Undoing step.
	Linear fluid (dielectric constant: 64) occupying 0.862299 of unit cell:	Completed after 0 iterations at t[s]:  10872.67
ElecMinimize: 	Step failed: resetting search direction.
	FillingsUpdate:  mu: -0.095165734  nElectrons: 330.000000
	SubspaceRotationAdjust: set factor to 0.787
ElecMinimize: Iter:   8  F: -548.063930189451867  |grad|_K:  2.389e-08  alpha:  3.901e-05
	Linear fluid (dielectric constant: 64) occupying 0.862299 of unit cell:	Completed after 0 iterations at t[s]:  10874.14
	Linear fluid (dielectric constant: 64) occupying 0.862299 of unit cell:	Completed after 0 iterations at t[s]:  10874.81
	FillingsUpdate:  mu: -0.095162372  nElectrons: 330.000000
	SubspaceRotationAdjust: set factor to 0.763
ElecMinimize: Iter:   9  F: -548.063930191507779  |grad|_K:  6.968e-09  alpha:  4.227e-01  linmin: -4.293e-03  t[s]:  10875.65
	Linear fluid (dielectric constant: 64) occupying 0.862299 of unit cell:	Completed after 0 iterations at t[s]:  10876.29
	Linear fluid (dielectric constant: 64) occupying 0.862299 of unit cell:	Completed after 0 iterations at t[s]:  10876.95
	FillingsUpdate:  mu: -0.095161957  nElectrons: 330.000000
	SubspaceRotationAdjust: set factor to 0.985
ElecMinimize: Iter:  10  F: -548.063930193781516  |grad|_K:  3.540e-09  alpha:  1.221e+00  linmin: -4.398e-04  t[s]:  10877.79
ElecMinimize: Converged (|Delta F|<1.000000e-08 for 2 iters).
Setting wave functions to eigenvectors of Hamiltonian

Computing DFT-D3 correction:
# coordination-number C 3.300 3.301 3.316 3.299 3.300 3.304 3.301 3.301 3.321 3.299 3.299 3.311 3.300 3.299 3.307 3.299 3.329 3.302 3.299 3.302 3.308 3.299 3.300 3.308 3.299 3.300 3.299 3.319 3.301 3.300 3.299 3.305 3.300 3.299 3.304 3.300 3.301 3.301 3.300 3.306 3.318 3.299 3.300 3.324 3.300 3.300 3.306 3.299 3.299 3.308 3.299 3.300 3.300 3.316 3.315 3.302 3.299 3.300 3.306 3.300 3.300 3.299 3.321 3.302 3.299 3.303 3.299 3.299 3.309 3.300 3.299 3.300
# coordination-number S 1.243 2.092 2.087 1.228
# coordination-number Na 0.349 0.360
# diagonal-C6 C 24.28 24.27 24.12 24.29 24.28 24.24 24.27 24.27 24.08 24.29 24.29 24.18 24.28 24.29 24.22 24.29 23.98 24.26 24.29 24.26 24.20 24.29 24.28 24.20 24.29 24.28 24.29 24.10 24.28 24.29 24.29 24.24 24.28 24.29 24.24 24.29 24.28 24.27 24.28 24.23 24.10 24.29 24.28 24.04 24.28 24.28 24.22 24.29 24.29 24.21 24.29 24.28 24.29 24.12 24.14 24.26 24.29 24.29 24.23 24.28 24.29 24.29 24.07 24.26 24.29 24.26 24.29 24.29 24.19 24.28 24.29 24.28
# diagonal-C6 S 130.38 125.85 125.86 130.44
# diagonal-C6 Na 1086.99 1056.97
EvdW_6 =   -0.067856
EvdW_8 =   -0.062353

# Ionic positions in cartesian coordinates:
ion C  28.011073766465543  -0.001614124153845  14.199999617166181 1
ion C  16.342589650567312  20.208531567749006  14.161856356721255 1
ion C   2.338968040466707   4.040359425548966  14.086365351525412 1
ion C  23.342531674056545  -0.003007503309212  14.193163029944538 1
ion C   4.673186379377954  -0.001632938321615  14.167168153471593 1
ion C  11.674627409173524  20.209521242229695  14.091549545146526 1
ion C  25.676491929105744   4.040339284064145  14.184429858536731 1
ion C  18.676171418595104  16.166477824665314  14.139864666072395 1
ion C   4.673985915570443   8.083134179832120  13.890550550527538 1
ion C  18.674215428340869  -0.003964853801837  14.166756604258609 1
ion C   9.339717887811082  -0.002460077181330  14.136456617874687 1
ion C   9.341663915379353  16.167007620074742  13.891739330798067 1
ion C  23.343451660444117   8.081412444345805  14.175983168910367 1
ion C  21.009301955290354  12.123406199999939  14.168963974562805 1
ion C   7.008067371739123  12.124691976491473  13.788921629972743 1
ion C  14.006793381036976  -0.003402117218847  14.141206921749857 1
ion C  14.010447294092753  16.167716636892752  13.998383553883738 1
ion C   7.007271048621666   4.039690211265025  14.007429701568404 1
ion C  21.007817368660213   4.039109000334864  14.215928717568307 1
ion C  16.341910753067616  12.124644163645826  14.043576117639452 1
ion C   9.340771177139290   8.082216722918091  13.862101837394723 1
ion C  16.338791174035524   4.039286918800806  14.148095016726831 1
ion C  11.672252887758882   4.039931013554858  14.039544310740586 1
ion C  11.674977741037814  12.125083366525594  13.863143424438173 1
ion C  18.673633180574299   8.082052368795670  14.158136251442119 1
ion C   7.006545207185251  20.208110624999250  14.049056030866796 1
ion C  -6.995868607265935  20.208287146155818  14.205525569545808 1
ion C   0.005040317698609   8.082139093503999  14.042906166506317 1
ion C  14.005730594460065   8.082745641632126  14.008972939941865 1
ion C   2.339754830233577  20.206794209901414  14.094594528161092 1
ion C  -4.660986612602116  16.164799166711386  14.189417753658468 1
ion C   2.340255973428348  12.124105781918850  13.931190522652560 1
ion C  -2.326858065228302  12.122840342422911  14.113353416931782 1
ion C  -2.327734875294844  20.207590144050059  14.173902441678267 1
ion C   4.673849259701187  16.166037985000155  13.924940315554021 1
ion C   0.008009008036018  16.164531209925208  14.084503689775751 1
ion C  14.008030031419562  21.556171186773387  14.164640612364924 1
ion C   2.339310220846033   1.346119799176877  14.165469991781990 1
ion C  25.676099014130617   1.345478798803265  14.207607044945428 1
ion C  16.343181995362016  17.513935898030333  14.100933156874113 1
ion C   4.672743088743976   5.387653950932768  13.982363988027842 1
ion C  21.007868089691012   1.343856602209232  14.202749372759067 1
ion C   7.006304149655501   1.345720437490507  14.109432456488340 1
ion C  11.675140726783479  17.515326588764349  13.982205400033431 1
ion C  23.342571971709493   5.386320011770763  14.199239287480408 1
ion C  18.675156634118615  13.471280830847117  14.121512787036751 1
ion C   7.007369085935381   9.430248538434039  13.812836434019422 1
ion C  16.339884757396419   1.343864332882398  14.156849300332411 1
ion C  11.673072913294456   1.345424839983537  14.106807241281828 1
ion C   9.341276783770311  13.472092616940106  13.816077532478895 1
ion C  21.008401207077210   9.428721084237583  14.178986142848428 1
ion C   9.339987746681166  21.556026197138959  14.115898133691729 1
ion C  -9.329624574756565  21.555892921809658  14.196302382726914 1
ion C   0.004145093831635   5.387138926886659  14.104562158258529 1
ion C  14.009074461500500  13.471992051650222  13.952441262450145 1
ion C   9.340442260031541   5.387641522930354  13.958669518970032 1
ion C  18.673052044873824   5.386598081579396  14.186020251258892 1
ion C  16.340087582087087   9.429695553239300  14.071315977789277 1
ion C  11.674027954862687   9.429641695672540  13.892371478797090 1
ion C  14.005145357996140   5.387210027608503  14.066542605324495 1
ion C   4.672609619332293  21.554612117135239  14.102895947076890 1
ion C  -6.996059505512738  17.512739063385563  14.195598375935823 1
ion C   2.338639017043842   9.429470746785164  13.936684749384792 1
ion C  -2.328388488247461   9.428437888574448  14.110957955644274 1
ion C  -4.662217071384629  21.555682538801303  14.188356003409840 1
ion C   7.006708984603605  17.514789687100965  13.936764947937549 1
ion C   0.005470450072929  21.554626355262602  14.145690750568649 1
ion C  -4.661486058823973  13.469937940526279  14.170538088694750 1
ion C   4.674089910228276  13.471559015933757  13.856033380959268 1
ion C   2.341581644676015  17.512365746253604  14.031828426239873 1
ion C  -2.326564294186044  17.511727097517916  14.165371766071759 1
ion C   0.007543712656800  13.469313976304464  14.044087233656690 1
ion S   5.543134219352077  13.827838592720676  20.137283029405033 1
ion S   6.203913693188929  13.018189558813834  23.743905313326710 1
ion S   9.014438730499148   9.822407850958925  23.780895902893651 1
ion S   9.697677252455435   8.949295722855906  20.192006525956089 1
ion Na   2.611402868228227   7.067389867591785  20.640558429369566 1
ion Na  12.491257397884510  15.765980556317155  20.725624117414753 1

# Forces in Cartesian coordinates:
force C  -0.000207005493775  -0.000191868549205  -0.000680316390434 1
force C  -0.000230615859338   0.000096933556231  -0.000037292395488 1
force C   0.000217215647235   0.000230944790383  -0.000087623625610 1
force C  -0.000088977644663  -0.000164276428496  -0.000292063639544 1
force C  -0.000106825687762  -0.000192837598502  -0.000149241155314 1
force C  -0.000192933413801  -0.000347570991852  -0.000058717974565 1
force C   0.000159421936745  -0.000187483896054  -0.000031605267027 1
force C   0.000092793697082  -0.000312729314733   0.000295499079188 1
force C  -0.000131749473752  -0.000355442672257  -0.000120862578216 1
force C   0.000088608235395  -0.000054415505874  -0.000193062694180 1
force C   0.000143999045282  -0.000179490539861   0.000128703015161 1
force C  -0.000013072254281   0.000257467081819   0.000161586977422 1
force C  -0.000237696378765  -0.000027797871996  -0.000165384560086 1
force C  -0.000046752638311   0.000076484991436  -0.000402410239238 1
force C  -0.000311165109816  -0.000137054981323   0.000437874014903 1
force C  -0.000082750136325  -0.000056512482434   0.000008058878563 1
force C  -0.000497672869373  -0.000156890714461   0.000045532444972 1
force C  -0.000445423142457   0.000193146613054   0.000213514808113 1
force C  -0.000118334647292   0.000035236001291  -0.000298550545769 1
force C  -0.000124538911691  -0.000129433128764   0.000284724841181 1
force C  -0.000229353806688  -0.000260633323850  -0.000009670786347 1
force C   0.000069285594686   0.000206228442322  -0.000139746044137 1
force C   0.000181608076545  -0.000096046380091   0.000200059533253 1
force C   0.000108587773784   0.000138967154513   0.000141838065900 1
force C  -0.000168471163266  -0.000140980666201  -0.000078920522297 1
force C   0.000172094013527  -0.000146519575621   0.000239279712799 1
force C   0.000026413497441  -0.000151145623470  -0.000500315991376 1
force C   0.000256835072839  -0.000162243725725   0.000539857852344 1
force C   0.000343772023280  -0.000272974557545  -0.000380770428115 1
force C  -0.000147611021396   0.000064041369895   0.000113238068931 1
force C  -0.000139045788423   0.000111385157662  -0.000430238834238 1
force C  -0.000117200262134  -0.000072455335743  -0.000132794734866 1
force C  -0.000093920025652   0.000176130509843   0.000067220504818 1
force C  -0.000160714392682  -0.000225283019907  -0.000122412554909 1
force C  -0.000026306799830  -0.000021117934027   0.000082326310861 1
force C  -0.000305670881755   0.000060020979754  -0.000257790154938 1
force C   0.000163436720769   0.000181523233987  -0.000252077723572 1
force C   0.000005058895377  -0.000086409992730  -0.000378064971694 1
force C   0.000375667147050  -0.000305863480285  -0.000376977048931 1
force C  -0.000306668715014   0.000133852908406   0.000368611486037 1
force C   0.000150840915048   0.000101063893358   0.000393222206485 1
force C   0.000023598872607   0.000037701904653  -0.000308279399158 1
force C   0.000125418577293   0.000067243013174   0.000082799184363 1
force C  -0.000075137503913  -0.000221900067802  -0.000004399214939 1
force C  -0.000236613430645   0.000370746204520   0.000089451791726 1
force C   0.000179849899243   0.000007762606625   0.000220914977487 1
force C  -0.000145534141956   0.000015156301394   0.000256781941725 1
force C   0.000188747302860   0.000139219688173   0.000143294124015 1
force C  -0.000013688899135  -0.000250267219698   0.000386429139773 1
force C   0.000162731946295   0.000178568326624   0.000044427231635 1
force C   0.000148576263166  -0.000051838886394  -0.000307112036914 1
force C   0.000075721809459  -0.000010492799420  -0.000089378477948 1
force C  -0.000027851783462   0.000397380053616  -0.000327679466907 1
force C   0.000319028180615   0.000199846942813  -0.000065354716602 1
force C  -0.000354228518620   0.000084915652144   0.000446607023147 1
force C  -0.000264048591629   0.000229003539148  -0.000080686584863 1
force C   0.000063568675058   0.000117529763647  -0.000473194541746 1
force C   0.000006489249413  -0.000238632608541   0.000017150523717 1
force C   0.000133598347040   0.000102371651910  -0.000068874007396 1
force C   0.000539817378150   0.000356050663689  -0.000101093242723 1
force C   0.000054401147782   0.000348138807787   0.000207910786700 1
force C   0.000402999447053   0.000116354070421  -0.000213814346767 1
force C   0.000221140103425  -0.000050825027205   0.000360476135512 1
force C  -0.000029052806121   0.000032272956062   0.000213658394829 1
force C   0.000160711482822   0.000193039866716  -0.000218370949583 1
force C   0.000597107060907  -0.000134007727723   0.000583608367079 1
force C   0.000083244302095   0.000130232062575  -0.000138355646089 1
force C   0.000145187899549   0.000083211152887  -0.000175924307853 1
force C   0.000075508376901  -0.000216623748086  -0.000202853062210 1
force C  -0.000513511058757  -0.000096340030486   0.000174354873140 1
force C   0.000178593095927   0.000097507331904  -0.000263693732756 1
force C  -0.000069845518391   0.000384833914916  -0.000173363381131 1
force S  -0.001047710595225   0.000351332490401   0.000811741052398 1
force S  -0.000082681447233   0.000433248113663   0.000591633543317 1
force S   0.000061264535578  -0.000558609761804   0.000517584892872 1
force S   0.000560360921816  -0.000402751948991   0.000680001238333 1
force Na   0.000278480911288   0.000213479237813  -0.000198019334300 1
force Na   0.000050016426501  -0.000124514342923  -0.000330023812182 1

# Energy components:
   A_diel =       -0.2963293555483285
   Eewald =     3936.4437821682745380
       EH =     4376.2488072336946061
     Eloc =    -8897.7925112199554860
      Enl =      -78.8446149855830924
     EvdW =       -0.1302088088951127
      Exc =     -161.9440504896275854
 Exc_core =        9.4955887157948204
       KE =      268.8266689993409955
-------------------------------------
     Etot =     -547.9928677425052683
       TS =        0.0710624512762380
-------------------------------------
        F =     -548.0639301937815162

IonicMinimize: Iter: 106  F: -548.063930193781516  |grad|_K:  2.560e-04  alpha:  1.215e-01  linmin:  2.915e-03  t[s]:  10881.03
IonicMinimize: Converged (|Delta F|<1.000000e-06 for 2 iters).

#--- Lowdin population analysis ---
# oxidation-state C +0.029 +0.029 +0.027 +0.030 +0.029 +0.028 +0.029 +0.029 +0.028 +0.030 +0.030 +0.028 +0.030 +0.030 +0.037 +0.031 +0.027 +0.029 +0.030 +0.029 +0.032 +0.031 +0.030 +0.030 +0.030 +0.030 +0.030 +0.028 +0.030 +0.031 +0.030 +0.030 +0.030 +0.031 +0.030 +0.030 +0.029 +0.029 +0.029 +0.028 +0.028 +0.030 +0.030 +0.027 +0.030 +0.029 +0.035 +0.031 +0.031 +0.032 +0.030 +0.029 +0.030 +0.028 +0.028 +0.030 +0.030 +0.030 +0.032 +0.030 +0.031 +0.030 +0.028 +0.029 +0.030 +0.030 +0.031 +0.030 +0.032 +0.030 +0.030 +0.030
# oxidation-state S -0.405 -0.000 -0.001 -0.407
# oxidation-state Na +0.963 +0.962


Dumping 'Na2S4@graphene_vdw-PC.fillings' ... done
Dumping 'Na2S4@graphene_vdw-PC.wfns' ... done
Dumping 'Na2S4@graphene_vdw-PC.fluidState' ... done
Dumping 'Na2S4@graphene_vdw-PC.ionpos' ... done
Dumping 'Na2S4@graphene_vdw-PC.eigenvals' ... done
End date and time: Fri Jan  3 18:35:56 2025  (Duration: 0-3:01:22.80)
Done!
