
*************** JDFTx 1.7.0  ***************

Start date and time: Fri Jan  3 15:34:33 2025
Executable jdftx_gpu with command-line: -i /home/akim2/JDFTx/Na2S2@graphene_vdw-glyme/Na2S2@graphene_vdw-glyme.in -o /home/akim2/JDFTx/Na2S2@graphene_vdw-glyme/Na2S2@graphene_vdw-glyme.out
Running on hosts (process indices):  exp-3-59 (0)
Divided in process groups (process indices):  0 (0)
gpuInit: Found compatible cuda device 0 'Tesla V100-SXM2-32GB'
gpuInit: Selected device 0
Resource initialization completed at t[s]:      0.66
Run totals: 1 processes, 1 threads, 1 GPUs


Input parsed successfully to the following command list (including defaults):

basis kpoint-dependent
coords-type Cartesian
core-overlap-check vector
coulomb-interaction Slab 001
coulomb-truncation-embed 0 0 18.8973
davidson-band-ratio 1.1
dump End State
dump-name Na2S2@graphene_vdw-glyme.$VAR
elec-cutoff 20 100
elec-eigen-algo Davidson
elec-ex-corr gga-PBE
elec-smearing Fermi 0.01
electronic-minimize  \
	dirUpdateScheme      FletcherReeves \
	linminMethod         DirUpdateRecommended \
	nIterations          100 \
	history              15 \
	knormThreshold       0 \
	energyDiffThreshold  1e-08 \
	nEnergyDiff          2 \
	alphaTstart          1 \
	alphaTmin            1e-10 \
	updateTestStepSize   yes \
	alphaTreduceFactor   0.1 \
	alphaTincreaseFactor 3 \
	nAlphaAdjustMax      3 \
	wolfeEnergy          0.0001 \
	wolfeGradient        0.9 \
	fdTest               no
electronic-scf  \
	nIterations	50 \
	energyDiffThreshold	1e-08 \
	residualThreshold	1e-07 \
	mixFraction	0.5 \
	qMetric	0.8 \
	history	10 \
	nEigSteps	2 \
	eigDiffThreshold	1e-08 \
	mixedVariable	Density \
	qKerker	0.8 \
	qKappa	-1 \
	verbose	no \
	mixFractionMag	1.5
exchange-regularization WignerSeitzTruncated
fluid LinearPCM 298.000000 1.013250
fluid-ex-corr lda-TF lda-PZ
fluid-gummel-loop 10 1.000000e-05
fluid-minimize  \
	dirUpdateScheme      PolakRibiere \
	linminMethod         DirUpdateRecommended \
	nIterations          400 \
	history              15 \
	knormThreshold       1e-11 \
	energyDiffThreshold  0 \
	nEnergyDiff          2 \
	alphaTstart          1 \
	alphaTmin            1e-10 \
	updateTestStepSize   yes \
	alphaTreduceFactor   0.1 \
	alphaTincreaseFactor 3 \
	nAlphaAdjustMax      6 \
	wolfeEnergy          0.0001 \
	wolfeGradient        0.9 \
	fdTest               no
fluid-solvent Glyme 9.62137 ScalarEOS \
	epsBulk 7.2 \
	pMol 0 \
	epsInf 1.9 \
	Pvap 0 \
	sigmaBulk 0 \
	Rvdw 0 \
	Res 0 \
	tauNuc 343133
forces-output-coords Positions
ion C  27.962335914315943  -0.001769463218393  18.997292717605230 1
ion C  16.294468692030708  20.209054935488847  18.990268141202147 1
ion C   2.287019718970346   4.038678481929088  18.976592694003951 1
ion C  23.295881840251120   0.000002405241653  19.006007333397161 1
ion C   4.622179727057690  -0.004432833683947  19.001663422840185 1
ion C  11.629056825320662  20.211630551590378  18.985788810898352 1
ion C  25.627954879725802   4.039959569554116  18.991008809249639 1
ion C  18.628874706986075  16.166474657415034  18.978319015314913 1
ion C   4.618714120006158   8.080647681548756  18.908789778560408 1
ion C  18.628267155992646  -0.000675987896162  19.013391934026071 1
ion C   9.290776346356447  -0.005793805879835  19.008545836133955 1
ion C   9.299058524221172  16.168059051201666  18.921069475537802 1
ion C  23.295168939698932   8.081721468429246  18.987326215164714 1
ion C  20.962073939067977  12.123987502899642  18.981968692170142 1
ion C   6.956895642958899  12.122053941580011  18.852011677206349 1
ion C  13.961024442776539  -0.004362139850341  19.015270699596993 1
ion C  13.964627223435283  16.167840774997693  18.950430894492790 1
ion C   6.951355638680933   4.034899965143950  18.966407783053686 1
ion C  20.962508084867146   4.040304129800457  19.002791026105474 1
ion C  16.296991885011991  12.125711754944351  18.950537853669530 1
ion C   9.290768265335348   8.084444850916997  18.871455105841576 1
ion C  16.298115692872518   4.038484967561753  18.998172903489579 1
ion C  11.630209576354293   4.034279831745303  18.977100948167784 1
ion C  11.633317036050723  12.127448431156381  18.877200972669485 1
ion C  18.630729697029668   8.082461896531097  18.984298949978459 1
ion C   6.959334642644263  20.216844222039292  18.997022797035232 1
ion C  -7.045083709478139  20.207878643400047  19.002986878414777 1
ion C  -0.045930171472412   8.081009293814786  18.964953019907416 1
ion C  13.966801559146447   8.083248509846328  18.932626625584202 1
ion C   2.289035957805686  20.210857205575163  19.007858030508491 1
ion C  -4.711590728388570  16.165542363124271  18.993999310093770 1
ion C   2.284424774161561  12.120852343017601  18.934017660795067 1
ion C  -2.378692626493680  12.123113314048563  18.979505319440278 1
ion C  -2.377957708025320  20.207858007650120  19.009731324834252 1
ion C   4.618087326263202  16.167375057491547  18.948993998103916 1
ion C  -0.047314984314006  16.165686654987486  18.986562999153609 1
ion C  13.962088271033611  21.557151454541312  18.992851764760509 1
ion C   2.289472366323620   1.344405206270262  18.993642510602069 1
ion C  25.629585579660116   1.346019484742202  18.999540840229280 1
ion C  16.296594747044360  17.514954531364651  18.974678165518462 1
ion C   4.619293893248512   5.386036185447165  18.949094928148895 1
ion C  20.961765458609189   1.345986042826211  19.009507235125547 1
ion C   6.955709771327852   1.340297411541919  18.998443207623705 1
ion C  11.633819688088707  17.517339684334480  18.955434077282352 1
ion C  23.295194180998795   5.388226602576820  18.993830763811044 1
ion C  18.629500879486152  13.472409544805302  18.971634797720810 1
ion C   6.950926012280193   9.428483229531444  18.859922287187132 1
ion C  16.294104143414248   1.344168526492362  19.012109799739960 1
ion C  11.626222901881388   1.339162681095249  19.007307057486823 1
ion C   9.296302161707903  13.469238911524476  18.862739014622367 1
ion C  20.962690255898163   9.429886445394770  18.985977706017351 1
ion C   9.294617860987307  21.560010450943107  18.999605900991366 1
ion C  -9.378142221550620  21.555095119043926  19.001369388542358 1
ion C  -0.045116246702255   5.386808121465748  18.976700643536386 1
ion C  13.964531340891208  13.473287020424721  18.923426273339441 1
ion C   9.289876110251114   5.382009866928257  18.940176719908280 1
ion C  18.630093087854817   5.387877691735093  18.997275662671502 1
ion C  16.298926758518398   9.431723867104051  18.957358216214605 1
ion C  11.632785833522174   9.433377565322091  18.877300407112145 1
ion C  13.965072260995367   5.385315117522326  18.969594446647370 1
ion C   4.622948978571074  21.559297350373470  19.009058674452639 1
ion C  -7.044289882765842  17.513607853317378  18.993993783540862 1
ion C   2.286223154503827   9.427463516521625  18.934107634946120 1
ion C  -2.378031405726318   9.429031408224711  18.976793772978198 1
ion C  -4.711787716733499  21.554487787728895  19.010705465980887 1
ion C   6.958669857276497  17.518976835428884  18.958998042315113 1
ion C  -0.044895498693050  21.555365263759768  19.014736403391055 1
ion C  -4.711503868613189  13.471641200561878  18.987445114920988 1
ion C   4.618574078828560  13.467414468144399  18.901048865946052 1
ion C   2.283362232820791  17.516501121755400  18.987506208487286 1
ion C  -2.379298957838053  17.513736944651267  19.000493049595669 1
ion C  -0.046646104042781  13.470075791393731  18.968784121788747 1
ion S  10.229816937479892  11.971655633491064  26.337690902544910 1
ion S   6.530837112060447  10.646637398013551  26.262485506899239 1
ion Na   9.816470151725399   7.481344634233367  23.947249914760658 1
ion Na   7.065622867681638  15.168080324279806  23.915688715684158 1
ion-species GBRV/$ID_pbe.uspp
ion-width Ecut
ionic-minimize  \
	dirUpdateScheme      FletcherReeves \
	linminMethod         DirUpdateRecommended \
	nIterations          200 \
	history              15 \
	knormThreshold       0.0001 \
	energyDiffThreshold  1e-06 \
	nEnergyDiff          2 \
	alphaTstart          1 \
	alphaTmin            1e-10 \
	updateTestStepSize   yes \
	alphaTreduceFactor   0.1 \
	alphaTincreaseFactor 3 \
	nAlphaAdjustMax      3 \
	wolfeEnergy          0.0001 \
	wolfeGradient        0.9 \
	fdTest               no
kpoint   0.000000000000   0.000000000000   0.000000000000  1.00000000000000
kpoint-folding 1 1 1 
latt-move-scale 1 1 1
latt-scale 1 1 1 
lattice Triclinic 28.0058 28.0058 37.7946 90 90 120
lattice-minimize  \
	dirUpdateScheme      L-BFGS \
	linminMethod         DirUpdateRecommended \
	nIterations          0 \
	history              15 \
	knormThreshold       0 \
	energyDiffThreshold  1e-06 \
	nEnergyDiff          2 \
	alphaTstart          1 \
	alphaTmin            1e-10 \
	updateTestStepSize   yes \
	alphaTreduceFactor   0.1 \
	alphaTincreaseFactor 3 \
	nAlphaAdjustMax      3 \
	wolfeEnergy          0.0001 \
	wolfeGradient        0.9 \
	fdTest               no
lcao-params -1 1e-06 0.01
pcm-variant GLSSA13
spintype no-spin
subspace-rotation-factor 1 yes
symmetries automatic
symmetry-threshold 0.0001
van-der-waals D3



---------- Setting up symmetries ----------

Found 24 point-group symmetries of the bravais lattice
Found 1 space-group symmetries with basis
Applied RMS atom displacement 0 bohrs to make symmetries exact.

---------- Initializing the Grid ----------
R = 
[      28.0058     -14.0029            0  ]
[            0      24.2537            0  ]
[            0            0      37.7946  ]
unit cell volume = 25671.8
G =
[   0.224353    0.12953         -0  ]
[          0   0.259061          0  ]
[          0         -0   0.166246  ]
Minimum fftbox size, Smin = [  128  128  172  ]
Chosen fftbox size, S = [  128  128  180  ]

---------- Initializing tighter grid for wavefunction operations ----------
R = 
[      28.0058     -14.0029            0  ]
[            0      24.2537            0  ]
[            0            0      37.7946  ]
unit cell volume = 25671.8
G =
[   0.224353    0.12953         -0  ]
[          0   0.259061          0  ]
[          0         -0   0.166246  ]
Minimum fftbox size, Smin = [  116  116  156  ]
Chosen fftbox size, S = [  120  120  160  ]

---------- Exchange Correlation functional ----------
Initalized PBE GGA exchange.
Initalized PBE GGA correlation.

---------- Setting up pseudopotentials ----------
Width of ionic core gaussian charges (only for fluid interactions / plotting) set to 0.397384

Reading pseudopotential file '/home/akim2/jdftx_install/build/pseudopotentials/GBRV/c_pbe.uspp':
  Title: C.  Created by USPP 7.3.6 on 3-2-2014
  Reference state energy: -5.406344.  4 valence electrons in orbitals:
    |200>  occupation: 2  eigenvalue: -0.504890
    |210>  occupation: 2  eigenvalue: -0.194356
  lMax: 1  lLocal: 2  QijEcut: 5
  4 projectors sampled on a log grid with 503 points:
    l: 0  eig: -0.504890  rCut: 1.3
    l: 0  eig: 0.000000  rCut: 1.3
    l: 1  eig: -0.194357  rCut: 1.3
    l: 1  eig: 0.000000  rCut: 1.3
  Partial core density with radius 1.1
  Transforming core density to a uniform radial grid of dG=0.02 with 1625 points.
  Transforming local potential to a uniform radial grid of dG=0.02 with 1625 points.
  Transforming nonlocal projectors to a uniform radial grid of dG=0.02 with 432 points.
  Transforming density augmentations to a uniform radial grid of dG=0.02 with 1625 points.
  Transforming atomic orbitals to a uniform radial grid of dG=0.02 with 432 points.
  Core radius for overlap checks: 1.30 bohrs.

Reading pseudopotential file '/home/akim2/jdftx_install/build/pseudopotentials/GBRV/s_pbe.uspp':
  Title: S.  Created by USPP 7.3.6 on 1-4-15
  Reference state energy: -11.898476.  6 valence electrons in orbitals:
    |300>  occupation: 2  eigenvalue: -0.634167
    |310>  occupation: 4  eigenvalue: -0.257568
  lMax: 2  lLocal: 3  QijEcut: 6
  6 projectors sampled on a log grid with 635 points:
    l: 0  eig: -0.634161  rCut: 1.5
    l: 0  eig: 1.500000  rCut: 1.5
    l: 1  eig: -0.257567  rCut: 1.5
    l: 1  eig: 1.500000  rCut: 1.5
    l: 2  eig: -1.000000  rCut: 1.5
    l: 2  eig: 1.500000  rCut: 1.5
  Partial core density with radius 1.15
  Transforming core density to a uniform radial grid of dG=0.02 with 1625 points.
  Transforming local potential to a uniform radial grid of dG=0.02 with 1625 points.
  Transforming nonlocal projectors to a uniform radial grid of dG=0.02 with 432 points.
  Transforming density augmentations to a uniform radial grid of dG=0.02 with 1625 points.
  Transforming atomic orbitals to a uniform radial grid of dG=0.02 with 432 points.
  Core radius for overlap checks: 1.50 bohrs.

Reading pseudopotential file '/home/akim2/jdftx_install/build/pseudopotentials/GBRV/na_pbe.uspp':
  Title: Na.  Created by USPP 7.3.6 on 23-9-15
  Reference state energy: -47.625620.  9 valence electrons in orbitals:
    |200>  occupation: 2  eigenvalue: -2.085638
    |210>  occupation: 6  eigenvalue: -1.053708
    |300>  occupation: 1  eigenvalue: -0.100838
  lMax: 2  lLocal: 0  QijEcut: 6
  5 projectors sampled on a log grid with 657 points:
    l: 0  eig: -2.085640  rCut: 1.37
    l: 0  eig: -0.100839  rCut: 1.37
    l: 1  eig: -1.053708  rCut: 1.47
    l: 1  eig: 0.500000  rCut: 1.47
    l: 2  eig: 0.750000  rCut: 2
  Transforming local potential to a uniform radial grid of dG=0.02 with 1625 points.
  Transforming nonlocal projectors to a uniform radial grid of dG=0.02 with 432 points.
  Transforming density augmentations to a uniform radial grid of dG=0.02 with 1625 points.
  Transforming atomic orbitals to a uniform radial grid of dG=0.02 with 432 points.
  Core radius for overlap checks: 2.00 bohrs.

Initialized 3 species with 76 total atoms.

Folded 1 k-points by 1x1x1 to 1 k-points.

---------- Setting up k-points, bands, fillings ----------
No reducable k-points. 
Computing the number of bands and number of electrons
Calculating initial fillings.
nElectrons: 318.000000   nBands: 306   nStates: 1

----- Setting up reduced wavefunction bases (one per k-point) -----
average nbasis = 109673.000 , ideal nbasis = 109671.883

---------- Setting up coulomb interaction ----------
Fluid mode embedding: using embedded box, but periodic Coulomb kernel.
(Fluid response is responsible for (approximate) separation between periodic images.)
Setting up double-sized grid for truncated Coulomb potentials:
R = 
[      28.0058     -14.0029            0  ]
[            0      24.2537            0  ]
[            0            0      75.5892  ]
unit cell volume = 51343.6
G =
[   0.224353    0.12953         -0  ]
[          0   0.259061          0  ]
[          0         -0  0.0831228  ]
Chosen fftbox size, S = [  128  128  360  ]
Integer grid location selected as the embedding center:
   Grid: [  0  0  90  ]
   Lattice: [  0  0  0.5  ]
   Cartesian: [  0  0  18.8973  ]
Constructing Wigner-Seitz cell: 8 faces (6 quadrilaterals, 2 hexagons)
Range-separation parameter for embedded mesh potentials due to point charges: 0.590105 bohrs.

Initializing DFT-D3 calculator:
	Parameters set for gga-PBE functional
	s6:  1.000  s_r6:  1.217
	s8:  0.722  s_r8:  1.000
	Per-atom parameters loaded for:
	 C:  sqrtQ[a0]:  3.105  Rcov[a0]:  1.417  CN: [ 0.00 0.99 2.00 3.00 3.98 ]
	 S:  sqrtQ[a0]:  4.041  Rcov[a0]:  1.928  CN: [ 0.00 0.99 1.99 ]
	Na:  sqrtQ[a0]:  6.586  Rcov[a0]:  2.646  CN: [ 0.00 0.97 ]

---------- Setting up ewald sum ----------
Optimum gaussian width for ewald sums = 7.204490 bohr.
Real space sum over 405 unit cells with max indices [  4  4  2  ]
Reciprocal space sum over 7875 terms with max indices [  7  7  17  ]

Computing DFT-D3 correction:
# coordination-number C 3.301 3.301 3.302 3.301 3.301 3.303 3.301 3.301 3.318 3.301 3.301 3.694 3.301 3.301 3.519 3.301 3.304 3.342 3.301 3.302 4.002 3.302 3.390 3.334 3.301 3.322 3.301 3.302 3.359 3.302 3.301 3.311 3.301 3.301 3.651 3.302 3.301 3.301 3.301 3.302 3.311 3.300 3.303 3.319 3.301 3.301 3.436 3.301 3.304 3.573 3.301 3.303 3.301 3.301 3.305 3.768 3.301 3.304 3.595 3.334 3.303 3.301 3.305 3.301 3.301 3.745 3.301 3.301 3.541 3.315 3.301 3.302
# coordination-number S 2.918 2.914
# coordination-number Na 3.952 4.068
# diagonal-C6 C 24.27 24.27 24.27 24.27 24.27 24.25 24.27 24.27 24.10 24.27 24.27 19.35 24.27 24.27 21.36 24.27 24.24 23.84 24.27 24.26 18.32 24.26 23.25 23.93 24.27 24.06 24.28 24.26 23.64 24.26 24.28 24.17 24.27 24.28 19.72 24.26 24.27 24.27 24.28 24.27 24.17 24.28 24.25 24.09 24.28 24.27 22.59 24.28 24.24 20.61 24.27 24.26 24.27 24.27 24.23 18.89 24.27 24.25 20.34 23.93 24.26 24.27 24.24 24.27 24.27 19.02 24.27 24.27 21.05 24.13 24.27 24.26
# diagonal-C6 S 125.81 125.81
# diagonal-C6 Na 186.11 186.11
EvdW_6 =   -0.060034
EvdW_8 =   -0.050373

---------- Allocating electronic variables ----------
Initializing wave functions:  linear combination of atomic orbitals
C pseudo-atom occupations:   s ( 2 )  p ( 2 )
S pseudo-atom occupations:   s ( 2 )  p ( 4 )
Na pseudo-atom occupations:   s ( 2 1 )  p ( 6 )
	FillingsUpdate:  mu: -0.182048527  nElectrons: 318.000000
LCAOMinimize: Iter:   0  F: -522.2121452857531949  |grad|_K:  1.100e-02  alpha:  1.000e+00
LCAOMinimize: 	Step increased F by 1.240551e+00, reducing alpha to 3.318219e-02.
	FillingsUpdate:  mu: -0.196881390  nElectrons: 318.000000
LCAOMinimize: Iter:   1  F: -522.6643315513512107  |grad|_K:  9.738e-03  alpha:  3.318e-02  linmin: -1.510e-01  cgtest:  7.096e-01  t[s]:     10.50
	FillingsUpdate:  mu: -0.205498620  nElectrons: 318.000000
LCAOMinimize: Iter:   2  F: -522.9135785317972704  |grad|_K:  4.179e-03  alpha:  6.658e-02  linmin:  1.465e-01  cgtest: -9.909e-01  t[s]:     12.13
LCAOMinimize: 	Bad step direction: g.d > 0.
LCAOMinimize: 	Undoing step.
LCAOMinimize: 	Step failed: resetting search direction.
	FillingsUpdate:  mu: -0.205498620  nElectrons: 318.000000
LCAOMinimize: Iter:   3  F: -522.9135785317972704  |grad|_K:  4.179e-03  alpha:  0.000e+00
	FillingsUpdate:  mu: -0.235075701  nElectrons: 318.000000
LCAOMinimize: Iter:   4  F: -522.9690186212493472  |grad|_K:  7.676e-04  alpha:  6.774e-02  linmin:  2.231e-01  cgtest: -7.233e-01  t[s]:     19.03
	FillingsUpdate:  mu: -0.233654205  nElectrons: 318.000000
LCAOMinimize: Iter:   5  F: -522.9698539286273444  |grad|_K:  1.067e-03  alpha:  1.795e-01  linmin:  1.749e-04  cgtest:  9.556e-01  t[s]:     23.18
	FillingsUpdate:  mu: -0.232109921  nElectrons: 318.000000
LCAOMinimize: Iter:   6  F: -522.9733346853565763  |grad|_K:  2.647e-04  alpha:  6.738e-02  linmin:  1.644e-02  cgtest: -3.589e-01  t[s]:     24.92
LCAOMinimize: 	Predicted alpha/alphaT>3.000000, increasing alphaT to 2.021470e-01.
	FillingsUpdate:  mu: -0.232389355  nElectrons: 318.000000
LCAOMinimize: Iter:   7  F: -522.9750398807268539  |grad|_K:  7.746e-05  alpha:  5.695e-01  linmin:  8.019e-03  cgtest:  3.062e-01  t[s]:     29.18
LCAOMinimize: Encountered beta<0, resetting CG.
	FillingsUpdate:  mu: -0.232979611  nElectrons: 318.000000
LCAOMinimize: Iter:   8  F: -522.9750636475667989  |grad|_K:  5.021e-05  alpha:  8.337e-02  linmin: -1.726e-03  cgtest:  1.245e-02  t[s]:     31.03
LCAOMinimize: 	Predicted alpha/alphaT>3.000000, increasing alphaT to 2.501170e-01.
	FillingsUpdate:  mu: -0.232858109  nElectrons: 318.000000
LCAOMinimize: Iter:   9  F: -522.9751009656797578  |grad|_K:  2.576e-05  alpha:  3.118e-01  linmin: -2.549e-05  cgtest: -3.859e-02  t[s]:     33.11
	FillingsUpdate:  mu: -0.232983485  nElectrons: 318.000000
LCAOMinimize: Iter:  10  F: -522.9751114367575155  |grad|_K:  1.141e-05  alpha:  3.347e-01  linmin:  1.619e-05  cgtest:  4.838e-03  t[s]:     34.67
	FillingsUpdate:  mu: -0.232900958  nElectrons: 318.000000
LCAOMinimize: Iter:  11  F: -522.9751120526733530  |grad|_K:  8.710e-06  alpha:  1.005e-01  linmin:  4.580e-05  cgtest: -7.320e-04  t[s]:     36.27
	FillingsUpdate:  mu: -0.232948906  nElectrons: 318.000000
LCAOMinimize: Iter:  12  F: -522.9751128947771122  |grad|_K:  2.882e-06  alpha:  2.357e-01  linmin:  1.014e-04  cgtest:  2.279e-03  t[s]:     37.90
LCAOMinimize: Converged (|Delta F|<1.000000e-06 for 2 iters).
----- createFluidSolver() ----- (Fluid-side solver setup)
   Initializing fluid molecule 'Glyme'
     Net charge: 0   dipole magnitude: 0
     Initializing spherical shell mfKernel with radius 0 Bohr
     deltaS corrections:

Correction to mu due to finite nuclear width = -0.00614526
   Cavity determined by nc: 8.36e-05 and sigma: 0.6
   Effective cavity tension: -8.03e-06 Eh/bohr^2 to account for cavitation and dispersion.


---- Citations for features of the code used in this run ----

   Software package:
      R. Sundararaman, K. Letchworth-Weaver, K.A. Schwarz, D. Gunceler, Y. Ozhabes and T.A. Arias, 'JDFTx: software for joint density-functional theory', SoftwareX 6, 278 (2017)

   gga-PBE exchange-correlation functional:
      J.P. Perdew, K. Burke and M. Ernzerhof, Phys. Rev. Lett. 77, 3865 (1996)

   Pseudopotentials:
      KF Garrity, JW Bennett, KM Rabe and D Vanderbilt, Comput. Mater. Sci. 81, 446 (2014)

   Truncated Coulomb potentials:
      R. Sundararaman and T.A. Arias, Phys. Rev. B 87, 165122 (2013)

   DFT-D3 dispersion correction:
      S. Grimme, J. Antony, S. Ehrlich and H. Krieg, J. Chem. Phys. 132, 154104 (2010)

   Linear/nonlinear dielectric/ionic fluid model with effective cavity tension:
      D. Gunceler, K. Letchworth-Weaver, R. Sundararaman, K.A. Schwarz and T.A. Arias, Modelling Simul. Mater. Sci. Eng. 21, 074005 (2013)

This list may not be complete. Please suggest additional citations or
report any other bugs at https://github.com/shankar1729/jdftx/issues

Initialization completed successfully at t[s]:     38.07


Computing DFT-D3 correction:
# coordination-number C 3.301 3.301 3.302 3.301 3.301 3.303 3.301 3.301 3.318 3.301 3.301 3.694 3.301 3.301 3.519 3.301 3.304 3.342 3.301 3.302 4.002 3.302 3.390 3.334 3.301 3.322 3.301 3.302 3.359 3.302 3.301 3.311 3.301 3.301 3.651 3.302 3.301 3.301 3.301 3.302 3.311 3.300 3.303 3.319 3.301 3.301 3.436 3.301 3.304 3.573 3.301 3.303 3.301 3.301 3.305 3.768 3.301 3.304 3.595 3.334 3.303 3.301 3.305 3.301 3.301 3.745 3.301 3.301 3.541 3.315 3.301 3.302
# coordination-number S 2.918 2.914
# coordination-number Na 3.952 4.068
# diagonal-C6 C 24.27 24.27 24.27 24.27 24.27 24.25 24.27 24.27 24.10 24.27 24.27 19.35 24.27 24.27 21.36 24.27 24.24 23.84 24.27 24.26 18.32 24.26 23.25 23.93 24.27 24.06 24.28 24.26 23.64 24.26 24.28 24.17 24.27 24.28 19.72 24.26 24.27 24.27 24.28 24.27 24.17 24.28 24.25 24.09 24.28 24.27 22.59 24.28 24.24 20.61 24.27 24.26 24.27 24.27 24.23 18.89 24.27 24.25 20.34 23.93 24.26 24.27 24.24 24.27 24.27 19.02 24.27 24.27 21.05 24.13 24.27 24.26
# diagonal-C6 S 125.81 125.81
# diagonal-C6 Na 186.11 186.11
EvdW_6 =   -0.060034
EvdW_8 =   -0.050373
Fluid solver invoked on fresh (random / LCAO) wavefunctions
Running a vacuum solve first:

-------- Initial electronic minimization -----------
Will mix electronic density at each iteration.
	FillingsUpdate:  mu: -0.232948906  nElectrons: 318.000000
	FillingsUpdate:  mu: -0.240164547  nElectrons: 318.000000
SCF: Cycle:  0   F: -526.413553999192914   dF: -3.438e+00   |Residual|: 9.488e-01   |deigs|: 1.257e-01  t[s]:     44.44
	FillingsUpdate:  mu: -0.214071429  nElectrons: 318.000000
SCF: Cycle:  1   F: -526.897664519192858   dF: -4.841e-01   |Residual|: 4.892e-01   |deigs|: 3.576e-02  t[s]:     47.71
	FillingsUpdate:  mu: -0.180913635  nElectrons: 318.000000
SCF: Cycle:  2   F: -527.223110368351627   dF: -3.254e-01   |Residual|: 1.362e-01   |deigs|: 3.091e-02  t[s]:     50.97
	FillingsUpdate:  mu: -0.173684794  nElectrons: 318.000000
SCF: Cycle:  3   F: -527.233475020685887   dF: -1.036e-02   |Residual|: 8.363e-02   |deigs|: 9.473e-03  t[s]:     54.27
	FillingsUpdate:  mu: -0.163025048  nElectrons: 318.000000
SCF: Cycle:  4   F: -527.269272609338714   dF: -3.580e-02   |Residual|: 4.826e-02   |deigs|: 8.808e-03  t[s]:     57.52
	FillingsUpdate:  mu: -0.154064470  nElectrons: 318.000000
SCF: Cycle:  5   F: -527.273753844240559   dF: -4.481e-03   |Residual|: 3.364e-02   |deigs|: 8.927e-03  t[s]:     60.75
	FillingsUpdate:  mu: -0.147181129  nElectrons: 318.000000
SCF: Cycle:  6   F: -527.280927475706562   dF: -7.174e-03   |Residual|: 1.873e-02   |deigs|: 5.888e-03  t[s]:     63.93
	FillingsUpdate:  mu: -0.140210644  nElectrons: 318.000000
SCF: Cycle:  7   F: -527.283010782058000   dF: -2.083e-03   |Residual|: 1.473e-02   |deigs|: 6.732e-03  t[s]:     67.10
	FillingsUpdate:  mu: -0.136868801  nElectrons: 318.000000
SCF: Cycle:  8   F: -527.281315066652269   dF: +1.696e-03   |Residual|: 1.797e-02   |deigs|: 3.542e-03  t[s]:     70.19
	FillingsUpdate:  mu: -0.133341351  nElectrons: 318.000000
SCF: Cycle:  9   F: -527.284364899545608   dF: -3.050e-03   |Residual|: 1.056e-02   |deigs|: 2.721e-03  t[s]:     73.06
	FillingsUpdate:  mu: -0.131350264  nElectrons: 318.000000
SCF: Cycle: 10   F: -527.284327911182459   dF: +3.699e-05   |Residual|: 1.004e-02   |deigs|: 2.081e-03  t[s]:     75.95
	FillingsUpdate:  mu: -0.128116071  nElectrons: 318.000000
SCF: Cycle: 11   F: -527.284925028171187   dF: -5.971e-04   |Residual|: 7.861e-03   |deigs|: 2.483e-03  t[s]:     78.80
	FillingsUpdate:  mu: -0.125649230  nElectrons: 318.000000
SCF: Cycle: 12   F: -527.285306555527313   dF: -3.815e-04   |Residual|: 4.409e-03   |deigs|: 2.278e-03  t[s]:     81.66
	FillingsUpdate:  mu: -0.123769421  nElectrons: 318.000000
SCF: Cycle: 13   F: -527.285366163825984   dF: -5.961e-05   |Residual|: 3.961e-03   |deigs|: 1.766e-03  t[s]:     84.51
	FillingsUpdate:  mu: -0.121313389  nElectrons: 318.000000
SCF: Cycle: 14   F: -527.285339609501875   dF: +2.655e-05   |Residual|: 2.809e-03   |deigs|: 2.711e-03  t[s]:     87.38
	FillingsUpdate:  mu: -0.119544105  nElectrons: 318.000000
SCF: Cycle: 15   F: -527.285350371676714   dF: -1.076e-05   |Residual|: 2.233e-03   |deigs|: 2.144e-03  t[s]:     90.20
	FillingsUpdate:  mu: -0.118479170  nElectrons: 318.000000
SCF: Cycle: 16   F: -527.285361856326404   dF: -1.148e-05   |Residual|: 1.518e-03   |deigs|: 1.259e-03  t[s]:     93.03
	FillingsUpdate:  mu: -0.117728011  nElectrons: 318.000000
SCF: Cycle: 17   F: -527.285378935273684   dF: -1.708e-05   |Residual|: 1.138e-03   |deigs|: 9.106e-04  t[s]:     95.86
	FillingsUpdate:  mu: -0.117265219  nElectrons: 318.000000
SCF: Cycle: 18   F: -527.285387244496292   dF: -8.309e-06   |Residual|: 9.279e-04   |deigs|: 5.003e-04  t[s]:     98.70
	FillingsUpdate:  mu: -0.116469871  nElectrons: 318.000000
SCF: Cycle: 19   F: -527.285396943995352   dF: -9.699e-06   |Residual|: 8.277e-04   |deigs|: 8.457e-04  t[s]:    101.50
	FillingsUpdate:  mu: -0.115932617  nElectrons: 318.000000
SCF: Cycle: 20   F: -527.285401940926477   dF: -4.997e-06   |Residual|: 6.854e-04   |deigs|: 7.786e-04  t[s]:    104.30
	FillingsUpdate:  mu: -0.115758968  nElectrons: 318.000000
SCF: Cycle: 21   F: -527.285402342348107   dF: -4.014e-07   |Residual|: 4.811e-04   |deigs|: 5.894e-04  t[s]:    107.13
	FillingsUpdate:  mu: -0.115513383  nElectrons: 318.000000
SCF: Cycle: 22   F: -527.285404394363468   dF: -2.052e-06   |Residual|: 3.275e-04   |deigs|: 9.056e-04  t[s]:    109.97
	FillingsUpdate:  mu: -0.115370715  nElectrons: 318.000000
SCF: Cycle: 23   F: -527.285405360671461   dF: -9.663e-07   |Residual|: 2.364e-04   |deigs|: 5.014e-04  t[s]:    112.80
	FillingsUpdate:  mu: -0.115219843  nElectrons: 318.000000
SCF: Cycle: 24   F: -527.285405553528562   dF: -1.929e-07   |Residual|: 1.798e-04   |deigs|: 6.355e-04  t[s]:    115.62
	FillingsUpdate:  mu: -0.115122261  nElectrons: 318.000000
SCF: Cycle: 25   F: -527.285405782667794   dF: -2.291e-07   |Residual|: 1.351e-04   |deigs|: 2.749e-04  t[s]:    118.41
	FillingsUpdate:  mu: -0.115111783  nElectrons: 318.000000
SCF: Cycle: 26   F: -527.285405979007351   dF: -1.963e-07   |Residual|: 9.701e-05   |deigs|: 3.193e-04  t[s]:    121.24
	FillingsUpdate:  mu: -0.115101140  nElectrons: 318.000000
SCF: Cycle: 27   F: -527.285406007261258   dF: -2.825e-08   |Residual|: 7.020e-05   |deigs|: 3.776e-04  t[s]:    124.05
	FillingsUpdate:  mu: -0.115121484  nElectrons: 318.000000
SCF: Cycle: 28   F: -527.285406042737236   dF: -3.548e-08   |Residual|: 4.971e-05   |deigs|: 1.188e-04  t[s]:    126.88
	FillingsUpdate:  mu: -0.115124887  nElectrons: 318.000000
SCF: Cycle: 29   F: -527.285406053531801   dF: -1.079e-08   |Residual|: 2.887e-05   |deigs|: 2.398e-04  t[s]:    129.72
	FillingsUpdate:  mu: -0.115117536  nElectrons: 318.000000
SCF: Cycle: 30   F: -527.285406058157264   dF: -4.625e-09   |Residual|: 2.332e-05   |deigs|: 1.389e-04  t[s]:    132.54
	FillingsUpdate:  mu: -0.115112933  nElectrons: 318.000000
SCF: Cycle: 31   F: -527.285406060614150   dF: -2.457e-09   |Residual|: 1.625e-05   |deigs|: 1.219e-04  t[s]:    137.08
SCF: Converged (|Delta E|<1.000000e-08 for 2 iters).

Setting wave functions to eigenvectors of Hamiltonian
Vacuum energy after initial minimize, F = -527.285406060614150


-------- Electronic minimization -----------
Will mix electronic density at each iteration.
	FillingsUpdate:  mu: -0.115112933  nElectrons: 318.000000
	Linear fluid (dielectric constant: 7.2) occupying 0.848947 of unit cell:	Completed after 13 iterations at t[s]:    138.06
	FillingsUpdate:  mu: -0.117308553  nElectrons: 318.000000
	Linear fluid (dielectric constant: 7.2) occupying 0.849539 of unit cell:	Completed after 10 iterations at t[s]:    142.08
SCF: Cycle:  0   F: -527.320100962528272   dF: -4.119e-03   |Residual|: 1.576e-02   |deigs|: 5.713e-03  t[s]:    142.25
	Linear fluid (dielectric constant: 7.2) occupying 0.849129 of unit cell:	Completed after 10 iterations at t[s]:    142.49
	FillingsUpdate:  mu: -0.117123581  nElectrons: 318.000000
	Linear fluid (dielectric constant: 7.2) occupying 0.849627 of unit cell:	Completed after 10 iterations at t[s]:    145.61
SCF: Cycle:  1   F: -527.321665253043307   dF: -1.564e-03   |Residual|: 7.347e-03   |deigs|: 6.113e-04  t[s]:    145.78
	Linear fluid (dielectric constant: 7.2) occupying 0.849208 of unit cell:	Completed after 9 iterations at t[s]:    145.98
	FillingsUpdate:  mu: -0.117127645  nElectrons: 318.000000
	Linear fluid (dielectric constant: 7.2) occupying 0.849743 of unit cell:	Completed after 10 iterations at t[s]:    149.46
SCF: Cycle:  2   F: -527.322330883152290   dF: -6.656e-04   |Residual|: 5.064e-03   |deigs|: 5.725e-04  t[s]:    149.64
	Linear fluid (dielectric constant: 7.2) occupying 0.849236 of unit cell:	Completed after 9 iterations at t[s]:    149.83
	FillingsUpdate:  mu: -0.116884844  nElectrons: 318.000000
	Linear fluid (dielectric constant: 7.2) occupying 0.849824 of unit cell:	Completed after 10 iterations at t[s]:    153.25
SCF: Cycle:  3   F: -527.322576682679824   dF: -2.458e-04   |Residual|: 3.986e-03   |deigs|: 3.467e-04  t[s]:    153.43
	Linear fluid (dielectric constant: 7.2) occupying 0.849233 of unit cell:	Completed after 9 iterations at t[s]:    153.64
	FillingsUpdate:  mu: -0.116525484  nElectrons: 318.000000
	Linear fluid (dielectric constant: 7.2) occupying 0.849977 of unit cell:	Completed after 10 iterations at t[s]:    157.10
SCF: Cycle:  4   F: -527.323055937993104   dF: -4.793e-04   |Residual|: 2.914e-03   |deigs|: 5.543e-04  t[s]:    157.27
	Linear fluid (dielectric constant: 7.2) occupying 0.849309 of unit cell:	Completed after 8 iterations at t[s]:    157.47
	FillingsUpdate:  mu: -0.116158393  nElectrons: 318.000000
	Linear fluid (dielectric constant: 7.2) occupying 0.850057 of unit cell:	Completed after 9 iterations at t[s]:    160.89
SCF: Cycle:  5   F: -527.323432469367390   dF: -3.765e-04   |Residual|: 2.288e-03   |deigs|: 5.099e-04  t[s]:    161.07
	Linear fluid (dielectric constant: 7.2) occupying 0.849532 of unit cell:	Completed after 8 iterations at t[s]:    161.27
	FillingsUpdate:  mu: -0.115655120  nElectrons: 318.000000
	Linear fluid (dielectric constant: 7.2) occupying 0.850072 of unit cell:	Completed after 9 iterations at t[s]:    164.73
SCF: Cycle:  6   F: -527.323814696544332   dF: -3.822e-04   |Residual|: 1.903e-03   |deigs|: 7.787e-04  t[s]:    164.91
	Linear fluid (dielectric constant: 7.2) occupying 0.849767 of unit cell:	Completed after 8 iterations at t[s]:    165.12
	FillingsUpdate:  mu: -0.115179758  nElectrons: 318.000000
	Linear fluid (dielectric constant: 7.2) occupying 0.849982 of unit cell:	Completed after 7 iterations at t[s]:    168.50
SCF: Cycle:  7   F: -527.324137729863764   dF: -3.230e-04   |Residual|: 1.092e-03   |deigs|: 9.297e-04  t[s]:    168.68
	Linear fluid (dielectric constant: 7.2) occupying 0.849671 of unit cell:	Completed after 8 iterations at t[s]:    168.88
	FillingsUpdate:  mu: -0.115132016  nElectrons: 318.000000
	Linear fluid (dielectric constant: 7.2) occupying 0.849962 of unit cell:	Completed after 7 iterations at t[s]:    172.24
SCF: Cycle:  8   F: -527.324176757452506   dF: -3.903e-05   |Residual|: 7.509e-04   |deigs|: 4.573e-04  t[s]:    172.42
	Linear fluid (dielectric constant: 7.2) occupying 0.849667 of unit cell:	Completed after 7 iterations at t[s]:    172.63
	FillingsUpdate:  mu: -0.115158208  nElectrons: 318.000000
	Linear fluid (dielectric constant: 7.2) occupying 0.849960 of unit cell:	Completed after 7 iterations at t[s]:    175.54
SCF: Cycle:  9   F: -527.324179130638072   dF: -2.373e-06   |Residual|: 7.384e-04   |deigs|: 2.522e-04  t[s]:    175.71
	Linear fluid (dielectric constant: 7.2) occupying 0.849720 of unit cell:	Completed after 7 iterations at t[s]:    175.90
	FillingsUpdate:  mu: -0.115145164  nElectrons: 318.000000
	Linear fluid (dielectric constant: 7.2) occupying 0.849942 of unit cell:	Completed after 7 iterations at t[s]:    179.30
SCF: Cycle: 10   F: -527.324189875603111   dF: -1.074e-05   |Residual|: 4.384e-04   |deigs|: 5.345e-04  t[s]:    179.48
	Linear fluid (dielectric constant: 7.2) occupying 0.849824 of unit cell:	Completed after 6 iterations at t[s]:    179.67
	FillingsUpdate:  mu: -0.115219239  nElectrons: 318.000000
	Linear fluid (dielectric constant: 7.2) occupying 0.849942 of unit cell:	Completed after 6 iterations at t[s]:    182.60
SCF: Cycle: 11   F: -527.324192574087533   dF: -2.698e-06   |Residual|: 4.529e-04   |deigs|: 5.090e-04  t[s]:    182.76
	Linear fluid (dielectric constant: 7.2) occupying 0.849866 of unit cell:	Completed after 6 iterations at t[s]:    182.95
	FillingsUpdate:  mu: -0.115241873  nElectrons: 318.000000
	Linear fluid (dielectric constant: 7.2) occupying 0.849944 of unit cell:	Completed after 6 iterations at t[s]:    185.86
SCF: Cycle: 12   F: -527.324193927339934   dF: -1.353e-06   |Residual|: 3.363e-04   |deigs|: 2.017e-04  t[s]:    186.02
	Linear fluid (dielectric constant: 7.2) occupying 0.849897 of unit cell:	Completed after 6 iterations at t[s]:    186.21
	FillingsUpdate:  mu: -0.115275154  nElectrons: 318.000000
	Linear fluid (dielectric constant: 7.2) occupying 0.849949 of unit cell:	Completed after 5 iterations at t[s]:    189.14
SCF: Cycle: 13   F: -527.324195035404500   dF: -1.108e-06   |Residual|: 2.894e-04   |deigs|: 2.553e-04  t[s]:    189.30
	Linear fluid (dielectric constant: 7.2) occupying 0.849910 of unit cell:	Completed after 6 iterations at t[s]:    189.48
	FillingsUpdate:  mu: -0.115300379  nElectrons: 318.000000
	Linear fluid (dielectric constant: 7.2) occupying 0.849953 of unit cell:	Completed after 6 iterations at t[s]:    192.42
SCF: Cycle: 14   F: -527.324194604081072   dF: +4.313e-07   |Residual|: 2.422e-04   |deigs|: 1.661e-04  t[s]:    192.58
	Linear fluid (dielectric constant: 7.2) occupying 0.849915 of unit cell:	Completed after 5 iterations at t[s]:    192.75
	FillingsUpdate:  mu: -0.115287642  nElectrons: 318.000000
	Linear fluid (dielectric constant: 7.2) occupying 0.849943 of unit cell:	Completed after 5 iterations at t[s]:    196.13
SCF: Cycle: 15   F: -527.324196243302822   dF: -1.639e-06   |Residual|: 2.342e-04   |deigs|: 4.002e-04  t[s]:    196.29
	Linear fluid (dielectric constant: 7.2) occupying 0.849909 of unit cell:	Completed after 5 iterations at t[s]:    196.46
	FillingsUpdate:  mu: -0.115306551  nElectrons: 318.000000
	Linear fluid (dielectric constant: 7.2) occupying 0.849944 of unit cell:	Completed after 5 iterations at t[s]:    199.33
SCF: Cycle: 16   F: -527.324196617830921   dF: -3.745e-07   |Residual|: 1.465e-04   |deigs|: 2.444e-04  t[s]:    199.49
	Linear fluid (dielectric constant: 7.2) occupying 0.849926 of unit cell:	Completed after 5 iterations at t[s]:    199.67
	FillingsUpdate:  mu: -0.115312329  nElectrons: 318.000000
	Linear fluid (dielectric constant: 7.2) occupying 0.849942 of unit cell:	Completed after 5 iterations at t[s]:    202.54
SCF: Cycle: 17   F: -527.324196678274689   dF: -6.044e-08   |Residual|: 1.095e-04   |deigs|: 3.302e-04  t[s]:    202.70
	Linear fluid (dielectric constant: 7.2) occupying 0.849933 of unit cell:	Completed after 4 iterations at t[s]:    202.86
	FillingsUpdate:  mu: -0.115310725  nElectrons: 318.000000
	Linear fluid (dielectric constant: 7.2) occupying 0.849942 of unit cell:	Completed after 4 iterations at t[s]:    206.22
SCF: Cycle: 18   F: -527.324196933484700   dF: -2.552e-07   |Residual|: 1.067e-04   |deigs|: 1.184e-04  t[s]:    206.38
	Linear fluid (dielectric constant: 7.2) occupying 0.849931 of unit cell:	Completed after 3 iterations at t[s]:    206.54
	FillingsUpdate:  mu: -0.115297571  nElectrons: 318.000000
	Linear fluid (dielectric constant: 7.2) occupying 0.849942 of unit cell:	Completed after 2 iterations at t[s]:    209.85
SCF: Cycle: 19   F: -527.324197471503226   dF: -5.380e-07   |Residual|: 8.841e-05   |deigs|: 1.664e-04  t[s]:    210.00
	Linear fluid (dielectric constant: 7.2) occupying 0.849937 of unit cell:	Completed after 3 iterations at t[s]:    210.15
	FillingsUpdate:  mu: -0.115288177  nElectrons: 318.000000
	Linear fluid (dielectric constant: 7.2) occupying 0.849941 of unit cell:	Completed after 2 iterations at t[s]:    213.05
SCF: Cycle: 20   F: -527.324197558707738   dF: -8.720e-08   |Residual|: 5.788e-05   |deigs|: 1.216e-04  t[s]:    213.20
	Linear fluid (dielectric constant: 7.2) occupying 0.849937 of unit cell:	Completed after 1 iterations at t[s]:    213.32
	FillingsUpdate:  mu: -0.115288893  nElectrons: 318.000000
	Linear fluid (dielectric constant: 7.2) occupying 0.849943 of unit cell:	Completed after 2 iterations at t[s]:    216.19
SCF: Cycle: 21   F: -527.324197462286065   dF: +9.642e-08   |Residual|: 1.199e-04   |deigs|: 1.025e-04  t[s]:    216.33
	Linear fluid (dielectric constant: 7.2) occupying 0.849934 of unit cell:	Completed after 3 iterations at t[s]:    216.48
	FillingsUpdate:  mu: -0.115283990  nElectrons: 318.000000
	Linear fluid (dielectric constant: 7.2) occupying 0.849942 of unit cell:	Completed after 2 iterations at t[s]:    219.31
SCF: Cycle: 22   F: -527.324197566215162   dF: -1.039e-07   |Residual|: 5.990e-05   |deigs|: 6.777e-05  t[s]:    219.46
	Linear fluid (dielectric constant: 7.2) occupying 0.849932 of unit cell:	Completed after 2 iterations at t[s]:    219.60
	FillingsUpdate:  mu: -0.115287391  nElectrons: 318.000000
	Linear fluid (dielectric constant: 7.2) occupying 0.849942 of unit cell:	Completed after 2 iterations at t[s]:    222.43
SCF: Cycle: 23   F: -527.324197615882326   dF: -4.967e-08   |Residual|: 4.815e-05   |deigs|: 5.352e-05  t[s]:    222.57
	Linear fluid (dielectric constant: 7.2) occupying 0.849930 of unit cell:	Completed after 1 iterations at t[s]:    222.70
	FillingsUpdate:  mu: -0.115291930  nElectrons: 318.000000
	Linear fluid (dielectric constant: 7.2) occupying 0.849943 of unit cell:	Completed after 1 iterations at t[s]:    225.52
SCF: Cycle: 24   F: -527.324197634795155   dF: -1.891e-08   |Residual|: 2.505e-05   |deigs|: 1.719e-04  t[s]:    225.66
	Linear fluid (dielectric constant: 7.2) occupying 0.849929 of unit cell:	Completed after 1 iterations at t[s]:    225.79
	FillingsUpdate:  mu: -0.115298624  nElectrons: 318.000000
	Linear fluid (dielectric constant: 7.2) occupying 0.849943 of unit cell:	Completed after 0 iterations at t[s]:    228.60
SCF: Cycle: 25   F: -527.324197640894681   dF: -6.100e-09   |Residual|: 2.028e-05   |deigs|: 8.797e-05  t[s]:    228.73
	Linear fluid (dielectric constant: 7.2) occupying 0.849929 of unit cell:	Completed after 1 iterations at t[s]:    228.86
	FillingsUpdate:  mu: -0.115301864  nElectrons: 318.000000
	Linear fluid (dielectric constant: 7.2) occupying 0.849943 of unit cell:	Completed after 0 iterations at t[s]:    232.10
SCF: Cycle: 26   F: -527.324197641571118   dF: -6.764e-10   |Residual|: 1.652e-05   |deigs|: 7.468e-05  t[s]:    232.24
SCF: Converged (|Delta E|<1.000000e-08 for 2 iters).

Setting wave functions to eigenvectors of Hamiltonian
Single-point solvation energy estimate, DeltaF = -0.038791580956968

Computing DFT-D3 correction:
# coordination-number C 3.301 3.301 3.302 3.301 3.301 3.303 3.301 3.301 3.318 3.301 3.301 3.694 3.301 3.301 3.519 3.301 3.304 3.342 3.301 3.302 4.002 3.302 3.390 3.334 3.301 3.322 3.301 3.302 3.359 3.302 3.301 3.311 3.301 3.301 3.651 3.302 3.301 3.301 3.301 3.302 3.311 3.300 3.303 3.319 3.301 3.301 3.436 3.301 3.304 3.573 3.301 3.303 3.301 3.301 3.305 3.768 3.301 3.304 3.595 3.334 3.303 3.301 3.305 3.301 3.301 3.745 3.301 3.301 3.541 3.315 3.301 3.302
# coordination-number S 2.918 2.914
# coordination-number Na 3.952 4.068
# diagonal-C6 C 24.27 24.27 24.27 24.27 24.27 24.25 24.27 24.27 24.10 24.27 24.27 19.35 24.27 24.27 21.36 24.27 24.24 23.84 24.27 24.26 18.32 24.26 23.25 23.93 24.27 24.06 24.28 24.26 23.64 24.26 24.28 24.17 24.27 24.28 19.72 24.26 24.27 24.27 24.28 24.27 24.17 24.28 24.25 24.09 24.28 24.27 22.59 24.28 24.24 20.61 24.27 24.26 24.27 24.27 24.23 18.89 24.27 24.25 20.34 23.93 24.26 24.27 24.24 24.27 24.27 19.02 24.27 24.27 21.05 24.13 24.27 24.26
# diagonal-C6 S 125.81 125.81
# diagonal-C6 Na 186.11 186.11
EvdW_6 =   -0.060034
EvdW_8 =   -0.050373

# Ionic positions in cartesian coordinates:
ion C  27.962335914315943  -0.001769463218393  18.997292717605230 1
ion C  16.294468692030708  20.209054935488847  18.990268141202147 1
ion C   2.287019718970346   4.038678481929088  18.976592694003951 1
ion C  23.295881840251120   0.000002405241653  19.006007333397161 1
ion C   4.622179727057690  -0.004432833683947  19.001663422840185 1
ion C  11.629056825320662  20.211630551590378  18.985788810898352 1
ion C  25.627954879725802   4.039959569554116  18.991008809249639 1
ion C  18.628874706986075  16.166474657415034  18.978319015314913 1
ion C   4.618714120006158   8.080647681548756  18.908789778560408 1
ion C  18.628267155992646  -0.000675987896162  19.013391934026071 1
ion C   9.290776346356447  -0.005793805879835  19.008545836133955 1
ion C   9.299058524221172  16.168059051201666  18.921069475537802 1
ion C  23.295168939698932   8.081721468429246  18.987326215164714 1
ion C  20.962073939067977  12.123987502899642  18.981968692170142 1
ion C   6.956895642958899  12.122053941580011  18.852011677206349 1
ion C  13.961024442776539  -0.004362139850341  19.015270699596993 1
ion C  13.964627223435283  16.167840774997693  18.950430894492790 1
ion C   6.951355638680933   4.034899965143950  18.966407783053686 1
ion C  20.962508084867146   4.040304129800457  19.002791026105474 1
ion C  16.296991885011991  12.125711754944351  18.950537853669530 1
ion C   9.290768265335348   8.084444850916997  18.871455105841576 1
ion C  16.298115692872518   4.038484967561753  18.998172903489579 1
ion C  11.630209576354293   4.034279831745303  18.977100948167784 1
ion C  11.633317036050723  12.127448431156381  18.877200972669485 1
ion C  18.630729697029668   8.082461896531097  18.984298949978459 1
ion C   6.959334642644263  20.216844222039292  18.997022797035232 1
ion C  -7.045083709478139  20.207878643400047  19.002986878414777 1
ion C  -0.045930171472412   8.081009293814786  18.964953019907416 1
ion C  13.966801559146447   8.083248509846328  18.932626625584202 1
ion C   2.289035957805686  20.210857205575163  19.007858030508491 1
ion C  -4.711590728388570  16.165542363124271  18.993999310093770 1
ion C   2.284424774161561  12.120852343017601  18.934017660795067 1
ion C  -2.378692626493680  12.123113314048563  18.979505319440278 1
ion C  -2.377957708025320  20.207858007650120  19.009731324834252 1
ion C   4.618087326263202  16.167375057491547  18.948993998103916 1
ion C  -0.047314984314006  16.165686654987486  18.986562999153609 1
ion C  13.962088271033611  21.557151454541312  18.992851764760509 1
ion C   2.289472366323620   1.344405206270262  18.993642510602069 1
ion C  25.629585579660116   1.346019484742202  18.999540840229280 1
ion C  16.296594747044360  17.514954531364651  18.974678165518462 1
ion C   4.619293893248512   5.386036185447165  18.949094928148895 1
ion C  20.961765458609189   1.345986042826211  19.009507235125547 1
ion C   6.955709771327852   1.340297411541919  18.998443207623705 1
ion C  11.633819688088707  17.517339684334480  18.955434077282352 1
ion C  23.295194180998795   5.388226602576820  18.993830763811044 1
ion C  18.629500879486152  13.472409544805302  18.971634797720810 1
ion C   6.950926012280193   9.428483229531444  18.859922287187132 1
ion C  16.294104143414248   1.344168526492362  19.012109799739960 1
ion C  11.626222901881388   1.339162681095249  19.007307057486823 1
ion C   9.296302161707903  13.469238911524476  18.862739014622367 1
ion C  20.962690255898163   9.429886445394770  18.985977706017351 1
ion C   9.294617860987307  21.560010450943107  18.999605900991366 1
ion C  -9.378142221550620  21.555095119043926  19.001369388542358 1
ion C  -0.045116246702255   5.386808121465748  18.976700643536386 1
ion C  13.964531340891208  13.473287020424721  18.923426273339441 1
ion C   9.289876110251114   5.382009866928257  18.940176719908280 1
ion C  18.630093087854817   5.387877691735093  18.997275662671502 1
ion C  16.298926758518398   9.431723867104051  18.957358216214605 1
ion C  11.632785833522174   9.433377565322091  18.877300407112145 1
ion C  13.965072260995367   5.385315117522326  18.969594446647370 1
ion C   4.622948978571074  21.559297350373470  19.009058674452639 1
ion C  -7.044289882765842  17.513607853317378  18.993993783540862 1
ion C   2.286223154503827   9.427463516521625  18.934107634946120 1
ion C  -2.378031405726318   9.429031408224711  18.976793772978198 1
ion C  -4.711787716733499  21.554487787728895  19.010705465980887 1
ion C   6.958669857276497  17.518976835428884  18.958998042315113 1
ion C  -0.044895498693050  21.555365263759768  19.014736403391055 1
ion C  -4.711503868613189  13.471641200561878  18.987445114920988 1
ion C   4.618574078828560  13.467414468144399  18.901048865946052 1
ion C   2.283362232820791  17.516501121755400  18.987506208487286 1
ion C  -2.379298957838053  17.513736944651267  19.000493049595669 1
ion C  -0.046646104042781  13.470075791393731  18.968784121788747 1
ion S  10.229816937479892  11.971655633491064  26.337690902544910 1
ion S   6.530837112060447  10.646637398013551  26.262485506899239 1
ion Na   9.816470151725399   7.481344634233367  23.947249914760658 1
ion Na   7.065622867681638  15.168080324279806  23.915688715684158 1

# Forces in Cartesian coordinates:
force C   0.000107834926491  -0.000023877545415   0.000154078697286 1
force C   0.000101847347793  -0.000114941233848   0.000195040455643 1
force C   0.000086445768983   0.000081469909044   0.000247683005864 1
force C   0.000026833222011  -0.000107760253193   0.000021419747120 1
force C   0.000052583521650  -0.000071447137390  -0.000128952574371 1
force C  -0.000075770809649  -0.000358696580378   0.000110051118975 1
force C   0.000112765662228   0.000074902811150   0.000272163899244 1
force C   0.000071381150183   0.000099542516794   0.000400191917266 1
force C   0.000281134052022  -0.000052660187410   0.000069408815841 1
force C  -0.000173312975691  -0.000069700303398   0.000018525158522 1
force C   0.000118296571676   0.000147502270551  -0.000046081055873 1
force C  -0.000633310156983   0.000307208254395  -0.000176090998931 1
force C  -0.000050419714143   0.000067150320895   0.000188054033901 1
force C  -0.000090707928234   0.000104961717111   0.000323384805528 1
force C  -0.000046088410048   0.000080651327719  -0.000418923398087 1
force C  -0.000142792820911   0.000099203442764  -0.000126801723692 1
force C  -0.000131467377829   0.000087843226064   0.000553906638732 1
force C   0.000580053837366   0.000225545162776  -0.000160471461643 1
force C  -0.000046966798894   0.000069819098455   0.000061132323860 1
force C  -0.000043208003749  -0.000055673375154   0.000583866276039 1
force C   0.000002320619977  -0.000698466716095  -0.000573220418901 1
force C  -0.000352239947060   0.000173266203063   0.000061394899209 1
force C  -0.000209392829283   0.000375158916678  -0.000877766852391 1
force C   0.000012045874258  -0.000195010433365  -0.000493623875979 1
force C  -0.000175412619810   0.000008466160651   0.000049162037351 1
force C  -0.000165602244132  -0.000765460514719  -0.000354286781305 1
force C  -0.000083660213040  -0.000128217699044   0.000039827439742 1
force C   0.000050819430480  -0.000083043287231   0.000305749524664 1
force C  -0.000181002376598  -0.000455349486743   0.000342532443046 1
force C  -0.000079966385559  -0.000341113166568  -0.000126926363676 1
force C  -0.000170589357934   0.000123755317419   0.000185009486948 1
force C   0.000035913544092  -0.000081346998315   0.000427788715641 1
force C  -0.000131403207708   0.000013688494652   0.000223063341838 1
force C  -0.000012995739545   0.000007417003206   0.000083654402179 1
force C   0.000540668299860   0.000349311913412  -0.000585163620077 1
force C   0.000245074645221   0.000246334592558   0.000108114093828 1
force C  -0.000114035200495   0.000182441247105   0.000232886695721 1
force C   0.000010347477144  -0.000053030170266   0.000184917271048 1
force C  -0.000097009891337   0.000045592069452  -0.000056985144056 1
force C  -0.000054799814720  -0.000089367772833   0.000337977899582 1
force C   0.000297186761411  -0.000216086531637   0.000615120701989 1
force C   0.000142284587938   0.000140623184566  -0.000117347732866 1
force C   0.000099984535797   0.000595859706593  -0.000083531044005 1
force C  -0.000306564411837  -0.000051912046467   0.000462324893505 1
force C   0.000095958518987  -0.000254493053492   0.000124658893023 1
force C   0.000025654522088   0.000003743622373   0.000392530579388 1
force C   0.000133948277617  -0.000088995498348  -0.000307197634284 1
force C   0.000112100223383   0.000112823627465  -0.000059584018313 1
force C  -0.000027107698564   0.000707243320147  -0.000166825813458 1
force C  -0.000014366354903   0.000318043257083  -0.000320350931544 1
force C   0.000092872044867  -0.000000064095037   0.000207547965258 1
force C  -0.000249075637299  -0.000104931492559  -0.000160188738300 1
force C  -0.000133041023810   0.000100270913380  -0.000008547861917 1
force C  -0.000069689850474  -0.000074449076454   0.000273913586791 1
force C  -0.000130184411121   0.000035295385646   0.000314418059673 1
force C   0.000321677147083  -0.000392225654991  -0.000718337173862 1
force C  -0.000000904101558  -0.000155364712280  -0.000064387313387 1
force C  -0.000139869897803  -0.000220514634961   0.000578246016599 1
force C   0.000106320078430  -0.000146473618248  -0.000302757698415 1
force C  -0.000468881504732   0.000000302883594  -0.000336782575329 1
force C   0.000410549483716  -0.000214026310517   0.000021802802482 1
force C   0.000026660233111  -0.000040538209175   0.000011045583201 1
force C  -0.000034750086141   0.000141201117645   0.000493416816199 1
force C  -0.000003843847765   0.000012110324699   0.000387547822355 1
force C   0.000047422132316   0.000044388585925  -0.000054523348909 1
force C  -0.000218965223197  -0.000105485033004  -0.001067037827949 1
force C   0.000183563727647   0.000076557750027  -0.000061078065549 1
force C   0.000132151146610  -0.000012574674613   0.000087277918090 1
force C   0.000111874500402   0.000707273544425  -0.000065383949620 1
force C   0.000434965802941  -0.000275274938661  -0.000147232290500 1
force C  -0.000013898850541  -0.000164329446598  -0.000064565732969 1
force C   0.000203677691658   0.000154856118289   0.000393666657584 1
force S  -0.002298732812710  -0.000709153357046   0.001498818412229 1
force S   0.002234200299993   0.000870969885611   0.001644569929695 1
force Na   0.001732289083730  -0.005407005632529   0.003476007245419 1
force Na  -0.001916979751390   0.005439037813322   0.002652365136247 1

# Energy components:
   A_diel =       -0.0484802741352325
   Eewald =     4741.3640303782613046
       EH =     5155.6064033341417598
     Eloc =   -10455.6356443163494987
      Enl =      -82.1089297698727734
     EvdW =       -0.1104071234680654
      Exc =     -153.5740735420000647
 Exc_core =        5.9601295527952001
       KE =      261.2975755733287428
-------------------------------------
     Etot =     -527.2493961872983164
       TS =        0.0748014542728532
-------------------------------------
        F =     -527.3241976415711179

IonicMinimize: Iter:   0  F: -527.324197641571118  |grad|_K:  7.095e-04  alpha:  1.000e+00

#--- Lowdin population analysis ---
# oxidation-state C +0.037 +0.037 +0.037 +0.036 +0.036 +0.035 +0.037 +0.038 +0.036 +0.036 +0.035 +0.002 +0.037 +0.038 +0.018 +0.036 +0.038 +0.027 +0.037 +0.038 -0.014 +0.034 +0.020 +0.037 +0.037 +0.030 +0.037 +0.038 +0.024 +0.034 +0.037 +0.036 +0.037 +0.037 +0.004 +0.035 +0.037 +0.037 +0.037 +0.038 +0.033 +0.037 +0.034 +0.032 +0.037 +0.038 +0.027 +0.036 +0.033 +0.014 +0.037 +0.034 +0.037 +0.038 +0.040 -0.003 +0.036 +0.036 +0.012 +0.026 +0.034 +0.037 +0.039 +0.038 +0.036 -0.002 +0.036 +0.037 +0.013 +0.031 +0.036 +0.036
# oxidation-state S -0.437 -0.435
# oxidation-state Na +0.868 +0.867


Computing DFT-D3 correction:
# coordination-number C 3.301 3.301 3.302 3.301 3.301 3.303 3.301 3.301 3.318 3.301 3.301 3.693 3.301 3.301 3.516 3.301 3.304 3.342 3.301 3.302 3.999 3.302 3.390 3.333 3.301 3.322 3.301 3.302 3.359 3.302 3.301 3.311 3.301 3.301 3.651 3.302 3.301 3.301 3.301 3.301 3.311 3.300 3.303 3.319 3.301 3.301 3.434 3.301 3.304 3.570 3.301 3.303 3.301 3.301 3.305 3.767 3.301 3.304 3.592 3.334 3.303 3.301 3.304 3.301 3.301 3.744 3.301 3.301 3.540 3.316 3.301 3.302
# coordination-number S 2.917 2.914
# coordination-number Na 3.940 4.057
# diagonal-C6 C 24.27 24.27 24.27 24.27 24.27 24.25 24.27 24.27 24.10 24.27 24.27 19.36 24.27 24.27 21.40 24.27 24.24 23.84 24.27 24.26 18.33 24.26 23.24 23.94 24.27 24.06 24.28 24.27 23.64 24.26 24.28 24.17 24.27 24.28 19.72 24.26 24.27 24.27 24.28 24.27 24.17 24.28 24.25 24.09 24.28 24.27 22.62 24.28 24.24 20.65 24.27 24.26 24.27 24.27 24.23 18.90 24.28 24.25 20.37 23.93 24.26 24.27 24.24 24.27 24.27 19.02 24.27 24.27 21.07 24.13 24.27 24.26
# diagonal-C6 S 125.81 125.81
# diagonal-C6 Na 186.11 186.11
EvdW_6 =   -0.060041
EvdW_8 =   -0.050379

-------- Electronic minimization -----------
Will mix electronic density at each iteration.
	FillingsUpdate:  mu: -0.115301864  nElectrons: 318.000000
	Linear fluid (dielectric constant: 7.2) occupying 0.849939 of unit cell:	Completed after 4 iterations at t[s]:    238.23
	FillingsUpdate:  mu: -0.115179404  nElectrons: 318.000000
	Linear fluid (dielectric constant: 7.2) occupying 0.849943 of unit cell:	Completed after 6 iterations at t[s]:    241.06
SCF: Cycle:  0   F: -527.324270258769616   dF: +3.140e-05   |Residual|: 1.956e-03   |deigs|: 2.223e-06  t[s]:    241.23
	Linear fluid (dielectric constant: 7.2) occupying 0.849931 of unit cell:	Completed after 6 iterations at t[s]:    241.40
	FillingsUpdate:  mu: -0.115262818  nElectrons: 318.000000
	Linear fluid (dielectric constant: 7.2) occupying 0.849942 of unit cell:	Completed after 4 iterations at t[s]:    243.73
SCF: Cycle:  1   F: -527.324298567764913   dF: -2.831e-05   |Residual|: 1.218e-03   |deigs|: 8.424e-05  t[s]:    243.88
	Linear fluid (dielectric constant: 7.2) occupying 0.849939 of unit cell:	Completed after 4 iterations at t[s]:    244.04
	FillingsUpdate:  mu: -0.115228354  nElectrons: 318.000000
	Linear fluid (dielectric constant: 7.2) occupying 0.849943 of unit cell:	Completed after 4 iterations at t[s]:    246.33
SCF: Cycle:  2   F: -527.324306220793915   dF: -7.653e-06   |Residual|: 3.014e-04   |deigs|: 3.558e-05  t[s]:    246.49
	Linear fluid (dielectric constant: 7.2) occupying 0.849942 of unit cell:	Completed after 4 iterations at t[s]:    246.64
	FillingsUpdate:  mu: -0.115232064  nElectrons: 318.000000
	Linear fluid (dielectric constant: 7.2) occupying 0.849941 of unit cell:	Completed after 3 iterations at t[s]:    248.94
SCF: Cycle:  3   F: -527.324307026480255   dF: -8.057e-07   |Residual|: 1.230e-04   |deigs|: 1.994e-05  t[s]:    249.09
	Linear fluid (dielectric constant: 7.2) occupying 0.849944 of unit cell:	Completed after 3 iterations at t[s]:    249.23
	FillingsUpdate:  mu: -0.115231368  nElectrons: 318.000000
	Linear fluid (dielectric constant: 7.2) occupying 0.849941 of unit cell:	Completed after 3 iterations at t[s]:    251.48
SCF: Cycle:  4   F: -527.324307077407752   dF: -5.093e-08   |Residual|: 6.999e-05   |deigs|: 1.976e-05  t[s]:    251.63
	Linear fluid (dielectric constant: 7.2) occupying 0.849943 of unit cell:	Completed after 3 iterations at t[s]:    251.78
	FillingsUpdate:  mu: -0.115235026  nElectrons: 318.000000
	Linear fluid (dielectric constant: 7.2) occupying 0.849941 of unit cell:	Completed after 2 iterations at t[s]:    254.63
SCF: Cycle:  5   F: -527.324307179067773   dF: -1.017e-07   |Residual|: 4.449e-05   |deigs|: 2.782e-05  t[s]:    254.78
	Linear fluid (dielectric constant: 7.2) occupying 0.849941 of unit cell:	Completed after 2 iterations at t[s]:    254.91
	FillingsUpdate:  mu: -0.115239074  nElectrons: 318.000000
	Linear fluid (dielectric constant: 7.2) occupying 0.849941 of unit cell:	Completed after 2 iterations at t[s]:    257.76
SCF: Cycle:  6   F: -527.324307205687660   dF: -2.662e-08   |Residual|: 3.289e-05   |deigs|: 2.635e-05  t[s]:    257.90
	Linear fluid (dielectric constant: 7.2) occupying 0.849939 of unit cell:	Completed after 2 iterations at t[s]:    258.04
	FillingsUpdate:  mu: -0.115235789  nElectrons: 318.000000
	Linear fluid (dielectric constant: 7.2) occupying 0.849941 of unit cell:	Completed after 2 iterations at t[s]:    260.88
SCF: Cycle:  7   F: -527.324307182884581   dF: +2.280e-08   |Residual|: 6.378e-05   |deigs|: 2.456e-05  t[s]:    261.03
	Linear fluid (dielectric constant: 7.2) occupying 0.849937 of unit cell:	Completed after 2 iterations at t[s]:    261.17
	FillingsUpdate:  mu: -0.115235443  nElectrons: 318.000000
	Linear fluid (dielectric constant: 7.2) occupying 0.849941 of unit cell:	Completed after 2 iterations at t[s]:    264.01
SCF: Cycle:  8   F: -527.324307215547265   dF: -3.266e-08   |Residual|: 4.985e-05   |deigs|: 2.964e-05  t[s]:    264.16
	Linear fluid (dielectric constant: 7.2) occupying 0.849937 of unit cell:	Completed after 1 iterations at t[s]:    264.28
	FillingsUpdate:  mu: -0.115232677  nElectrons: 318.000000
	Linear fluid (dielectric constant: 7.2) occupying 0.849942 of unit cell:	Completed after 1 iterations at t[s]:    267.09
SCF: Cycle:  9   F: -527.324307247762363   dF: -3.222e-08   |Residual|: 3.373e-05   |deigs|: 3.124e-05  t[s]:    267.23
	Linear fluid (dielectric constant: 7.2) occupying 0.849938 of unit cell:	Completed after 1 iterations at t[s]:    267.36
	FillingsUpdate:  mu: -0.115230688  nElectrons: 318.000000
	Linear fluid (dielectric constant: 7.2) occupying 0.849942 of unit cell:	Completed after 1 iterations at t[s]:    270.22
SCF: Cycle: 10   F: -527.324307242645887   dF: +5.116e-09   |Residual|: 3.865e-05   |deigs|: 3.038e-05  t[s]:    270.36
	Linear fluid (dielectric constant: 7.2) occupying 0.849939 of unit cell:	Completed after 1 iterations at t[s]:    270.49
	FillingsUpdate:  mu: -0.115231836  nElectrons: 318.000000
	Linear fluid (dielectric constant: 7.2) occupying 0.849941 of unit cell:	Completed after 1 iterations at t[s]:    273.36
SCF: Cycle: 11   F: -527.324307255863687   dF: -1.322e-08   |Residual|: 2.754e-05   |deigs|: 2.760e-05  t[s]:    273.51
	Linear fluid (dielectric constant: 7.2) occupying 0.849941 of unit cell:	Completed after 0 iterations at t[s]:    273.63
	FillingsUpdate:  mu: -0.115228126  nElectrons: 318.000000
	Linear fluid (dielectric constant: 7.2) occupying 0.849941 of unit cell:	Completed after 1 iterations at t[s]:    276.43
SCF: Cycle: 12   F: -527.324307201285251   dF: +5.458e-08   |Residual|: 7.026e-05   |deigs|: 1.372e-05  t[s]:    276.58
	Linear fluid (dielectric constant: 7.2) occupying 0.849943 of unit cell:	Completed after 1 iterations at t[s]:    276.71
	FillingsUpdate:  mu: -0.115230796  nElectrons: 318.000000
	Linear fluid (dielectric constant: 7.2) occupying 0.849941 of unit cell:	Completed after 1 iterations at t[s]:    279.52
SCF: Cycle: 13   F: -527.324307245147338   dF: -4.386e-08   |Residual|: 4.347e-05   |deigs|: 1.302e-05  t[s]:    279.66
	Linear fluid (dielectric constant: 7.2) occupying 0.849946 of unit cell:	Completed after 1 iterations at t[s]:    279.79
	FillingsUpdate:  mu: -0.115229585  nElectrons: 318.000000
	Linear fluid (dielectric constant: 7.2) occupying 0.849941 of unit cell:	Completed after 0 iterations at t[s]:    282.57
SCF: Cycle: 14   F: -527.324307266936898   dF: -2.179e-08   |Residual|: 9.919e-06   |deigs|: 3.382e-05  t[s]:    282.71
	Linear fluid (dielectric constant: 7.2) occupying 0.849947 of unit cell:	Completed after 0 iterations at t[s]:    282.82
	FillingsUpdate:  mu: -0.115228780  nElectrons: 318.000000
	Linear fluid (dielectric constant: 7.2) occupying 0.849941 of unit cell:	Completed after 0 iterations at t[s]:    285.65
SCF: Cycle: 15   F: -527.324307265669290   dF: +1.268e-09   |Residual|: 1.695e-05   |deigs|: 2.480e-05  t[s]:    285.79
	Linear fluid (dielectric constant: 7.2) occupying 0.849946 of unit cell:	Completed after 0 iterations at t[s]:    285.91
	FillingsUpdate:  mu: -0.115227674  nElectrons: 318.000000
	Linear fluid (dielectric constant: 7.2) occupying 0.849941 of unit cell:	Completed after 0 iterations at t[s]:    288.65
SCF: Cycle: 16   F: -527.324307265004109   dF: +6.652e-10   |Residual|: 1.290e-05   |deigs|: 1.980e-05  t[s]:    288.79
	Linear fluid (dielectric constant: 7.2) occupying 0.849945 of unit cell:	Completed after 0 iterations at t[s]:    288.90
	FillingsUpdate:  mu: -0.115227744  nElectrons: 318.000000
	Linear fluid (dielectric constant: 7.2) occupying 0.849941 of unit cell:	Completed after 0 iterations at t[s]:    291.76
SCF: Cycle: 17   F: -527.324307264010258   dF: +9.939e-10   |Residual|: 2.508e-05   |deigs|: 5.244e-05  t[s]:    291.90
	Linear fluid (dielectric constant: 7.2) occupying 0.849943 of unit cell:	Completed after 0 iterations at t[s]:    292.02
	FillingsUpdate:  mu: -0.115226179  nElectrons: 318.000000
	Linear fluid (dielectric constant: 7.2) occupying 0.849941 of unit cell:	Completed after 0 iterations at t[s]:    294.87
SCF: Cycle: 18   F: -527.324307266278652   dF: -2.268e-09   |Residual|: 9.292e-06   |deigs|: 2.237e-05  t[s]:    295.01
	Linear fluid (dielectric constant: 7.2) occupying 0.849943 of unit cell:	Completed after 0 iterations at t[s]:    295.11
	FillingsUpdate:  mu: -0.115231767  nElectrons: 318.000000
	Linear fluid (dielectric constant: 7.2) occupying 0.849941 of unit cell:	Completed after 1 iterations at t[s]:    297.99
SCF: Cycle: 19   F: -527.324307209741278   dF: +5.654e-08   |Residual|: 7.266e-05   |deigs|: 3.299e-05  t[s]:    298.14
	Linear fluid (dielectric constant: 7.2) occupying 0.849942 of unit cell:	Completed after 1 iterations at t[s]:    298.26
	FillingsUpdate:  mu: -0.115231600  nElectrons: 318.000000
	Linear fluid (dielectric constant: 7.2) occupying 0.849942 of unit cell:	Completed after 1 iterations at t[s]:    300.53
SCF: Cycle: 20   F: -527.324307251466507   dF: -4.173e-08   |Residual|: 4.175e-05   |deigs|: 9.077e-06  t[s]:    300.67
	Linear fluid (dielectric constant: 7.2) occupying 0.849942 of unit cell:	Completed after 1 iterations at t[s]:    300.79
	FillingsUpdate:  mu: -0.115231307  nElectrons: 318.000000
	Linear fluid (dielectric constant: 7.2) occupying 0.849941 of unit cell:	Completed after 1 iterations at t[s]:    302.87
SCF: Cycle: 21   F: -527.324307255273538   dF: -3.807e-09   |Residual|: 3.700e-05   |deigs|: 7.158e-06  t[s]:    303.01
	Linear fluid (dielectric constant: 7.2) occupying 0.849942 of unit cell:	Completed after 1 iterations at t[s]:    303.14
	FillingsUpdate:  mu: -0.115230730  nElectrons: 318.000000
	Linear fluid (dielectric constant: 7.2) occupying 0.849941 of unit cell:	Completed after 0 iterations at t[s]:    305.73
SCF: Cycle: 22   F: -527.324307264013214   dF: -8.740e-09   |Residual|: 2.508e-05   |deigs|: 6.955e-06  t[s]:    305.87
SCF: Converged (|Delta E|<1.000000e-08 for 2 iters).

Setting wave functions to eigenvectors of Hamiltonian
IonicMinimize: 	Predicted alpha/alphaT>3.000000, increasing alphaT to 3.000000e+00.

Computing DFT-D3 correction:
# coordination-number C 3.301 3.301 3.302 3.301 3.301 3.303 3.301 3.301 3.318 3.301 3.301 3.691 3.301 3.301 3.512 3.301 3.304 3.343 3.301 3.302 3.993 3.302 3.391 3.332 3.301 3.322 3.301 3.302 3.359 3.303 3.301 3.311 3.301 3.300 3.651 3.302 3.301 3.301 3.301 3.301 3.311 3.301 3.303 3.319 3.301 3.301 3.431 3.301 3.304 3.565 3.301 3.303 3.301 3.301 3.305 3.765 3.301 3.304 3.587 3.335 3.303 3.301 3.304 3.301 3.300 3.743 3.301 3.301 3.537 3.316 3.301 3.302
# coordination-number S 2.915 2.912
# coordination-number Na 3.917 4.034
# diagonal-C6 C 24.28 24.27 24.27 24.28 24.27 24.25 24.27 24.27 24.10 24.28 24.27 19.38 24.27 24.27 21.47 24.27 24.25 23.83 24.28 24.26 18.33 24.26 23.23 23.95 24.27 24.06 24.28 24.27 23.64 24.26 24.28 24.18 24.27 24.28 19.73 24.26 24.27 24.27 24.28 24.27 24.17 24.28 24.25 24.09 24.27 24.27 22.67 24.28 24.24 20.71 24.27 24.25 24.28 24.27 24.23 18.91 24.28 24.25 20.43 23.92 24.26 24.27 24.24 24.27 24.28 19.02 24.28 24.27 21.10 24.12 24.27 24.26
# diagonal-C6 S 125.81 125.81
# diagonal-C6 Na 186.11 186.11
EvdW_6 =   -0.060055
EvdW_8 =   -0.050390

-------- Electronic minimization -----------
Will mix electronic density at each iteration.
	FillingsUpdate:  mu: -0.115230730  nElectrons: 318.000000
	Linear fluid (dielectric constant: 7.2) occupying 0.849934 of unit cell:	Completed after 5 iterations at t[s]:    309.07
	FillingsUpdate:  mu: -0.114958624  nElectrons: 318.000000
	Linear fluid (dielectric constant: 7.2) occupying 0.849938 of unit cell:	Completed after 8 iterations at t[s]:    312.63
SCF: Cycle:  0   F: -527.324325492362618   dF: +1.533e-04   |Residual|: 4.271e-03   |deigs|: 8.979e-07  t[s]:    312.80
	Linear fluid (dielectric constant: 7.2) occupying 0.849915 of unit cell:	Completed after 7 iterations at t[s]:    313.00
	FillingsUpdate:  mu: -0.115149615  nElectrons: 318.000000
	Linear fluid (dielectric constant: 7.2) occupying 0.849942 of unit cell:	Completed after 5 iterations at t[s]:    315.31
SCF: Cycle:  1   F: -527.324457744959432   dF: -1.323e-04   |Residual|: 2.735e-03   |deigs|: 1.794e-04  t[s]:    315.47
	Linear fluid (dielectric constant: 7.2) occupying 0.849932 of unit cell:	Completed after 5 iterations at t[s]:    315.63
	FillingsUpdate:  mu: -0.115070438  nElectrons: 318.000000
	Linear fluid (dielectric constant: 7.2) occupying 0.849940 of unit cell:	Completed after 6 iterations at t[s]:    318.82
SCF: Cycle:  2   F: -527.324497521950093   dF: -3.978e-05   |Residual|: 6.006e-04   |deigs|: 7.780e-05  t[s]:    318.98
	Linear fluid (dielectric constant: 7.2) occupying 0.849938 of unit cell:	Completed after 5 iterations at t[s]:    319.15
	FillingsUpdate:  mu: -0.115077755  nElectrons: 318.000000
	Linear fluid (dielectric constant: 7.2) occupying 0.849937 of unit cell:	Completed after 5 iterations at t[s]:    321.45
SCF: Cycle:  3   F: -527.324500430901026   dF: -2.909e-06   |Residual|: 2.551e-04   |deigs|: 3.945e-05  t[s]:    321.61
	Linear fluid (dielectric constant: 7.2) occupying 0.849941 of unit cell:	Completed after 5 iterations at t[s]:    321.77
	FillingsUpdate:  mu: -0.115084852  nElectrons: 318.000000
	Linear fluid (dielectric constant: 7.2) occupying 0.849938 of unit cell:	Completed after 5 iterations at t[s]:    326.32
SCF: Cycle:  4   F: -527.324501102788304   dF: -6.719e-07   |Residual|: 1.346e-04   |deigs|: 4.264e-05  t[s]:    326.49
	Linear fluid (dielectric constant: 7.2) occupying 0.849940 of unit cell:	Completed after 4 iterations at t[s]:    326.65
	FillingsUpdate:  mu: -0.115088948  nElectrons: 318.000000
	Linear fluid (dielectric constant: 7.2) occupying 0.849938 of unit cell:	Completed after 4 iterations at t[s]:    330.99
SCF: Cycle:  5   F: -527.324501264998275   dF: -1.622e-07   |Residual|: 9.803e-05   |deigs|: 5.593e-05  t[s]:    331.14
	Linear fluid (dielectric constant: 7.2) occupying 0.849936 of unit cell:	Completed after 4 iterations at t[s]:    331.30
	FillingsUpdate:  mu: -0.115091048  nElectrons: 318.000000
	Linear fluid (dielectric constant: 7.2) occupying 0.849938 of unit cell:	Completed after 4 iterations at t[s]:    334.40
SCF: Cycle:  6   F: -527.324501432380544   dF: -1.674e-07   |Residual|: 5.846e-05   |deigs|: 5.152e-05  t[s]:    334.55
	Linear fluid (dielectric constant: 7.2) occupying 0.849930 of unit cell:	Completed after 4 iterations at t[s]:    334.71
	FillingsUpdate:  mu: -0.115088328  nElectrons: 318.000000
	Linear fluid (dielectric constant: 7.2) occupying 0.849938 of unit cell:	Completed after 4 iterations at t[s]:    337.63
SCF: Cycle:  7   F: -527.324501527401026   dF: -9.502e-08   |Residual|: 5.995e-05   |deigs|: 6.998e-05  t[s]:    337.79
	Linear fluid (dielectric constant: 7.2) occupying 0.849928 of unit cell:	Completed after 3 iterations at t[s]:    337.93
	FillingsUpdate:  mu: -0.115085355  nElectrons: 318.000000
	Linear fluid (dielectric constant: 7.2) occupying 0.849938 of unit cell:	Completed after 4 iterations at t[s]:    340.87
SCF: Cycle:  8   F: -527.324501582488438   dF: -5.509e-08   |Residual|: 6.669e-05   |deigs|: 7.432e-05  t[s]:    341.03
	Linear fluid (dielectric constant: 7.2) occupying 0.849928 of unit cell:	Completed after 3 iterations at t[s]:    341.18
	FillingsUpdate:  mu: -0.115084634  nElectrons: 318.000000
	Linear fluid (dielectric constant: 7.2) occupying 0.849939 of unit cell:	Completed after 2 iterations at t[s]:    344.05
SCF: Cycle:  9   F: -527.324501624624645   dF: -4.214e-08   |Residual|: 9.660e-05   |deigs|: 9.981e-05  t[s]:    344.21
	Linear fluid (dielectric constant: 7.2) occupying 0.849933 of unit cell:	Completed after 2 iterations at t[s]:    344.35
	FillingsUpdate:  mu: -0.115081128  nElectrons: 318.000000
	Linear fluid (dielectric constant: 7.2) occupying 0.849938 of unit cell:	Completed after 1 iterations at t[s]:    347.18
SCF: Cycle: 10   F: -527.324501698794620   dF: -7.417e-08   |Residual|: 3.570e-05   |deigs|: 2.799e-05  t[s]:    347.32
	Linear fluid (dielectric constant: 7.2) occupying 0.849940 of unit cell:	Completed after 1 iterations at t[s]:    347.46
	FillingsUpdate:  mu: -0.115075733  nElectrons: 318.000000
	Linear fluid (dielectric constant: 7.2) occupying 0.849938 of unit cell:	Completed after 2 iterations at t[s]:    350.30
SCF: Cycle: 11   F: -527.324501658999452   dF: +3.980e-08   |Residual|: 6.928e-05   |deigs|: 2.643e-05  t[s]:    350.45
	Linear fluid (dielectric constant: 7.2) occupying 0.849942 of unit cell:	Completed after 2 iterations at t[s]:    350.60
	FillingsUpdate:  mu: -0.115075713  nElectrons: 318.000000
	Linear fluid (dielectric constant: 7.2) occupying 0.849937 of unit cell:	Completed after 1 iterations at t[s]:    353.42
SCF: Cycle: 12   F: -527.324501693269895   dF: -3.427e-08   |Residual|: 4.461e-05   |deigs|: 1.577e-05  t[s]:    353.56
	Linear fluid (dielectric constant: 7.2) occupying 0.849947 of unit cell:	Completed after 1 iterations at t[s]:    353.70
	FillingsUpdate:  mu: -0.115076422  nElectrons: 318.000000
	Linear fluid (dielectric constant: 7.2) occupying 0.849937 of unit cell:	Completed after 1 iterations at t[s]:    356.53
SCF: Cycle: 13   F: -527.324501676899445   dF: +1.637e-08   |Residual|: 6.606e-05   |deigs|: 4.889e-05  t[s]:    356.68
	Linear fluid (dielectric constant: 7.2) occupying 0.849951 of unit cell:	Completed after 1 iterations at t[s]:    356.80
	FillingsUpdate:  mu: -0.115071192  nElectrons: 318.000000
	Linear fluid (dielectric constant: 7.2) occupying 0.849938 of unit cell:	Completed after 2 iterations at t[s]:    359.70
SCF: Cycle: 14   F: -527.324501604717852   dF: +7.218e-08   |Residual|: 8.875e-05   |deigs|: 6.176e-05  t[s]:    359.85
	Linear fluid (dielectric constant: 7.2) occupying 0.849951 of unit cell:	Completed after 2 iterations at t[s]:    359.99
	FillingsUpdate:  mu: -0.115072651  nElectrons: 318.000000
	Linear fluid (dielectric constant: 7.2) occupying 0.849938 of unit cell:	Completed after 1 iterations at t[s]:    362.24
SCF: Cycle: 15   F: -527.324501712809138   dF: -1.081e-07   |Residual|: 1.460e-05   |deigs|: 1.669e-05  t[s]:    362.39
	Linear fluid (dielectric constant: 7.2) occupying 0.849948 of unit cell:	Completed after 0 iterations at t[s]:    362.51
	FillingsUpdate:  mu: -0.115070674  nElectrons: 318.000000
	Linear fluid (dielectric constant: 7.2) occupying 0.849938 of unit cell:	Completed after 1 iterations at t[s]:    365.33
SCF: Cycle: 16   F: -527.324501701032318   dF: +1.178e-08   |Residual|: 4.461e-05   |deigs|: 1.119e-04  t[s]:    365.47
	Linear fluid (dielectric constant: 7.2) occupying 0.849945 of unit cell:	Completed after 1 iterations at t[s]:    365.60
	FillingsUpdate:  mu: -0.115072908  nElectrons: 318.000000
	Linear fluid (dielectric constant: 7.2) occupying 0.849938 of unit cell:	Completed after 0 iterations at t[s]:    368.40
SCF: Cycle: 17   F: -527.324501721460024   dF: -2.043e-08   |Residual|: 1.701e-05   |deigs|: 4.117e-05  t[s]:    368.54
	Linear fluid (dielectric constant: 7.2) occupying 0.849943 of unit cell:	Completed after 0 iterations at t[s]:    368.66
	FillingsUpdate:  mu: -0.115070465  nElectrons: 318.000000
	Linear fluid (dielectric constant: 7.2) occupying 0.849938 of unit cell:	Completed after 1 iterations at t[s]:    371.48
SCF: Cycle: 18   F: -527.324501676457885   dF: +4.500e-08   |Residual|: 6.559e-05   |deigs|: 4.486e-05  t[s]:    371.62
	Linear fluid (dielectric constant: 7.2) occupying 0.849939 of unit cell:	Completed after 1 iterations at t[s]:    371.76
	FillingsUpdate:  mu: -0.115072758  nElectrons: 318.000000
	Linear fluid (dielectric constant: 7.2) occupying 0.849938 of unit cell:	Completed after 0 iterations at t[s]:    374.57
SCF: Cycle: 19   F: -527.324501723638491   dF: -4.718e-08   |Residual|: 2.337e-05   |deigs|: 4.791e-05  t[s]:    374.71
	Linear fluid (dielectric constant: 7.2) occupying 0.849938 of unit cell:	Completed after 0 iterations at t[s]:    374.83
	FillingsUpdate:  mu: -0.115075678  nElectrons: 318.000000
	Linear fluid (dielectric constant: 7.2) occupying 0.849938 of unit cell:	Completed after 1 iterations at t[s]:    377.06
SCF: Cycle: 20   F: -527.324501714656321   dF: +8.982e-09   |Residual|: 3.021e-05   |deigs|: 1.179e-05  t[s]:    377.20
	Linear fluid (dielectric constant: 7.2) occupying 0.849938 of unit cell:	Completed after 0 iterations at t[s]:    377.32
	FillingsUpdate:  mu: -0.115070907  nElectrons: 318.000000
	Linear fluid (dielectric constant: 7.2) occupying 0.849937 of unit cell:	Completed after 1 iterations at t[s]:    380.17
SCF: Cycle: 21   F: -527.324501607445882   dF: +1.072e-07   |Residual|: 9.960e-05   |deigs|: 1.396e-05  t[s]:    380.31
	Linear fluid (dielectric constant: 7.2) occupying 0.849937 of unit cell:	Completed after 1 iterations at t[s]:    380.44
	FillingsUpdate:  mu: -0.115073604  nElectrons: 318.000000
	Linear fluid (dielectric constant: 7.2) occupying 0.849938 of unit cell:	Completed after 0 iterations at t[s]:    383.28
SCF: Cycle: 22   F: -527.324501728031123   dF: -1.206e-07   |Residual|: 8.714e-06   |deigs|: 1.647e-05  t[s]:    383.43
	Linear fluid (dielectric constant: 7.2) occupying 0.849937 of unit cell:	Completed after 0 iterations at t[s]:    383.53
	FillingsUpdate:  mu: -0.115074313  nElectrons: 318.000000
	Linear fluid (dielectric constant: 7.2) occupying 0.849937 of unit cell:	Completed after 0 iterations at t[s]:    385.73
SCF: Cycle: 23   F: -527.324501726110498   dF: +1.921e-09   |Residual|: 1.268e-05   |deigs|: 8.480e-06  t[s]:    385.89
	Linear fluid (dielectric constant: 7.2) occupying 0.849938 of unit cell:	Completed after 0 iterations at t[s]:    386.00
	FillingsUpdate:  mu: -0.115075075  nElectrons: 318.000000
	Linear fluid (dielectric constant: 7.2) occupying 0.849938 of unit cell:	Completed after 0 iterations at t[s]:    388.78
SCF: Cycle: 24   F: -527.324501725097207   dF: +1.013e-09   |Residual|: 1.632e-05   |deigs|: 7.011e-06  t[s]:    388.92
	Linear fluid (dielectric constant: 7.2) occupying 0.849938 of unit cell:	Completed after 0 iterations at t[s]:    389.03
	FillingsUpdate:  mu: -0.115073524  nElectrons: 318.000000
	Linear fluid (dielectric constant: 7.2) occupying 0.849938 of unit cell:	Completed after 1 iterations at t[s]:    391.81
SCF: Cycle: 25   F: -527.324501710945128   dF: +1.415e-08   |Residual|: 3.458e-05   |deigs|: 8.768e-06  t[s]:    391.96
	Linear fluid (dielectric constant: 7.2) occupying 0.849938 of unit cell:	Completed after 1 iterations at t[s]:    392.08
	FillingsUpdate:  mu: -0.115074016  nElectrons: 318.000000
	Linear fluid (dielectric constant: 7.2) occupying 0.849938 of unit cell:	Completed after 0 iterations at t[s]:    394.31
SCF: Cycle: 26   F: -527.324501729110239   dF: -1.817e-08   |Residual|: 6.042e-06   |deigs|: 6.768e-06  t[s]:    394.45
	Linear fluid (dielectric constant: 7.2) occupying 0.849937 of unit cell:	Completed after 0 iterations at t[s]:    394.55
	FillingsUpdate:  mu: -0.115074031  nElectrons: 318.000000
	Linear fluid (dielectric constant: 7.2) occupying 0.849937 of unit cell:	Completed after 0 iterations at t[s]:    396.72
SCF: Cycle: 27   F: -527.324501729711756   dF: -6.015e-10   |Residual|: 6.458e-06   |deigs|: 6.938e-06  t[s]:    396.86
	Linear fluid (dielectric constant: 7.2) occupying 0.849937 of unit cell:	Completed after 0 iterations at t[s]:    396.96
	FillingsUpdate:  mu: -0.115074051  nElectrons: 318.000000
	Linear fluid (dielectric constant: 7.2) occupying 0.849937 of unit cell:	Completed after 0 iterations at t[s]:    399.71
SCF: Cycle: 28   F: -527.324501728483938   dF: +1.228e-09   |Residual|: 6.674e-06   |deigs|: 7.460e-06  t[s]:    399.85
	Linear fluid (dielectric constant: 7.2) occupying 0.849937 of unit cell:	Completed after 0 iterations at t[s]:    399.96
	FillingsUpdate:  mu: -0.115074506  nElectrons: 318.000000
	Linear fluid (dielectric constant: 7.2) occupying 0.849938 of unit cell:	Completed after 0 iterations at t[s]:    403.09
SCF: Cycle: 29   F: -527.324501728255996   dF: +2.279e-10   |Residual|: 5.368e-06   |deigs|: 4.214e-06  t[s]:    403.22
	Linear fluid (dielectric constant: 7.2) occupying 0.849937 of unit cell:	Completed after 0 iterations at t[s]:    403.33
	FillingsUpdate:  mu: -0.115072918  nElectrons: 318.000000
	Linear fluid (dielectric constant: 7.2) occupying 0.849937 of unit cell:	Completed after 0 iterations at t[s]:    406.40
SCF: Cycle: 30   F: -527.324501727575353   dF: +6.806e-10   |Residual|: 1.229e-05   |deigs|: 1.079e-05  t[s]:    406.55
	Linear fluid (dielectric constant: 7.2) occupying 0.849937 of unit cell:	Completed after 0 iterations at t[s]:    406.66
	FillingsUpdate:  mu: -0.115075745  nElectrons: 318.000000
	Linear fluid (dielectric constant: 7.2) occupying 0.849938 of unit cell:	Completed after 1 iterations at t[s]:    409.83
SCF: Cycle: 31   F: -527.324501682755795   dF: +4.482e-08   |Residual|: 5.610e-05   |deigs|: 4.014e-06  t[s]:    409.98
	Linear fluid (dielectric constant: 7.2) occupying 0.849937 of unit cell:	Completed after 1 iterations at t[s]:    410.11
	FillingsUpdate:  mu: -0.115074349  nElectrons: 318.000000
	Linear fluid (dielectric constant: 7.2) occupying 0.849938 of unit cell:	Completed after 1 iterations at t[s]:    412.36
SCF: Cycle: 32   F: -527.324501720799731   dF: -3.804e-08   |Residual|: 2.598e-05   |deigs|: 3.859e-06  t[s]:    412.50
[...]
	Linear fluid (dielectric constant: 7.2) occupying 0.850089 of unit cell:	Completed after 1 iterations at t[s]:  15056.20
	FillingsUpdate:  mu: -0.105212428  nElectrons: 318.000000
	Linear fluid (dielectric constant: 7.2) occupying 0.850091 of unit cell:	Completed after 1 iterations at t[s]:  15058.85
SCF: Cycle:  6   F: -527.331606303488002   dF: -6.499e-08   |Residual|: 2.680e-05   |deigs|: 6.452e-06  t[s]:  15058.99
	Linear fluid (dielectric constant: 7.2) occupying 0.850090 of unit cell:	Completed after 0 iterations at t[s]:  15059.10
	FillingsUpdate:  mu: -0.105211823  nElectrons: 318.000000
	Linear fluid (dielectric constant: 7.2) occupying 0.850091 of unit cell:	Completed after 1 iterations at t[s]:  15061.19
SCF: Cycle:  7   F: -527.331606228708210   dF: +7.478e-08   |Residual|: 8.128e-05   |deigs|: 5.378e-06  t[s]:  15061.33
	Linear fluid (dielectric constant: 7.2) occupying 0.850091 of unit cell:	Completed after 1 iterations at t[s]:  15061.45
	FillingsUpdate:  mu: -0.105214648  nElectrons: 318.000000
	Linear fluid (dielectric constant: 7.2) occupying 0.850091 of unit cell:	Completed after 1 iterations at t[s]:  15063.55
SCF: Cycle:  8   F: -527.331606290943682   dF: -6.224e-08   |Residual|: 4.947e-05   |deigs|: 5.547e-06  t[s]:  15063.68
	Linear fluid (dielectric constant: 7.2) occupying 0.850091 of unit cell:	Completed after 1 iterations at t[s]:  15063.80
	FillingsUpdate:  mu: -0.105213930  nElectrons: 318.000000
	Linear fluid (dielectric constant: 7.2) occupying 0.850091 of unit cell:	Completed after 0 iterations at t[s]:  15065.88
SCF: Cycle:  9   F: -527.331606315062800   dF: -2.412e-08   |Residual|: 1.095e-05   |deigs|: 3.554e-06  t[s]:  15066.01
	Linear fluid (dielectric constant: 7.2) occupying 0.850091 of unit cell:	Completed after 0 iterations at t[s]:  15066.11
	FillingsUpdate:  mu: -0.105212735  nElectrons: 318.000000
	Linear fluid (dielectric constant: 7.2) occupying 0.850091 of unit cell:	Completed after 0 iterations at t[s]:  15068.72
SCF: Cycle: 10   F: -527.331606316413854   dF: -1.351e-09   |Residual|: 6.936e-06   |deigs|: 2.211e-06  t[s]:  15068.85
	Linear fluid (dielectric constant: 7.2) occupying 0.850091 of unit cell:	Completed after 0 iterations at t[s]:  15068.95
	FillingsUpdate:  mu: -0.105212739  nElectrons: 318.000000
	Linear fluid (dielectric constant: 7.2) occupying 0.850091 of unit cell:	Completed after 0 iterations at t[s]:  15071.56
SCF: Cycle: 11   F: -527.331606317290948   dF: -8.771e-10   |Residual|: 6.549e-06   |deigs|: 2.022e-06  t[s]:  15071.68
SCF: Converged (|Delta E|<1.000000e-08 for 2 iters).

Setting wave functions to eigenvectors of Hamiltonian

Computing DFT-D3 correction:
# coordination-number C 3.300 3.300 3.300 3.300 3.300 3.301 3.300 3.300 3.306 3.300 3.300 3.345 3.300 3.300 3.321 3.300 3.302 3.314 3.300 3.301 3.388 3.301 3.330 3.310 3.300 3.311 3.300 3.300 3.313 3.301 3.300 3.304 3.300 3.300 3.356 3.301 3.300 3.300 3.300 3.300 3.304 3.300 3.301 3.306 3.300 3.300 3.320 3.300 3.303 3.324 3.300 3.301 3.300 3.300 3.303 3.393 3.300 3.302 3.332 3.312 3.302 3.300 3.303 3.300 3.300 3.381 3.300 3.300 3.325 3.307 3.300 3.301
# coordination-number S 2.864 2.861
# coordination-number Na 2.201 2.160
# diagonal-C6 C 24.28 24.28 24.28 24.28 24.28 24.27 24.28 24.28 24.22 24.28 24.28 23.80 24.28 24.28 24.07 24.28 24.26 24.14 24.28 24.27 23.27 24.28 23.97 24.18 24.28 24.18 24.28 24.28 24.16 24.27 24.28 24.25 24.28 24.28 23.67 24.27 24.28 24.28 24.28 24.28 24.24 24.28 24.27 24.23 24.28 24.28 24.08 24.28 24.26 24.04 24.28 24.27 24.28 24.28 24.25 23.20 24.28 24.27 23.95 24.17 24.27 24.28 24.26 24.28 24.28 23.36 24.28 24.29 24.02 24.22 24.28 24.27
# diagonal-C6 S 125.81 125.81
# diagonal-C6 Na 186.11 186.11
EvdW_6 =   -0.062305
EvdW_8 =   -0.052175

-------- Electronic minimization -----------
Will mix electronic density at each iteration.
	FillingsUpdate:  mu: -0.105212739  nElectrons: 318.000000
	Linear fluid (dielectric constant: 7.2) occupying 0.850091 of unit cell:	Completed after 1 iterations at t[s]:  15074.76
	FillingsUpdate:  mu: -0.105214469  nElectrons: 318.000000
	Linear fluid (dielectric constant: 7.2) occupying 0.850092 of unit cell:	Completed after 1 iterations at t[s]:  15077.35
SCF: Cycle:  0   F: -527.331606301116722   dF: -2.176e-08   |Residual|: 1.322e-04   |deigs|: 1.223e-07  t[s]:  15077.49
	Linear fluid (dielectric constant: 7.2) occupying 0.850092 of unit cell:	Completed after 1 iterations at t[s]:  15077.60
	FillingsUpdate:  mu: -0.105210825  nElectrons: 318.000000
	Linear fluid (dielectric constant: 7.2) occupying 0.850092 of unit cell:	Completed after 1 iterations at t[s]:  15079.69
SCF: Cycle:  1   F: -527.331606337926473   dF: -3.681e-08   |Residual|: 9.128e-05   |deigs|: 4.705e-06  t[s]:  15079.83
	Linear fluid (dielectric constant: 7.2) occupying 0.850091 of unit cell:	Completed after 1 iterations at t[s]:  15079.94
	FillingsUpdate:  mu: -0.105213365  nElectrons: 318.000000
	Linear fluid (dielectric constant: 7.2) occupying 0.850092 of unit cell:	Completed after 1 iterations at t[s]:  15082.05
SCF: Cycle:  2   F: -527.331606355057147   dF: -1.713e-08   |Residual|: 5.731e-05   |deigs|: 4.031e-06  t[s]:  15082.18
	Linear fluid (dielectric constant: 7.2) occupying 0.850092 of unit cell:	Completed after 1 iterations at t[s]:  15082.29
	FillingsUpdate:  mu: -0.105211449  nElectrons: 318.000000
	Linear fluid (dielectric constant: 7.2) occupying 0.850092 of unit cell:	Completed after 1 iterations at t[s]:  15084.39
SCF: Cycle:  3   F: -527.331606373201794   dF: -1.814e-08   |Residual|: 3.958e-05   |deigs|: 3.250e-06  t[s]:  15084.53
	Linear fluid (dielectric constant: 7.2) occupying 0.850091 of unit cell:	Completed after 1 iterations at t[s]:  15084.64
	FillingsUpdate:  mu: -0.105212876  nElectrons: 318.000000
	Linear fluid (dielectric constant: 7.2) occupying 0.850092 of unit cell:	Completed after 1 iterations at t[s]:  15086.75
SCF: Cycle:  4   F: -527.331606375932097   dF: -2.730e-09   |Residual|: 3.082e-05   |deigs|: 2.351e-06  t[s]:  15086.88
	Linear fluid (dielectric constant: 7.2) occupying 0.850092 of unit cell:	Completed after 1 iterations at t[s]:  15087.00
	FillingsUpdate:  mu: -0.105211925  nElectrons: 318.000000
	Linear fluid (dielectric constant: 7.2) occupying 0.850092 of unit cell:	Completed after 0 iterations at t[s]:  15089.09
SCF: Cycle:  5   F: -527.331606385251803   dF: -9.320e-09   |Residual|: 1.464e-05   |deigs|: 1.696e-06  t[s]:  15089.22
SCF: Converged (|Delta E|<1.000000e-08 for 2 iters).

Setting wave functions to eigenvectors of Hamiltonian

Computing DFT-D3 correction:
# coordination-number C 3.300 3.300 3.300 3.300 3.300 3.301 3.300 3.300 3.306 3.300 3.300 3.345 3.300 3.300 3.321 3.300 3.302 3.314 3.300 3.301 3.388 3.301 3.330 3.310 3.300 3.311 3.300 3.300 3.313 3.301 3.300 3.304 3.300 3.300 3.356 3.301 3.300 3.300 3.300 3.300 3.304 3.300 3.301 3.306 3.300 3.300 3.320 3.300 3.303 3.324 3.300 3.301 3.300 3.300 3.303 3.393 3.300 3.302 3.332 3.312 3.302 3.300 3.303 3.300 3.300 3.381 3.300 3.300 3.325 3.307 3.300 3.301
# coordination-number S 2.864 2.861
# coordination-number Na 2.201 2.160
# diagonal-C6 C 24.28 24.28 24.28 24.28 24.28 24.27 24.28 24.28 24.22 24.28 24.28 23.80 24.28 24.28 24.07 24.28 24.26 24.14 24.28 24.27 23.27 24.28 23.97 24.18 24.28 24.18 24.28 24.28 24.16 24.27 24.28 24.25 24.28 24.28 23.67 24.27 24.28 24.28 24.28 24.28 24.24 24.28 24.27 24.23 24.28 24.28 24.08 24.28 24.26 24.04 24.28 24.27 24.28 24.28 24.25 23.20 24.28 24.27 23.95 24.17 24.27 24.28 24.26 24.28 24.28 23.36 24.28 24.29 24.02 24.22 24.28 24.27
# diagonal-C6 S 125.81 125.81
# diagonal-C6 Na 186.11 186.11
EvdW_6 =   -0.062305
EvdW_8 =   -0.052175

# Ionic positions in cartesian coordinates:
ion C  27.964685060068472  -0.005164009085444  18.994846577473165 1
ion C  16.295781041610066  20.204945097252487  18.992986567123761 1
ion C   2.291925567517966   4.037563863877556  18.984757166232146 1
ion C  23.297675247420216  -0.004284388961246  18.988394580095108 1
ion C   4.625356735011866  -0.006260356608384  18.986780098755087 1
ion C  11.629523121709266  20.205477962426837  18.966583309640164 1
ion C  25.630861478548081   4.037474526984107  19.002643023796253 1
ion C  18.629492844479064  16.162872445269510  18.999887157481684 1
ion C   4.626085864452223   8.080338143671923  18.897902124392569 1
ion C  18.629913996310961  -0.004768541245514  18.986927610632772 1
ion C   9.293356729068684  -0.006813820032203  18.973450284726699 1
ion C   9.297246166123919  16.161391623921791  18.868221987697542 1
ion C  23.297281912390446   8.079059920397901  19.006586524064680 1
ion C  20.963275754643909  12.121049456935896  19.007276951891729 1
ion C   6.961145204669148  12.120922437965412  18.814836161798656 1
ion C  13.962177154658725  -0.006408020271976  18.981640583750888 1
ion C  13.962723442674077  16.162388285573623  18.954503687755533 1
ion C   6.957151622750822   4.036219427535041  18.941818710828631 1
ion C  20.963491816707499   4.037421790547556  18.997624592047931 1
ion C  16.294783809344800  12.121840403362080  18.972559103322563 1
ion C   9.293003883040825   8.082817009310785  18.847739813804242 1
ion C  16.296550886591298   4.036904710652253  18.981218594476957 1
ion C  11.629364603648600   4.035575145252460  18.936904147153449 1
ion C  11.630029564146987  12.122936921884596  18.848745341602140 1
ion C  18.629455269324282   8.079757021333041  18.995638634138601 1
ion C   6.961401836401613  20.208073030422579  18.946845193714001 1
ion C  -7.043151459328290  20.204623880998700  18.993613892219813 1
ion C  -0.040342356557716   8.079264389540862  18.987700146796268 1
ion C  13.962181782018332   8.081246392505486  18.929806034719441 1
ion C   2.292330017622199  20.205565068283928  18.972310502437740 1
ion C  -4.708941449267381  16.162646781266741  19.001784099216326 1
ion C   2.293006202180853  12.119497840282135  18.929795636273973 1
ion C  -2.374417486979241  12.120588307697950  18.998516791215483 1
ion C  -2.375319619205495  20.204708626113653  18.989015862843001 1
ion C   4.625049880533348  16.161283290862894  18.894810162587536 1
ion C  -0.041731978003618  16.162316011529768  18.974925198348981 1
ion C  13.962776796909671  21.553240989183148  18.988168296960016 1
ion C   2.292331060788575   1.342273038151831  18.991940822831292 1
ion C  25.631405576051105   1.342947042223256  18.997237997084493 1
ion C  16.295898344594683  17.509994568789701  18.988876834530917 1
ion C   4.624932354596157   5.386127176602514  18.946059331075968 1
ion C  20.963566705016564   1.342887945150283  18.992778203623519 1
ion C   6.958888994899125   1.341001926257968  18.971410164739019 1
ion C  11.630528467030771  17.510223938281580  18.932230464599709 1
ion C  23.297191718585964   5.384705413645517  19.003590661433368 1
ion C  18.629044016011342  13.468310517750878  18.999504141621230 1
ion C   6.957899629606812   9.427707525330637  18.833902671355492 1
ion C  16.295595710010772   1.341920445112544  18.985141516916023 1
ion C  11.627880434816969   1.339910592049854  18.965482313979656 1
ion C   9.295052341346132  13.466398606097158  18.820241450861108 1
ion C  20.963336885812915   9.426576392405511  19.005909819977223 1
ion C   9.295550706829465  21.554446578075691  18.968181851915851 1
ion C  -9.376577190301562  21.552424772111323  18.992333880282970 1
ion C  -0.041225624359910   5.384775247753882  18.994723780672160 1
ion C  13.961267333565390  13.468086180831563  18.924499516736592 1
ion C   9.292748597978898   5.384655663617600  18.905702264072417 1
ion C  18.629647201370123   5.384752504415810  18.993226399270497 1
ion C  16.295871195692975   9.427698310714671  18.972340356222176 1
ion C  11.629591482525440   9.429659889650051  18.859533007702094 1
ion C  13.962809236618279   5.384966048474691  18.946695921947029 1
ion C   4.626437095065340  21.553996612868549  18.969754749765805 1
ion C  -7.042650762468403  17.510094439208721  19.001334135351591 1
ion C   2.293232066114713   9.426017638541374  18.942651675164964 1
ion C  -2.374240335752662   9.426147113075793  19.001952807239043 1
ion C  -4.709426512991825  21.552055142185552  18.988032134913745 1
ion C   6.961640383980525  17.510880673667920  18.893704887758371 1
ion C  -0.041802811332143  21.552360629202393  18.985909948386062 1
ion C  -4.708559302619790  13.468144364995810  19.006846075538203 1
ion C   4.626470321853222  13.465500509833475  18.865375054037603 1
ion C   2.290702826873531  17.510425218322041  18.949895263749731 1
ion C  -2.375508232727759  17.510005491070000  18.993542292917507 1
ion C  -0.040275822419028  13.466897864540488  18.973548467814432 1
ion S  10.216972958860943  11.995458597376814  25.588506167164876 1
ion S   6.525037169510771  10.738608947266865  25.574101832737295 1
ion Na   9.945343156721117   6.764272256080113  25.023964114051289 1
ion Na   6.809687558537716  15.986339040631794  25.079849515262811 1

# Forces in Cartesian coordinates:
force C   0.000104454397116  -0.000056575042647   0.000222336868359 1
force C   0.000021853980329  -0.000033381060117   0.000043998314314 1
force C   0.000072016881070  -0.000063507869310  -0.000031076682904 1
force C  -0.000004299477860  -0.000075982491419   0.000347405408363 1
force C   0.000098730767853  -0.000050425730623   0.000211355366267 1
force C  -0.000024159371385  -0.000087277818741   0.000188357791935 1
force C   0.000070219773301  -0.000045505611220  -0.000029703682986 1
force C  -0.000031996386583  -0.000049501713839  -0.000044838573048 1
force C   0.000044252132385  -0.000025101791724   0.000191464049630 1
force C  -0.000096778814688  -0.000015986610750   0.000201656900370 1
force C  -0.000043623669791  -0.000043630158565   0.000396554962306 1
force C   0.000043894949066  -0.000033266688486   0.000294801226478 1
force C  -0.000004832901418   0.000082813140303   0.000098337701543 1
force C  -0.000080152202141   0.000084139311761   0.000127736104589 1
force C   0.000034057064242  -0.000149650708106   0.000148812682162 1
force C  -0.000098503791241  -0.000022939358782   0.000159017089499 1
force C   0.000003740430147  -0.000057045629181   0.000092459320271 1
force C   0.000033566302440  -0.000030835573838   0.000348901334927 1
force C  -0.000055022696405   0.000030728575281   0.000341494094347 1
force C   0.000035336877883   0.000002243369247   0.000062696855655 1
force C  -0.000003371692026  -0.000044340376846   0.000371119276992 1
force C  -0.000063615845352   0.000020339848784  -0.000030076186147 1
force C  -0.000033192098526  -0.000027076036423   0.000145147901689 1
force C  -0.000026645477238  -0.000084252122562   0.000349332824393 1
force C  -0.000039745081139   0.000036391682909   0.000071034544935 1
force C  -0.000049658872521  -0.000101425879430   0.000035775290485 1
force C   0.000014475616716   0.000067234343367   0.000226922267357 1
force C  -0.000015474707103   0.000060880326164  -0.000064585945210 1
force C   0.000022337930529  -0.000040013824816  -0.000088802966231 1
force C  -0.000082728036217  -0.000015218660284   0.000008931497673 1
force C  -0.000061939211583  -0.000018349477779   0.000166605762358 1
force C  -0.000049790540305   0.000036878696918  -0.000016350803277 1
force C  -0.000016598751733   0.000069589081020   0.000121519141176 1
force C  -0.000078273734319   0.000002682252738   0.000292457925673 1
force C  -0.000114921150358   0.000012888420801  -0.000074690247658 1
force C  -0.000099169988309  -0.000042597531656   0.000114648319475 1
force C  -0.000123611378299   0.000032518640159   0.000232779951410 1
force C  -0.000049228411581   0.000099821719581   0.000241106114725 1
force C  -0.000040313983423  -0.000037177846139   0.000033752141645 1
force C  -0.000078111147188   0.000078629151895   0.000161926764383 1
force C  -0.000068967876869  -0.000005712390763   0.000022314521904 1
force C   0.000074473942114  -0.000053448768584  -0.000070736002928 1
force C   0.000003538897232   0.000031779552405   0.000147668056598 1
force C  -0.000048591779738   0.000098161535510   0.000291231071315 1
force C   0.000049561803239   0.000049382951697   0.000016754529955 1
force C   0.000037658773376  -0.000020756184030   0.000035080597000 1
force C  -0.000045889897742   0.000120847021335   0.000122968801505 1
force C   0.000131603717510   0.000026624271358   0.000306979424739 1
force C   0.000065418042274   0.000063932659456   0.000434572946628 1
force C   0.000023418167369  -0.000020914326580   0.000166523574974 1
force C   0.000107252090553  -0.000058103662847   0.000039985574656 1
force C   0.000022842289403   0.000043253565276   0.000086045882941 1
force C  -0.000059233410876   0.000054003234330   0.000308251300763 1
force C   0.000025151108928   0.000018086284594   0.000138378515036 1
force C   0.000001796656653   0.000032135749686  -0.000023006246192 1
force C   0.000014939035465  -0.000035883079793   0.000352028862494 1
force C   0.000156013788906   0.000041482027068   0.000100238681276 1
force C   0.000058475091730  -0.000030737955614   0.000118404588682 1
force C   0.000052644845632   0.000030978517441   0.000044930280685 1
force C   0.000128270138091   0.000014994256233   0.000471230193432 1
force C   0.000052014850528   0.000071277385114   0.000298082772082 1
force C  -0.000018102342691  -0.000008367313743   0.000047577431323 1
force C   0.000010725897172   0.000006876146471   0.000059264179488 1
force C  -0.000014411956562  -0.000028377402267  -0.000022866988150 1
force C   0.000037669404862   0.000070473594784   0.000106236018539 1
force C   0.000015190946052   0.000124286869897   0.000324401383690 1
force C   0.000134557182803   0.000024861758336   0.000130079701592 1
force C   0.000031721643998  -0.000045869221641  -0.000103882160942 1
force C  -0.000039251397759   0.000001865261793   0.000156767133418 1
force C   0.000077150260235  -0.000001856797773   0.000234638760186 1
force C   0.000048629173525  -0.000029095987740  -0.000024638696506 1
force C   0.000016823492036   0.000063289140985   0.000132357813935 1
force S   0.000225795871922   0.000132034891674   0.000166691350786 1
force S  -0.000239371988661  -0.000012401679421   0.000220327148052 1
force Na  -0.000117145231415   0.000108299642259   0.000435535049292 1
force Na   0.000083501841972  -0.000057646210990   0.000023690055068 1

# Energy components:
   A_diel =       -0.0745662516467205
   Eewald =     4711.3014419564888158
       EH =     5130.5447786633858414
     Eloc =   -10400.4469362816780631
      Enl =      -82.1345057660886937
     EvdW =       -0.1144793984977108
      Exc =     -153.5649283575794186
 Exc_core =        5.9601294010654851
       KE =      261.2711701670904745
-------------------------------------
     Etot =     -527.2578958674589558
       TS =        0.0737105177927969
-------------------------------------
        F =     -527.3316063852518027

IonicMinimize: Iter:  87  F: -527.331606385251803  |grad|_K:  9.743e-05  alpha:  2.824e+00  linmin: -1.511e-03  t[s]:  15092.22
IonicMinimize: Converged (|grad|_K<1.000000e-04).

#--- Lowdin population analysis ---
# oxidation-state C +0.033 +0.033 +0.033 +0.031 +0.032 +0.030 +0.033 +0.034 +0.039 +0.031 +0.030 +0.021 +0.033 +0.033 +0.039 +0.030 +0.035 +0.025 +0.033 +0.035 +0.016 +0.030 +0.019 +0.044 +0.033 +0.025 +0.033 +0.035 +0.027 +0.028 +0.033 +0.036 +0.033 +0.032 +0.014 +0.031 +0.032 +0.032 +0.033 +0.034 +0.032 +0.032 +0.029 +0.031 +0.033 +0.034 +0.040 +0.031 +0.028 +0.036 +0.033 +0.029 +0.033 +0.034 +0.039 +0.008 +0.032 +0.033 +0.030 +0.025 +0.028 +0.033 +0.037 +0.034 +0.032 +0.009 +0.031 +0.033 +0.030 +0.027 +0.032 +0.033
# oxidation-state S -0.448 -0.446
# oxidation-state Na +0.896 +0.897


Dumping 'Na2S2@graphene_vdw-glyme.fillings' ... done
Dumping 'Na2S2@graphene_vdw-glyme.wfns' ... done
Dumping 'Na2S2@graphene_vdw-glyme.fluidState' ... done
Dumping 'Na2S2@graphene_vdw-glyme.ionpos' ... done
Dumping 'Na2S2@graphene_vdw-glyme.eigenvals' ... done
End date and time: Fri Jan  3 19:46:07 2025  (Duration: 0-4:11:34.08)
Done!
