
*************** JDFTx 1.7.0  ***************

Start date and time: Wed Sep 25 21:10:34 2024
Executable jdftx with command-line: -i FeN4-glyme.in -o FeN4-glyme.out
Running on hosts (process indices):  SimSlave (0)
Divided in process groups (process indices):  0 (0)
Resource initialization completed at t[s]:      0.00
Run totals: 1 processes, 2 threads, 0 GPUs


Input parsed successfully to the following command list (including defaults):

basis kpoint-dependent
coords-type Cartesian
core-overlap-check vector
coulomb-interaction Slab 001
coulomb-truncation-embed 0 0 1
davidson-band-ratio 1.1
dump End State
dump-name FeN4-glyme.$VAR
elec-cutoff 20 100
elec-eigen-algo Davidson
elec-ex-corr gga-PBE
elec-smearing Fermi 0.01
electronic-minimize  \
	dirUpdateScheme      FletcherReeves \
	linminMethod         DirUpdateRecommended \
	nIterations          100 \
	history              15 \
	knormThreshold       0 \
	energyDiffThreshold  1e-08 \
	nEnergyDiff          2 \
	alphaTstart          1 \
	alphaTmin            1e-10 \
	updateTestStepSize   yes \
	alphaTreduceFactor   0.1 \
	alphaTincreaseFactor 3 \
	nAlphaAdjustMax      3 \
	wolfeEnergy          0.0001 \
	wolfeGradient        0.9 \
	fdTest               no
electronic-scf  \
	nIterations	50 \
	energyDiffThreshold	1e-08 \
	residualThreshold	1e-07 \
	mixFraction	0.5 \
	qMetric	0.8 \
	history	10 \
	nEigSteps	2 \
	eigDiffThreshold	1e-08 \
	mixedVariable	Density \
	qKerker	0.8 \
	qKappa	-1 \
	verbose	no \
	mixFractionMag	1.5
exchange-regularization WignerSeitzTruncated
fluid LinearPCM 298.000000 1.013250
fluid-ex-corr lda-TF lda-PZ
fluid-gummel-loop 10 1.000000e-05
fluid-minimize  \
	dirUpdateScheme      PolakRibiere \
	linminMethod         DirUpdateRecommended \
	nIterations          400 \
	history              15 \
	knormThreshold       1e-11 \
	energyDiffThreshold  0 \
	nEnergyDiff          2 \
	alphaTstart          1 \
	alphaTmin            1e-10 \
	updateTestStepSize   yes \
	alphaTreduceFactor   0.1 \
	alphaTincreaseFactor 3 \
	nAlphaAdjustMax      6 \
	wolfeEnergy          0.0001 \
	wolfeGradient        0.9 \
	fdTest               no
fluid-solvent Glyme 9.62137 ScalarEOS \
	epsBulk 7.2 \
	pMol 0 \
	epsInf 1.9 \
	Pvap 0 \
	sigmaBulk 0 \
	Rvdw 0 \
	Res 0 \
	tauNuc 343133
forces-output-coords Positions
ion C  28.005857181630002   0.000000000000000   1.000001652210000 0
ion C  25.672025513790000   4.042310104620000   1.000001652210000 0
ion C  11.669128103520006  20.211535405260001   1.000001652210000 0
ion C   4.667680343250000   0.000000000000000   1.000001652210000 0
ion C  23.338288332449999   0.000000000000000   1.000001652210000 0
ion C   2.333822219190000   4.042310104620000   1.000001652210000 0
ion C  16.336708291080008  20.211535405260001   1.000001652210000 0
ion C  23.338191956219998   8.084622098970000   1.000001652210000 0
ion C   9.335305884329998  16.169223410910011   1.000001652210000 0
ion C   9.335322891900001   0.000000000000000   1.000001652210000 0
ion C  18.670626886499999   0.000000000000000   1.000001652210000 0
ion C  18.670539958920003  16.169223410910011   1.000001652210000 0
ion C  21.004371626759990  12.126913306290001   1.000001652210000 0
ion C  14.002984337850000   0.000000000000000   1.000001652210000 0
ion C   0.000000000000000   8.084622098970000   1.000001652210000 0
ion C   7.001485554870008  20.211535405260001   1.000001652210000 0
ion C  -7.001481775409993  20.211535405260001   1.000001652210000 0
ion C  -2.333822219189998  12.126913306290001   1.000001652210000 0
ion C   4.667663335679999  16.169223410910011   1.000001652210000 0
ion C  -2.333820329459995  20.211535405260001   1.000001652210000 0
ion C   2.333824108920002  20.211535405260001   1.000001652210000 0
ion C  -4.667659556220001  16.169223410910011   1.000001652210000 0
ion C   7.001483665139999   4.042310104620000   1.000001652210000 0
ion C  21.004430208389998   4.042310104620000   1.000001652210000 0
ion C  14.002948432980002  16.169223410910011   1.000001652210000 0
ion C   0.000001889729997  16.169223410910011   1.000001652210000 0
ion C  11.669126213789999   4.042310104620000   1.000001652210000 0
ion C  18.670609878929998   8.084622098970000   1.000001652210000 0
ion C  11.669126213789998  12.126913306290001   1.000001652210000 0
ion C  16.336787659739997  12.126913306290001   1.000001652210000 0
ion C  16.336789549470002   4.042310104620000   1.000001652210000 0
ion C   9.335303994600004   8.084622098970000   1.000001652210000 0
ion C  14.002948432980002   8.084622098970000   1.000001652210000 0
ion C   0.000000000000000   2.694874032990001   1.000001652210000 0
ion C  11.669128103520000  22.906390540950014   1.000001652210000 0
ion C -11.669124324059998  22.906390540950014   1.000001652210000 0
ion C  -2.333822219190000   6.737165240310005   1.000001652210000 0
ion C   9.335305884330001  18.864097443900004   1.000001652210000 0
ion C  -7.001481775409996  22.906390540950014   1.000001652210000 0
ion C   7.001485554870007  22.906390540950014   1.000001652210000 0
ion C   2.333822219189997   6.737165240310005   1.000001652210000 0
ion C  -9.335302104869996  18.864097443900004   1.000001652210000 0
ion C  -4.667661445950000  10.779477234660007   1.000001652210000 0
ion C  -2.333820329460000  22.906390540950014   1.000001652210000 0
ion C   2.333824108920000  22.906390540950014   1.000001652210000 0
ion C  -7.001483665140000  14.821787339280009   1.000001652210000 0
ion C   4.667661445950001   2.694874032990001   1.000001652210000 0
ion C  23.338269435150007   2.694874032990001   1.000001652210000 0
ion C  14.002967330279997  18.864097443900004   1.000001652210000 0
ion C   0.000000000000000  10.779477234660007   1.000001652210000 0
ion C   4.667663335679999  18.864097443900004   1.000001652210000 0
ion C  -4.667640658919995  18.864097443900004   1.000001652210000 0
ion C  -2.333822219190001  14.821787339280009   1.000001652210000 0
ion C   2.333824108919996  14.821787339280009   1.000001652210000 0
ion C   0.000001889729999  18.864097443900004   1.000001652210000 0
ion C   9.335303994599997   2.694874032990001   1.000001652210000 0
ion C  21.004430208390001   6.737165240310005   1.000001652210000 0
ion C  11.669126213790005  14.821787339280009   1.000001652210000 0
ion C  16.336789549469998  14.821787339280009   1.000001652210000 0
ion C  18.670609878930009   2.694874032990001   1.000001652210000 0
ion C   7.001483665139999   6.737165240310005   1.000001652210000 0
ion C  14.002946543250001   2.694874032990001   1.000001652210000 0
ion C  18.670607989199997  10.779477234660007   1.000001652210000 0
ion C  11.669126213789998   6.737165240310005   1.000001652210000 0
ion C  16.336787659740001   6.737165240310005   1.000001652210000 0
ion C  14.002946543250001  10.779477234660007   1.000001652210000 0
ion N   4.667661445950002   8.084622098970000   1.000001652210000 0
ion N   2.333822219190005  12.126913306290001   1.000001652210000 0
ion N   7.001485554869996  14.821787339280009   1.000001652210000 0
ion N   9.335305884329999  10.779477234660007   1.000001652210000 0
ion Fe   5.837109518069998  11.454309266310005   1.000001652210000 0
ion-species GBRV/$ID_pbe.uspp
ion-width Ecut
ionic-minimize  \
	dirUpdateScheme      FletcherReeves \
	linminMethod         DirUpdateRecommended \
	nIterations          200 \
	history              15 \
	knormThreshold       0.0001 \
	energyDiffThreshold  1e-06 \
	nEnergyDiff          2 \
	alphaTstart          1 \
	alphaTmin            1e-10 \
	updateTestStepSize   yes \
	alphaTreduceFactor   0.1 \
	alphaTincreaseFactor 3 \
	nAlphaAdjustMax      3 \
	wolfeEnergy          0.0001 \
	wolfeGradient        0.9 \
	fdTest               no
kpoint   0.000000000000   0.000000000000   0.000000000000  1.00000000000000
kpoint-folding 1 1 1 
latt-move-scale 1 1 1
latt-scale 1 1 1 
lattice Triclinic 28.0058 28.0058 32.1253 90 90 120
lattice-minimize  \
	dirUpdateScheme      L-BFGS \
	linminMethod         DirUpdateRecommended \
	nIterations          0 \
	history              15 \
	knormThreshold       0 \
	energyDiffThreshold  1e-06 \
	nEnergyDiff          2 \
	alphaTstart          1 \
	alphaTmin            1e-10 \
	updateTestStepSize   yes \
	alphaTreduceFactor   0.1 \
	alphaTincreaseFactor 3 \
	nAlphaAdjustMax      3 \
	wolfeEnergy          0.0001 \
	wolfeGradient        0.9 \
	fdTest               no
lcao-params -1 1e-06 0.01
pcm-variant GLSSA13
spintype no-spin
subspace-rotation-factor 1 yes
symmetries automatic
symmetry-threshold 0.0001



---------- Setting up symmetries ----------

Found 24 point-group symmetries of the bravais lattice
Found 2 space-group symmetries with basis
Applied RMS atom displacement 0 bohrs to make symmetries exact.

---------- Initializing the Grid ----------
R = 
[      28.0058     -14.0029            0  ]
[            0      24.2537            0  ]
[            0            0      32.1253  ]
unit cell volume = 21821
G =
[   0.224353    0.12953         -0  ]
[          0   0.259061          0  ]
[          0         -0   0.195584  ]
Minimum fftbox size, Smin = [  128  128  148  ]
Chosen fftbox size, S = [  128  128  150  ]

---------- Initializing tighter grid for wavefunction operations ----------
R = 
[      28.0058     -14.0029            0  ]
[            0      24.2537            0  ]
[            0            0      32.1253  ]
unit cell volume = 21821
G =
[   0.224353    0.12953         -0  ]
[          0   0.259061          0  ]
[          0         -0   0.195584  ]
Minimum fftbox size, Smin = [  116  116  132  ]
Chosen fftbox size, S = [  120  120  140  ]

---------- Exchange Correlation functional ----------
Initalized PBE GGA exchange.
Initalized PBE GGA correlation.

---------- Setting up pseudopotentials ----------
Width of ionic core gaussian charges (only for fluid interactions / plotting) set to 0.397384

Reading pseudopotential file '/home/simslave2427/jdftx_install/build/pseudopotentials/GBRV/c_pbe.uspp':
  Title: C.  Created by USPP 7.3.6 on 3-2-2014
  Reference state energy: -5.406344.  4 valence electrons in orbitals:
    |200>  occupation: 2  eigenvalue: -0.504890
    |210>  occupation: 2  eigenvalue: -0.194356
  lMax: 1  lLocal: 2  QijEcut: 5
  4 projectors sampled on a log grid with 503 points:
    l: 0  eig: -0.504890  rCut: 1.3
    l: 0  eig: 0.000000  rCut: 1.3
    l: 1  eig: -0.194357  rCut: 1.3
    l: 1  eig: 0.000000  rCut: 1.3
  Partial core density with radius 1.1
  Transforming core density to a uniform radial grid of dG=0.02 with 1618 points.
  Transforming local potential to a uniform radial grid of dG=0.02 with 1618 points.
  Transforming nonlocal projectors to a uniform radial grid of dG=0.02 with 432 points.
  Transforming density augmentations to a uniform radial grid of dG=0.02 with 1618 points.
  Transforming atomic orbitals to a uniform radial grid of dG=0.02 with 432 points.
  Core radius for overlap checks: 1.30 bohrs.

Reading pseudopotential file '/home/simslave2427/jdftx_install/build/pseudopotentials/GBRV/n_pbe.uspp':
  Title: N.  Created by USPP 7.3.6 on 3-2-2014
  Reference state energy: -9.763716.  5 valence electrons in orbitals:
    |200>  occupation: 2  eigenvalue: -0.681964
    |210>  occupation: 3  eigenvalue: -0.260726
  lMax: 1  lLocal: 2  QijEcut: 6
  4 projectors sampled on a log grid with 491 points:
    l: 0  eig: -0.681964  rCut: 1.15
    l: 0  eig: 0.000000  rCut: 1.15
    l: 1  eig: -0.260729  rCut: 1.2
    l: 1  eig: 0.500000  rCut: 1.2
  Partial core density with radius 0.8
  Transforming core density to a uniform radial grid of dG=0.02 with 1618 points.
  Transforming local potential to a uniform radial grid of dG=0.02 with 1618 points.
  Transforming nonlocal projectors to a uniform radial grid of dG=0.02 with 432 points.
  Transforming density augmentations to a uniform radial grid of dG=0.02 with 1618 points.
  Transforming atomic orbitals to a uniform radial grid of dG=0.02 with 432 points.
  Core radius for overlap checks: 1.20 bohrs.

Reading pseudopotential file '/home/simslave2427/jdftx_install/build/pseudopotentials/GBRV/fe_pbe.uspp':
  Title: Fe.  Created by USPP 7.3.6 on 15-6-15
  Reference state energy: -124.316937.  16 valence electrons in orbitals:
    |300>  occupation: 2  eigenvalue: -4.008817
    |310>  occupation: 6  eigenvalue: -2.753096
    |320>  occupation: 5  eigenvalue: -0.791264
    |400>  occupation: 2  eigenvalue: -0.516384
    |410>  occupation: 0  eigenvalue: -0.312222
  lMax: 2  lLocal: 3  QijEcut: 6
  6 projectors sampled on a log grid with 607 points:
    l: 0  eig: -4.008819  rCut: 1.55
    l: 0  eig: -0.516386  rCut: 1.55
    l: 1  eig: -2.753096  rCut: 1.55
    l: 1  eig: -0.312226  rCut: 1.55
    l: 2  eig: -0.791264  rCut: 1.65
    l: 2  eig: -0.450000  rCut: 1.65
  Partial core density with radius 0.65
  Transforming core density to a uniform radial grid of dG=0.02 with 1618 points.
  Transforming local potential to a uniform radial grid of dG=0.02 with 1618 points.
  Transforming nonlocal projectors to a uniform radial grid of dG=0.02 with 432 points.
  Transforming density augmentations to a uniform radial grid of dG=0.02 with 1618 points.
  Transforming atomic orbitals to a uniform radial grid of dG=0.02 with 432 points.
  Core radius for overlap checks: 1.65 bohrs.

Initialized 3 species with 71 total atoms.

Folded 1 k-points by 1x1x1 to 1 k-points.

---------- Setting up k-points, bands, fillings ----------
No reducable k-points. 
Computing the number of bands and number of electrons
Calculating initial fillings.
nElectrons: 300.000000   nBands: 293   nStates: 1

----- Setting up reduced wavefunction bases (one per k-point) -----
average nbasis = 93173.000 , ideal nbasis = 93220.781

---------- Setting up coulomb interaction ----------
Fluid mode embedding: using embedded box, but periodic Coulomb kernel.
(Fluid response is responsible for (approximate) separation between periodic images.)
Setting up double-sized grid for truncated Coulomb potentials:
R = 
[      28.0058     -14.0029            0  ]
[            0      24.2537            0  ]
[            0            0      64.2506  ]
unit cell volume = 43641.9
G =
[   0.224353    0.12953         -0  ]
[          0   0.259061          0  ]
[          0         -0  0.0977919  ]
Chosen fftbox size, S = [  128  128  300  ]
Integer grid location selected as the embedding center:
   Grid: [  0  0  5  ]
   Lattice: [  0  0  0.0311281  ]
   Cartesian: [  0  0  1  ]
Constructing Wigner-Seitz cell: 8 faces (6 quadrilaterals, 2 hexagons)
Range-separation parameter for embedded mesh potentials due to point charges: 0.590105 bohrs.

---------- Setting up ewald sum ----------
Optimum gaussian width for ewald sums = 6.902423 bohr.
Real space sum over 567 unit cells with max indices [  4  4  3  ]
Reciprocal space sum over 9537 terms with max indices [  8  8  16  ]

---------- Allocating electronic variables ----------
Initializing wave functions:  linear combination of atomic orbitals
C pseudo-atom occupations:   s ( 2 )  p ( 2 )
N pseudo-atom occupations:   s ( 2 )  p ( 3 )
Fe pseudo-atom occupations:   s ( 2 0 )  p ( 6 0 )  d ( 8 )
	FillingsUpdate:  mu: -0.217938460  nElectrons: 300.000000
LCAOMinimize: Iter:   0  F: -520.4699370558233795  |grad|_K:  2.522e-02  alpha:  1.000e+00
	FillingsUpdate:  mu: -0.255616867  nElectrons: 300.000000
LCAOMinimize: Iter:   1  F: -524.9884394008325899  |grad|_K:  1.422e-02  alpha:  1.356e-01  linmin: -1.666e-01  cgtest:  9.904e-01  t[s]:    427.53
LCAOMinimize: Encountered beta<0, resetting CG.
LCAOMinimize: 	Wrong curvature in test step, increasing alphaT to 4.067631e-01.
	FillingsUpdate:  mu: -0.168493931  nElectrons: 300.000000
LCAOMinimize: Iter:   2  F: -529.2993210060179763  |grad|_K:  5.370e-02  alpha: -8.265e-02  linmin:  2.189e-01  cgtest: -2.003e-01  t[s]:    561.62
LCAOMinimize: 	Bad step direction: g.d > 0.
LCAOMinimize: 	Undoing step.
LCAOMinimize: 	Step failed: resetting search direction.
	FillingsUpdate:  mu: -0.168493931  nElectrons: 300.000000
LCAOMinimize: Iter:   3  F: -529.2993210060179763  |grad|_K:  5.370e-02  alpha:  0.000e+00
LCAOMinimize: 	Step increased F by 9.563246e+00, reducing alpha to 2.225471e-02.
	FillingsUpdate:  mu: -0.165307387  nElectrons: 300.000000
LCAOMinimize: Iter:   4  F: -533.2692286328849605  |grad|_K:  2.435e-02  alpha:  2.225e-02  linmin: -1.829e-01  cgtest:  1.498e+00  t[s]:    909.01
LCAOMinimize: Encountered beta<0, resetting CG.
LCAOMinimize: 	Wrong curvature in test step, increasing alphaT to 6.676414e-02.
	FillingsUpdate:  mu: -0.212095192  nElectrons: 300.000000
LCAOMinimize: Iter:   5  F: -534.7819546988305319  |grad|_K:  3.069e-02  alpha: -3.406e-02  linmin: -3.177e-01  cgtest:  5.939e-01  t[s]:   1043.25
LCAOMinimize: 	Step increased F by 1.454686e+01, reducing alpha to 1.543135e-02.
	FillingsUpdate:  mu: -0.262809586  nElectrons: 300.000000
LCAOMinimize: Iter:   6  F: -536.5110486249730002  |grad|_K:  1.480e-02  alpha:  1.543e-02  linmin:  3.306e-01  cgtest: -5.586e-01  t[s]:   1294.83
LCAOMinimize: 	Bad step direction: g.d > 0.
LCAOMinimize: 	Undoing step.
LCAOMinimize: 	Step failed: resetting search direction.
	FillingsUpdate:  mu: -0.262809586  nElectrons: 300.000000
LCAOMinimize: Iter:   7  F: -536.5110486249730002  |grad|_K:  1.480e-02  alpha:  0.000e+00
	FillingsUpdate:  mu: -0.222071775  nElectrons: 300.000000
LCAOMinimize: Iter:   8  F: -536.7163888485832786  |grad|_K:  4.064e-03  alpha:  2.162e-02  linmin: -1.310e-02  cgtest:  2.717e-02  t[s]:   1535.33
LCAOMinimize: 	Predicted alpha/alphaT>3.000000, increasing alphaT to 6.485034e-02.
LCAOMinimize: 	Predicted alpha/alphaT>3.000000, increasing alphaT to 1.945510e-01.
	FillingsUpdate:  mu: -0.241174704  nElectrons: 300.000000
LCAOMinimize: Iter:   9  F: -536.8646660118857881  |grad|_K:  1.106e-03  alpha:  2.074e-01  linmin:  6.908e-02  cgtest: -1.659e-01  t[s]:   1758.81
	FillingsUpdate:  mu: -0.263320560  nElectrons: 300.000000
LCAOMinimize: Iter:  10  F: -536.8671321159090439  |grad|_K:  1.222e-03  alpha:  5.200e-02  linmin: -5.922e-03  cgtest:  1.675e-01  t[s]:   1904.33
	FillingsUpdate:  mu: -0.237349402  nElectrons: 300.000000
LCAOMinimize: Iter:  11  F: -536.8754877911158019  |grad|_K:  7.613e-04  alpha:  1.243e-01  linmin: -5.101e-03  cgtest: -5.356e-01  t[s]:   2049.52
	FillingsUpdate:  mu: -0.251850989  nElectrons: 300.000000
LCAOMinimize: Iter:  12  F: -536.8763441867827169  |grad|_K:  3.062e-04  alpha:  3.136e-02  linmin: -1.257e-02  cgtest: -1.070e-02  t[s]:   2194.73
LCAOMinimize: 	Predicted alpha/alphaT>3.000000, increasing alphaT to 9.408687e-02.
LCAOMinimize: 	Predicted alpha/alphaT>3.000000, increasing alphaT to 2.822606e-01.
	FillingsUpdate:  mu: -0.244560885  nElectrons: 300.000000
LCAOMinimize: Iter:  13  F: -536.8776782917262835  |grad|_K:  3.397e-04  alpha:  3.182e-01  linmin: -3.557e-04  cgtest: -4.768e-03  t[s]:   2418.42
	FillingsUpdate:  mu: -0.251600029  nElectrons: 300.000000
LCAOMinimize: Iter:  14  F: -536.8778544099126293  |grad|_K:  2.386e-04  alpha:  3.485e-02  linmin: -1.287e-03  cgtest:  6.734e-03  t[s]:   2563.79
LCAOMinimize: 	Predicted alpha/alphaT>3.000000, increasing alphaT to 1.045523e-01.
	FillingsUpdate:  mu: -0.248506996  nElectrons: 300.000000
LCAOMinimize: Iter:  15  F: -536.8781893289675509  |grad|_K:  8.932e-05  alpha:  1.349e-01  linmin: -3.332e-04  cgtest: -4.804e-02  t[s]:   2748.09
	FillingsUpdate:  mu: -0.250687873  nElectrons: 300.000000
LCAOMinimize: Iter:  16  F: -536.8782078759024898  |grad|_K:  9.745e-05  alpha:  5.346e-02  linmin: -4.443e-04  cgtest:  3.053e-03  t[s]:   2893.51
	FillingsUpdate:  mu: -0.249251804  nElectrons: 300.000000
LCAOMinimize: Iter:  17  F: -536.8782470631057322  |grad|_K:  3.891e-05  alpha:  9.494e-02  linmin: -2.341e-03  cgtest:  3.564e-02  t[s]:   3038.91
	FillingsUpdate:  mu: -0.250344653  nElectrons: 300.000000
LCAOMinimize: Iter:  18  F: -536.8782558223397245  |grad|_K:  5.887e-05  alpha:  1.334e-01  linmin:  2.788e-04  cgtest: -2.414e-03  t[s]:   3184.45
	FillingsUpdate:  mu: -0.249359310  nElectrons: 300.000000
LCAOMinimize: Iter:  19  F: -536.8782614019953598  |grad|_K:  1.787e-05  alpha:  3.748e-02  linmin:  1.145e-03  cgtest:  1.395e-02  t[s]:   3330.07
LCAOMinimize: 	Predicted alpha/alphaT>3.000000, increasing alphaT to 1.124300e-01.
	FillingsUpdate:  mu: -0.249831148  nElectrons: 300.000000
LCAOMinimize: Iter:  20  F: -536.8782656861615123  |grad|_K:  2.623e-05  alpha:  3.113e-01  linmin:  1.292e-04  cgtest:  1.044e-03  t[s]:   3514.36
	FillingsUpdate:  mu: -0.249347338  nElectrons: 300.000000
LCAOMinimize: Iter:  21  F: -536.8782665979655349  |grad|_K:  1.403e-05  alpha:  3.079e-02  linmin:  7.700e-04  cgtest: -4.873e-03  t[s]:   3659.70
LCAOMinimize: 	Predicted alpha/alphaT>3.000000, increasing alphaT to 9.237990e-02.
	FillingsUpdate:  mu: -0.249554479  nElectrons: 300.000000
LCAOMinimize: Iter:  22  F: -536.8782682354932376  |grad|_K:  6.676e-06  alpha:  1.929e-01  linmin: -2.590e-04  cgtest:  1.521e-02  t[s]:   3844.19
	FillingsUpdate:  mu: -0.249398031  nElectrons: 300.000000
LCAOMinimize: Iter:  23  F: -536.8782683273128669  |grad|_K:  6.754e-06  alpha:  4.754e-02  linmin: -4.238e-06  cgtest: -1.049e-03  t[s]:   3989.75
	FillingsUpdate:  mu: -0.249492336  nElectrons: 300.000000
LCAOMinimize: Iter:  24  F: -536.8782685247820154  |grad|_K:  1.988e-06  alpha:  9.925e-02  linmin: -4.508e-03  cgtest:  3.155e-02  t[s]:   4135.59
LCAOMinimize: Converged (|Delta F|<1.000000e-06 for 2 iters).
----- createFluidSolver() ----- (Fluid-side solver setup)
   Initializing fluid molecule 'Glyme'
     Net charge: 0   dipole magnitude: 0
     Initializing spherical shell mfKernel with radius 0 Bohr
     deltaS corrections:

Correction to mu due to finite nuclear width = -0.00682051
   Cavity determined by nc: 8.36e-05 and sigma: 0.6
   Effective cavity tension: -8.03e-06 Eh/bohr^2 to account for cavitation and dispersion.


---- Citations for features of the code used in this run ----

   Software package:
      R. Sundararaman, K. Letchworth-Weaver, K.A. Schwarz, D. Gunceler, Y. Ozhabes and T.A. Arias, 'JDFTx: software for joint density-functional theory', SoftwareX 6, 278 (2017)

   gga-PBE exchange-correlation functional:
      J.P. Perdew, K. Burke and M. Ernzerhof, Phys. Rev. Lett. 77, 3865 (1996)

   Pseudopotentials:
      KF Garrity, JW Bennett, KM Rabe and D Vanderbilt, Comput. Mater. Sci. 81, 446 (2014)

   Truncated Coulomb potentials:
      R. Sundararaman and T.A. Arias, Phys. Rev. B 87, 165122 (2013)

   Linear/nonlinear dielectric/ionic fluid model with effective cavity tension:
      D. Gunceler, K. Letchworth-Weaver, R. Sundararaman, K.A. Schwarz and T.A. Arias, Modelling Simul. Mater. Sci. Eng. 21, 074005 (2013)

This list may not be complete. Please suggest additional citations or
report any other bugs at https://github.com/shankar1729/jdftx/issues

Initialization completed successfully at t[s]:   4210.80

Fluid solver invoked on fresh (random / LCAO) wavefunctions
Running a vacuum solve first:

-------- Initial electronic minimization -----------
Will mix electronic density at each iteration.
	FillingsUpdate:  mu: -0.249492336  nElectrons: 300.000000
	FillingsUpdate:  mu: -0.262414555  nElectrons: 300.000000
SCF: Cycle:  0   F: -540.467139447029581   dF: -3.589e+00   |Residual|: 9.643e-01   |deigs|: 1.131e-01  t[s]:   4836.23
	FillingsUpdate:  mu: -0.242374915  nElectrons: 300.000000
SCF: Cycle:  1   F: -539.044168995735959   dF: +1.423e+00   |Residual|: 8.741e-01   |deigs|: 3.607e-02  t[s]:   5387.18
	FillingsUpdate:  mu: -0.175523130  nElectrons: 300.000000
SCF: Cycle:  2   F: -529.961643845943513   dF: +9.083e+00   |Residual|: 1.931e+00   |deigs|: 3.878e-02  t[s]:   5939.02
	FillingsUpdate:  mu: -0.199761026  nElectrons: 300.000000
SCF: Cycle:  3   F: -540.358769806325654   dF: -1.040e+01   |Residual|: 4.306e-01   |deigs|: 3.681e-02  t[s]:   6490.38
	FillingsUpdate:  mu: -0.185382375  nElectrons: 300.000000
SCF: Cycle:  4   F: -541.160694475801051   dF: -8.019e-01   |Residual|: 1.838e-01   |deigs|: 8.723e-03  t[s]:   7043.54
	FillingsUpdate:  mu: -0.187550493  nElectrons: 300.000000
SCF: Cycle:  5   F: -540.971760598875107   dF: +1.889e-01   |Residual|: 2.156e-01   |deigs|: 3.248e-03  t[s]:   7595.19
	FillingsUpdate:  mu: -0.170061369  nElectrons: 300.000000
SCF: Cycle:  6   F: -541.154223608948428   dF: -1.825e-01   |Residual|: 1.349e-01   |deigs|: 1.078e-02  t[s]:   8148.54
	FillingsUpdate:  mu: -0.169148939  nElectrons: 300.000000
SCF: Cycle:  7   F: -540.995093889703867   dF: +1.591e-01   |Residual|: 2.595e-01   |deigs|: 6.060e-03  t[s]:   8701.04
	FillingsUpdate:  mu: -0.160097761  nElectrons: 300.000000
SCF: Cycle:  8   F: -541.162600041996598   dF: -1.675e-01   |Residual|: 7.536e-02   |deigs|: 4.373e-03  t[s]:   9253.19
	FillingsUpdate:  mu: -0.151774515  nElectrons: 300.000000
SCF: Cycle:  9   F: -541.181680963409349   dF: -1.908e-02   |Residual|: 5.022e-02   |deigs|: 8.382e-03  t[s]:   9806.13
	FillingsUpdate:  mu: -0.148013028  nElectrons: 300.000000
SCF: Cycle: 10   F: -541.183241087930583   dF: -1.560e-03   |Residual|: 3.212e-02   |deigs|: 4.277e-03  t[s]:  10316.22
	FillingsUpdate:  mu: -0.144033784  nElectrons: 300.000000
SCF: Cycle: 11   F: -541.174684544500565   dF: +8.557e-03   |Residual|: 5.764e-02   |deigs|: 4.979e-03  t[s]:  10868.28
	FillingsUpdate:  mu: -0.139995131  nElectrons: 300.000000
SCF: Cycle: 12   F: -541.177892921738817   dF: -3.208e-03   |Residual|: 4.711e-02   |deigs|: 3.746e-03  t[s]:  11335.15
	FillingsUpdate:  mu: -0.134919422  nElectrons: 300.000000
SCF: Cycle: 13   F: -541.184274272699554   dF: -6.381e-03   |Residual|: 1.068e-02   |deigs|: 4.239e-03  t[s]:  11813.46
	FillingsUpdate:  mu: -0.130465933  nElectrons: 300.000000
SCF: Cycle: 14   F: -541.184479435881372   dF: -2.052e-04   |Residual|: 8.441e-03   |deigs|: 4.116e-03  t[s]:  12280.85
	FillingsUpdate:  mu: -0.125168282  nElectrons: 300.000000
SCF: Cycle: 15   F: -541.184542003111233   dF: -6.257e-05   |Residual|: 6.105e-03   |deigs|: 4.924e-03  t[s]:  12748.13
	FillingsUpdate:  mu: -0.121491732  nElectrons: 300.000000
SCF: Cycle: 16   F: -541.184401362857216   dF: +1.406e-04   |Residual|: 9.276e-03   |deigs|: 3.785e-03  t[s]:  13216.15
	FillingsUpdate:  mu: -0.118869186  nElectrons: 300.000000
SCF: Cycle: 17   F: -541.184601415582392   dF: -2.001e-04   |Residual|: 2.998e-03   |deigs|: 2.562e-03  t[s]:  13682.30
	FillingsUpdate:  mu: -0.116597508  nElectrons: 300.000000
SCF: Cycle: 18   F: -541.184563993838765   dF: +3.742e-05   |Residual|: 3.770e-03   |deigs|: 2.734e-03  t[s]:  14149.22
	FillingsUpdate:  mu: -0.116220397  nElectrons: 300.000000
SCF: Cycle: 19   F: -541.184606268187849   dF: -4.227e-05   |Residual|: 6.615e-04   |deigs|: 1.201e-03  t[s]:  14617.26
	FillingsUpdate:  mu: -0.116026244  nElectrons: 300.000000
SCF: Cycle: 20   F: -541.184606461685121   dF: -1.935e-07   |Residual|: 4.086e-04   |deigs|: 1.600e-03  t[s]:  15084.45
	FillingsUpdate:  mu: -0.116049006  nElectrons: 300.000000
SCF: Cycle: 21   F: -541.184606185807070   dF: +2.759e-07   |Residual|: 4.566e-04   |deigs|: 4.142e-04  t[s]:  15551.41
	FillingsUpdate:  mu: -0.116064999  nElectrons: 300.000000
SCF: Cycle: 22   F: -541.184606604899386   dF: -4.191e-07   |Residual|: 3.948e-04   |deigs|: 3.328e-04  t[s]:  16018.97
	FillingsUpdate:  mu: -0.116038213  nElectrons: 300.000000
SCF: Cycle: 23   F: -541.184607002370285   dF: -3.975e-07   |Residual|: 2.257e-04   |deigs|: 5.112e-04  t[s]:  16485.63
	FillingsUpdate:  mu: -0.115977152  nElectrons: 300.000000
SCF: Cycle: 24   F: -541.184607182693640   dF: -1.803e-07   |Residual|: 1.402e-04   |deigs|: 9.185e-04  t[s]:  16953.65
	FillingsUpdate:  mu: -0.115962103  nElectrons: 300.000000
SCF: Cycle: 25   F: -541.184607257174548   dF: -7.448e-08   |Residual|: 7.798e-05   |deigs|: 4.408e-04  t[s]:  17419.97
	FillingsUpdate:  mu: -0.115936645  nElectrons: 300.000000
SCF: Cycle: 26   F: -541.184607264212332   dF: -7.038e-09   |Residual|: 9.080e-05   |deigs|: 1.866e-04  t[s]:  17887.70
	FillingsUpdate:  mu: -0.115925412  nElectrons: 300.000000
SCF: Cycle: 27   F: -541.184607299471395   dF: -3.526e-08   |Residual|: 2.606e-05   |deigs|: 1.401e-04  t[s]:  18354.70
	FillingsUpdate:  mu: -0.115918575  nElectrons: 300.000000
SCF: Cycle: 28   F: -541.184607305088889   dF: -5.617e-09   |Residual|: 1.563e-05   |deigs|: 1.400e-04  t[s]:  18821.46
	FillingsUpdate:  mu: -0.115913049  nElectrons: 300.000000
SCF: Cycle: 29   F: -541.184607306155158   dF: -1.066e-09   |Residual|: 9.814e-06   |deigs|: 1.052e-04  t[s]:  19289.33
SCF: Converged (|Delta E|<1.000000e-08 for 2 iters).

Setting wave functions to eigenvectors of Hamiltonian
Vacuum energy after initial minimize, F = -541.184607306155158


-------- Electronic minimization -----------
Will mix electronic density at each iteration.
	FillingsUpdate:  mu: -0.115913049  nElectrons: 300.000000
	Linear fluid (dielectric constant: 7.2) occupying 0.845135 of unit cell:	Completed after 11 iterations at t[s]:  19351.96
	FillingsUpdate:  mu: -0.122679223  nElectrons: 300.000000
	Linear fluid (dielectric constant: 7.2) occupying 0.844449 of unit cell:	Completed after 7 iterations at t[s]:  19905.33
SCF: Cycle:  0   F: -541.197628142669373   dF: +2.128e-03   |Residual|: 1.984e-02   |deigs|: 4.212e-03  t[s]:  19907.01
	Linear fluid (dielectric constant: 7.2) occupying 0.844969 of unit cell:	Completed after 7 iterations at t[s]:  19912.93
	FillingsUpdate:  mu: -0.118110637  nElectrons: 300.000000
	Linear fluid (dielectric constant: 7.2) occupying 0.844686 of unit cell:	Completed after 10 iterations at t[s]:  20471.55
SCF: Cycle:  1   F: -541.052395817140223   dF: +1.452e-01   |Residual|: 2.144e-01   |deigs|: 3.965e-03  t[s]:  20473.18
	Linear fluid (dielectric constant: 7.2) occupying 0.845003 of unit cell:	Completed after 10 iterations at t[s]:  20480.66
	FillingsUpdate:  mu: -0.122274446  nElectrons: 300.000000
	Linear fluid (dielectric constant: 7.2) occupying 0.844829 of unit cell:	Completed after 5 iterations at t[s]:  21037.41
SCF: Cycle:  2   F: -541.199943818765291   dF: -1.475e-01   |Residual|: 2.926e-03   |deigs|: 1.765e-03  t[s]:  21039.12
	Linear fluid (dielectric constant: 7.2) occupying 0.844973 of unit cell:	Completed after 5 iterations at t[s]:  21043.80
	FillingsUpdate:  mu: -0.122236459  nElectrons: 300.000000
	Linear fluid (dielectric constant: 7.2) occupying 0.844805 of unit cell:	Completed after 4 iterations at t[s]:  21514.59
SCF: Cycle:  3   F: -541.199969078133563   dF: -2.526e-05   |Residual|: 9.360e-04   |deigs|: 1.240e-03  t[s]:  21516.29
	Linear fluid (dielectric constant: 7.2) occupying 0.844922 of unit cell:	Completed after 4 iterations at t[s]:  21520.33
	FillingsUpdate:  mu: -0.122267410  nElectrons: 300.000000
	Linear fluid (dielectric constant: 7.2) occupying 0.844788 of unit cell:	Completed after 4 iterations at t[s]:  21994.47
SCF: Cycle:  4   F: -541.199880862300574   dF: +8.822e-05   |Residual|: 1.426e-03   |deigs|: 1.561e-03  t[s]:  21996.15
	Linear fluid (dielectric constant: 7.2) occupying 0.844894 of unit cell:	Completed after 4 iterations at t[s]:  22000.53
	FillingsUpdate:  mu: -0.122270552  nElectrons: 300.000000
	Linear fluid (dielectric constant: 7.2) occupying 0.844793 of unit cell:	Completed after 4 iterations at t[s]:  22477.64
SCF: Cycle:  5   F: -541.199880516616645   dF: +3.457e-07   |Residual|: 1.520e-03   |deigs|: 5.122e-05  t[s]:  22479.24
	Linear fluid (dielectric constant: 7.2) occupying 0.844838 of unit cell:	Completed after 4 iterations at t[s]:  22483.82
	FillingsUpdate:  mu: -0.122264587  nElectrons: 300.000000
	Linear fluid (dielectric constant: 7.2) occupying 0.844796 of unit cell:	Completed after 3 iterations at t[s]:  22963.97
SCF: Cycle:  6   F: -541.199937589371302   dF: -5.707e-05   |Residual|: 7.931e-04   |deigs|: 4.190e-04  t[s]:  22965.47
	Linear fluid (dielectric constant: 7.2) occupying 0.844801 of unit cell:	Completed after 3 iterations at t[s]:  22969.42
	FillingsUpdate:  mu: -0.122258391  nElectrons: 300.000000
	Linear fluid (dielectric constant: 7.2) occupying 0.844804 of unit cell:	Completed after 2 iterations at t[s]:  23444.39
SCF: Cycle:  7   F: -541.199906396303504   dF: +3.119e-05   |Residual|: 2.704e-04   |deigs|: 3.828e-04  t[s]:  23446.06
	Linear fluid (dielectric constant: 7.2) occupying 0.844790 of unit cell:	Completed after 2 iterations at t[s]:  23449.51
	FillingsUpdate:  mu: -0.122264566  nElectrons: 300.000000
	Linear fluid (dielectric constant: 7.2) occupying 0.844791 of unit cell:	Completed after 2 iterations at t[s]:  23924.40
SCF: Cycle:  8   F: -541.199930976423616   dF: -2.458e-05   |Residual|: 2.691e-04   |deigs|: 1.945e-04  t[s]:  23926.12
	Linear fluid (dielectric constant: 7.2) occupying 0.844776 of unit cell:	Completed after 2 iterations at t[s]:  23929.52
	FillingsUpdate:  mu: -0.122268509  nElectrons: 300.000000
	Linear fluid (dielectric constant: 7.2) occupying 0.844794 of unit cell:	Completed after 2 iterations at t[s]:  24408.75
SCF: Cycle:  9   F: -541.199937860761679   dF: -6.884e-06   |Residual|: 2.092e-04   |deigs|: 1.735e-04  t[s]:  24410.53
	Linear fluid (dielectric constant: 7.2) occupying 0.844767 of unit cell:	Completed after 1 iterations at t[s]:  24413.15
	FillingsUpdate:  mu: -0.122282169  nElectrons: 300.000000
	Linear fluid (dielectric constant: 7.2) occupying 0.844785 of unit cell:	Completed after 2 iterations at t[s]:  24887.99
SCF: Cycle: 10   F: -541.199929475233489   dF: +8.386e-06   |Residual|: 3.080e-04   |deigs|: 2.143e-04  t[s]:  24889.39
	Linear fluid (dielectric constant: 7.2) occupying 0.844758 of unit cell:	Completed after 2 iterations at t[s]:  24893.17
	FillingsUpdate:  mu: -0.122281874  nElectrons: 300.000000
	Linear fluid (dielectric constant: 7.2) occupying 0.844792 of unit cell:	Completed after 1 iterations at t[s]:  25365.80
SCF: Cycle: 11   F: -541.199927125513227   dF: +2.350e-06   |Residual|: 1.522e-04   |deigs|: 7.671e-05  t[s]:  25367.48
	Linear fluid (dielectric constant: 7.2) occupying 0.844762 of unit cell:	Completed after 1 iterations at t[s]:  25370.37
	FillingsUpdate:  mu: -0.122283483  nElectrons: 300.000000
	Linear fluid (dielectric constant: 7.2) occupying 0.844782 of unit cell:	Completed after 2 iterations at t[s]:  25844.67
SCF: Cycle: 12   F: -541.199930952922500   dF: -3.827e-06   |Residual|: 1.903e-04   |deigs|: 6.619e-05  t[s]:  25846.41
	Linear fluid (dielectric constant: 7.2) occupying 0.844759 of unit cell:	Completed after 2 iterations at t[s]:  25849.85
	FillingsUpdate:  mu: -0.122287505  nElectrons: 300.000000
	Linear fluid (dielectric constant: 7.2) occupying 0.844787 of unit cell:	Completed after 1 iterations at t[s]:  26322.21
SCF: Cycle: 13   F: -541.199934939851914   dF: -3.987e-06   |Residual|: 1.195e-04   |deigs|: 6.335e-05  t[s]:  26323.99
	Linear fluid (dielectric constant: 7.2) occupying 0.844760 of unit cell:	Completed after 1 iterations at t[s]:  26326.89
	FillingsUpdate:  mu: -0.122292771  nElectrons: 300.000000
	Linear fluid (dielectric constant: 7.2) occupying 0.844782 of unit cell:	Completed after 1 iterations at t[s]:  26794.05
SCF: Cycle: 14   F: -541.199936074139487   dF: -1.134e-06   |Residual|: 1.210e-04   |deigs|: 5.445e-05  t[s]:  26795.68
	Linear fluid (dielectric constant: 7.2) occupying 0.844760 of unit cell:	Completed after 1 iterations at t[s]:  26798.44
	FillingsUpdate:  mu: -0.122287949  nElectrons: 300.000000
	Linear fluid (dielectric constant: 7.2) occupying 0.844780 of unit cell:	Completed after 2 iterations at t[s]:  27272.15
SCF: Cycle: 15   F: -541.199937620660762   dF: -1.547e-06   |Residual|: 2.594e-04   |deigs|: 6.251e-05  t[s]:  27273.71
	Linear fluid (dielectric constant: 7.2) occupying 0.844763 of unit cell:	Completed after 2 iterations at t[s]:  27277.02
	FillingsUpdate:  mu: -0.122295486  nElectrons: 300.000000
	Linear fluid (dielectric constant: 7.2) occupying 0.844781 of unit cell:	Completed after 1 iterations at t[s]:  27745.60
SCF: Cycle: 16   F: -541.199937370275165   dF: +2.504e-07   |Residual|: 5.565e-05   |deigs|: 5.272e-05  t[s]:  27747.32
	Linear fluid (dielectric constant: 7.2) occupying 0.844764 of unit cell:	Completed after 1 iterations at t[s]:  27750.27
	FillingsUpdate:  mu: -0.122295802  nElectrons: 300.000000
	Linear fluid (dielectric constant: 7.2) occupying 0.844780 of unit cell:	Completed after 1 iterations at t[s]:  28223.96
SCF: Cycle: 17   F: -541.199938292355114   dF: -9.221e-07   |Residual|: 4.905e-05   |deigs|: 5.614e-05  t[s]:  28225.62
	Linear fluid (dielectric constant: 7.2) occupying 0.844767 of unit cell:	Completed after 1 iterations at t[s]:  28228.58
	FillingsUpdate:  mu: -0.122300611  nElectrons: 300.000000
	Linear fluid (dielectric constant: 7.2) occupying 0.844779 of unit cell:	Completed after 1 iterations at t[s]:  28698.08
SCF: Cycle: 18   F: -541.199937055692658   dF: +1.237e-06   |Residual|: 1.771e-04   |deigs|: 5.666e-05  t[s]:  28699.49
	Linear fluid (dielectric constant: 7.2) occupying 0.844767 of unit cell:	Completed after 1 iterations at t[s]:  28702.45
	FillingsUpdate:  mu: -0.122299481  nElectrons: 300.000000
	Linear fluid (dielectric constant: 7.2) occupying 0.844780 of unit cell:	Completed after 1 iterations at t[s]:  29002.69
SCF: Cycle: 19   F: -541.199937204039429   dF: -1.483e-07   |Residual|: 5.630e-05   |deigs|: 9.176e-06  t[s]:  29004.37
	Linear fluid (dielectric constant: 7.2) occupying 0.844771 of unit cell:	Completed after 1 iterations at t[s]:  29007.20
	FillingsUpdate:  mu: -0.122302936  nElectrons: 300.000000
	Linear fluid (dielectric constant: 7.2) occupying 0.844781 of unit cell:	Completed after 1 iterations at t[s]:  29480.46
SCF: Cycle: 20   F: -541.199936423873282   dF: +7.802e-07   |Residual|: 2.008e-04   |deigs|: 6.733e-05  t[s]:  29481.99
	Linear fluid (dielectric constant: 7.2) occupying 0.844774 of unit cell:	Completed after 1 iterations at t[s]:  29484.82
	FillingsUpdate:  mu: -0.122306977  nElectrons: 300.000000
	Linear fluid (dielectric constant: 7.2) occupying 0.844782 of unit cell:	Completed after 1 iterations at t[s]:  29923.94
SCF: Cycle: 21   F: -541.199936397177794   dF: +2.670e-08   |Residual|: 2.413e-04   |deigs|: 5.998e-05  t[s]:  29925.62
	Linear fluid (dielectric constant: 7.2) occupying 0.844778 of unit cell:	Completed after 1 iterations at t[s]:  29928.39
	FillingsUpdate:  mu: -0.122305717  nElectrons: 300.000000
	Linear fluid (dielectric constant: 7.2) occupying 0.844783 of unit cell:	Completed after 1 iterations at t[s]:  30398.69
SCF: Cycle: 22   F: -541.199936338165685   dF: +5.901e-08   |Residual|: 1.792e-04   |deigs|: 7.423e-05  t[s]:  30400.30
	Linear fluid (dielectric constant: 7.2) occupying 0.844778 of unit cell:	Completed after 1 iterations at t[s]:  30403.06
	FillingsUpdate:  mu: -0.122305266  nElectrons: 300.000000
	Linear fluid (dielectric constant: 7.2) occupying 0.844783 of unit cell:	Completed after 0 iterations at t[s]:  30867.90
SCF: Cycle: 23   F: -541.199936152407986   dF: +1.858e-07   |Residual|: 6.793e-05   |deigs|: 8.381e-06  t[s]:  30869.58
	Linear fluid (dielectric constant: 7.2) occupying 0.844779 of unit cell:	Completed after 1 iterations at t[s]:  30872.35
	FillingsUpdate:  mu: -0.122301640  nElectrons: 300.000000
	Linear fluid (dielectric constant: 7.2) occupying 0.844783 of unit cell:	Completed after 1 iterations at t[s]:  31333.51
SCF: Cycle: 24   F: -541.199936210206829   dF: -5.780e-08   |Residual|: 1.104e-04   |deigs|: 2.129e-05  t[s]:  31335.18
	Linear fluid (dielectric constant: 7.2) occupying 0.844781 of unit cell:	Completed after 1 iterations at t[s]:  31338.10
	FillingsUpdate:  mu: -0.122302734  nElectrons: 300.000000
	Linear fluid (dielectric constant: 7.2) occupying 0.844783 of unit cell:	Completed after 0 iterations at t[s]:  31784.52
SCF: Cycle: 25   F: -541.199935988679840   dF: +2.215e-07   |Residual|: 7.614e-05   |deigs|: 2.520e-05  t[s]:  31786.40
	Linear fluid (dielectric constant: 7.2) occupying 0.844782 of unit cell:	Completed after 1 iterations at t[s]:  31789.47
	FillingsUpdate:  mu: -0.122304652  nElectrons: 300.000000
	Linear fluid (dielectric constant: 7.2) occupying 0.844783 of unit cell:	Completed after 0 iterations at t[s]:  32097.14
SCF: Cycle: 26   F: -541.199936124452279   dF: -1.358e-07   |Residual|: 7.631e-06   |deigs|: 1.116e-05  t[s]:  32098.89
	Linear fluid (dielectric constant: 7.2) occupying 0.844783 of unit cell:	Completed after 0 iterations at t[s]:  32100.81
	FillingsUpdate:  mu: -0.122304685  nElectrons: 300.000000
	Linear fluid (dielectric constant: 7.2) occupying 0.844783 of unit cell:	Completed after 0 iterations at t[s]:  32529.71
SCF: Cycle: 27   F: -541.199936012566354   dF: +1.119e-07   |Residual|: 6.825e-06   |deigs|: 3.636e-05  t[s]:  32531.37
	Linear fluid (dielectric constant: 7.2) occupying 0.844784 of unit cell:	Completed after 0 iterations at t[s]:  32533.26
	FillingsUpdate:  mu: -0.122304631  nElectrons: 300.000000
	Linear fluid (dielectric constant: 7.2) occupying 0.844783 of unit cell:	Completed after 0 iterations at t[s]:  32959.16
SCF: Cycle: 28   F: -541.199936223183386   dF: -2.106e-07   |Residual|: 9.844e-06   |deigs|: 3.039e-05  t[s]:  32960.82
	Linear fluid (dielectric constant: 7.2) occupying 0.844783 of unit cell:	Completed after 0 iterations at t[s]:  32962.45
	FillingsUpdate:  mu: -0.122304585  nElectrons: 300.000000
	Linear fluid (dielectric constant: 7.2) occupying 0.844783 of unit cell:	Completed after 0 iterations at t[s]:  33388.48
SCF: Cycle: 29   F: -541.199936225306487   dF: -2.123e-09   |Residual|: 1.170e-05   |deigs|: 1.224e-05  t[s]:  33390.18
	Linear fluid (dielectric constant: 7.2) occupying 0.844783 of unit cell:	Completed after 0 iterations at t[s]:  33391.94
	FillingsUpdate:  mu: -0.122304562  nElectrons: 300.000000
	Linear fluid (dielectric constant: 7.2) occupying 0.844783 of unit cell:	Completed after 0 iterations at t[s]:  33789.05
SCF: Cycle: 30   F: -541.199936272108403   dF: -4.680e-08   |Residual|: 1.201e-05   |deigs|: 4.118e-06  t[s]:  33790.74
	Linear fluid (dielectric constant: 7.2) occupying 0.844783 of unit cell:	Completed after 0 iterations at t[s]:  33792.44
	FillingsUpdate:  mu: -0.122304581  nElectrons: 300.000000
	Linear fluid (dielectric constant: 7.2) occupying 0.844783 of unit cell:	Completed after 0 iterations at t[s]:  34206.77
SCF: Cycle: 31   F: -541.199936218899438   dF: +5.321e-08   |Residual|: 1.069e-05   |deigs|: 5.987e-06  t[s]:  34208.29
	Linear fluid (dielectric constant: 7.2) occupying 0.844784 of unit cell:	Completed after 0 iterations at t[s]:  34210.16
	FillingsUpdate:  mu: -0.122304579  nElectrons: 300.000000
	Linear fluid (dielectric constant: 7.2) occupying 0.844783 of unit cell:	Completed after 0 iterations at t[s]:  34624.20
SCF: Cycle: 32   F: -541.199936175786206   dF: +4.311e-08   |Residual|: 9.267e-06   |deigs|: 1.755e-05  t[s]:  34625.93
	Linear fluid (dielectric constant: 7.2) occupying 0.844784 of unit cell:	Completed after 0 iterations at t[s]:  34627.65
	FillingsUpdate:  mu: -0.122304550  nElectrons: 300.000000
	Linear fluid (dielectric constant: 7.2) occupying 0.844783 of unit cell:	Completed after 0 iterations at t[s]:  34910.34
SCF: Cycle: 33   F: -541.199936176744359   dF: -9.582e-10   |Residual|: 7.801e-06   |deigs|: 1.021e-05  t[s]:  34912.07
	Linear fluid (dielectric constant: 7.2) occupying 0.844783 of unit cell:	Completed after 0 iterations at t[s]:  34913.75
	FillingsUpdate:  mu: -0.122304461  nElectrons: 300.000000
	Linear fluid (dielectric constant: 7.2) occupying 0.844783 of unit cell:	Completed after 0 iterations at t[s]:  35341.31
SCF: Cycle: 34   F: -541.199936300653917   dF: -1.239e-07   |Residual|: 7.495e-06   |deigs|: 8.152e-06  t[s]:  35342.77
	Linear fluid (dielectric constant: 7.2) occupying 0.844783 of unit cell:	Completed after 0 iterations at t[s]:  35344.45
	FillingsUpdate:  mu: -0.122306434  nElectrons: 300.000000
	Linear fluid (dielectric constant: 7.2) occupying 0.844783 of unit cell:	Completed after 1 iterations at t[s]:  35815.27
SCF: Cycle: 35   F: -541.199936292434245   dF: +8.220e-09   |Residual|: 5.865e-05   |deigs|: 2.411e-05  t[s]:  35817.04
	Linear fluid (dielectric constant: 7.2) occupying 0.844783 of unit cell:	Completed after 1 iterations at t[s]:  35819.90
	FillingsUpdate:  mu: -0.122300926  nElectrons: 300.000000
	Linear fluid (dielectric constant: 7.2) occupying 0.844783 of unit cell:	Completed after 1 iterations at t[s]:  36286.12
SCF: Cycle: 36   F: -541.199935946876849   dF: +3.456e-07   |Residual|: 2.695e-04   |deigs|: 1.791e-05  t[s]:  36287.56
	Linear fluid (dielectric constant: 7.2) occupying 0.844783 of unit cell:	Completed after 1 iterations at t[s]:  36290.41
	FillingsUpdate:  mu: -0.122301261  nElectrons: 300.000000
	Linear fluid (dielectric constant: 7.2) occupying 0.844783 of unit cell:	Completed after 1 iterations at t[s]:  36590.30
SCF: Cycle: 37   F: -541.199936066919122   dF: -1.200e-07   |Residual|: 2.621e-04   |deigs|: 3.336e-06  t[s]:  36591.86
	Linear fluid (dielectric constant: 7.2) occupying 0.844783 of unit cell:	Completed after 1 iterations at t[s]:  36594.74
	FillingsUpdate:  mu: -0.122300264  nElectrons: 300.000000
	Linear fluid (dielectric constant: 7.2) occupying 0.844783 of unit cell:	Completed after 1 iterations at t[s]:  36870.62
SCF: Cycle: 38   F: -541.199936016765491   dF: +5.015e-08   |Residual|: 2.749e-04   |deigs|: 3.251e-06  t[s]:  36872.28
	Linear fluid (dielectric constant: 7.2) occupying 0.844783 of unit cell:	Completed after 1 iterations at t[s]:  36875.13
	FillingsUpdate:  mu: -0.122300196  nElectrons: 300.000000
	Linear fluid (dielectric constant: 7.2) occupying 0.844783 of unit cell:	Completed after 1 iterations at t[s]:  37301.85
SCF: Cycle: 39   F: -541.199936090048936   dF: -7.328e-08   |Residual|: 2.595e-04   |deigs|: 8.500e-06  t[s]:  37303.42
	Linear fluid (dielectric constant: 7.2) occupying 0.844783 of unit cell:	Completed after 1 iterations at t[s]:  37306.28
	FillingsUpdate:  mu: -0.122300589  nElectrons: 300.000000
	Linear fluid (dielectric constant: 7.2) occupying 0.844783 of unit cell:	Completed after 1 iterations at t[s]:  37563.54
SCF: Cycle: 40   F: -541.199936099654678   dF: -9.606e-09   |Residual|: 2.488e-04   |deigs|: 3.882e-06  t[s]:  37565.15
	Linear fluid (dielectric constant: 7.2) occupying 0.844783 of unit cell:	Completed after 1 iterations at t[s]:  37567.89
	FillingsUpdate:  mu: -0.122300578  nElectrons: 300.000000
	Linear fluid (dielectric constant: 7.2) occupying 0.844783 of unit cell:	Completed after 1 iterations at t[s]:  37996.81
SCF: Cycle: 41   F: -541.199936054085128   dF: +4.557e-08   |Residual|: 2.593e-04   |deigs|: 3.547e-06  t[s]:  37998.51
	Linear fluid (dielectric constant: 7.2) occupying 0.844783 of unit cell:	Completed after 1 iterations at t[s]:  38001.44
	FillingsUpdate:  mu: -0.122300902  nElectrons: 300.000000
	Linear fluid (dielectric constant: 7.2) occupying 0.844783 of unit cell:	Completed after 1 iterations at t[s]:  38263.75
SCF: Cycle: 42   F: -541.199936061005360   dF: -6.920e-09   |Residual|: 2.478e-04   |deigs|: 3.115e-06  t[s]:  38265.32
	Linear fluid (dielectric constant: 7.2) occupying 0.844783 of unit cell:	Completed after 1 iterations at t[s]:  38268.32
	FillingsUpdate:  mu: -0.122300830  nElectrons: 300.000000
	Linear fluid (dielectric constant: 7.2) occupying 0.844783 of unit cell:	Completed after 1 iterations at t[s]:  38662.04
SCF: Cycle: 43   F: -541.199936032313303   dF: +2.869e-08   |Residual|: 2.622e-04   |deigs|: 1.623e-06  t[s]:  38663.70
	Linear fluid (dielectric constant: 7.2) occupying 0.844783 of unit cell:	Completed after 1 iterations at t[s]:  38666.55
	FillingsUpdate:  mu: -0.122300799  nElectrons: 300.000000
	Linear fluid (dielectric constant: 7.2) occupying 0.844783 of unit cell:	Completed after 1 iterations at t[s]:  38917.52
SCF: Cycle: 44   F: -541.199936028079037   dF: +4.234e-09   |Residual|: 2.673e-04   |deigs|: 9.597e-07  t[s]:  38919.19
	Linear fluid (dielectric constant: 7.2) occupying 0.844784 of unit cell:	Completed after 1 iterations at t[s]:  38922.16
	FillingsUpdate:  mu: -0.122300630  nElectrons: 300.000000
	Linear fluid (dielectric constant: 7.2) occupying 0.844783 of unit cell:	Completed after 1 iterations at t[s]:  39356.50
SCF: Cycle: 45   F: -541.199936073057074   dF: -4.498e-08   |Residual|: 2.897e-04   |deigs|: 2.866e-05  t[s]:  39358.09
	Linear fluid (dielectric constant: 7.2) occupying 0.844784 of unit cell:	Completed after 1 iterations at t[s]:  39360.91
	FillingsUpdate:  mu: -0.122306795  nElectrons: 300.000000
	Linear fluid (dielectric constant: 7.2) occupying 0.844783 of unit cell:	Completed after 1 iterations at t[s]:  39835.56
SCF: Cycle: 46   F: -541.199936331241020   dF: -2.582e-07   |Residual|: 8.136e-05   |deigs|: 3.831e-05  t[s]:  39837.30
	Linear fluid (dielectric constant: 7.2) occupying 0.844783 of unit cell:	Completed after 1 iterations at t[s]:  39840.13
	FillingsUpdate:  mu: -0.122304891  nElectrons: 300.000000
	Linear fluid (dielectric constant: 7.2) occupying 0.844783 of unit cell:	Completed after 0 iterations at t[s]:  40154.03
SCF: Cycle: 47   F: -541.199936297090289   dF: +3.415e-08   |Residual|: 6.427e-05   |deigs|: 1.189e-05  t[s]:  40155.84
	Linear fluid (dielectric constant: 7.2) occupying 0.844783 of unit cell:	Completed after 1 iterations at t[s]:  40158.82
	FillingsUpdate:  mu: -0.122304554  nElectrons: 300.000000
	Linear fluid (dielectric constant: 7.2) occupying 0.844783 of unit cell:	Completed after 0 iterations at t[s]:  40600.22
SCF: Cycle: 48   F: -541.199936224659837   dF: +7.243e-08   |Residual|: 3.868e-05   |deigs|: 1.989e-05  t[s]:  40601.96
	Linear fluid (dielectric constant: 7.2) occupying 0.844783 of unit cell:	Completed after 0 iterations at t[s]:  40604.26
	FillingsUpdate:  mu: -0.122310525  nElectrons: 300.000000
	Linear fluid (dielectric constant: 7.2) occupying 0.844783 of unit cell:	Completed after 2 iterations at t[s]:  41065.08
SCF: Cycle: 49   F: -541.199935853173542   dF: +3.715e-07   |Residual|: 3.655e-04   |deigs|: 1.458e-05  t[s]:  41066.76
	Linear fluid (dielectric constant: 7.2) occupying 0.844783 of unit cell:	Completed after 1 iterations at t[s]:  41069.91
Setting wave functions to eigenvectors of Hamiltonian
Single-point solvation energy estimate, DeltaF = -0.012677291649993

# Ionic positions in cartesian coordinates:
ion C  28.005857181630002   0.000000000000000   1.000001652210000 0
ion C  25.672025513790000   4.042310104620000   1.000001652210000 0
ion C  11.669128103520006  20.211535405260001   1.000001652210000 0
ion C   4.667680343250000   0.000000000000000   1.000001652210000 0
ion C  23.338288332449999   0.000000000000000   1.000001652210000 0
ion C   2.333822219190000   4.042310104620000   1.000001652210000 0
ion C  16.336708291080008  20.211535405260001   1.000001652210000 0
ion C  23.338191956219998   8.084622098970000   1.000001652210000 0
ion C   9.335305884329998  16.169223410910011   1.000001652210000 0
ion C   9.335322891900001   0.000000000000000   1.000001652210000 0
ion C  18.670626886499999   0.000000000000000   1.000001652210000 0
ion C  18.670539958920003  16.169223410910011   1.000001652210000 0
ion C  21.004371626759990  12.126913306290001   1.000001652210000 0
ion C  14.002984337850000   0.000000000000000   1.000001652210000 0
ion C   0.000000000000000   8.084622098970000   1.000001652210000 0
ion C   7.001485554870008  20.211535405260001   1.000001652210000 0
ion C  -7.001481775409993  20.211535405260001   1.000001652210000 0
ion C  -2.333822219189998  12.126913306290001   1.000001652210000 0
ion C   4.667663335679999  16.169223410910011   1.000001652210000 0
ion C  -2.333820329459995  20.211535405260001   1.000001652210000 0
ion C   2.333824108920002  20.211535405260001   1.000001652210000 0
ion C  -4.667659556220001  16.169223410910011   1.000001652210000 0
ion C   7.001483665139999   4.042310104620000   1.000001652210000 0
ion C  21.004430208389998   4.042310104620000   1.000001652210000 0
ion C  14.002948432980002  16.169223410910011   1.000001652210000 0
ion C   0.000001889729997  16.169223410910011   1.000001652210000 0
ion C  11.669126213789999   4.042310104620000   1.000001652210000 0
ion C  18.670609878929998   8.084622098970000   1.000001652210000 0
ion C  11.669126213789998  12.126913306290001   1.000001652210000 0
ion C  16.336787659739997  12.126913306290001   1.000001652210000 0
ion C  16.336789549470002   4.042310104620000   1.000001652210000 0
ion C   9.335303994600004   8.084622098970000   1.000001652210000 0
ion C  14.002948432980002   8.084622098970000   1.000001652210000 0
ion C   0.000000000000000   2.694874032990001   1.000001652210000 0
ion C  11.669128103520000  22.906390540950014   1.000001652210000 0
ion C -11.669124324059998  22.906390540950014   1.000001652210000 0
ion C  -2.333822219190000   6.737165240310005   1.000001652210000 0
ion C   9.335305884330001  18.864097443900004   1.000001652210000 0
ion C  -7.001481775409996  22.906390540950014   1.000001652210000 0
ion C   7.001485554870007  22.906390540950014   1.000001652210000 0
ion C   2.333822219189997   6.737165240310005   1.000001652210000 0
ion C  -9.335302104869996  18.864097443900004   1.000001652210000 0
ion C  -4.667661445950000  10.779477234660007   1.000001652210000 0
ion C  -2.333820329460000  22.906390540950014   1.000001652210000 0
ion C   2.333824108920000  22.906390540950014   1.000001652210000 0
ion C  -7.001483665140000  14.821787339280009   1.000001652210000 0
ion C   4.667661445950001   2.694874032990001   1.000001652210000 0
ion C  23.338269435150007   2.694874032990001   1.000001652210000 0
ion C  14.002967330279997  18.864097443900004   1.000001652210000 0
ion C   0.000000000000000  10.779477234660007   1.000001652210000 0
ion C   4.667663335679999  18.864097443900004   1.000001652210000 0
ion C  -4.667640658919995  18.864097443900004   1.000001652210000 0
ion C  -2.333822219190001  14.821787339280009   1.000001652210000 0
ion C   2.333824108919996  14.821787339280009   1.000001652210000 0
ion C   0.000001889729999  18.864097443900004   1.000001652210000 0
ion C   9.335303994599997   2.694874032990001   1.000001652210000 0
ion C  21.004430208390001   6.737165240310005   1.000001652210000 0
ion C  11.669126213790005  14.821787339280009   1.000001652210000 0
ion C  16.336789549469998  14.821787339280009   1.000001652210000 0
ion C  18.670609878930009   2.694874032990001   1.000001652210000 0
ion C   7.001483665139999   6.737165240310005   1.000001652210000 0
ion C  14.002946543250001   2.694874032990001   1.000001652210000 0
ion C  18.670607989199997  10.779477234660007   1.000001652210000 0
ion C  11.669126213789998   6.737165240310005   1.000001652210000 0
ion C  16.336787659740001   6.737165240310005   1.000001652210000 0
ion C  14.002946543250001  10.779477234660007   1.000001652210000 0
ion N   4.667661445950002   8.084622098970000   1.000001652210000 0
ion N   2.333822219190005  12.126913306290001   1.000001652210000 0
ion N   7.001485554869996  14.821787339280009   1.000001652210000 0
ion N   9.335305884329999  10.779477234660007   1.000001652210000 0
ion Fe   5.837109518069998  11.454309266310005   1.000001652210000 0

# Forces in Cartesian coordinates:
force C   0.004001047272827  -0.000062950938578   0.000000000000000 0
force C   0.001386707127711  -0.001571013457362   0.000000000000000 0
force C   0.003892867524452  -0.001782170539743   0.000000000000000 0
force C   0.001516011653541   0.002764093134228   0.000000000000000 0
force C   0.002552480411069  -0.000448555566089   0.000000000000000 0
force C   0.005391408671042   0.002010049890188   0.000000000000000 0
force C   0.000713472778029  -0.000875328243097   0.000000000000000 0
force C  -0.000686126429294   0.001981254941947   0.000000000000000 0
force C  -0.033915812543579  -0.014094023464520   0.000000000000000 0
force C  -0.001146277327272   0.000866429595635   0.000000000000000 0
force C  -0.000477265580272  -0.000198235550870   0.000000000000000 0
force C  -0.000392568316569   0.001068430853786   0.000000000000000 0
force C   0.001919502348721   0.003570612292369   0.000000000000000 0
force C  -0.001593117991874  -0.000852514178772   0.000000000000000 0
force C   0.009982381995212   0.005747183686095   0.000000000000000 0
force C   0.003072203727967   0.002338686421760   0.000000000000000 0
force C   0.001219906746307   0.000694475480656   0.000000000000000 0
force C   0.004428204015602   0.003667046230719   0.000000000000000 0
force C   0.030569147038775   0.011381212179818   0.000000000000000 0
force C   0.000169561899438  -0.001383220035486   0.000000000000000 0
force C  -0.003946903924826   0.000986226558254   0.000000000000000 0
force C   0.003125563243305  -0.000015784089761   0.000000000000000 0
force C   0.004674327960429   0.007556002946247   0.000000000000000 0
force C   0.001374504994393   0.000793573754693   0.000000000000000 0
force C  -0.002953929098358  -0.001705811500449   0.000000000000000 0
force C   0.008869246091561   0.000285323509418   0.000000000000000 0
force C  -0.001100136651117  -0.003923262441574   0.000000000000000 0
force C   0.000878231317266   0.002484351468150   0.000000000000000 0
force C  -0.029157826460721  -0.022302038901580   0.000000000000000 0
force C   0.000395793040287   0.004249999139085   0.000000000000000 0
force C  -0.000449037395216  -0.000270417584407   0.000000000000000 0
force C   0.025142980862472   0.020763481087474   0.000000000000000 0
force C   0.003572419310959   0.001481281588691   0.000000000000000 0
force C  -0.003862248354721   0.001772382797012   0.000000000000000 0
force C  -0.004011835897592   0.000066329530461   0.000000000000000 0
force C  -0.002557558828015   0.000458509600467   0.000000000000000 0
force C   0.002979951807768   0.001717411313644   0.000000000000000 0
force C  -0.005393697060302  -0.002036944351119   0.000000000000000 0
force C   0.000488815515000   0.000220271935626   0.000000000000000 0
force C  -0.001512326469863  -0.002750307282308   0.000000000000000 0
force C   0.034013197727702   0.014173933949211   0.000000000000000 0
force C  -0.001363247110840  -0.000806281203104   0.000000000000000 0
force C  -0.000379182481506  -0.004247692669198   0.000000000000000 0
force C   0.001586863894999   0.000859950952666   0.000000000000000 0
force C   0.001142282318608  -0.000863377600822   0.000000000000000 0
force C  -0.000849398188714  -0.002495053772461   0.000000000000000 0
force C  -0.003073644142538  -0.002328579276673   0.000000000000000 0
force C  -0.000728077382688   0.000859153621967   0.000000000000000 0
force C  -0.001413657126402   0.001570683224248   0.000000000000000 0
force C   0.029273738740454   0.022379209177308   0.000000000000000 0
force C  -0.004661839884616  -0.007586297105955   0.000000000000000 0
force C   0.000431328716711   0.000259430460190   0.000000000000000 0
force C  -0.003548387911853  -0.001509733071956   0.000000000000000 0
force C  -0.025144118171372  -0.020916094438817   0.000000000000000 0
force C   0.001101464686309   0.003920204107629   0.000000000000000 0
force C   0.003946072856732  -0.001006261472176   0.000000000000000 0
force C   0.000384935906755  -0.001043241190523   0.000000000000000 0
force C  -0.010004167497703  -0.005777753507140   0.000000000000000 0
force C   0.000649206905808  -0.002004835003470   0.000000000000000 0
force C  -0.001211107621545  -0.000708161586353   0.000000000000000 0
force C  -0.030674516166910  -0.011336826906827   0.000000000000000 0
force C  -0.000152547246592   0.001381201919671   0.000000000000000 0
force C  -0.001940560492210  -0.003564467414677   0.000000000000000 0
force C  -0.008890348006636  -0.000245644331861   0.000000000000000 0
force C  -0.003138686436890   0.000036625510016   0.000000000000000 0
force C  -0.004443275356602  -0.003652804540646   0.000000000000000 0
force N   0.025783114395895  -0.028092277926262   0.000000000000000 0
force N  -0.011375977831682   0.036344072112247   0.000000000000000 0
force N  -0.025610357069038   0.028202492171811   0.000000000000000 0
force N   0.011680911718506  -0.036322292272870   0.000000000000000 0
force Fe   0.000070707289273  -0.000503379597167   0.000000000000000 0

# Energy components:
   A_diel =       -0.0158614092144122
   Eewald =     3662.7038090246446700
       EH =     4094.5451390004268433
     Eloc =    -8492.3909199055724457
      Enl =       77.8674969650239177
      Exc =     -144.8637464422476171
 Exc_core =        3.3626682071218217
       KE =      257.6730217710455690
-------------------------------------
     Etot =     -541.1183927887714162
       TS =        0.0788918090337752
-------------------------------------
        F =     -541.1972845978051510

IonicMinimize: Iter:   0  F: -541.197284597805151  |grad|_K:  0.000e+00  alpha:  1.000e+00
IonicMinimize: Converged (|grad|_K<1.000000e-04).

#--- Lowdin population analysis ---
# oxidation-state C +0.046 +0.038 +0.042 +0.038 +0.042 +0.030 +0.040 +0.038 +0.155 +0.042 +0.040 +0.040 +0.046 +0.042 +0.014 +0.051 +0.044 +0.030 +0.135 +0.042 +0.038 +0.038 +0.036 +0.047 +0.053 +0.036 +0.038 +0.042 +0.155 +0.042 +0.040 +0.135 +0.051 +0.042 +0.046 +0.042 +0.053 +0.030 +0.040 +0.039 +0.155 +0.047 +0.042 +0.042 +0.042 +0.042 +0.051 +0.040 +0.038 +0.155 +0.036 +0.040 +0.051 +0.135 +0.038 +0.038 +0.040 +0.014 +0.038 +0.044 +0.135 +0.042 +0.047 +0.036 +0.039 +0.030
# oxidation-state N -0.133 -0.133 -0.132 -0.132
# oxidation-state Fe +0.143


Dumping 'FeN4-glyme.fillings' ... done
Dumping 'FeN4-glyme.wfns' ... done
Dumping 'FeN4-glyme.fluidState' ... done
Dumping 'FeN4-glyme.ionpos' ... done
Dumping 'FeN4-glyme.eigenvals' ... done
End date and time: Thu Sep 26 08:38:58 2024  (Duration: 0-11:28:23.51)
Done!

*************** JDFTx 1.7.0  ***************

Start date and time: Fri Sep 27 23:55:05 2024
Executable jdftx with command-line: -i FeN4-glyme.in -o FeN4-glyme.out
Running on hosts (process indices):  SimSlave (0)
Divided in process groups (process indices):  0 (0)
Resource initialization completed at t[s]:      0.00
Run totals: 1 processes, 2 threads, 0 GPUs


Input parsed successfully to the following command list (including defaults):

basis kpoint-dependent
coords-type Cartesian
core-overlap-check vector
coulomb-interaction Slab 001
coulomb-truncation-embed 0 0 1
davidson-band-ratio 1.1
dump End State
dump-name FeN4-glyme.$VAR
elec-cutoff 20 100
elec-eigen-algo Davidson
elec-ex-corr gga-PBE
elec-smearing Fermi 0.01
electronic-minimize  \
	dirUpdateScheme      FletcherReeves \
	linminMethod         DirUpdateRecommended \
	nIterations          100 \
	history              15 \
	knormThreshold       0 \
	energyDiffThreshold  1e-08 \
	nEnergyDiff          2 \
	alphaTstart          1 \
	alphaTmin            1e-10 \
	updateTestStepSize   yes \
	alphaTreduceFactor   0.1 \
	alphaTincreaseFactor 3 \
	nAlphaAdjustMax      3 \
	wolfeEnergy          0.0001 \
	wolfeGradient        0.9 \
	fdTest               no
exchange-regularization WignerSeitzTruncated
fluid LinearPCM 298.000000 1.013250
fluid-ex-corr lda-TF lda-PZ
fluid-gummel-loop 10 1.000000e-05
fluid-minimize  \
	dirUpdateScheme      PolakRibiere \
	linminMethod         DirUpdateRecommended \
	nIterations          400 \
	history              15 \
	knormThreshold       1e-11 \
	energyDiffThreshold  0 \
	nEnergyDiff          2 \
	alphaTstart          1 \
	alphaTmin            1e-10 \
	updateTestStepSize   yes \
	alphaTreduceFactor   0.1 \
	alphaTincreaseFactor 3 \
	nAlphaAdjustMax      6 \
	wolfeEnergy          0.0001 \
	wolfeGradient        0.9 \
	fdTest               no
fluid-solvent Glyme 9.62137 ScalarEOS \
	epsBulk 7.2 \
	pMol 0 \
	epsInf 1.9 \
	Pvap 0 \
	sigmaBulk 0 \
	Rvdw 0 \
	Res 0 \
	tauNuc 343133
forces-output-coords Positions
ion C  28.005857181630002   0.000000000000000   1.000001652210000 0
ion C  25.672025513790000   4.042310104620000   1.000001652210000 0
ion C  11.669128103520009  20.211535405260001   1.000001652210000 0
ion C   4.667680343250000   0.000000000000000   1.000001652210000 0
ion C  23.338288332449999   0.000000000000000   1.000001652210000 0
ion C   2.333822219190000   4.042310104620000   1.000001652210000 0
ion C  16.336708291080008  20.211535405260001   1.000001652210000 0
ion C  23.338191956219998   8.084622098970000   1.000001652210000 0
ion C   9.335305884330001  16.169223410910011   1.000001652210000 0
ion C   9.335322891900001   0.000000000000000   1.000001652210000 0
ion C  18.670626886499999   0.000000000000000   1.000001652210000 0
ion C  18.670539958920003  16.169223410910011   1.000001652210000 0
ion C  21.004371626759990  12.126913306290001   1.000001652210000 0
ion C  14.002984337850000   0.000000000000000   1.000001652210000 0
ion C   0.000000000000000   8.084622098970000   1.000001652210000 0
ion C   7.001485554870008  20.211535405260001   1.000001652210000 0
ion C  -7.001481775409991  20.211535405260001   1.000001652210000 0
ion C  -2.333822219189998  12.126913306290001   1.000001652210000 0
ion C   4.667663335679999  16.169223410910011   1.000001652210000 0
ion C  -2.333820329459993  20.211535405260001   1.000001652210000 0
ion C   2.333824108920002  20.211535405260001   1.000001652210000 0
ion C  -4.667659556220000  16.169223410910011   1.000001652210000 0
ion C   7.001483665139999   4.042310104620000   1.000001652210000 0
ion C  21.004430208389998   4.042310104620000   1.000001652210000 0
ion C  14.002948432980006  16.169223410910011   1.000001652210000 0
ion C   0.000001889729997  16.169223410910011   1.000001652210000 0
ion C  11.669126213789999   4.042310104620000   1.000001652210000 0
ion C  18.670609878929998   8.084622098970000   1.000001652210000 0
ion C  11.669126213789998  12.126913306290001   1.000001652210000 0
ion C  16.336787659739997  12.126913306290001   1.000001652210000 0
ion C  16.336789549470002   4.042310104620000   1.000001652210000 0
ion C   9.335303994600004   8.084622098970000   1.000001652210000 0
ion C  14.002948432980002   8.084622098970000   1.000001652210000 0
ion C   0.000000000000000   2.694874032990001   1.000001652210000 0
ion C  11.669128103519999  22.906390540950017   1.000001652210000 0
ion C -11.669124324059998  22.906390540950017   1.000001652210000 0
ion C  -2.333822219190000   6.737165240310007   1.000001652210000 0
ion C   9.335305884330001  18.864097443900004   1.000001652210000 0
ion C  -7.001481775409996  22.906390540950017   1.000001652210000 0
ion C   7.001485554870008  22.906390540950017   1.000001652210000 0
ion C   2.333822219189996   6.737165240310007   1.000001652210000 0
ion C  -9.335302104869994  18.864097443900004   1.000001652210000 0
ion C  -4.667661445950001  10.779477234660009   1.000001652210000 0
ion C  -2.333820329460000  22.906390540950017   1.000001652210000 0
ion C   2.333824108919998  22.906390540950017   1.000001652210000 0
ion C  -7.001483665140000  14.821787339280013   1.000001652210000 0
ion C   4.667661445950001   2.694874032990001   1.000001652210000 0
ion C  23.338269435150011   2.694874032990001   1.000001652210000 0
ion C  14.002967330279997  18.864097443900004   1.000001652210000 0
ion C   0.000000000000000  10.779477234660009   1.000001652210000 0
ion C   4.667663335679999  18.864097443900004   1.000001652210000 0
ion C  -4.667640658919993  18.864097443900004   1.000001652210000 0
ion C  -2.333822219190001  14.821787339280013   1.000001652210000 0
ion C   2.333824108919995  14.821787339280013   1.000001652210000 0
ion C   0.000001889729999  18.864097443900004   1.000001652210000 0
ion C   9.335303994599997   2.694874032990001   1.000001652210000 0
ion C  21.004430208390001   6.737165240310007   1.000001652210000 0
ion C  11.669126213790003  14.821787339280013   1.000001652210000 0
ion C  16.336789549469998  14.821787339280013   1.000001652210000 0
ion C  18.670609878930012   2.694874032990001   1.000001652210000 0
ion C   7.001483665139997   6.737165240310007   1.000001652210000 0
ion C  14.002946543250001   2.694874032990001   1.000001652210000 0
ion C  18.670607989199997  10.779477234660009   1.000001652210000 0
ion C  11.669126213789998   6.737165240310007   1.000001652210000 0
ion C  16.336787659740001   6.737165240310007   1.000001652210000 0
ion C  14.002946543250001  10.779477234660009   1.000001652210000 0
ion N   4.667661445950002   8.084622098970000   1.000001652210000 0
ion N   2.333822219190005  12.126913306290001   1.000001652210000 0
ion N   7.001485554869994  14.821787339280013   1.000001652210000 0
ion N   9.335305884329998  10.779477234660009   1.000001652210000 0
ion Fe   5.837109518069997  11.454309266310007   1.000001652210000 0
ion-species GBRV/$ID_pbe.uspp
ion-width Ecut
ionic-minimize  \
	dirUpdateScheme      FletcherReeves \
	linminMethod         DirUpdateRecommended \
	nIterations          200 \
	history              15 \
	knormThreshold       0.0001 \
	energyDiffThreshold  1e-06 \
	nEnergyDiff          2 \
	alphaTstart          1 \
	alphaTmin            1e-10 \
	updateTestStepSize   yes \
	alphaTreduceFactor   0.1 \
	alphaTincreaseFactor 3 \
	nAlphaAdjustMax      3 \
	wolfeEnergy          0.0001 \
	wolfeGradient        0.9 \
	fdTest               no
kpoint   0.000000000000   0.000000000000   0.000000000000  1.00000000000000
kpoint-folding 1 1 1 
latt-move-scale 1 1 1
latt-scale 1 1 1 
lattice Triclinic 28.0058 28.0058 32.1253 90 90 120
lattice-minimize  \
	dirUpdateScheme      L-BFGS \
	linminMethod         DirUpdateRecommended \
	nIterations          0 \
	history              15 \
	knormThreshold       0 \
	energyDiffThreshold  1e-06 \
	nEnergyDiff          2 \
	alphaTstart          1 \
	alphaTmin            1e-10 \
	updateTestStepSize   yes \
	alphaTreduceFactor   0.1 \
	alphaTincreaseFactor 3 \
	nAlphaAdjustMax      3 \
	wolfeEnergy          0.0001 \
	wolfeGradient        0.9 \
	fdTest               no
lcao-params -1 1e-06 0.01
pcm-variant GLSSA13
spintype no-spin
subspace-rotation-factor 1 yes
symmetries automatic
symmetry-threshold 0.0001



---------- Setting up symmetries ----------

Found 24 point-group symmetries of the bravais lattice
Found 2 space-group symmetries with basis
Applied RMS atom displacement 0 bohrs to make symmetries exact.

---------- Initializing the Grid ----------
R = 
[      28.0058     -14.0029            0  ]
[            0      24.2537            0  ]
[            0            0      32.1253  ]
unit cell volume = 21821
G =
[   0.224353    0.12953         -0  ]
[          0   0.259061          0  ]
[          0         -0   0.195584  ]
Minimum fftbox size, Smin = [  128  128  148  ]
Chosen fftbox size, S = [  128  128  150  ]

---------- Initializing tighter grid for wavefunction operations ----------
R = 
[      28.0058     -14.0029            0  ]
[            0      24.2537            0  ]
[            0            0      32.1253  ]
unit cell volume = 21821
G =
[   0.224353    0.12953         -0  ]
[          0   0.259061          0  ]
[          0         -0   0.195584  ]
Minimum fftbox size, Smin = [  116  116  132  ]
Chosen fftbox size, S = [  120  120  140  ]

---------- Exchange Correlation functional ----------
Initalized PBE GGA exchange.
Initalized PBE GGA correlation.

---------- Setting up pseudopotentials ----------
Width of ionic core gaussian charges (only for fluid interactions / plotting) set to 0.397384

Reading pseudopotential file '/home/simslave2427/jdftx_install/build/pseudopotentials/GBRV/c_pbe.uspp':
  Title: C.  Created by USPP 7.3.6 on 3-2-2014
  Reference state energy: -5.406344.  4 valence electrons in orbitals:
    |200>  occupation: 2  eigenvalue: -0.504890
    |210>  occupation: 2  eigenvalue: -0.194356
  lMax: 1  lLocal: 2  QijEcut: 5
  4 projectors sampled on a log grid with 503 points:
    l: 0  eig: -0.504890  rCut: 1.3
    l: 0  eig: 0.000000  rCut: 1.3
    l: 1  eig: -0.194357  rCut: 1.3
    l: 1  eig: 0.000000  rCut: 1.3
  Partial core density with radius 1.1
  Transforming core density to a uniform radial grid of dG=0.02 with 1618 points.
  Transforming local potential to a uniform radial grid of dG=0.02 with 1618 points.
  Transforming nonlocal projectors to a uniform radial grid of dG=0.02 with 432 points.
  Transforming density augmentations to a uniform radial grid of dG=0.02 with 1618 points.
  Transforming atomic orbitals to a uniform radial grid of dG=0.02 with 432 points.
  Core radius for overlap checks: 1.30 bohrs.

Reading pseudopotential file '/home/simslave2427/jdftx_install/build/pseudopotentials/GBRV/n_pbe.uspp':
  Title: N.  Created by USPP 7.3.6 on 3-2-2014
  Reference state energy: -9.763716.  5 valence electrons in orbitals:
    |200>  occupation: 2  eigenvalue: -0.681964
    |210>  occupation: 3  eigenvalue: -0.260726
  lMax: 1  lLocal: 2  QijEcut: 6
  4 projectors sampled on a log grid with 491 points:
    l: 0  eig: -0.681964  rCut: 1.15
    l: 0  eig: 0.000000  rCut: 1.15
    l: 1  eig: -0.260729  rCut: 1.2
    l: 1  eig: 0.500000  rCut: 1.2
  Partial core density with radius 0.8
  Transforming core density to a uniform radial grid of dG=0.02 with 1618 points.
  Transforming local potential to a uniform radial grid of dG=0.02 with 1618 points.
  Transforming nonlocal projectors to a uniform radial grid of dG=0.02 with 432 points.
  Transforming density augmentations to a uniform radial grid of dG=0.02 with 1618 points.
  Transforming atomic orbitals to a uniform radial grid of dG=0.02 with 432 points.
  Core radius for overlap checks: 1.20 bohrs.

Reading pseudopotential file '/home/simslave2427/jdftx_install/build/pseudopotentials/GBRV/fe_pbe.uspp':
  Title: Fe.  Created by USPP 7.3.6 on 15-6-15
  Reference state energy: -124.316937.  16 valence electrons in orbitals:
    |300>  occupation: 2  eigenvalue: -4.008817
    |310>  occupation: 6  eigenvalue: -2.753096
    |320>  occupation: 5  eigenvalue: -0.791264
    |400>  occupation: 2  eigenvalue: -0.516384
    |410>  occupation: 0  eigenvalue: -0.312222
  lMax: 2  lLocal: 3  QijEcut: 6
  6 projectors sampled on a log grid with 607 points:
    l: 0  eig: -4.008819  rCut: 1.55
    l: 0  eig: -0.516386  rCut: 1.55
    l: 1  eig: -2.753096  rCut: 1.55
    l: 1  eig: -0.312226  rCut: 1.55
    l: 2  eig: -0.791264  rCut: 1.65
    l: 2  eig: -0.450000  rCut: 1.65
  Partial core density with radius 0.65
  Transforming core density to a uniform radial grid of dG=0.02 with 1618 points.
  Transforming local potential to a uniform radial grid of dG=0.02 with 1618 points.
  Transforming nonlocal projectors to a uniform radial grid of dG=0.02 with 432 points.
  Transforming density augmentations to a uniform radial grid of dG=0.02 with 1618 points.
  Transforming atomic orbitals to a uniform radial grid of dG=0.02 with 432 points.
  Core radius for overlap checks: 1.65 bohrs.

Initialized 3 species with 71 total atoms.

Folded 1 k-points by 1x1x1 to 1 k-points.

---------- Setting up k-points, bands, fillings ----------
No reducable k-points. 
Computing the number of bands and number of electrons
Calculating initial fillings.
nElectrons: 300.000000   nBands: 293   nStates: 1

----- Setting up reduced wavefunction bases (one per k-point) -----
average nbasis = 93173.000 , ideal nbasis = 93220.781

---------- Setting up coulomb interaction ----------
Fluid mode embedding: using embedded box, but periodic Coulomb kernel.
(Fluid response is responsible for (approximate) separation between periodic images.)
Setting up double-sized grid for truncated Coulomb potentials:
R = 
[      28.0058     -14.0029            0  ]
[            0      24.2537            0  ]
[            0            0      64.2506  ]
unit cell volume = 43641.9
G =
[   0.224353    0.12953         -0  ]
[          0   0.259061          0  ]
[          0         -0  0.0977919  ]
Chosen fftbox size, S = [  128  128  300  ]
Integer grid location selected as the embedding center:
   Grid: [  0  0  5  ]
   Lattice: [  0  0  0.0311281  ]
   Cartesian: [  0  0  1  ]
Constructing Wigner-Seitz cell: 8 faces (6 quadrilaterals, 2 hexagons)
Range-separation parameter for embedded mesh potentials due to point charges: 0.590105 bohrs.

---------- Setting up ewald sum ----------
Optimum gaussian width for ewald sums = 6.902423 bohr.
Real space sum over 567 unit cells with max indices [  4  4  3  ]
Reciprocal space sum over 9537 terms with max indices [  8  8  16  ]

---------- Allocating electronic variables ----------
Initializing wave functions:  linear combination of atomic orbitals
C pseudo-atom occupations:   s ( 2 )  p ( 2 )
N pseudo-atom occupations:   s ( 2 )  p ( 3 )
Fe pseudo-atom occupations:   s ( 2 0 )  p ( 6 0 )  d ( 8 )
	FillingsUpdate:  mu: -0.217938460  nElectrons: 300.000000
LCAOMinimize: Iter:   0  F: -520.4699370443769340  |grad|_K:  2.522e-02  alpha:  1.000e+00
	FillingsUpdate:  mu: -0.255616867  nElectrons: 300.000000
LCAOMinimize: Iter:   1  F: -524.9884393917056968  |grad|_K:  1.422e-02  alpha:  1.356e-01  linmin: -1.666e-01  cgtest:  9.904e-01  t[s]:    428.46
LCAOMinimize: Encountered beta<0, resetting CG.
LCAOMinimize: 	Wrong curvature in test step, increasing alphaT to 4.067631e-01.
	FillingsUpdate:  mu: -0.168493929  nElectrons: 300.000000
LCAOMinimize: Iter:   2  F: -529.2993212280879334  |grad|_K:  5.370e-02  alpha: -8.265e-02  linmin:  2.189e-01  cgtest: -2.003e-01  t[s]:    562.81
LCAOMinimize: 	Bad step direction: g.d > 0.
LCAOMinimize: 	Undoing step.
LCAOMinimize: 	Step failed: resetting search direction.
	FillingsUpdate:  mu: -0.168493929  nElectrons: 300.000000
LCAOMinimize: Iter:   3  F: -529.2993212280879334  |grad|_K:  5.370e-02  alpha:  0.000e+00
LCAOMinimize: 	Step increased F by 9.563246e+00, reducing alpha to 2.225472e-02.
	FillingsUpdate:  mu: -0.165307387  nElectrons: 300.000000
LCAOMinimize: Iter:   4  F: -533.2692286757155671  |grad|_K:  2.435e-02  alpha:  2.225e-02  linmin: -1.829e-01  cgtest:  1.498e+00  t[s]:    910.56
LCAOMinimize: Encountered beta<0, resetting CG.
LCAOMinimize: 	Wrong curvature in test step, increasing alphaT to 6.676415e-02.
	FillingsUpdate:  mu: -0.212095191  nElectrons: 300.000000
LCAOMinimize: Iter:   5  F: -534.7819546986345358  |grad|_K:  3.069e-02  alpha: -3.406e-02  linmin: -3.177e-01  cgtest:  5.939e-01  t[s]:   1044.90
LCAOMinimize: 	Step increased F by 1.454686e+01, reducing alpha to 1.543135e-02.
	FillingsUpdate:  mu: -0.262809581  nElectrons: 300.000000
LCAOMinimize: Iter:   6  F: -536.5110486629504294  |grad|_K:  1.480e-02  alpha:  1.543e-02  linmin:  3.306e-01  cgtest: -5.586e-01  t[s]:   1297.65
LCAOMinimize: 	Bad step direction: g.d > 0.
LCAOMinimize: 	Undoing step.
LCAOMinimize: 	Step failed: resetting search direction.
	FillingsUpdate:  mu: -0.262809581  nElectrons: 300.000000
LCAOMinimize: Iter:   7  F: -536.5110486629504294  |grad|_K:  1.480e-02  alpha:  0.000e+00
	FillingsUpdate:  mu: -0.222071773  nElectrons: 300.000000
LCAOMinimize: Iter:   8  F: -536.7163888487568784  |grad|_K:  4.064e-03  alpha:  2.162e-02  linmin: -1.310e-02  cgtest:  2.717e-02  t[s]:   1538.84
LCAOMinimize: 	Predicted alpha/alphaT>3.000000, increasing alphaT to 6.485034e-02.
LCAOMinimize: 	Predicted alpha/alphaT>3.000000, increasing alphaT to 1.945510e-01.
	FillingsUpdate:  mu: -0.241174704  nElectrons: 300.000000
LCAOMinimize: Iter:   9  F: -536.8646660122840331  |grad|_K:  1.106e-03  alpha:  2.074e-01  linmin:  6.908e-02  cgtest: -1.659e-01  t[s]:   1762.69
	FillingsUpdate:  mu: -0.263320560  nElectrons: 300.000000
LCAOMinimize: Iter:  10  F: -536.8671321161961032  |grad|_K:  1.222e-03  alpha:  5.200e-02  linmin: -5.922e-03  cgtest:  1.675e-01  t[s]:   1908.32
	FillingsUpdate:  mu: -0.237349397  nElectrons: 300.000000
LCAOMinimize: Iter:  11  F: -536.8754877913148675  |grad|_K:  7.613e-04  alpha:  1.243e-01  linmin: -5.101e-03  cgtest: -5.356e-01  t[s]:   2054.15
	FillingsUpdate:  mu: -0.251850982  nElectrons: 300.000000
LCAOMinimize: Iter:  12  F: -536.8763441867357642  |grad|_K:  3.062e-04  alpha:  3.136e-02  linmin: -1.257e-02  cgtest: -1.070e-02  t[s]:   2200.22
LCAOMinimize: 	Predicted alpha/alphaT>3.000000, increasing alphaT to 9.408683e-02.
LCAOMinimize: 	Predicted alpha/alphaT>3.000000, increasing alphaT to 2.822605e-01.
	FillingsUpdate:  mu: -0.244560884  nElectrons: 300.000000
[...]
	Linear fluid (dielectric constant: 7.2) occupying 0.845026 of unit cell:	Completed after 4 iterations at t[s]:  45034.94
	Linear fluid (dielectric constant: 7.2) occupying 0.845057 of unit cell:	Completed after 4 iterations at t[s]:  45141.52
	FillingsUpdate:  mu: -0.123030154  nElectrons: 300.000000
	SubspaceRotationAdjust: set factor to 0.137
ElecMinimize: Iter:   2  F: -541.199911368327776  |grad|_K:  1.556e-06  alpha:  3.652e-01  linmin:  2.234e-05  t[s]:  45284.76
	Linear fluid (dielectric constant: 7.2) occupying 0.844992 of unit cell:	Completed after 2 iterations at t[s]:  45449.78
	Linear fluid (dielectric constant: 7.2) occupying 0.844985 of unit cell:	Completed after 1 iterations at t[s]:  45554.90
	FillingsUpdate:  mu: -0.122212788  nElectrons: 300.000000
	SubspaceRotationAdjust: set factor to 0.173
ElecMinimize: Iter:   3  F: -541.199937317772083  |grad|_K:  9.764e-07  alpha:  4.031e-01  linmin:  6.128e-05  t[s]:  45698.41
	Linear fluid (dielectric constant: 7.2) occupying 0.844945 of unit cell:	Completed after 2 iterations at t[s]:  45863.36
	Linear fluid (dielectric constant: 7.2) occupying 0.844917 of unit cell:	Completed after 1 iterations at t[s]:  45967.71
	FillingsUpdate:  mu: -0.122326138  nElectrons: 300.000000
	SubspaceRotationAdjust: set factor to 0.2
ElecMinimize: Iter:   4  F: -541.199952849722649  |grad|_K:  9.342e-07  alpha:  6.717e-01  linmin:  3.185e-05  t[s]:  46111.05
	Linear fluid (dielectric constant: 7.2) occupying 0.844845 of unit cell:	Completed after 4 iterations at t[s]:  46276.49
	Linear fluid (dielectric constant: 7.2) occupying 0.844870 of unit cell:	Completed after 2 iterations at t[s]:  46381.23
	FillingsUpdate:  mu: -0.121429356  nElectrons: 300.000000
	SubspaceRotationAdjust: set factor to 0.135
ElecMinimize: Iter:   5  F: -541.199962822616840  |grad|_K:  1.212e-06  alpha:  4.485e-01  linmin:  1.549e-05  t[s]:  46524.17
	Linear fluid (dielectric constant: 7.2) occupying 0.844783 of unit cell:	Completed after 4 iterations at t[s]:  46690.15
	Linear fluid (dielectric constant: 7.2) occupying 0.844828 of unit cell:	Completed after 3 iterations at t[s]:  46795.08
	FillingsUpdate:  mu: -0.122281701  nElectrons: 300.000000
	SubspaceRotationAdjust: set factor to 0.154
ElecMinimize: Iter:   6  F: -541.199972266143618  |grad|_K:  6.508e-07  alpha:  2.280e-01  linmin: -1.363e-05  t[s]:  46938.58
	Linear fluid (dielectric constant: 7.2) occupying 0.844821 of unit cell:	Completed after 1 iterations at t[s]:  47102.77
	Linear fluid (dielectric constant: 7.2) occupying 0.844810 of unit cell:	Completed after 2 iterations at t[s]:  47207.74
	FillingsUpdate:  mu: -0.122668356  nElectrons: 300.000000
	SubspaceRotationAdjust: set factor to 0.17
ElecMinimize: Iter:   7  F: -541.199978906293381  |grad|_K:  7.442e-07  alpha:  5.355e-01  linmin: -2.815e-05  t[s]:  47350.68
	Linear fluid (dielectric constant: 7.2) occupying 0.844788 of unit cell:	Completed after 3 iterations at t[s]:  47516.27
	Linear fluid (dielectric constant: 7.2) occupying 0.844803 of unit cell:	Completed after 2 iterations at t[s]:  47621.89
	FillingsUpdate:  mu: -0.122343355  nElectrons: 300.000000
	SubspaceRotationAdjust: set factor to 0.206
ElecMinimize: Iter:   8  F: -541.199981942305499  |grad|_K:  5.600e-07  alpha:  1.966e-01  linmin: -8.601e-05  t[s]:  47765.79
	Linear fluid (dielectric constant: 7.2) occupying 0.844800 of unit cell:	Completed after 2 iterations at t[s]:  47930.61
	Linear fluid (dielectric constant: 7.2) occupying 0.844801 of unit cell:	Completed after 1 iterations at t[s]:  48035.08
	FillingsUpdate:  mu: -0.122247739  nElectrons: 300.000000
	SubspaceRotationAdjust: set factor to 0.224
ElecMinimize: Iter:   9  F: -541.199983163313505  |grad|_K:  4.689e-07  alpha:  1.304e-01  linmin: -1.709e-04  t[s]:  48178.23
	Linear fluid (dielectric constant: 7.2) occupying 0.844800 of unit cell:	Completed after 1 iterations at t[s]:  48342.56
	Linear fluid (dielectric constant: 7.2) occupying 0.844800 of unit cell:	Completed after 1 iterations at t[s]:  48447.06
	FillingsUpdate:  mu: -0.122275323  nElectrons: 300.000000
	SubspaceRotationAdjust: set factor to 0.26
ElecMinimize: Iter:  10  F: -541.199983695505694  |grad|_K:  3.990e-07  alpha:  7.912e-02  linmin: -2.384e-04  t[s]:  48590.27
	Linear fluid (dielectric constant: 7.2) occupying 0.844800 of unit cell:	Completed after 1 iterations at t[s]:  48754.71
	Linear fluid (dielectric constant: 7.2) occupying 0.844800 of unit cell:	Completed after 0 iterations at t[s]:  48858.44
	FillingsUpdate:  mu: -0.122302113  nElectrons: 300.000000
	SubspaceRotationAdjust: set factor to 0.309
ElecMinimize: Iter:  11  F: -541.199983898679648  |grad|_K:  3.738e-07  alpha:  4.538e-02  linmin: -2.633e-04  t[s]:  49001.79
	Linear fluid (dielectric constant: 7.2) occupying 0.844800 of unit cell:	Completed after 1 iterations at t[s]:  49166.51
	Linear fluid (dielectric constant: 7.2) occupying 0.844800 of unit cell:	Completed after 0 iterations at t[s]:  49269.91
	FillingsUpdate:  mu: -0.122317498  nElectrons: 300.000000
	SubspaceRotationAdjust: set factor to 0.384
ElecMinimize: Iter:  12  F: -541.199983986060488  |grad|_K:  3.674e-07  alpha:  2.505e-02  linmin: -2.665e-04  t[s]:  49413.96
	Linear fluid (dielectric constant: 7.2) occupying 0.844800 of unit cell:	Completed after 0 iterations at t[s]:  49577.25
	Linear fluid (dielectric constant: 7.2) occupying 0.844800 of unit cell:	Completed after 0 iterations at t[s]:  49680.54
	FillingsUpdate:  mu: -0.122312689  nElectrons: 300.000000
	SubspaceRotationAdjust: set factor to 0.496
ElecMinimize: Iter:  13  F: -541.199984023539400  |grad|_K:  3.690e-07  alpha:  1.339e-02  linmin: -2.628e-04  t[s]:  49823.59
	Linear fluid (dielectric constant: 7.2) occupying 0.844799 of unit cell:	Completed after 0 iterations at t[s]:  49987.14
	Linear fluid (dielectric constant: 7.2) occupying 0.844800 of unit cell:	Completed after 0 iterations at t[s]:  50090.58
	FillingsUpdate:  mu: -0.122312807  nElectrons: 300.000000
	SubspaceRotationAdjust: set factor to 0.63
ElecMinimize: Iter:  14  F: -541.199984035369539  |grad|_K:  3.800e-07  alpha:  6.879e-03  linmin: -2.537e-04  t[s]:  50234.35
	Linear fluid (dielectric constant: 7.2) occupying 0.844799 of unit cell:	Completed after 0 iterations at t[s]:  50397.86
	Linear fluid (dielectric constant: 7.2) occupying 0.844799 of unit cell:	Completed after 0 iterations at t[s]:  50500.73
ElecMinimize: 	Step increased F by 9.021051e-10, reducing alpha to 3.374728e-04.
	Linear fluid (dielectric constant: 7.2) occupying 0.844800 of unit cell:	Completed after 0 iterations at t[s]:  50745.72
ElecMinimize: 	Step increased F by 2.955858e-11, reducing alpha to 3.374728e-05.
	Linear fluid (dielectric constant: 7.2) occupying 0.844800 of unit cell:	Completed after 0 iterations at t[s]:  50990.70
ElecMinimize: 	Step increased F by 2.290790e-10, reducing alpha to 3.374728e-06.
ElecMinimize: 	Step failed to reduce F after 3 attempts. Quitting step.
ElecMinimize: 	Undoing step.
	Linear fluid (dielectric constant: 7.2) occupying 0.844800 of unit cell:	Completed after 0 iterations at t[s]:  51235.78
ElecMinimize: 	Step failed: resetting search direction.
	FillingsUpdate:  mu: -0.122312808  nElectrons: 300.000000
	SubspaceRotationAdjust: set factor to 0.697
ElecMinimize: Iter:  15  F: -541.199984035211855  |grad|_K:  3.997e-07  alpha:  3.375e-06
	Linear fluid (dielectric constant: 7.2) occupying 0.844800 of unit cell:	Completed after 0 iterations at t[s]:  51543.01
	Linear fluid (dielectric constant: 7.2) occupying 0.844800 of unit cell:	Completed after 0 iterations at t[s]:  51645.80
ElecMinimize: 	Step increased F by 5.676497e-09, reducing alpha to 2.827005e-04.
	Linear fluid (dielectric constant: 7.2) occupying 0.844800 of unit cell:	Completed after 0 iterations at t[s]:  51890.51
ElecMinimize: 	Step increased F by 4.605454e-10, reducing alpha to 2.827005e-05.
	Linear fluid (dielectric constant: 7.2) occupying 0.844800 of unit cell:	Completed after 0 iterations at t[s]:  52135.83
ElecMinimize: 	Step increased F by 8.753887e-12, reducing alpha to 2.827005e-06.
ElecMinimize: 	Step failed to reduce F after 3 attempts. Quitting step.
ElecMinimize: 	Undoing step.
	Linear fluid (dielectric constant: 7.2) occupying 0.844800 of unit cell:	Completed after 0 iterations at t[s]:  52381.36
ElecMinimize: 	Step failed along negative gradient direction.
ElecMinimize: Probably at roundoff error limit. (Stopping)
Setting wave functions to eigenvectors of Hamiltonian
Single-point solvation energy estimate, DeltaF = -0.015376740391616

# Ionic positions in cartesian coordinates:
ion C  28.005857181630002   0.000000000000000   1.000001652210000 0
ion C  25.672025513790000   4.042310104620000   1.000001652210000 0
ion C  11.669128103520009  20.211535405260001   1.000001652210000 0
ion C   4.667680343250000   0.000000000000000   1.000001652210000 0
ion C  23.338288332449999   0.000000000000000   1.000001652210000 0
ion C   2.333822219190000   4.042310104620000   1.000001652210000 0
ion C  16.336708291080008  20.211535405260001   1.000001652210000 0
ion C  23.338191956219998   8.084622098970000   1.000001652210000 0
ion C   9.335305884330001  16.169223410910011   1.000001652210000 0
ion C   9.335322891900001   0.000000000000000   1.000001652210000 0
ion C  18.670626886499999   0.000000000000000   1.000001652210000 0
ion C  18.670539958920003  16.169223410910011   1.000001652210000 0
ion C  21.004371626759990  12.126913306290001   1.000001652210000 0
ion C  14.002984337850000   0.000000000000000   1.000001652210000 0
ion C   0.000000000000000   8.084622098970000   1.000001652210000 0
ion C   7.001485554870008  20.211535405260001   1.000001652210000 0
ion C  -7.001481775409991  20.211535405260001   1.000001652210000 0
ion C  -2.333822219189998  12.126913306290001   1.000001652210000 0
ion C   4.667663335679999  16.169223410910011   1.000001652210000 0
ion C  -2.333820329459993  20.211535405260001   1.000001652210000 0
ion C   2.333824108920002  20.211535405260001   1.000001652210000 0
ion C  -4.667659556220000  16.169223410910011   1.000001652210000 0
ion C   7.001483665139999   4.042310104620000   1.000001652210000 0
ion C  21.004430208389998   4.042310104620000   1.000001652210000 0
ion C  14.002948432980006  16.169223410910011   1.000001652210000 0
ion C   0.000001889729997  16.169223410910011   1.000001652210000 0
ion C  11.669126213789999   4.042310104620000   1.000001652210000 0
ion C  18.670609878929998   8.084622098970000   1.000001652210000 0
ion C  11.669126213789998  12.126913306290001   1.000001652210000 0
ion C  16.336787659739997  12.126913306290001   1.000001652210000 0
ion C  16.336789549470002   4.042310104620000   1.000001652210000 0
ion C   9.335303994600004   8.084622098970000   1.000001652210000 0
ion C  14.002948432980002   8.084622098970000   1.000001652210000 0
ion C   0.000000000000000   2.694874032990001   1.000001652210000 0
ion C  11.669128103519999  22.906390540950017   1.000001652210000 0
ion C -11.669124324059998  22.906390540950017   1.000001652210000 0
ion C  -2.333822219190000   6.737165240310007   1.000001652210000 0
ion C   9.335305884330001  18.864097443900004   1.000001652210000 0
ion C  -7.001481775409996  22.906390540950017   1.000001652210000 0
ion C   7.001485554870008  22.906390540950017   1.000001652210000 0
ion C   2.333822219189996   6.737165240310007   1.000001652210000 0
ion C  -9.335302104869994  18.864097443900004   1.000001652210000 0
ion C  -4.667661445950001  10.779477234660009   1.000001652210000 0
ion C  -2.333820329460000  22.906390540950017   1.000001652210000 0
ion C   2.333824108919998  22.906390540950017   1.000001652210000 0
ion C  -7.001483665140000  14.821787339280013   1.000001652210000 0
ion C   4.667661445950001   2.694874032990001   1.000001652210000 0
ion C  23.338269435150011   2.694874032990001   1.000001652210000 0
ion C  14.002967330279997  18.864097443900004   1.000001652210000 0
ion C   0.000000000000000  10.779477234660009   1.000001652210000 0
ion C   4.667663335679999  18.864097443900004   1.000001652210000 0
ion C  -4.667640658919993  18.864097443900004   1.000001652210000 0
ion C  -2.333822219190001  14.821787339280013   1.000001652210000 0
ion C   2.333824108919995  14.821787339280013   1.000001652210000 0
ion C   0.000001889729999  18.864097443900004   1.000001652210000 0
ion C   9.335303994599997   2.694874032990001   1.000001652210000 0
ion C  21.004430208390001   6.737165240310007   1.000001652210000 0
ion C  11.669126213790003  14.821787339280013   1.000001652210000 0
ion C  16.336789549469998  14.821787339280013   1.000001652210000 0
ion C  18.670609878930012   2.694874032990001   1.000001652210000 0
ion C   7.001483665139997   6.737165240310007   1.000001652210000 0
ion C  14.002946543250001   2.694874032990001   1.000001652210000 0
ion C  18.670607989199997  10.779477234660009   1.000001652210000 0
ion C  11.669126213789998   6.737165240310007   1.000001652210000 0
ion C  16.336787659740001   6.737165240310007   1.000001652210000 0
ion C  14.002946543250001  10.779477234660009   1.000001652210000 0
ion N   4.667661445950002   8.084622098970000   1.000001652210000 0
ion N   2.333822219190005  12.126913306290001   1.000001652210000 0
ion N   7.001485554869994  14.821787339280013   1.000001652210000 0
ion N   9.335305884329998  10.779477234660009   1.000001652210000 0
ion Fe   5.837109518069997  11.454309266310007   1.000001652210000 0

# Forces in Cartesian coordinates:
force C   0.003998282514402  -0.000064127926510   0.000000000000000 0
force C   0.001390015574377  -0.001574319223242   0.000000000000000 0
force C   0.003898995598177  -0.001779831338730   0.000000000000000 0
force C   0.001509650588450   0.002756702307593   0.000000000000000 0
force C   0.002557441590484  -0.000443008052321   0.000000000000000 0
force C   0.005384938000043   0.002011650068456   0.000000000000000 0
force C   0.000715596631265  -0.000871844166079   0.000000000000000 0
force C  -0.000686784066956   0.001986149908556   0.000000000000000 0
force C  -0.033907558477417  -0.014106942090642   0.000000000000000 0
force C  -0.001149605294425   0.000865763427257   0.000000000000000 0
force C  -0.000465864353153  -0.000195656706756   0.000000000000000 0
force C  -0.000387853949229   0.001068760974979   0.000000000000000 0
force C   0.001915075489030   0.003568222200384   0.000000000000000 0
force C  -0.001590153411881  -0.000850280639576   0.000000000000000 0
force C   0.009988728816238   0.005754178685684   0.000000000000000 0
force C   0.003077871063709   0.002344891983638   0.000000000000000 0
force C   0.001213501727137   0.000689533992632   0.000000000000000 0
force C   0.004425723540388   0.003658964601958   0.000000000000000 0
force C   0.030562111310648   0.011371291809728   0.000000000000000 0
force C   0.000167405561260  -0.001385118400469   0.000000000000000 0
force C  -0.003947820597307   0.000987832345197   0.000000000000000 0
force C   0.003118763470148  -0.000018189215096   0.000000000000000 0
force C   0.004666697502280   0.007546016678211   0.000000000000000 0
force C   0.001382531445224   0.000797461856713   0.000000000000000 0
force C  -0.002942225276091  -0.001698008287110   0.000000000000000 0
force C   0.008859343962871   0.000283634937829   0.000000000000000 0
force C  -0.001099595958328  -0.003927239094185   0.000000000000000 0
force C   0.000886568801396   0.002485263631912   0.000000000000000 0
force C  -0.029157914950138  -0.022278447922060   0.000000000000000 0
force C   0.000400910898572   0.004255248760380   0.000000000000000 0
force C  -0.000439457876509  -0.000263463859607   0.000000000000000 0
force C   0.025127630094955   0.020753496643942   0.000000000000000 0
force C   0.003584690468865   0.001482087038615   0.000000000000000 0
force C  -0.003868185199103   0.001770476637146   0.000000000000000 0
force C  -0.004009456117319   0.000067332320518   0.000000000000000 0
force C  -0.002561798785311   0.000453076883749   0.000000000000000 0
force C   0.002967833270219   0.001709129846888   0.000000000000000 0
force C  -0.005387440536779  -0.002039085185192   0.000000000000000 0
force C   0.000477009873545   0.000218238989269   0.000000000000000 0
force C  -0.001506213581130  -0.002743707425260   0.000000000000000 0
force C   0.034004364277796   0.014187554591833   0.000000000000000 0
force C  -0.001371422198299  -0.000810021269991   0.000000000000000 0
force C  -0.000383830353597  -0.004252532145908   0.000000000000000 0
force C   0.001583402190738   0.000857811933453   0.000000000000000 0
force C   0.001146023849121  -0.000863572017596   0.000000000000000 0
force C  -0.000857835436847  -0.002495581517922   0.000000000000000 0
force C  -0.003079718232336  -0.002335177781619   0.000000000000000 0
force C  -0.000729204157170   0.000855904412523   0.000000000000000 0
force C  -0.001417104219397   0.001573528332596   0.000000000000000 0
force C   0.029272733965225   0.022356788796889   0.000000000000000 0
force C  -0.004654533556479  -0.007575291076925   0.000000000000000 0
force C   0.000422027749524   0.000251911419946   0.000000000000000 0
force C  -0.003560385074066  -0.001510155969844   0.000000000000000 0
force C  -0.025129001811874  -0.020907577982017   0.000000000000000 0
force C   0.001101270797972   0.003923524517484   0.000000000000000 0
force C   0.003947073781020  -0.001008533735112   0.000000000000000 0
force C   0.000380798725101  -0.001043157630561   0.000000000000000 0
force C  -0.010010137304519  -0.005785635351902   0.000000000000000 0
force C   0.000649337630816  -0.002009922617157   0.000000000000000 0
force C  -0.001205430096312  -0.000703735580733   0.000000000000000 0
force C  -0.030665978582037  -0.011324758389102   0.000000000000000 0
force C  -0.000150924001162   0.001383537802198   0.000000000000000 0
force C  -0.001937221993477  -0.003561901804179   0.000000000000000 0
force C  -0.008882008246038  -0.000242885331833   0.000000000000000 0
force C  -0.003132332182658   0.000039602338576   0.000000000000000 0
force C  -0.004440039244695  -0.003644321442460   0.000000000000000 0
force N   0.025796974546036  -0.028050464436537   0.000000000000000 0
force N  -0.011321138556781   0.036326359418256   0.000000000000000 0
force N  -0.025626354624223   0.028169227576861   0.000000000000000 0
force N   0.011629452094617  -0.036301755351002   0.000000000000000 0
force Fe  -0.000101406895226  -0.000490480400238   0.000000000000000 0

# Energy components:
   A_diel =       -0.0157497685859843
   Eewald =     3662.7038090246446700
       EH =     4094.5566610951545954
     Eloc =    -8492.4012472980848543
      Enl =       77.8640025584130342
      Exc =     -144.8635622193573056
 Exc_core =        3.3626682071218230
       KE =      257.6722596666593290
-------------------------------------
     Etot =     -541.1211587340350206
       TS =        0.0788253011886893
-------------------------------------
        F =     -541.1999840352236788

IonicMinimize: Iter:   0  F: -541.199984035223679  |grad|_K:  0.000e+00  alpha:  1.000e+00
IonicMinimize: Converged (|grad|_K<1.000000e-04).

#--- Lowdin population analysis ---
# oxidation-state C +0.046 +0.038 +0.042 +0.038 +0.042 +0.030 +0.040 +0.038 +0.155 +0.042 +0.040 +0.040 +0.046 +0.042 +0.014 +0.051 +0.044 +0.030 +0.135 +0.042 +0.038 +0.038 +0.036 +0.047 +0.053 +0.036 +0.038 +0.042 +0.155 +0.042 +0.040 +0.135 +0.051 +0.042 +0.046 +0.042 +0.053 +0.030 +0.040 +0.038 +0.155 +0.047 +0.042 +0.042 +0.042 +0.042 +0.051 +0.040 +0.038 +0.155 +0.036 +0.040 +0.051 +0.135 +0.038 +0.038 +0.040 +0.014 +0.038 +0.044 +0.135 +0.042 +0.047 +0.036 +0.039 +0.030
# oxidation-state N -0.132 -0.132 -0.132 -0.132
# oxidation-state Fe +0.140


Dumping 'FeN4-glyme.fillings' ... done
Dumping 'FeN4-glyme.wfns' ... done
Dumping 'FeN4-glyme.fluidState' ... done
Dumping 'FeN4-glyme.ionpos' ... done
Dumping 'FeN4-glyme.eigenvals' ... done
End date and time: Sat Sep 28 14:33:43 2024  (Duration: 0-14:38:37.68)
Done!
