
*************** JDFTx 1.7.0  ***************

Start date and time: Wed Sep 25 12:59:06 2024
Executable jdftx with command-line: -i FeN4-PC.in -o FeN4-PC.out
Running on hosts (process indices):  SimSlave (0)
Divided in process groups (process indices):  0 (0)
Resource initialization completed at t[s]:      0.00
Run totals: 1 processes, 2 threads, 0 GPUs


Input parsed successfully to the following command list (including defaults):

basis kpoint-dependent
coords-type Cartesian
core-overlap-check vector
coulomb-interaction Slab 001
coulomb-truncation-embed 0 0 1
davidson-band-ratio 1.1
dump End State
dump-name FeN4-PC.$VAR
elec-cutoff 20 100
elec-eigen-algo Davidson
elec-ex-corr gga-PBE
elec-smearing Fermi 0.01
electronic-minimize  \
	dirUpdateScheme      FletcherReeves \
	linminMethod         DirUpdateRecommended \
	nIterations          100 \
	history              15 \
	knormThreshold       0 \
	energyDiffThreshold  1e-08 \
	nEnergyDiff          2 \
	alphaTstart          1 \
	alphaTmin            1e-10 \
	updateTestStepSize   yes \
	alphaTreduceFactor   0.1 \
	alphaTincreaseFactor 3 \
	nAlphaAdjustMax      3 \
	wolfeEnergy          0.0001 \
	wolfeGradient        0.9 \
	fdTest               no
electronic-scf  \
	nIterations	50 \
	energyDiffThreshold	1e-08 \
	residualThreshold	1e-07 \
	mixFraction	0.5 \
	qMetric	0.8 \
	history	10 \
	nEigSteps	2 \
	eigDiffThreshold	1e-08 \
	mixedVariable	Density \
	qKerker	0.8 \
	qKappa	-1 \
	verbose	no \
	mixFractionMag	1.5
exchange-regularization WignerSeitzTruncated
fluid LinearPCM 298.000000 1.013250
fluid-ex-corr lda-TF lda-PZ
fluid-gummel-loop 10 1.000000e-05
fluid-minimize  \
	dirUpdateScheme      PolakRibiere \
	linminMethod         DirUpdateRecommended \
	nIterations          400 \
	history              15 \
	knormThreshold       1e-11 \
	energyDiffThreshold  0 \
	nEnergyDiff          2 \
	alphaTstart          1 \
	alphaTmin            1e-10 \
	updateTestStepSize   yes \
	alphaTreduceFactor   0.1 \
	alphaTincreaseFactor 3 \
	nAlphaAdjustMax      6 \
	wolfeEnergy          0.0001 \
	wolfeGradient        0.9 \
	fdTest               no
fluid-solvent PC 11.6429 ScalarEOS \
	epsBulk 64 \
	pMol 2.95 \
	epsInf 2.02 \
	Pvap 1.53277e-13 \
	sigmaBulk 2.88e-05 \
	Rvdw 0 \
	Res 0 \
	tauNuc 343133
forces-output-coords Positions
ion C  28.005857181630002   0.000000000000000   1.000001652210000 0
ion C  25.672025513790000   4.042310104620000   1.000001652210000 0
ion C  11.669128103520006  20.211535405260001   1.000001652210000 0
ion C   4.667680343250000   0.000000000000000   1.000001652210000 0
ion C  23.338288332449999   0.000000000000000   1.000001652210000 0
ion C   2.333822219190000   4.042310104620000   1.000001652210000 0
ion C  16.336708291080008  20.211535405260001   1.000001652210000 0
ion C  23.338191956219998   8.084622098970000   1.000001652210000 0
ion C   9.335305884329998  16.169223410910011   1.000001652210000 0
ion C   9.335322891900001   0.000000000000000   1.000001652210000 0
ion C  18.670626886499999   0.000000000000000   1.000001652210000 0
ion C  18.670539958920003  16.169223410910011   1.000001652210000 0
ion C  21.004371626759990  12.126913306290001   1.000001652210000 0
ion C  14.002984337850000   0.000000000000000   1.000001652210000 0
ion C   0.000000000000000   8.084622098970000   1.000001652210000 0
ion C   7.001485554870008  20.211535405260001   1.000001652210000 0
ion C  -7.001481775409993  20.211535405260001   1.000001652210000 0
ion C  -2.333822219189998  12.126913306290001   1.000001652210000 0
ion C   4.667663335679999  16.169223410910011   1.000001652210000 0
ion C  -2.333820329459995  20.211535405260001   1.000001652210000 0
ion C   2.333824108920002  20.211535405260001   1.000001652210000 0
ion C  -4.667659556220001  16.169223410910011   1.000001652210000 0
ion C   7.001483665139999   4.042310104620000   1.000001652210000 0
ion C  21.004430208389998   4.042310104620000   1.000001652210000 0
ion C  14.002948432980002  16.169223410910011   1.000001652210000 0
ion C   0.000001889729997  16.169223410910011   1.000001652210000 0
ion C  11.669126213789999   4.042310104620000   1.000001652210000 0
ion C  18.670609878929998   8.084622098970000   1.000001652210000 0
ion C  11.669126213789998  12.126913306290001   1.000001652210000 0
ion C  16.336787659739997  12.126913306290001   1.000001652210000 0
ion C  16.336789549470002   4.042310104620000   1.000001652210000 0
ion C   9.335303994600004   8.084622098970000   1.000001652210000 0
ion C  14.002948432980002   8.084622098970000   1.000001652210000 0
ion C   0.000000000000000   2.694874032990001   1.000001652210000 0
ion C  11.669128103520000  22.906390540950014   1.000001652210000 0
ion C -11.669124324059998  22.906390540950014   1.000001652210000 0
ion C  -2.333822219190000   6.737165240310005   1.000001652210000 0
ion C   9.335305884330001  18.864097443900004   1.000001652210000 0
ion C  -7.001481775409996  22.906390540950014   1.000001652210000 0
ion C   7.001485554870007  22.906390540950014   1.000001652210000 0
ion C   2.333822219189997   6.737165240310005   1.000001652210000 0
ion C  -9.335302104869996  18.864097443900004   1.000001652210000 0
ion C  -4.667661445950000  10.779477234660007   1.000001652210000 0
ion C  -2.333820329460000  22.906390540950014   1.000001652210000 0
ion C   2.333824108920000  22.906390540950014   1.000001652210000 0
ion C  -7.001483665140000  14.821787339280009   1.000001652210000 0
ion C   4.667661445950001   2.694874032990001   1.000001652210000 0
ion C  23.338269435150007   2.694874032990001   1.000001652210000 0
ion C  14.002967330279997  18.864097443900004   1.000001652210000 0
ion C   0.000000000000000  10.779477234660007   1.000001652210000 0
ion C   4.667663335679999  18.864097443900004   1.000001652210000 0
ion C  -4.667640658919995  18.864097443900004   1.000001652210000 0
ion C  -2.333822219190001  14.821787339280009   1.000001652210000 0
ion C   2.333824108919996  14.821787339280009   1.000001652210000 0
ion C   0.000001889729999  18.864097443900004   1.000001652210000 0
ion C   9.335303994599997   2.694874032990001   1.000001652210000 0
ion C  21.004430208390001   6.737165240310005   1.000001652210000 0
ion C  11.669126213790005  14.821787339280009   1.000001652210000 0
ion C  16.336789549469998  14.821787339280009   1.000001652210000 0
ion C  18.670609878930009   2.694874032990001   1.000001652210000 0
ion C   7.001483665139999   6.737165240310005   1.000001652210000 0
ion C  14.002946543250001   2.694874032990001   1.000001652210000 0
ion C  18.670607989199997  10.779477234660007   1.000001652210000 0
ion C  11.669126213789998   6.737165240310005   1.000001652210000 0
ion C  16.336787659740001   6.737165240310005   1.000001652210000 0
ion C  14.002946543250001  10.779477234660007   1.000001652210000 0
ion N   4.667661445950002   8.084622098970000   1.000001652210000 0
ion N   2.333822219190005  12.126913306290001   1.000001652210000 0
ion N   7.001485554869996  14.821787339280009   1.000001652210000 0
ion N   9.335305884329999  10.779477234660007   1.000001652210000 0
ion Fe   5.837109518069998  11.454309266310005   1.000001652210000 0
ion-species GBRV/$ID_pbe.uspp
ion-width Ecut
ionic-minimize  \
	dirUpdateScheme      FletcherReeves \
	linminMethod         DirUpdateRecommended \
	nIterations          200 \
	history              15 \
	knormThreshold       0.0001 \
	energyDiffThreshold  1e-06 \
	nEnergyDiff          2 \
	alphaTstart          1 \
	alphaTmin            1e-10 \
	updateTestStepSize   yes \
	alphaTreduceFactor   0.1 \
	alphaTincreaseFactor 3 \
	nAlphaAdjustMax      3 \
	wolfeEnergy          0.0001 \
	wolfeGradient        0.9 \
	fdTest               no
kpoint   0.000000000000   0.000000000000   0.000000000000  1.00000000000000
kpoint-folding 1 1 1 
latt-move-scale 1 1 1
latt-scale 1 1 1 
lattice Triclinic 28.0058 28.0058 32.1253 90 90 120
lattice-minimize  \
	dirUpdateScheme      L-BFGS \
	linminMethod         DirUpdateRecommended \
	nIterations          0 \
	history              15 \
	knormThreshold       0 \
	energyDiffThreshold  1e-06 \
	nEnergyDiff          2 \
	alphaTstart          1 \
	alphaTmin            1e-10 \
	updateTestStepSize   yes \
	alphaTreduceFactor   0.1 \
	alphaTincreaseFactor 3 \
	nAlphaAdjustMax      3 \
	wolfeEnergy          0.0001 \
	wolfeGradient        0.9 \
	fdTest               no
lcao-params -1 1e-06 0.01
pcm-variant GLSSA13
spintype no-spin
subspace-rotation-factor 1 yes
symmetries automatic
symmetry-threshold 0.0001



---------- Setting up symmetries ----------

Found 24 point-group symmetries of the bravais lattice
Found 2 space-group symmetries with basis
Applied RMS atom displacement 0 bohrs to make symmetries exact.

---------- Initializing the Grid ----------
R = 
[      28.0058     -14.0029            0  ]
[            0      24.2537            0  ]
[            0            0      32.1253  ]
unit cell volume = 21821
G =
[   0.224353    0.12953         -0  ]
[          0   0.259061          0  ]
[          0         -0   0.195584  ]
Minimum fftbox size, Smin = [  128  128  148  ]
Chosen fftbox size, S = [  128  128  150  ]

---------- Initializing tighter grid for wavefunction operations ----------
R = 
[      28.0058     -14.0029            0  ]
[            0      24.2537            0  ]
[            0            0      32.1253  ]
unit cell volume = 21821
G =
[   0.224353    0.12953         -0  ]
[          0   0.259061          0  ]
[          0         -0   0.195584  ]
Minimum fftbox size, Smin = [  116  116  132  ]
Chosen fftbox size, S = [  120  120  140  ]

---------- Exchange Correlation functional ----------
Initalized PBE GGA exchange.
Initalized PBE GGA correlation.

---------- Setting up pseudopotentials ----------
Width of ionic core gaussian charges (only for fluid interactions / plotting) set to 0.397384

Reading pseudopotential file '/home/simslave2427/jdftx_install/build/pseudopotentials/GBRV/c_pbe.uspp':
  Title: C.  Created by USPP 7.3.6 on 3-2-2014
  Reference state energy: -5.406344.  4 valence electrons in orbitals:
    |200>  occupation: 2  eigenvalue: -0.504890
    |210>  occupation: 2  eigenvalue: -0.194356
  lMax: 1  lLocal: 2  QijEcut: 5
  4 projectors sampled on a log grid with 503 points:
    l: 0  eig: -0.504890  rCut: 1.3
    l: 0  eig: 0.000000  rCut: 1.3
    l: 1  eig: -0.194357  rCut: 1.3
    l: 1  eig: 0.000000  rCut: 1.3
  Partial core density with radius 1.1
  Transforming core density to a uniform radial grid of dG=0.02 with 1618 points.
  Transforming local potential to a uniform radial grid of dG=0.02 with 1618 points.
  Transforming nonlocal projectors to a uniform radial grid of dG=0.02 with 432 points.
  Transforming density augmentations to a uniform radial grid of dG=0.02 with 1618 points.
  Transforming atomic orbitals to a uniform radial grid of dG=0.02 with 432 points.
  Core radius for overlap checks: 1.30 bohrs.

Reading pseudopotential file '/home/simslave2427/jdftx_install/build/pseudopotentials/GBRV/n_pbe.uspp':
  Title: N.  Created by USPP 7.3.6 on 3-2-2014
  Reference state energy: -9.763716.  5 valence electrons in orbitals:
    |200>  occupation: 2  eigenvalue: -0.681964
    |210>  occupation: 3  eigenvalue: -0.260726
  lMax: 1  lLocal: 2  QijEcut: 6
  4 projectors sampled on a log grid with 491 points:
    l: 0  eig: -0.681964  rCut: 1.15
    l: 0  eig: 0.000000  rCut: 1.15
    l: 1  eig: -0.260729  rCut: 1.2
    l: 1  eig: 0.500000  rCut: 1.2
  Partial core density with radius 0.8
  Transforming core density to a uniform radial grid of dG=0.02 with 1618 points.
  Transforming local potential to a uniform radial grid of dG=0.02 with 1618 points.
  Transforming nonlocal projectors to a uniform radial grid of dG=0.02 with 432 points.
  Transforming density augmentations to a uniform radial grid of dG=0.02 with 1618 points.
  Transforming atomic orbitals to a uniform radial grid of dG=0.02 with 432 points.
  Core radius for overlap checks: 1.20 bohrs.

Reading pseudopotential file '/home/simslave2427/jdftx_install/build/pseudopotentials/GBRV/fe_pbe.uspp':
  Title: Fe.  Created by USPP 7.3.6 on 15-6-15
  Reference state energy: -124.316937.  16 valence electrons in orbitals:
    |300>  occupation: 2  eigenvalue: -4.008817
    |310>  occupation: 6  eigenvalue: -2.753096
    |320>  occupation: 5  eigenvalue: -0.791264
    |400>  occupation: 2  eigenvalue: -0.516384
    |410>  occupation: 0  eigenvalue: -0.312222
  lMax: 2  lLocal: 3  QijEcut: 6
  6 projectors sampled on a log grid with 607 points:
    l: 0  eig: -4.008819  rCut: 1.55
    l: 0  eig: -0.516386  rCut: 1.55
    l: 1  eig: -2.753096  rCut: 1.55
    l: 1  eig: -0.312226  rCut: 1.55
    l: 2  eig: -0.791264  rCut: 1.65
    l: 2  eig: -0.450000  rCut: 1.65
  Partial core density with radius 0.65
  Transforming core density to a uniform radial grid of dG=0.02 with 1618 points.
  Transforming local potential to a uniform radial grid of dG=0.02 with 1618 points.
  Transforming nonlocal projectors to a uniform radial grid of dG=0.02 with 432 points.
  Transforming density augmentations to a uniform radial grid of dG=0.02 with 1618 points.
  Transforming atomic orbitals to a uniform radial grid of dG=0.02 with 432 points.
  Core radius for overlap checks: 1.65 bohrs.

Initialized 3 species with 71 total atoms.

Folded 1 k-points by 1x1x1 to 1 k-points.

---------- Setting up k-points, bands, fillings ----------
No reducable k-points. 
Computing the number of bands and number of electrons
Calculating initial fillings.
nElectrons: 300.000000   nBands: 293   nStates: 1

----- Setting up reduced wavefunction bases (one per k-point) -----
average nbasis = 93173.000 , ideal nbasis = 93220.781

---------- Setting up coulomb interaction ----------
Fluid mode embedding: using embedded box, but periodic Coulomb kernel.
(Fluid response is responsible for (approximate) separation between periodic images.)
Setting up double-sized grid for truncated Coulomb potentials:
R = 
[      28.0058     -14.0029            0  ]
[            0      24.2537            0  ]
[            0            0      64.2506  ]
unit cell volume = 43641.9
G =
[   0.224353    0.12953         -0  ]
[          0   0.259061          0  ]
[          0         -0  0.0977919  ]
Chosen fftbox size, S = [  128  128  300  ]
Integer grid location selected as the embedding center:
   Grid: [  0  0  5  ]
   Lattice: [  0  0  0.0311281  ]
   Cartesian: [  0  0  1  ]
Constructing Wigner-Seitz cell: 8 faces (6 quadrilaterals, 2 hexagons)
Range-separation parameter for embedded mesh potentials due to point charges: 0.590105 bohrs.

---------- Setting up ewald sum ----------
Optimum gaussian width for ewald sums = 6.902423 bohr.
Real space sum over 567 unit cells with max indices [  4  4  3  ]
Reciprocal space sum over 9537 terms with max indices [  8  8  16  ]

---------- Allocating electronic variables ----------
Initializing wave functions:  linear combination of atomic orbitals
C pseudo-atom occupations:   s ( 2 )  p ( 2 )
N pseudo-atom occupations:   s ( 2 )  p ( 3 )
Fe pseudo-atom occupations:   s ( 2 0 )  p ( 6 0 )  d ( 8 )
	FillingsUpdate:  mu: -0.217938460  nElectrons: 300.000000
LCAOMinimize: Iter:   0  F: -520.4699371562588794  |grad|_K:  2.522e-02  alpha:  1.000e+00
	FillingsUpdate:  mu: -0.255616865  nElectrons: 300.000000
LCAOMinimize: Iter:   1  F: -524.9884393153881774  |grad|_K:  1.422e-02  alpha:  1.356e-01  linmin: -1.666e-01  cgtest:  9.904e-01  t[s]:    427.48
LCAOMinimize: Encountered beta<0, resetting CG.
LCAOMinimize: 	Wrong curvature in test step, increasing alphaT to 4.067631e-01.
	FillingsUpdate:  mu: -0.168493913  nElectrons: 300.000000
LCAOMinimize: Iter:   2  F: -529.2993229624751166  |grad|_K:  5.370e-02  alpha: -8.265e-02  linmin:  2.189e-01  cgtest: -2.003e-01  t[s]:    561.86
LCAOMinimize: 	Bad step direction: g.d > 0.
LCAOMinimize: 	Undoing step.
LCAOMinimize: 	Step failed: resetting search direction.
	FillingsUpdate:  mu: -0.168493913  nElectrons: 300.000000
LCAOMinimize: Iter:   3  F: -529.2993229624751166  |grad|_K:  5.370e-02  alpha:  0.000e+00
LCAOMinimize: 	Step increased F by 9.563248e+00, reducing alpha to 2.225472e-02.
	FillingsUpdate:  mu: -0.165307390  nElectrons: 300.000000
LCAOMinimize: Iter:   4  F: -533.2692290652139491  |grad|_K:  2.435e-02  alpha:  2.225e-02  linmin: -1.829e-01  cgtest:  1.498e+00  t[s]:    909.47
LCAOMinimize: Encountered beta<0, resetting CG.
LCAOMinimize: 	Wrong curvature in test step, increasing alphaT to 6.676415e-02.
	FillingsUpdate:  mu: -0.212095197  nElectrons: 300.000000
LCAOMinimize: Iter:   5  F: -534.7819555804012452  |grad|_K:  3.069e-02  alpha: -3.406e-02  linmin: -3.177e-01  cgtest:  5.939e-01  t[s]:   1043.86
LCAOMinimize: 	Step increased F by 1.454687e+01, reducing alpha to 1.543135e-02.
	FillingsUpdate:  mu: -0.262809702  nElectrons: 300.000000
LCAOMinimize: Iter:   6  F: -536.5110474471734960  |grad|_K:  1.480e-02  alpha:  1.543e-02  linmin:  3.306e-01  cgtest: -5.586e-01  t[s]:   1296.17
LCAOMinimize: 	Bad step direction: g.d > 0.
LCAOMinimize: 	Undoing step.
LCAOMinimize: 	Step failed: resetting search direction.
	FillingsUpdate:  mu: -0.262809702  nElectrons: 300.000000
LCAOMinimize: Iter:   7  F: -536.5110474471734960  |grad|_K:  1.480e-02  alpha:  0.000e+00
	FillingsUpdate:  mu: -0.222071835  nElectrons: 300.000000
LCAOMinimize: Iter:   8  F: -536.7163888545121608  |grad|_K:  4.064e-03  alpha:  2.162e-02  linmin: -1.310e-02  cgtest:  2.717e-02  t[s]:   1537.34
LCAOMinimize: 	Predicted alpha/alphaT>3.000000, increasing alphaT to 6.485031e-02.
LCAOMinimize: 	Predicted alpha/alphaT>3.000000, increasing alphaT to 1.945509e-01.
	FillingsUpdate:  mu: -0.241174683  nElectrons: 300.000000
LCAOMinimize: Iter:   9  F: -536.8646660092692855  |grad|_K:  1.106e-03  alpha:  2.074e-01  linmin:  6.908e-02  cgtest: -1.659e-01  t[s]:   1761.99
	FillingsUpdate:  mu: -0.263320543  nElectrons: 300.000000
LCAOMinimize: Iter:  10  F: -536.8671321097893951  |grad|_K:  1.222e-03  alpha:  5.200e-02  linmin: -5.922e-03  cgtest:  1.675e-01  t[s]:   1907.83
	FillingsUpdate:  mu: -0.237349356  nElectrons: 300.000000
LCAOMinimize: Iter:  11  F: -536.8754877866355173  |grad|_K:  7.613e-04  alpha:  1.243e-01  linmin: -5.101e-03  cgtest: -5.356e-01  t[s]:   2053.91
	FillingsUpdate:  mu: -0.251850982  nElectrons: 300.000000
LCAOMinimize: Iter:  12  F: -536.8763441869347162  |grad|_K:  3.061e-04  alpha:  3.136e-02  linmin: -1.257e-02  cgtest: -1.070e-02  t[s]:   2199.97
LCAOMinimize: 	Predicted alpha/alphaT>3.000000, increasing alphaT to 9.408678e-02.
LCAOMinimize: 	Predicted alpha/alphaT>3.000000, increasing alphaT to 2.822603e-01.
	FillingsUpdate:  mu: -0.244560889  nElectrons: 300.000000
LCAOMinimize: Iter:  13  F: -536.8776782938494989  |grad|_K:  3.397e-04  alpha:  3.182e-01  linmin: -3.557e-04  cgtest: -4.768e-03  t[s]:   2424.23
	FillingsUpdate:  mu: -0.251600022  nElectrons: 300.000000
LCAOMinimize: Iter:  14  F: -536.8778544113647513  |grad|_K:  2.386e-04  alpha:  3.485e-02  linmin: -1.287e-03  cgtest:  6.734e-03  t[s]:   2570.00
LCAOMinimize: 	Predicted alpha/alphaT>3.000000, increasing alphaT to 1.045522e-01.
	FillingsUpdate:  mu: -0.248506999  nElectrons: 300.000000
LCAOMinimize: Iter:  15  F: -536.8781893297148144  |grad|_K:  8.932e-05  alpha:  1.349e-01  linmin: -3.328e-04  cgtest: -4.804e-02  t[s]:   2755.33
	FillingsUpdate:  mu: -0.250687861  nElectrons: 300.000000
LCAOMinimize: Iter:  16  F: -536.8782078762849324  |grad|_K:  9.745e-05  alpha:  5.346e-02  linmin: -4.445e-04  cgtest:  3.056e-03  t[s]:   2901.53
	FillingsUpdate:  mu: -0.249251784  nElectrons: 300.000000
LCAOMinimize: Iter:  17  F: -536.8782470633726689  |grad|_K:  3.891e-05  alpha:  9.494e-02  linmin: -2.341e-03  cgtest:  3.562e-02  t[s]:   3047.65
	FillingsUpdate:  mu: -0.250344681  nElectrons: 300.000000
LCAOMinimize: Iter:  18  F: -536.8782558214904839  |grad|_K:  5.887e-05  alpha:  1.334e-01  linmin:  2.829e-04  cgtest: -2.438e-03  t[s]:   3194.22
	FillingsUpdate:  mu: -0.249359376  nElectrons: 300.000000
LCAOMinimize: Iter:  19  F: -536.8782614016128036  |grad|_K:  1.787e-05  alpha:  3.748e-02  linmin:  1.146e-03  cgtest:  1.415e-02  t[s]:   3339.99
LCAOMinimize: 	Predicted alpha/alphaT>3.000000, increasing alphaT to 1.124334e-01.
	FillingsUpdate:  mu: -0.249831106  nElectrons: 300.000000
LCAOMinimize: Iter:  20  F: -536.8782656882582387  |grad|_K:  2.623e-05  alpha:  3.115e-01  linmin:  1.338e-04  cgtest:  1.002e-03  t[s]:   3524.99
	FillingsUpdate:  mu: -0.249347414  nElectrons: 300.000000
LCAOMinimize: Iter:  21  F: -536.8782665989914449  |grad|_K:  1.403e-05  alpha:  3.078e-02  linmin:  7.711e-04  cgtest: -4.795e-03  t[s]:   3671.14
LCAOMinimize: 	Predicted alpha/alphaT>3.000000, increasing alphaT to 9.235302e-02.
	FillingsUpdate:  mu: -0.249554568  nElectrons: 300.000000
LCAOMinimize: Iter:  22  F: -536.8782682361933212  |grad|_K:  6.675e-06  alpha:  1.931e-01  linmin:  4.927e-05  cgtest:  1.312e-02  t[s]:   3856.29
	FillingsUpdate:  mu: -0.249398387  nElectrons: 300.000000
LCAOMinimize: Iter:  23  F: -536.8782683275417185  |grad|_K:  6.738e-06  alpha:  4.742e-02  linmin:  7.027e-06  cgtest: -1.803e-04  t[s]:   4002.61
	FillingsUpdate:  mu: -0.249493690  nElectrons: 300.000000
LCAOMinimize: Iter:  24  F: -536.8782685247985000  |grad|_K:  2.016e-06  alpha:  1.005e-01  linmin:  1.090e-03  cgtest: -9.321e-03  t[s]:   4148.12
LCAOMinimize: Converged (|Delta F|<1.000000e-06 for 2 iters).
----- createFluidSolver() ----- (Fluid-side solver setup)
   Initializing fluid molecule 'PC'
     Net charge: 0   dipole magnitude: 0
     Initializing spherical shell mfKernel with radius 0 Bohr
     deltaS corrections:

Correction to mu due to finite nuclear width = -0.00682051
   Cavity determined by nc: 0.00098 and sigma: 0.6
   Effective cavity tension: 9.53e-06 Eh/bohr^2 to account for cavitation and dispersion.


---- Citations for features of the code used in this run ----

   Software package:
      R. Sundararaman, K. Letchworth-Weaver, K.A. Schwarz, D. Gunceler, Y. Ozhabes and T.A. Arias, 'JDFTx: software for joint density-functional theory', SoftwareX 6, 278 (2017)

   gga-PBE exchange-correlation functional:
      J.P. Perdew, K. Burke and M. Ernzerhof, Phys. Rev. Lett. 77, 3865 (1996)

   Pseudopotentials:
      KF Garrity, JW Bennett, KM Rabe and D Vanderbilt, Comput. Mater. Sci. 81, 446 (2014)

   Truncated Coulomb potentials:
      R. Sundararaman and T.A. Arias, Phys. Rev. B 87, 165122 (2013)

   Linear/nonlinear dielectric/ionic fluid model with effective cavity tension:
      D. Gunceler, K. Letchworth-Weaver, R. Sundararaman, K.A. Schwarz and T.A. Arias, Modelling Simul. Mater. Sci. Eng. 21, 074005 (2013)

This list may not be complete. Please suggest additional citations or
report any other bugs at https://github.com/shankar1729/jdftx/issues

Initialization completed successfully at t[s]:   4223.56

Fluid solver invoked on fresh (random / LCAO) wavefunctions
Running a vacuum solve first:

-------- Initial electronic minimization -----------
Will mix electronic density at each iteration.
	FillingsUpdate:  mu: -0.249493690  nElectrons: 300.000000
	FillingsUpdate:  mu: -0.262415609  nElectrons: 300.000000
SCF: Cycle:  0   F: -540.467174882106292   dF: -3.589e+00   |Residual|: 9.643e-01   |deigs|: 1.131e-01  t[s]:   4848.06
	FillingsUpdate:  mu: -0.242374605  nElectrons: 300.000000
SCF: Cycle:  1   F: -539.044651911077608   dF: +1.423e+00   |Residual|: 8.740e-01   |deigs|: 3.608e-02  t[s]:   5400.65
	FillingsUpdate:  mu: -0.175520361  nElectrons: 300.000000
SCF: Cycle:  2   F: -529.960921151939488   dF: +9.084e+00   |Residual|: 1.931e+00   |deigs|: 3.878e-02  t[s]:   5953.49
	FillingsUpdate:  mu: -0.199755695  nElectrons: 300.000000
SCF: Cycle:  3   F: -540.359795586368477   dF: -1.040e+01   |Residual|: 4.303e-01   |deigs|: 3.682e-02  t[s]:   6506.20
	FillingsUpdate:  mu: -0.185381648  nElectrons: 300.000000
SCF: Cycle:  4   F: -541.160680741405713   dF: -8.009e-01   |Residual|: 1.838e-01   |deigs|: 8.742e-03  t[s]:   7063.39
	FillingsUpdate:  mu: -0.187551538  nElectrons: 300.000000
SCF: Cycle:  5   F: -540.971322161603211   dF: +1.894e-01   |Residual|: 2.158e-01   |deigs|: 3.258e-03  t[s]:   7615.43
	FillingsUpdate:  mu: -0.170072682  nElectrons: 300.000000
SCF: Cycle:  6   F: -541.154465045544953   dF: -1.831e-01   |Residual|: 1.346e-01   |deigs|: 1.077e-02  t[s]:   8169.14
	FillingsUpdate:  mu: -0.169141243  nElectrons: 300.000000
SCF: Cycle:  7   F: -540.995025990363843   dF: +1.594e-01   |Residual|: 2.595e-01   |deigs|: 6.065e-03  t[s]:   8722.41
	FillingsUpdate:  mu: -0.160097671  nElectrons: 300.000000
SCF: Cycle:  8   F: -541.162657369405679   dF: -1.676e-01   |Residual|: 7.524e-02   |deigs|: 4.369e-03  t[s]:   9274.91
	FillingsUpdate:  mu: -0.151722060  nElectrons: 300.000000
SCF: Cycle:  9   F: -541.181592733479079   dF: -1.894e-02   |Residual|: 5.091e-02   |deigs|: 8.421e-03  t[s]:   9828.68
	FillingsUpdate:  mu: -0.148015687  nElectrons: 300.000000
SCF: Cycle: 10   F: -541.183240529935347   dF: -1.648e-03   |Residual|: 3.212e-02   |deigs|: 4.228e-03  t[s]:  10338.91
	FillingsUpdate:  mu: -0.144052026  nElectrons: 300.000000
SCF: Cycle: 11   F: -541.175010321772220   dF: +8.230e-03   |Residual|: 5.676e-02   |deigs|: 4.960e-03  t[s]:  10891.48
	FillingsUpdate:  mu: -0.140007616  nElectrons: 300.000000
SCF: Cycle: 12   F: -541.177875323424473   dF: -2.865e-03   |Residual|: 4.717e-02   |deigs|: 3.771e-03  t[s]:  11358.85
	FillingsUpdate:  mu: -0.134938181  nElectrons: 300.000000
SCF: Cycle: 13   F: -541.184267835404967   dF: -6.393e-03   |Residual|: 1.079e-02   |deigs|: 4.238e-03  t[s]:  11837.37
	FillingsUpdate:  mu: -0.130486194  nElectrons: 300.000000
SCF: Cycle: 14   F: -541.184480044296038   dF: -2.122e-04   |Residual|: 8.440e-03   |deigs|: 4.111e-03  t[s]:  12304.46
	FillingsUpdate:  mu: -0.125201966  nElectrons: 300.000000
SCF: Cycle: 15   F: -541.184539260311567   dF: -5.922e-05   |Residual|: 6.148e-03   |deigs|: 4.900e-03  t[s]:  12771.93
	FillingsUpdate:  mu: -0.121513068  nElectrons: 300.000000
SCF: Cycle: 16   F: -541.184396576084623   dF: +1.427e-04   |Residual|: 9.375e-03   |deigs|: 3.801e-03  t[s]:  13241.24
	FillingsUpdate:  mu: -0.118891063  nElectrons: 300.000000
SCF: Cycle: 17   F: -541.184601018152762   dF: -2.044e-04   |Residual|: 3.034e-03   |deigs|: 2.562e-03  t[s]:  13709.74
	FillingsUpdate:  mu: -0.116600852  nElectrons: 300.000000
SCF: Cycle: 18   F: -541.184562832687448   dF: +3.819e-05   |Residual|: 3.814e-03   |deigs|: 2.743e-03  t[s]:  14176.97
	FillingsUpdate:  mu: -0.116216269  nElectrons: 300.000000
SCF: Cycle: 19   F: -541.184606190628074   dF: -4.336e-05   |Residual|: 6.744e-04   |deigs|: 1.192e-03  t[s]:  14644.51
	FillingsUpdate:  mu: -0.116013957  nElectrons: 300.000000
SCF: Cycle: 20   F: -541.184606408693412   dF: -2.181e-07   |Residual|: 4.015e-04   |deigs|: 1.630e-03  t[s]:  15111.97
	FillingsUpdate:  mu: -0.116041847  nElectrons: 300.000000
SCF: Cycle: 21   F: -541.184606157601820   dF: +2.511e-07   |Residual|: 4.604e-04   |deigs|: 4.198e-04  t[s]:  15578.80
	FillingsUpdate:  mu: -0.116063201  nElectrons: 300.000000
SCF: Cycle: 22   F: -541.184606578341914   dF: -4.207e-07   |Residual|: 4.021e-04   |deigs|: 3.289e-04  t[s]:  16046.65
	FillingsUpdate:  mu: -0.116042218  nElectrons: 300.000000
SCF: Cycle: 23   F: -541.184606999072457   dF: -4.207e-07   |Residual|: 2.260e-04   |deigs|: 4.856e-04  t[s]:  16516.21
	FillingsUpdate:  mu: -0.115981731  nElectrons: 300.000000
SCF: Cycle: 24   F: -541.184607170896925   dF: -1.718e-07   |Residual|: 1.515e-04   |deigs|: 8.893e-04  t[s]:  16983.21
	FillingsUpdate:  mu: -0.115964129  nElectrons: 300.000000
SCF: Cycle: 25   F: -541.184607253164813   dF: -8.227e-08   |Residual|: 8.803e-05   |deigs|: 5.010e-04  t[s]:  17450.99
	FillingsUpdate:  mu: -0.115936809  nElectrons: 300.000000
SCF: Cycle: 26   F: -541.184607258244114   dF: -5.079e-09   |Residual|: 9.926e-05   |deigs|: 1.705e-04  t[s]:  17918.88
	FillingsUpdate:  mu: -0.115924699  nElectrons: 300.000000
SCF: Cycle: 27   F: -541.184607299218328   dF: -4.097e-08   |Residual|: 2.717e-05   |deigs|: 1.552e-04  t[s]:  18386.47
	FillingsUpdate:  mu: -0.115918662  nElectrons: 300.000000
SCF: Cycle: 28   F: -541.184607305135955   dF: -5.918e-09   |Residual|: 1.575e-05   |deigs|: 1.403e-04  t[s]:  18853.21
	FillingsUpdate:  mu: -0.115913553  nElectrons: 300.000000
SCF: Cycle: 29   F: -541.184607306124803   dF: -9.888e-10   |Residual|: 1.131e-05   |deigs|: 1.150e-04  t[s]:  19320.91
SCF: Converged (|Delta E|<1.000000e-08 for 2 iters).

Setting wave functions to eigenvectors of Hamiltonian
Vacuum energy after initial minimize, F = -541.184607306124803


-------- Electronic minimization -----------
Will mix electronic density at each iteration.
	FillingsUpdate:  mu: -0.115913553  nElectrons: 300.000000
	Linear fluid (dielectric constant: 64) occupying 0.887775 of unit cell:	Completed after 35 iterations at t[s]:  19393.16
	FillingsUpdate:  mu: -0.110564800  nElectrons: 300.000000
	Linear fluid (dielectric constant: 64) occupying 0.887407 of unit cell:	Completed after 21 iterations at t[s]:  19958.63
SCF: Cycle:  0   F: -541.176259991287679   dF: +8.762e-03   |Residual|: 5.243e-02   |deigs|: 1.898e-04  t[s]:  19960.21
	Linear fluid (dielectric constant: 64) occupying 0.887650 of unit cell:	Completed after 21 iterations at t[s]:  19973.17
	FillingsUpdate:  mu: -0.098293187  nElectrons: 300.000000
	Linear fluid (dielectric constant: 64) occupying 0.887210 of unit cell:	Completed after 30 iterations at t[s]:  20543.57
SCF: Cycle:  1   F: -540.310493811126321   dF: +8.658e-01   |Residual|: 5.516e-01   |deigs|: 4.780e-03  t[s]:  20545.07
	Linear fluid (dielectric constant: 64) occupying 0.887659 of unit cell:	Completed after 30 iterations at t[s]:  20563.25
	FillingsUpdate:  mu: -0.109775132  nElectrons: 300.000000
	Linear fluid (dielectric constant: 64) occupying 0.887394 of unit cell:	Completed after 17 iterations at t[s]:  21126.61
SCF: Cycle:  2   F: -541.185307856126087   dF: -8.748e-01   |Residual|: 7.488e-03   |deigs|: 4.394e-03  t[s]:  21128.28
	Linear fluid (dielectric constant: 64) occupying 0.887600 of unit cell:	Completed after 17 iterations at t[s]:  21140.42
	FillingsUpdate:  mu: -0.109734105  nElectrons: 300.000000
	Linear fluid (dielectric constant: 64) occupying 0.887396 of unit cell:	Completed after 17 iterations at t[s]:  21630.89
SCF: Cycle:  3   F: -541.185469121512483   dF: -1.613e-04   |Residual|: 2.603e-03   |deigs|: 2.493e-04  t[s]:  21632.68
	Linear fluid (dielectric constant: 64) occupying 0.887487 of unit cell:	Completed after 14 iterations at t[s]:  21642.94
	FillingsUpdate:  mu: -0.109942898  nElectrons: 300.000000
	Linear fluid (dielectric constant: 64) occupying 0.887406 of unit cell:	Completed after 14 iterations at t[s]:  22118.97
SCF: Cycle:  4   F: -541.185339548036950   dF: +1.296e-04   |Residual|: 7.397e-03   |deigs|: 3.620e-04  t[s]:  22120.59
	Linear fluid (dielectric constant: 64) occupying 0.887450 of unit cell:	Completed after 14 iterations at t[s]:  22131.06
	FillingsUpdate:  mu: -0.109947464  nElectrons: 300.000000
	Linear fluid (dielectric constant: 64) occupying 0.887407 of unit cell:	Completed after 14 iterations at t[s]:  22464.27
SCF: Cycle:  5   F: -541.185402688066915   dF: -6.314e-05   |Residual|: 5.544e-03   |deigs|: 1.073e-04  t[s]:  22466.01
	Linear fluid (dielectric constant: 64) occupying 0.887382 of unit cell:	Completed after 12 iterations at t[s]:  22475.17
	FillingsUpdate:  mu: -0.109963168  nElectrons: 300.000000
	Linear fluid (dielectric constant: 64) occupying 0.887407 of unit cell:	Completed after 10 iterations at t[s]:  22806.31
SCF: Cycle:  6   F: -541.185469964909203   dF: -6.728e-05   |Residual|: 2.933e-03   |deigs|: 1.748e-04  t[s]:  22808.01
	Linear fluid (dielectric constant: 64) occupying 0.887365 of unit cell:	Completed after 10 iterations at t[s]:  22815.47
	FillingsUpdate:  mu: -0.109961773  nElectrons: 300.000000
	Linear fluid (dielectric constant: 64) occupying 0.887406 of unit cell:	Completed after 6 iterations at t[s]:  23144.77
SCF: Cycle:  7   F: -541.185489084050005   dF: -1.912e-05   |Residual|: 1.534e-03   |deigs|: 1.341e-04  t[s]:  23146.55
	Linear fluid (dielectric constant: 64) occupying 0.887364 of unit cell:	Completed after 4 iterations at t[s]:  23151.25
	FillingsUpdate:  mu: -0.109929216  nElectrons: 300.000000
	Linear fluid (dielectric constant: 64) occupying 0.887403 of unit cell:	Completed after 4 iterations at t[s]:  23622.68
SCF: Cycle:  8   F: -541.185493682935089   dF: -4.599e-06   |Residual|: 1.091e-03   |deigs|: 2.748e-04  t[s]:  23624.40
	Linear fluid (dielectric constant: 64) occupying 0.887370 of unit cell:	Completed after 4 iterations at t[s]:  23628.73
	FillingsUpdate:  mu: -0.110063410  nElectrons: 300.000000
	Linear fluid (dielectric constant: 64) occupying 0.887404 of unit cell:	Completed after 11 iterations at t[s]:  24104.00
SCF: Cycle:  9   F: -541.185410829175339   dF: +8.285e-05   |Residual|: 5.438e-03   |deigs|: 3.038e-04  t[s]:  24105.82
	Linear fluid (dielectric constant: 64) occupying 0.887376 of unit cell:	Completed after 12 iterations at t[s]:  24114.71
	FillingsUpdate:  mu: -0.109927973  nElectrons: 300.000000
	Linear fluid (dielectric constant: 64) occupying 0.887402 of unit cell:	Completed after 8 iterations at t[s]:  24445.18
SCF: Cycle: 10   F: -541.185482997545364   dF: -7.217e-05   |Residual|: 2.278e-03   |deigs|: 2.062e-04  t[s]:  24446.88
	Linear fluid (dielectric constant: 64) occupying 0.887386 of unit cell:	Completed after 8 iterations at t[s]:  24453.90
	FillingsUpdate:  mu: -0.109953379  nElectrons: 300.000000
	Linear fluid (dielectric constant: 64) occupying 0.887402 of unit cell:	Completed after 4 iterations at t[s]:  24780.79
SCF: Cycle: 11   F: -541.185490319445989   dF: -7.322e-06   |Residual|: 1.726e-03   |deigs|: 1.845e-04  t[s]:  24782.47
	Linear fluid (dielectric constant: 64) occupying 0.887390 of unit cell:	Completed after 4 iterations at t[s]:  24786.83
	FillingsUpdate:  mu: -0.109975009  nElectrons: 300.000000
	Linear fluid (dielectric constant: 64) occupying 0.887402 of unit cell:	Completed after 2 iterations at t[s]:  25112.61
SCF: Cycle: 12   F: -541.185497937312562   dF: -7.618e-06   |Residual|: 2.638e-04   |deigs|: 1.310e-04  t[s]:  25114.42
	Linear fluid (dielectric constant: 64) occupying 0.887401 of unit cell:	Completed after 3 iterations at t[s]:  25118.52
	FillingsUpdate:  mu: -0.109940737  nElectrons: 300.000000
	Linear fluid (dielectric constant: 64) occupying 0.887402 of unit cell:	Completed after 8 iterations at t[s]:  25591.47
SCF: Cycle: 13   F: -541.185488764616593   dF: +9.173e-06   |Residual|: 1.812e-03   |deigs|: 3.035e-04  t[s]:  25593.22
	Linear fluid (dielectric constant: 64) occupying 0.887403 of unit cell:	Completed after 8 iterations at t[s]:  25600.24
	FillingsUpdate:  mu: -0.109956252  nElectrons: 300.000000
	Linear fluid (dielectric constant: 64) occupying 0.887403 of unit cell:	Completed after 4 iterations at t[s]:  26070.09
SCF: Cycle: 14   F: -541.185494824604234   dF: -6.060e-06   |Residual|: 1.130e-03   |deigs|: 1.244e-04  t[s]:  26071.77
	Linear fluid (dielectric constant: 64) occupying 0.887403 of unit cell:	Completed after 4 iterations at t[s]:  26076.49
	FillingsUpdate:  mu: -0.109996943  nElectrons: 300.000000
	Linear fluid (dielectric constant: 64) occupying 0.887403 of unit cell:	Completed after 7 iterations at t[s]:  26550.44
SCF: Cycle: 15   F: -541.185492806859315   dF: +2.018e-06   |Residual|: 1.392e-03   |deigs|: 2.002e-04  t[s]:  26552.15
	Linear fluid (dielectric constant: 64) occupying 0.887401 of unit cell:	Completed after 4 iterations at t[s]:  26556.68
	FillingsUpdate:  mu: -0.109944675  nElectrons: 300.000000
	Linear fluid (dielectric constant: 64) occupying 0.887403 of unit cell:	Completed after 8 iterations at t[s]:  27030.20
SCF: Cycle: 16   F: -541.185493826918787   dF: -1.020e-06   |Residual|: 1.046e-03   |deigs|: 9.723e-05  t[s]:  27031.97
	Linear fluid (dielectric constant: 64) occupying 0.887401 of unit cell:	Completed after 7 iterations at t[s]:  27038.40
	FillingsUpdate:  mu: -0.110001261  nElectrons: 300.000000
	Linear fluid (dielectric constant: 64) occupying 0.887404 of unit cell:	Completed after 8 iterations at t[s]:  27513.02
SCF: Cycle: 17   F: -541.185491727720432   dF: +2.099e-06   |Residual|: 1.450e-03   |deigs|: 5.969e-05  t[s]:  27514.86
	Linear fluid (dielectric constant: 64) occupying 0.887399 of unit cell:	Completed after 8 iterations at t[s]:  27521.62
	FillingsUpdate:  mu: -0.109981838  nElectrons: 300.000000
	Linear fluid (dielectric constant: 64) occupying 0.887404 of unit cell:	Completed after 3 iterations at t[s]:  27990.91
SCF: Cycle: 18   F: -541.185496872567910   dF: -5.145e-06   |Residual|: 7.421e-04   |deigs|: 1.512e-04  t[s]:  27992.49
	Linear fluid (dielectric constant: 64) occupying 0.887399 of unit cell:	Completed after 3 iterations at t[s]:  27996.51
	FillingsUpdate:  mu: -0.109970550  nElectrons: 300.000000
	Linear fluid (dielectric constant: 64) occupying 0.887403 of unit cell:	Completed after 0 iterations at t[s]:  28321.97
SCF: Cycle: 19   F: -541.185498378732404   dF: -1.506e-06   |Residual|: 9.640e-05   |deigs|: 1.140e-04  t[s]:  28323.47
	Linear fluid (dielectric constant: 64) occupying 0.887400 of unit cell:	Completed after 0 iterations at t[s]:  28325.18
	FillingsUpdate:  mu: -0.109970719  nElectrons: 300.000000
	Linear fluid (dielectric constant: 64) occupying 0.887403 of unit cell:	Completed after 0 iterations at t[s]:  28793.14
SCF: Cycle: 20   F: -541.185498380168156   dF: -1.436e-09   |Residual|: 9.137e-05   |deigs|: 9.322e-05  t[s]:  28794.99
	Linear fluid (dielectric constant: 64) occupying 0.887401 of unit cell:	Completed after 0 iterations at t[s]:  28796.96
	FillingsUpdate:  mu: -0.109970923  nElectrons: 300.000000
	Linear fluid (dielectric constant: 64) occupying 0.887403 of unit cell:	Completed after 0 iterations at t[s]:  29274.14
SCF: Cycle: 21   F: -541.185498381898924   dF: -1.731e-09   |Residual|: 9.366e-05   |deigs|: 1.824e-04  t[s]:  29275.86
SCF: Converged (|Delta E|<1.000000e-08 for 2 iters).

Setting wave functions to eigenvectors of Hamiltonian
Single-point solvation energy estimate, DeltaF = -0.000891075774121

# Ionic positions in cartesian coordinates:
ion C  28.005857181630002   0.000000000000000   1.000001652210000 0
ion C  25.672025513790000   4.042310104620000   1.000001652210000 0
ion C  11.669128103520006  20.211535405260001   1.000001652210000 0
ion C   4.667680343250000   0.000000000000000   1.000001652210000 0
ion C  23.338288332449999   0.000000000000000   1.000001652210000 0
ion C   2.333822219190000   4.042310104620000   1.000001652210000 0
ion C  16.336708291080008  20.211535405260001   1.000001652210000 0
ion C  23.338191956219998   8.084622098970000   1.000001652210000 0
ion C   9.335305884329998  16.169223410910011   1.000001652210000 0
ion C   9.335322891900001   0.000000000000000   1.000001652210000 0
ion C  18.670626886499999   0.000000000000000   1.000001652210000 0
ion C  18.670539958920003  16.169223410910011   1.000001652210000 0
ion C  21.004371626759990  12.126913306290001   1.000001652210000 0
ion C  14.002984337850000   0.000000000000000   1.000001652210000 0
ion C   0.000000000000000   8.084622098970000   1.000001652210000 0
ion C   7.001485554870008  20.211535405260001   1.000001652210000 0
ion C  -7.001481775409993  20.211535405260001   1.000001652210000 0
ion C  -2.333822219189998  12.126913306290001   1.000001652210000 0
ion C   4.667663335679999  16.169223410910011   1.000001652210000 0
ion C  -2.333820329459995  20.211535405260001   1.000001652210000 0
ion C   2.333824108920002  20.211535405260001   1.000001652210000 0
ion C  -4.667659556220001  16.169223410910011   1.000001652210000 0
ion C   7.001483665139999   4.042310104620000   1.000001652210000 0
ion C  21.004430208389998   4.042310104620000   1.000001652210000 0
ion C  14.002948432980002  16.169223410910011   1.000001652210000 0
ion C   0.000001889729997  16.169223410910011   1.000001652210000 0
ion C  11.669126213789999   4.042310104620000   1.000001652210000 0
ion C  18.670609878929998   8.084622098970000   1.000001652210000 0
ion C  11.669126213789998  12.126913306290001   1.000001652210000 0
ion C  16.336787659739997  12.126913306290001   1.000001652210000 0
ion C  16.336789549470002   4.042310104620000   1.000001652210000 0
ion C   9.335303994600004   8.084622098970000   1.000001652210000 0
ion C  14.002948432980002   8.084622098970000   1.000001652210000 0
ion C   0.000000000000000   2.694874032990001   1.000001652210000 0
ion C  11.669128103520000  22.906390540950014   1.000001652210000 0
ion C -11.669124324059998  22.906390540950014   1.000001652210000 0
ion C  -2.333822219190000   6.737165240310005   1.000001652210000 0
ion C   9.335305884330001  18.864097443900004   1.000001652210000 0
ion C  -7.001481775409996  22.906390540950014   1.000001652210000 0
ion C   7.001485554870007  22.906390540950014   1.000001652210000 0
ion C   2.333822219189997   6.737165240310005   1.000001652210000 0
ion C  -9.335302104869996  18.864097443900004   1.000001652210000 0
ion C  -4.667661445950000  10.779477234660007   1.000001652210000 0
ion C  -2.333820329460000  22.906390540950014   1.000001652210000 0
ion C   2.333824108920000  22.906390540950014   1.000001652210000 0
ion C  -7.001483665140000  14.821787339280009   1.000001652210000 0
ion C   4.667661445950001   2.694874032990001   1.000001652210000 0
ion C  23.338269435150007   2.694874032990001   1.000001652210000 0
ion C  14.002967330279997  18.864097443900004   1.000001652210000 0
ion C   0.000000000000000  10.779477234660007   1.000001652210000 0
ion C   4.667663335679999  18.864097443900004   1.000001652210000 0
ion C  -4.667640658919995  18.864097443900004   1.000001652210000 0
ion C  -2.333822219190001  14.821787339280009   1.000001652210000 0
ion C   2.333824108919996  14.821787339280009   1.000001652210000 0
ion C   0.000001889729999  18.864097443900004   1.000001652210000 0
ion C   9.335303994599997   2.694874032990001   1.000001652210000 0
ion C  21.004430208390001   6.737165240310005   1.000001652210000 0
ion C  11.669126213790005  14.821787339280009   1.000001652210000 0
ion C  16.336789549469998  14.821787339280009   1.000001652210000 0
ion C  18.670609878930009   2.694874032990001   1.000001652210000 0
ion C   7.001483665139999   6.737165240310005   1.000001652210000 0
ion C  14.002946543250001   2.694874032990001   1.000001652210000 0
ion C  18.670607989199997  10.779477234660007   1.000001652210000 0
ion C  11.669126213789998   6.737165240310005   1.000001652210000 0
ion C  16.336787659740001   6.737165240310005   1.000001652210000 0
ion C  14.002946543250001  10.779477234660007   1.000001652210000 0
ion N   4.667661445950002   8.084622098970000   1.000001652210000 0
ion N   2.333822219190005  12.126913306290001   1.000001652210000 0
ion N   7.001485554869996  14.821787339280009   1.000001652210000 0
ion N   9.335305884329999  10.779477234660007   1.000001652210000 0
ion Fe   5.837109518069998  11.454309266310005   1.000001652210000 0

# Forces in Cartesian coordinates:
force C   0.004002931461536  -0.000043542074994   0.000000000000000 0
force C   0.001438937508978  -0.001534118995080   0.000000000000000 0
force C   0.003808639056565  -0.001813034284393   0.000000000000000 0
force C   0.001457991252980   0.002890934765301   0.000000000000000 0
force C   0.002594036851140  -0.000473792115190   0.000000000000000 0
force C   0.005442243686049   0.002054707247815   0.000000000000000 0
force C   0.000739853342139  -0.000846170432673   0.000000000000000 0
force C  -0.000612292844461   0.002011772624077   0.000000000000000 0
force C  -0.033465292672366  -0.013604751159230   0.000000000000000 0
force C  -0.001153334362599   0.000833567809547   0.000000000000000 0
force C  -0.000467055163529  -0.000179429716338   0.000000000000000 0
force C  -0.000363416844579   0.001064542601886   0.000000000000000 0
force C   0.001936760255430   0.003538896209095   0.000000000000000 0
force C  -0.001536307679374  -0.000828147789568   0.000000000000000 0
force C   0.010072296877878   0.005804643303491   0.000000000000000 0
force C   0.003121698827991   0.002290156913345   0.000000000000000 0
force C   0.001242922736673   0.000702363056296   0.000000000000000 0
force C   0.004500804837128   0.003674941318172   0.000000000000000 0
force C   0.029954306249551   0.011627511246068   0.000000000000000 0
force C   0.000133947267239  -0.001380276055852   0.000000000000000 0
force C  -0.003868066456194   0.000896835594870   0.000000000000000 0
force C   0.003226194805290  -0.000132390719314   0.000000000000000 0
force C   0.004578536617427   0.007660831967379   0.000000000000000 0
force C   0.001410497052467   0.000804970576524   0.000000000000000 0
force C  -0.002885991250923  -0.001671781965149   0.000000000000000 0
force C   0.008926674250055   0.000132194110691   0.000000000000000 0
force C  -0.001148181572883  -0.003811346092688   0.000000000000000 0
force C   0.000875876882469   0.002524078302932   0.000000000000000 0
force C  -0.028509727299553  -0.022172722514676   0.000000000000000 0
force C   0.000336663192143   0.004193729977792   0.000000000000000 0
force C  -0.000407497879254  -0.000276696985507   0.000000000000000 0
force C   0.025064057955424   0.020099801284995   0.000000000000000 0
force C   0.003560703020438   0.001541573312896   0.000000000000000 0
force C  -0.003781875360252   0.001800264221510   0.000000000000000 0
force C  -0.004006986916151   0.000054205851874   0.000000000000000 0
force C  -0.002588291594351   0.000487952984034   0.000000000000000 0
force C   0.002915861456248   0.001686708724970   0.000000000000000 0
force C  -0.005443711322405  -0.002088559752418   0.000000000000000 0
force C   0.000461560545160   0.000188588852308   0.000000000000000 0
force C  -0.001471798228271  -0.002888389677532   0.000000000000000 0
force C   0.033558579104658   0.013676931024136   0.000000000000000 0
force C  -0.001395407776405  -0.000816308326366   0.000000000000000 0
force C  -0.000319322842155  -0.004187479831454   0.000000000000000 0
force C   0.001535294428056   0.000843262729237   0.000000000000000 0
force C   0.001158904646976  -0.000825480136742   0.000000000000000 0
force C  -0.000851153631264  -0.002538955622312   0.000000000000000 0
force C  -0.003131227626337  -0.002280158040926   0.000000000000000 0
force C  -0.000747835037129   0.000844411608676   0.000000000000000 0
force C  -0.001466172586040   0.001527616761082   0.000000000000000 0
force C   0.028608640196454   0.022241892897636   0.000000000000000 0
force C  -0.004563435776521  -0.007689274495567   0.000000000000000 0
force C   0.000391244717829   0.000258926530315   0.000000000000000 0
force C  -0.003544804924106  -0.001567501290083   0.000000000000000 0
force C  -0.025057573289294  -0.020237102197498   0.000000000000000 0
force C   0.001149182909815   0.003801508088013   0.000000000000000 0
force C   0.003871149433287  -0.000906070350923   0.000000000000000 0
force C   0.000353740593481  -0.001046106337343   0.000000000000000 0
force C  -0.010100301737525  -0.005835499785057   0.000000000000000 0
force C   0.000585568427416  -0.002019186026263   0.000000000000000 0
force C  -0.001242065407112  -0.000715171748809   0.000000000000000 0
force C  -0.030050127386966  -0.011590377593342   0.000000000000000 0
force C  -0.000120659951103   0.001374429358735   0.000000000000000 0
force C  -0.001949212830086  -0.003528614532643   0.000000000000000 0
force C  -0.008941251454160  -0.000091777716289   0.000000000000000 0
force C  -0.003237980877092   0.000145704411406   0.000000000000000 0
force C  -0.004525828315099  -0.003664850900679   0.000000000000000 0
force N   0.025681836438023  -0.027871391510234   0.000000000000000 0
force N  -0.011238923007043   0.036144395863169   0.000000000000000 0
force N  -0.025489432347818   0.028005555717799   0.000000000000000 0
force N   0.011543854702304  -0.036097649217627   0.000000000000000 0
force Fe   0.000065444567765  -0.000026795197235   0.000000000000000 0

# Energy components:
   A_diel =       -0.0014761806123889
   Eewald =     3662.7038090246446700
       EH =     4094.3402338321993739
     Eloc =    -8492.1703182196579291
      Enl =       77.8656383128838172
      Exc =     -144.8523252393777909
 Exc_core =        3.3626682071218217
       KE =      257.6448737183071103
-------------------------------------
     Etot =     -541.1068965444917467
       TS =        0.0786018374071866
-------------------------------------
        F =     -541.1854983818989240

IonicMinimize: Iter:   0  F: -541.185498381898924  |grad|_K:  0.000e+00  alpha:  1.000e+00
IonicMinimize: Converged (|grad|_K<1.000000e-04).

#--- Lowdin population analysis ---
# oxidation-state C +0.047 +0.037 +0.042 +0.038 +0.041 +0.032 +0.040 +0.037 +0.157 +0.041 +0.039 +0.040 +0.047 +0.041 +0.014 +0.053 +0.044 +0.032 +0.136 +0.041 +0.037 +0.038 +0.037 +0.047 +0.053 +0.037 +0.037 +0.041 +0.156 +0.042 +0.039 +0.136 +0.053 +0.042 +0.047 +0.041 +0.053 +0.032 +0.039 +0.038 +0.157 +0.047 +0.042 +0.041 +0.041 +0.041 +0.053 +0.040 +0.037 +0.157 +0.037 +0.039 +0.053 +0.136 +0.037 +0.037 +0.040 +0.014 +0.037 +0.044 +0.136 +0.041 +0.047 +0.037 +0.038 +0.032
# oxidation-state N -0.137 -0.137 -0.137 -0.137
# oxidation-state Fe +0.132


Dumping 'FeN4-PC.fillings' ... done
Dumping 'FeN4-PC.wfns' ... done
Dumping 'FeN4-PC.fluidState' ... done
Dumping 'FeN4-PC.ionpos' ... done
Dumping 'FeN4-PC.eigenvals' ... done
End date and time: Wed Sep 25 21:10:28 2024  (Duration: 0-8:11:21.99)
Done!
