
*************** JDFTx 1.7.0  ***************

Start date and time: Wed Jan 15 17:44:50 2025
Executable jdftx_gpu with command-line: -i /home/akim2/JDFTx/FeN4-glyme-vdw/FeN4-glyme-vdw.in -o /home/akim2/JDFTx/FeN4-glyme-vdw/FeN4-glyme-vdw.out
Running on hosts (process indices):  exp-2-57 (0)
Divided in process groups (process indices):  0 (0)
gpuInit: Found compatible cuda device 0 'Tesla V100-SXM2-32GB'
gpuInit: Selected device 0
Resource initialization completed at t[s]:      0.58
Run totals: 1 processes, 1 threads, 1 GPUs


Input parsed successfully to the following command list (including defaults):

basis kpoint-dependent
coords-type Cartesian
core-overlap-check vector
coulomb-interaction Slab 001
coulomb-truncation-embed 0 0 1
davidson-band-ratio 1.1
dump End State
dump-name FeN4-glyme-vdw.$VAR
elec-cutoff 20 100
elec-eigen-algo Davidson
elec-ex-corr gga-PBE
elec-smearing Fermi 0.01
electronic-minimize  \
	dirUpdateScheme      FletcherReeves \
	linminMethod         DirUpdateRecommended \
	nIterations          100 \
	history              15 \
	knormThreshold       0 \
	energyDiffThreshold  1e-08 \
	nEnergyDiff          2 \
	alphaTstart          1 \
	alphaTmin            1e-10 \
	updateTestStepSize   yes \
	alphaTreduceFactor   0.1 \
	alphaTincreaseFactor 3 \
	nAlphaAdjustMax      3 \
	wolfeEnergy          0.0001 \
	wolfeGradient        0.9 \
	fdTest               no
electronic-scf  \
	nIterations	50 \
	energyDiffThreshold	1e-08 \
	residualThreshold	1e-07 \
	mixFraction	0.5 \
	qMetric	0.8 \
	history	10 \
	nEigSteps	2 \
	eigDiffThreshold	1e-08 \
	mixedVariable	Density \
	qKerker	0.8 \
	qKappa	-1 \
	verbose	no \
	mixFractionMag	1.5
exchange-regularization WignerSeitzTruncated
fluid LinearPCM 298.000000 1.013250
fluid-ex-corr lda-TF lda-PZ
fluid-gummel-loop 10 1.000000e-05
fluid-minimize  \
	dirUpdateScheme      PolakRibiere \
	linminMethod         DirUpdateRecommended \
	nIterations          400 \
	history              15 \
	knormThreshold       1e-11 \
	energyDiffThreshold  0 \
	nEnergyDiff          2 \
	alphaTstart          1 \
	alphaTmin            1e-10 \
	updateTestStepSize   yes \
	alphaTreduceFactor   0.1 \
	alphaTincreaseFactor 3 \
	nAlphaAdjustMax      6 \
	wolfeEnergy          0.0001 \
	wolfeGradient        0.9 \
	fdTest               no
fluid-solvent Glyme 9.62137 ScalarEOS \
	epsBulk 7.2 \
	pMol 0 \
	epsInf 1.9 \
	Pvap 0 \
	sigmaBulk 0 \
	Rvdw 0 \
	Res 0 \
	tauNuc 343133
forces-output-coords Positions
ion C  28.005857181630002   0.000000000000000   1.000001652210000 0
ion C  25.672025513790000   4.042310104620000   1.000001652210000 0
ion C  11.669128103520009  20.211535405260001   1.000001652210000 0
ion C   4.667680343250000   0.000000000000000   1.000001652210000 0
ion C  23.338288332449999   0.000000000000000   1.000001652210000 0
ion C   2.333822219190000   4.042310104620000   1.000001652210000 0
ion C  16.336708291080008  20.211535405260001   1.000001652210000 0
ion C  23.338191956219998   8.084622098970000   1.000001652210000 0
ion C   9.335305884330001  16.169223410910011   1.000001652210000 0
ion C   9.335322891900001   0.000000000000000   1.000001652210000 0
ion C  18.670626886499999   0.000000000000000   1.000001652210000 0
ion C  18.670539958920003  16.169223410910011   1.000001652210000 0
ion C  21.004371626759990  12.126913306290001   1.000001652210000 0
ion C  14.002984337850000   0.000000000000000   1.000001652210000 0
ion C   0.000000000000000   8.084622098970000   1.000001652210000 0
ion C   7.001485554870008  20.211535405260001   1.000001652210000 0
ion C  -7.001481775409991  20.211535405260001   1.000001652210000 0
ion C  -2.333822219189998  12.126913306290001   1.000001652210000 0
ion C   4.667663335679999  16.169223410910011   1.000001652210000 0
ion C  -2.333820329459993  20.211535405260001   1.000001652210000 0
ion C   2.333824108920002  20.211535405260001   1.000001652210000 0
ion C  -4.667659556220000  16.169223410910011   1.000001652210000 0
ion C   7.001483665139999   4.042310104620000   1.000001652210000 0
ion C  21.004430208389998   4.042310104620000   1.000001652210000 0
ion C  14.002948432980006  16.169223410910011   1.000001652210000 0
ion C   0.000001889729997  16.169223410910011   1.000001652210000 0
ion C  11.669126213789999   4.042310104620000   1.000001652210000 0
ion C  18.670609878929998   8.084622098970000   1.000001652210000 0
ion C  11.669126213789998  12.126913306290001   1.000001652210000 0
ion C  16.336787659739997  12.126913306290001   1.000001652210000 0
ion C  16.336789549470002   4.042310104620000   1.000001652210000 0
ion C   9.335303994600004   8.084622098970000   1.000001652210000 0
ion C  14.002948432980002   8.084622098970000   1.000001652210000 0
ion C   0.000000000000000   2.694874032990001   1.000001652210000 0
ion C  11.669128103519999  22.906390540950017   1.000001652210000 0
ion C -11.669124324059998  22.906390540950017   1.000001652210000 0
ion C  -2.333822219190000   6.737165240310007   1.000001652210000 0
ion C   9.335305884330001  18.864097443900004   1.000001652210000 0
ion C  -7.001481775409996  22.906390540950017   1.000001652210000 0
ion C   7.001485554870008  22.906390540950017   1.000001652210000 0
ion C   2.333822219189996   6.737165240310007   1.000001652210000 0
ion C  -9.335302104869994  18.864097443900004   1.000001652210000 0
ion C  -4.667661445950001  10.779477234660009   1.000001652210000 0
ion C  -2.333820329460000  22.906390540950017   1.000001652210000 0
ion C   2.333824108919998  22.906390540950017   1.000001652210000 0
ion C  -7.001483665140000  14.821787339280013   1.000001652210000 0
ion C   4.667661445950001   2.694874032990001   1.000001652210000 0
ion C  23.338269435150011   2.694874032990001   1.000001652210000 0
ion C  14.002967330279997  18.864097443900004   1.000001652210000 0
ion C   0.000000000000000  10.779477234660009   1.000001652210000 0
ion C   4.667663335679999  18.864097443900004   1.000001652210000 0
ion C  -4.667640658919993  18.864097443900004   1.000001652210000 0
ion C  -2.333822219190001  14.821787339280013   1.000001652210000 0
ion C   2.333824108919995  14.821787339280013   1.000001652210000 0
ion C   0.000001889729999  18.864097443900004   1.000001652210000 0
ion C   9.335303994599997   2.694874032990001   1.000001652210000 0
ion C  21.004430208390001   6.737165240310007   1.000001652210000 0
ion C  11.669126213790003  14.821787339280013   1.000001652210000 0
ion C  16.336789549469998  14.821787339280013   1.000001652210000 0
ion C  18.670609878930012   2.694874032990001   1.000001652210000 0
ion C   7.001483665139997   6.737165240310007   1.000001652210000 0
ion C  14.002946543250001   2.694874032990001   1.000001652210000 0
ion C  18.670607989199997  10.779477234660009   1.000001652210000 0
ion C  11.669126213789998   6.737165240310007   1.000001652210000 0
ion C  16.336787659740001   6.737165240310007   1.000001652210000 0
ion C  14.002946543250001  10.779477234660009   1.000001652210000 0
ion N   4.667661445950002   8.084622098970000   1.000001652210000 0
ion N   2.333822219190005  12.126913306290001   1.000001652210000 0
ion N   7.001485554869994  14.821787339280013   1.000001652210000 0
ion N   9.335305884329998  10.779477234660009   1.000001652210000 0
ion Fe   5.837109518069997  11.454309266310007   1.000001652210000 0
ion-species GBRV/$ID_pbe.uspp
ion-width Ecut
ionic-minimize  \
	dirUpdateScheme      FletcherReeves \
	linminMethod         DirUpdateRecommended \
	nIterations          200 \
	history              15 \
	knormThreshold       0.0001 \
	energyDiffThreshold  1e-06 \
	nEnergyDiff          2 \
	alphaTstart          1 \
	alphaTmin            1e-10 \
	updateTestStepSize   yes \
	alphaTreduceFactor   0.1 \
	alphaTincreaseFactor 3 \
	nAlphaAdjustMax      3 \
	wolfeEnergy          0.0001 \
	wolfeGradient        0.9 \
	fdTest               no
kpoint   0.000000000000   0.000000000000   0.000000000000  1.00000000000000
kpoint-folding 1 1 1 
latt-move-scale 1 1 1
latt-scale 1 1 1 
lattice Triclinic 28.0058 28.0058 32.1253 90 90 120
lattice-minimize  \
	dirUpdateScheme      L-BFGS \
	linminMethod         DirUpdateRecommended \
	nIterations          0 \
	history              15 \
	knormThreshold       0 \
	energyDiffThreshold  1e-06 \
	nEnergyDiff          2 \
	alphaTstart          1 \
	alphaTmin            1e-10 \
	updateTestStepSize   yes \
	alphaTreduceFactor   0.1 \
	alphaTincreaseFactor 3 \
	nAlphaAdjustMax      3 \
	wolfeEnergy          0.0001 \
	wolfeGradient        0.9 \
	fdTest               no
lcao-params -1 1e-06 0.01
pcm-variant GLSSA13
spintype no-spin
subspace-rotation-factor 1 yes
symmetries automatic
symmetry-threshold 0.0001
van-der-waals D3



---------- Setting up symmetries ----------

Found 24 point-group symmetries of the bravais lattice
Found 2 space-group symmetries with basis
Applied RMS atom displacement 0 bohrs to make symmetries exact.

---------- Initializing the Grid ----------
R = 
[      28.0058     -14.0029            0  ]
[            0      24.2537            0  ]
[            0            0      32.1253  ]
unit cell volume = 21821
G =
[   0.224353    0.12953         -0  ]
[          0   0.259061          0  ]
[          0         -0   0.195584  ]
Minimum fftbox size, Smin = [  128  128  148  ]
Chosen fftbox size, S = [  128  128  150  ]

---------- Initializing tighter grid for wavefunction operations ----------
R = 
[      28.0058     -14.0029            0  ]
[            0      24.2537            0  ]
[            0            0      32.1253  ]
unit cell volume = 21821
G =
[   0.224353    0.12953         -0  ]
[          0   0.259061          0  ]
[          0         -0   0.195584  ]
Minimum fftbox size, Smin = [  116  116  132  ]
Chosen fftbox size, S = [  120  120  140  ]

---------- Exchange Correlation functional ----------
Initalized PBE GGA exchange.
Initalized PBE GGA correlation.

---------- Setting up pseudopotentials ----------
Width of ionic core gaussian charges (only for fluid interactions / plotting) set to 0.397384

Reading pseudopotential file '/home/akim2/jdftx_install/build/pseudopotentials/GBRV/c_pbe.uspp':
  Title: C.  Created by USPP 7.3.6 on 3-2-2014
  Reference state energy: -5.406344.  4 valence electrons in orbitals:
    |200>  occupation: 2  eigenvalue: -0.504890
    |210>  occupation: 2  eigenvalue: -0.194356
  lMax: 1  lLocal: 2  QijEcut: 5
  4 projectors sampled on a log grid with 503 points:
    l: 0  eig: -0.504890  rCut: 1.3
    l: 0  eig: 0.000000  rCut: 1.3
    l: 1  eig: -0.194357  rCut: 1.3
    l: 1  eig: 0.000000  rCut: 1.3
  Partial core density with radius 1.1
  Transforming core density to a uniform radial grid of dG=0.02 with 1618 points.
  Transforming local potential to a uniform radial grid of dG=0.02 with 1618 points.
  Transforming nonlocal projectors to a uniform radial grid of dG=0.02 with 432 points.
  Transforming density augmentations to a uniform radial grid of dG=0.02 with 1618 points.
  Transforming atomic orbitals to a uniform radial grid of dG=0.02 with 432 points.
  Core radius for overlap checks: 1.30 bohrs.

Reading pseudopotential file '/home/akim2/jdftx_install/build/pseudopotentials/GBRV/n_pbe.uspp':
  Title: N.  Created by USPP 7.3.6 on 3-2-2014
  Reference state energy: -9.763716.  5 valence electrons in orbitals:
    |200>  occupation: 2  eigenvalue: -0.681964
    |210>  occupation: 3  eigenvalue: -0.260726
  lMax: 1  lLocal: 2  QijEcut: 6
  4 projectors sampled on a log grid with 491 points:
    l: 0  eig: -0.681964  rCut: 1.15
    l: 0  eig: 0.000000  rCut: 1.15
    l: 1  eig: -0.260729  rCut: 1.2
    l: 1  eig: 0.500000  rCut: 1.2
  Partial core density with radius 0.8
  Transforming core density to a uniform radial grid of dG=0.02 with 1618 points.
  Transforming local potential to a uniform radial grid of dG=0.02 with 1618 points.
  Transforming nonlocal projectors to a uniform radial grid of dG=0.02 with 432 points.
  Transforming density augmentations to a uniform radial grid of dG=0.02 with 1618 points.
  Transforming atomic orbitals to a uniform radial grid of dG=0.02 with 432 points.
  Core radius for overlap checks: 1.20 bohrs.

Reading pseudopotential file '/home/akim2/jdftx_install/build/pseudopotentials/GBRV/fe_pbe.uspp':
  Title: Fe.  Created by USPP 7.3.6 on 15-6-15
  Reference state energy: -124.316937.  16 valence electrons in orbitals:
    |300>  occupation: 2  eigenvalue: -4.008817
    |310>  occupation: 6  eigenvalue: -2.753096
    |320>  occupation: 5  eigenvalue: -0.791264
    |400>  occupation: 2  eigenvalue: -0.516384
    |410>  occupation: 0  eigenvalue: -0.312222
  lMax: 2  lLocal: 3  QijEcut: 6
  6 projectors sampled on a log grid with 607 points:
    l: 0  eig: -4.008819  rCut: 1.55
    l: 0  eig: -0.516386  rCut: 1.55
    l: 1  eig: -2.753096  rCut: 1.55
    l: 1  eig: -0.312226  rCut: 1.55
    l: 2  eig: -0.791264  rCut: 1.65
    l: 2  eig: -0.450000  rCut: 1.65
  Partial core density with radius 0.65
  Transforming core density to a uniform radial grid of dG=0.02 with 1618 points.
  Transforming local potential to a uniform radial grid of dG=0.02 with 1618 points.
  Transforming nonlocal projectors to a uniform radial grid of dG=0.02 with 432 points.
  Transforming density augmentations to a uniform radial grid of dG=0.02 with 1618 points.
  Transforming atomic orbitals to a uniform radial grid of dG=0.02 with 432 points.
  Core radius for overlap checks: 1.65 bohrs.

Initialized 3 species with 71 total atoms.

Folded 1 k-points by 1x1x1 to 1 k-points.

---------- Setting up k-points, bands, fillings ----------
No reducable k-points. 
Computing the number of bands and number of electrons
Calculating initial fillings.
nElectrons: 300.000000   nBands: 293   nStates: 1

----- Setting up reduced wavefunction bases (one per k-point) -----
average nbasis = 93173.000 , ideal nbasis = 93220.781

---------- Setting up coulomb interaction ----------
Fluid mode embedding: using embedded box, but periodic Coulomb kernel.
(Fluid response is responsible for (approximate) separation between periodic images.)
Setting up double-sized grid for truncated Coulomb potentials:
R = 
[      28.0058     -14.0029            0  ]
[            0      24.2537            0  ]
[            0            0      64.2506  ]
unit cell volume = 43641.9
G =
[   0.224353    0.12953         -0  ]
[          0   0.259061          0  ]
[          0         -0  0.0977919  ]
Chosen fftbox size, S = [  128  128  300  ]
Integer grid location selected as the embedding center:
   Grid: [  0  0  5  ]
   Lattice: [  0  0  0.0311281  ]
   Cartesian: [  0  0  1  ]
Constructing Wigner-Seitz cell: 8 faces (6 quadrilaterals, 2 hexagons)
Range-separation parameter for embedded mesh potentials due to point charges: 0.590105 bohrs.

Initializing DFT-D3 calculator:
	Parameters set for gga-PBE functional
	s6:  1.000  s_r6:  1.217
	s8:  0.722  s_r8:  1.000
	Per-atom parameters loaded for:
	 C:  sqrtQ[a0]:  3.105  Rcov[a0]:  1.417  CN: [ 0.00 0.99 2.00 3.00 3.98 ]
	 N:  sqrtQ[a0]:  2.712  Rcov[a0]:  1.342  CN: [ 0.00 0.99 2.01 2.99 ]
	Fe:  sqrtQ[a0]:  5.584  Rcov[a0]:  1.965  CN: [ 0.00 1.65 9.14 ]

---------- Setting up ewald sum ----------
Optimum gaussian width for ewald sums = 6.902423 bohr.
Real space sum over 567 unit cells with max indices [  4  4  3  ]
Reciprocal space sum over 9537 terms with max indices [  8  8  16  ]

Computing DFT-D3 correction:
# coordination-number C 3.299 3.299 3.299 3.299 3.299 3.287 3.299 3.299 3.274 3.299 3.299 3.299 3.299 3.299 3.270 3.297 3.299 3.287 3.473 3.299 3.299 3.299 3.287 3.299 3.299 3.287 3.299 3.299 3.274 3.299 3.299 3.473 3.297 3.299 3.299 3.299 3.299 3.287 3.299 3.299 3.274 3.299 3.299 3.299 3.299 3.299 3.297 3.299 3.299 3.274 3.287 3.299 3.297 3.472 3.299 3.299 3.299 3.270 3.299 3.299 3.472 3.299 3.299 3.287 3.299 3.287
# coordination-number N 3.148 3.148 3.148 3.148
# coordination-number Fe 4.997
# diagonal-C6 C 24.29 24.29 24.29 24.29 24.29 24.41 24.29 24.29 24.52 24.29 24.29 24.29 24.29 24.29 24.55 24.31 24.29 24.41 22.05 24.29 24.29 24.29 24.40 24.29 24.29 24.40 24.29 24.29 24.52 24.29 24.29 22.04 24.31 24.29 24.29 24.29 24.29 24.41 24.29 24.29 24.52 24.29 24.29 24.29 24.29 24.29 24.31 24.29 24.29 24.52 24.40 24.29 24.31 22.06 24.29 24.29 24.29 24.55 24.29 24.29 22.06 24.29 24.29 24.40 24.29 24.41
# diagonal-C6 N 15.61 15.61 15.61 15.61
# diagonal-C6 Fe 204.99
EvdW_6 =   -0.051456
EvdW_8 =   -0.041826

---------- Allocating electronic variables ----------
Initializing wave functions:  linear combination of atomic orbitals
C pseudo-atom occupations:   s ( 2 )  p ( 2 )
N pseudo-atom occupations:   s ( 2 )  p ( 3 )
Fe pseudo-atom occupations:   s ( 2 0 )  p ( 6 0 )  d ( 8 )
	FillingsUpdate:  mu: -0.217938467  nElectrons: 300.000000
LCAOMinimize: Iter:   0  F: -520.5632203269085494  |grad|_K:  2.522e-02  alpha:  1.000e+00
	FillingsUpdate:  mu: -0.255616862  nElectrons: 300.000000
LCAOMinimize: Iter:   1  F: -525.0817221597488924  |grad|_K:  1.422e-02  alpha:  1.356e-01  linmin: -1.666e-01  cgtest:  9.904e-01  t[s]:      8.68
LCAOMinimize: Encountered beta<0, resetting CG.
LCAOMinimize: 	Wrong curvature in test step, increasing alphaT to 4.067631e-01.
	FillingsUpdate:  mu: -0.168493941  nElectrons: 300.000000
LCAOMinimize: Iter:   2  F: -529.3926022619303922  |grad|_K:  5.370e-02  alpha: -8.265e-02  linmin:  2.189e-01  cgtest: -2.003e-01  t[s]:      9.94
LCAOMinimize: 	Bad step direction: g.d > 0.
LCAOMinimize: 	Undoing step.
LCAOMinimize: 	Step failed: resetting search direction.
	FillingsUpdate:  mu: -0.168493941  nElectrons: 300.000000
LCAOMinimize: Iter:   3  F: -529.3926022619303922  |grad|_K:  5.370e-02  alpha:  0.000e+00
LCAOMinimize: 	Step increased F by 9.563244e+00, reducing alpha to 2.225471e-02.
	FillingsUpdate:  mu: -0.165307394  nElectrons: 300.000000
LCAOMinimize: Iter:   4  F: -533.3625122588977092  |grad|_K:  2.435e-02  alpha:  2.225e-02  linmin: -1.829e-01  cgtest:  1.498e+00  t[s]:     12.99
LCAOMinimize: Encountered beta<0, resetting CG.
LCAOMinimize: 	Wrong curvature in test step, increasing alphaT to 6.676414e-02.
	FillingsUpdate:  mu: -0.212095221  nElectrons: 300.000000
LCAOMinimize: Iter:   5  F: -534.8752420216000019  |grad|_K:  3.069e-02  alpha: -3.406e-02  linmin: -3.177e-01  cgtest:  5.939e-01  t[s]:     14.23
LCAOMinimize: 	Step increased F by 1.454686e+01, reducing alpha to 1.543137e-02.
	FillingsUpdate:  mu: -0.262809523  nElectrons: 300.000000
LCAOMinimize: Iter:   6  F: -536.6043317421848542  |grad|_K:  1.480e-02  alpha:  1.543e-02  linmin:  3.306e-01  cgtest: -5.586e-01  t[s]:     16.39
LCAOMinimize: 	Bad step direction: g.d > 0.
LCAOMinimize: 	Undoing step.
LCAOMinimize: 	Step failed: resetting search direction.
	FillingsUpdate:  mu: -0.262809523  nElectrons: 300.000000
LCAOMinimize: Iter:   7  F: -536.6043317421848542  |grad|_K:  1.480e-02  alpha:  0.000e+00
	FillingsUpdate:  mu: -0.222071675  nElectrons: 300.000000
LCAOMinimize: Iter:   8  F: -536.8096715710670424  |grad|_K:  4.064e-03  alpha:  2.162e-02  linmin: -1.310e-02  cgtest:  2.717e-02  t[s]:     18.55
LCAOMinimize: 	Predicted alpha/alphaT>3.000000, increasing alphaT to 6.485047e-02.
LCAOMinimize: 	Predicted alpha/alphaT>3.000000, increasing alphaT to 1.945514e-01.
	FillingsUpdate:  mu: -0.241174733  nElectrons: 300.000000
LCAOMinimize: Iter:   9  F: -536.9579487952680665  |grad|_K:  1.106e-03  alpha:  2.074e-01  linmin:  6.908e-02  cgtest: -1.659e-01  t[s]:     20.57
	FillingsUpdate:  mu: -0.263320593  nElectrons: 300.000000
LCAOMinimize: Iter:  10  F: -536.9604149137512650  |grad|_K:  1.222e-03  alpha:  5.200e-02  linmin: -5.922e-03  cgtest:  1.675e-01  t[s]:     21.85
	FillingsUpdate:  mu: -0.237349407  nElectrons: 300.000000
LCAOMinimize: Iter:  11  F: -536.9687706100316973  |grad|_K:  7.613e-04  alpha:  1.243e-01  linmin: -5.101e-03  cgtest: -5.356e-01  t[s]:     23.13
	FillingsUpdate:  mu: -0.251850992  nElectrons: 300.000000
LCAOMinimize: Iter:  12  F: -536.9696270066001489  |grad|_K:  3.062e-04  alpha:  3.136e-02  linmin: -1.257e-02  cgtest: -1.070e-02  t[s]:     24.42
LCAOMinimize: 	Predicted alpha/alphaT>3.000000, increasing alphaT to 9.408695e-02.
LCAOMinimize: 	Predicted alpha/alphaT>3.000000, increasing alphaT to 2.822608e-01.
	FillingsUpdate:  mu: -0.244560887  nElectrons: 300.000000
LCAOMinimize: Iter:  13  F: -536.9709611176132285  |grad|_K:  3.397e-04  alpha:  3.182e-01  linmin: -3.557e-04  cgtest: -4.768e-03  t[s]:     26.46
	FillingsUpdate:  mu: -0.251600024  nElectrons: 300.000000
LCAOMinimize: Iter:  14  F: -536.9711372352717262  |grad|_K:  2.386e-04  alpha:  3.485e-02  linmin: -1.287e-03  cgtest:  6.735e-03  t[s]:     27.73
LCAOMinimize: 	Predicted alpha/alphaT>3.000000, increasing alphaT to 1.045522e-01.
	FillingsUpdate:  mu: -0.248506993  nElectrons: 300.000000
LCAOMinimize: Iter:  15  F: -536.9714721548465377  |grad|_K:  8.932e-05  alpha:  1.349e-01  linmin: -3.338e-04  cgtest: -4.804e-02  t[s]:     29.38
	FillingsUpdate:  mu: -0.250687847  nElectrons: 300.000000
LCAOMinimize: Iter:  16  F: -536.9714907010035176  |grad|_K:  9.745e-05  alpha:  5.346e-02  linmin: -4.458e-04  cgtest:  3.062e-03  t[s]:     30.66
	FillingsUpdate:  mu: -0.249251844  nElectrons: 300.000000
LCAOMinimize: Iter:  17  F: -536.9715298874729115  |grad|_K:  3.891e-05  alpha:  9.493e-02  linmin: -2.376e-03  cgtest:  3.575e-02  t[s]:     31.92
	FillingsUpdate:  mu: -0.250344705  nElectrons: 300.000000
LCAOMinimize: Iter:  18  F: -536.9715386483293287  |grad|_K:  5.887e-05  alpha:  1.334e-01  linmin:  2.763e-04  cgtest: -2.452e-03  t[s]:     33.20
	FillingsUpdate:  mu: -0.249359341  nElectrons: 300.000000
LCAOMinimize: Iter:  19  F: -536.9715442281669766  |grad|_K:  1.787e-05  alpha:  3.747e-02  linmin:  1.153e-03  cgtest:  1.391e-02  t[s]:     34.47
LCAOMinimize: 	Predicted alpha/alphaT>3.000000, increasing alphaT to 1.124211e-01.
	FillingsUpdate:  mu: -0.249830836  nElectrons: 300.000000
LCAOMinimize: Iter:  20  F: -536.9715485134308892  |grad|_K:  2.621e-05  alpha:  3.113e-01  linmin:  8.343e-05  cgtest:  1.336e-03  t[s]:     36.12
	FillingsUpdate:  mu: -0.249347128  nElectrons: 300.000000
LCAOMinimize: Iter:  21  F: -536.9715494243855574  |grad|_K:  1.403e-05  alpha:  3.080e-02  linmin:  7.718e-04  cgtest: -5.764e-03  t[s]:     37.40
LCAOMinimize: 	Predicted alpha/alphaT>3.000000, increasing alphaT to 9.241473e-02.
	FillingsUpdate:  mu: -0.249554224  nElectrons: 300.000000
LCAOMinimize: Iter:  22  F: -536.9715510605012696  |grad|_K:  6.668e-06  alpha:  1.929e-01  linmin:  8.555e-06  cgtest:  1.510e-02  t[s]:     39.06
	FillingsUpdate:  mu: -0.249397733  nElectrons: 300.000000
LCAOMinimize: Iter:  23  F: -536.9715511522182396  |grad|_K:  6.768e-06  alpha:  4.774e-02  linmin:  6.356e-05  cgtest: -6.724e-04  t[s]:     40.34
	FillingsUpdate:  mu: -0.249493193  nElectrons: 300.000000
LCAOMinimize: Iter:  24  F: -536.9715513493696335  |grad|_K:  2.007e-06  alpha:  9.962e-02  linmin: -2.635e-05  cgtest:  2.595e-03  t[s]:     41.61
LCAOMinimize: Converged (|Delta F|<1.000000e-06 for 2 iters).
----- createFluidSolver() ----- (Fluid-side solver setup)
   Initializing fluid molecule 'Glyme'
     Net charge: 0   dipole magnitude: 0
     Initializing spherical shell mfKernel with radius 0 Bohr
     deltaS corrections:

Correction to mu due to finite nuclear width = -0.00682051
   Cavity determined by nc: 8.36e-05 and sigma: 0.6
   Effective cavity tension: -8.03e-06 Eh/bohr^2 to account for cavitation and dispersion.


---- Citations for features of the code used in this run ----

   Software package:
      R. Sundararaman, K. Letchworth-Weaver, K.A. Schwarz, D. Gunceler, Y. Ozhabes and T.A. Arias, 'JDFTx: software for joint density-functional theory', SoftwareX 6, 278 (2017)

   gga-PBE exchange-correlation functional:
      J.P. Perdew, K. Burke and M. Ernzerhof, Phys. Rev. Lett. 77, 3865 (1996)

   Pseudopotentials:
      KF Garrity, JW Bennett, KM Rabe and D Vanderbilt, Comput. Mater. Sci. 81, 446 (2014)

   Truncated Coulomb potentials:
      R. Sundararaman and T.A. Arias, Phys. Rev. B 87, 165122 (2013)

   DFT-D3 dispersion correction:
      S. Grimme, J. Antony, S. Ehrlich and H. Krieg, J. Chem. Phys. 132, 154104 (2010)

   Linear/nonlinear dielectric/ionic fluid model with effective cavity tension:
      D. Gunceler, K. Letchworth-Weaver, R. Sundararaman, K.A. Schwarz and T.A. Arias, Modelling Simul. Mater. Sci. Eng. 21, 074005 (2013)

This list may not be complete. Please suggest additional citations or
report any other bugs at https://github.com/shankar1729/jdftx/issues

Initialization completed successfully at t[s]:     41.75


Computing DFT-D3 correction:
# coordination-number C 3.299 3.299 3.299 3.299 3.299 3.287 3.299 3.299 3.274 3.299 3.299 3.299 3.299 3.299 3.270 3.297 3.299 3.287 3.473 3.299 3.299 3.299 3.287 3.299 3.299 3.287 3.299 3.299 3.274 3.299 3.299 3.473 3.297 3.299 3.299 3.299 3.299 3.287 3.299 3.299 3.274 3.299 3.299 3.299 3.299 3.299 3.297 3.299 3.299 3.274 3.287 3.299 3.297 3.472 3.299 3.299 3.299 3.270 3.299 3.299 3.472 3.299 3.299 3.287 3.299 3.287
# coordination-number N 3.148 3.148 3.148 3.148
# coordination-number Fe 4.997
# diagonal-C6 C 24.29 24.29 24.29 24.29 24.29 24.41 24.29 24.29 24.52 24.29 24.29 24.29 24.29 24.29 24.55 24.31 24.29 24.41 22.05 24.29 24.29 24.29 24.40 24.29 24.29 24.40 24.29 24.29 24.52 24.29 24.29 22.04 24.31 24.29 24.29 24.29 24.29 24.41 24.29 24.29 24.52 24.29 24.29 24.29 24.29 24.29 24.31 24.29 24.29 24.52 24.40 24.29 24.31 22.06 24.29 24.29 24.29 24.55 24.29 24.29 22.06 24.29 24.29 24.40 24.29 24.41
# diagonal-C6 N 15.61 15.61 15.61 15.61
# diagonal-C6 Fe 204.99
EvdW_6 =   -0.051456
EvdW_8 =   -0.041826
Fluid solver invoked on fresh (random / LCAO) wavefunctions
Running a vacuum solve first:

-------- Initial electronic minimization -----------
Will mix electronic density at each iteration.
	FillingsUpdate:  mu: -0.249493193  nElectrons: 300.000000
	FillingsUpdate:  mu: -0.262415223  nElectrons: 300.000000
SCF: Cycle:  0   F: -540.560444412470588   dF: -3.589e+00   |Residual|: 9.643e-01   |deigs|: 1.131e-01  t[s]:     47.18
	FillingsUpdate:  mu: -0.242374724  nElectrons: 300.000000
SCF: Cycle:  1   F: -539.137755994288455   dF: +1.423e+00   |Residual|: 8.741e-01   |deigs|: 3.608e-02  t[s]:     49.82
	FillingsUpdate:  mu: -0.175521395  nElectrons: 300.000000
SCF: Cycle:  2   F: -530.054463960119961   dF: +9.083e+00   |Residual|: 1.931e+00   |deigs|: 3.878e-02  t[s]:     52.47
	FillingsUpdate:  mu: -0.199757656  nElectrons: 300.000000
SCF: Cycle:  3   F: -540.452689075000535   dF: -1.040e+01   |Residual|: 4.304e-01   |deigs|: 3.682e-02  t[s]:     55.11
	FillingsUpdate:  mu: -0.185382083  nElectrons: 300.000000
SCF: Cycle:  4   F: -541.253965594317265   dF: -8.013e-01   |Residual|: 1.838e-01   |deigs|: 8.747e-03  t[s]:     57.77
	FillingsUpdate:  mu: -0.187551850  nElectrons: 300.000000
SCF: Cycle:  5   F: -541.064606112905494   dF: +1.894e-01   |Residual|: 2.158e-01   |deigs|: 3.258e-03  t[s]:     60.44
	FillingsUpdate:  mu: -0.170068550  nElectrons: 300.000000
SCF: Cycle:  6   F: -541.247684500697687   dF: -1.831e-01   |Residual|: 1.347e-01   |deigs|: 1.077e-02  t[s]:     63.11
	FillingsUpdate:  mu: -0.169142518  nElectrons: 300.000000
SCF: Cycle:  7   F: -541.088401375611511   dF: +1.593e-01   |Residual|: 2.595e-01   |deigs|: 6.059e-03  t[s]:     65.80
	FillingsUpdate:  mu: -0.160095812  nElectrons: 300.000000
SCF: Cycle:  8   F: -541.255884121074587   dF: -1.675e-01   |Residual|: 7.535e-02   |deigs|: 4.370e-03  t[s]:     68.48
	FillingsUpdate:  mu: -0.151759309  nElectrons: 300.000000
SCF: Cycle:  9   F: -541.274939707942394   dF: -1.906e-02   |Residual|: 5.039e-02   |deigs|: 8.390e-03  t[s]:     71.18
	FillingsUpdate:  mu: -0.148016006  nElectrons: 300.000000
SCF: Cycle: 10   F: -541.276521322124154   dF: -1.582e-03   |Residual|: 3.213e-02   |deigs|: 4.259e-03  t[s]:     73.66
	FillingsUpdate:  mu: -0.144027076  nElectrons: 300.000000
SCF: Cycle: 11   F: -541.268063324209265   dF: +8.458e-03   |Residual|: 5.740e-02   |deigs|: 4.986e-03  t[s]:     76.33
	FillingsUpdate:  mu: -0.139999264  nElectrons: 300.000000
SCF: Cycle: 12   F: -541.271131517456752   dF: -3.068e-03   |Residual|: 4.727e-02   |deigs|: 3.744e-03  t[s]:     78.61
	FillingsUpdate:  mu: -0.134930334  nElectrons: 300.000000
SCF: Cycle: 13   F: -541.277557774579009   dF: -6.426e-03   |Residual|: 1.067e-02   |deigs|: 4.233e-03  t[s]:     80.94
	FillingsUpdate:  mu: -0.130471341  nElectrons: 300.000000
SCF: Cycle: 14   F: -541.277763330658559   dF: -2.056e-04   |Residual|: 8.424e-03   |deigs|: 4.122e-03  t[s]:     83.24
	FillingsUpdate:  mu: -0.125191830  nElectrons: 300.000000
SCF: Cycle: 15   F: -541.277825076141312   dF: -6.175e-05   |Residual|: 6.106e-03   |deigs|: 4.907e-03  t[s]:     85.52
	FillingsUpdate:  mu: -0.121498564  nElectrons: 300.000000
SCF: Cycle: 16   F: -541.277685032728073   dF: +1.400e-04   |Residual|: 9.265e-03   |deigs|: 3.801e-03  t[s]:     87.78
	FillingsUpdate:  mu: -0.118878111  nElectrons: 300.000000
SCF: Cycle: 17   F: -541.277884058317341   dF: -1.990e-04   |Residual|: 3.016e-03   |deigs|: 2.560e-03  t[s]:     90.04
	FillingsUpdate:  mu: -0.116599095  nElectrons: 300.000000
SCF: Cycle: 18   F: -541.277846791144498   dF: +3.727e-05   |Residual|: 3.774e-03   |deigs|: 2.740e-03  t[s]:     92.30
	FillingsUpdate:  mu: -0.116223483  nElectrons: 300.000000
SCF: Cycle: 19   F: -541.277889083841046   dF: -4.229e-05   |Residual|: 6.642e-04   |deigs|: 1.195e-03  t[s]:     94.58
	FillingsUpdate:  mu: -0.116027463  nElectrons: 300.000000
SCF: Cycle: 20   F: -541.277889288151414   dF: -2.043e-07   |Residual|: 4.116e-04   |deigs|: 1.606e-03  t[s]:     96.86
	FillingsUpdate:  mu: -0.116049295  nElectrons: 300.000000
SCF: Cycle: 21   F: -541.277888997815353   dF: +2.903e-07   |Residual|: 4.597e-04   |deigs|: 4.123e-04  t[s]:     99.13
	FillingsUpdate:  mu: -0.116064374  nElectrons: 300.000000
SCF: Cycle: 22   F: -541.277889438629700   dF: -4.408e-07   |Residual|: 3.904e-04   |deigs|: 3.328e-04  t[s]:    101.40
	FillingsUpdate:  mu: -0.116038683  nElectrons: 300.000000
SCF: Cycle: 23   F: -541.277889800628941   dF: -3.620e-07   |Residual|: 2.397e-04   |deigs|: 4.981e-04  t[s]:    103.66
	FillingsUpdate:  mu: -0.115976908  nElectrons: 300.000000
SCF: Cycle: 24   F: -541.277890001821106   dF: -2.012e-07   |Residual|: 1.327e-04   |deigs|: 8.601e-04  t[s]:    105.93
	FillingsUpdate:  mu: -0.115960955  nElectrons: 300.000000
SCF: Cycle: 25   F: -541.277890079214671   dF: -7.739e-08   |Residual|: 7.791e-05   |deigs|: 5.427e-04  t[s]:    108.21
	FillingsUpdate:  mu: -0.115937194  nElectrons: 300.000000
SCF: Cycle: 26   F: -541.277890085449940   dF: -6.235e-09   |Residual|: 9.062e-05   |deigs|: 1.845e-04  t[s]:    110.46
	FillingsUpdate:  mu: -0.115924355  nElectrons: 300.000000
SCF: Cycle: 27   F: -541.277890122904637   dF: -3.745e-08   |Residual|: 2.613e-05   |deigs|: 1.561e-04  t[s]:    112.73
	FillingsUpdate:  mu: -0.115917804  nElectrons: 300.000000
SCF: Cycle: 28   F: -541.277890129435150   dF: -6.531e-09   |Residual|: 1.599e-05   |deigs|: 1.492e-04  t[s]:    115.00
	FillingsUpdate:  mu: -0.115912845  nElectrons: 300.000000
SCF: Cycle: 29   F: -541.277890130356013   dF: -9.209e-10   |Residual|: 1.035e-05   |deigs|: 9.862e-05  t[s]:    117.29
SCF: Converged (|Delta E|<1.000000e-08 for 2 iters).

Setting wave functions to eigenvectors of Hamiltonian
Vacuum energy after initial minimize, F = -541.277890130356013


-------- Electronic minimization -----------
Will mix electronic density at each iteration.
	FillingsUpdate:  mu: -0.115912845  nElectrons: 300.000000
	Linear fluid (dielectric constant: 7.2) occupying 0.845135 of unit cell:	Completed after 11 iterations at t[s]:    117.97
	FillingsUpdate:  mu: -0.122678562  nElectrons: 300.000000
	Linear fluid (dielectric constant: 7.2) occupying 0.844449 of unit cell:	Completed after 7 iterations at t[s]:    120.92
SCF: Cycle:  0   F: -541.290915463362239   dF: +2.124e-03   |Residual|: 1.981e-02   |deigs|: 4.212e-03  t[s]:    121.07
	Linear fluid (dielectric constant: 7.2) occupying 0.844969 of unit cell:	Completed after 7 iterations at t[s]:    121.21
	FillingsUpdate:  mu: -0.118117013  nElectrons: 300.000000
	Linear fluid (dielectric constant: 7.2) occupying 0.844687 of unit cell:	Completed after 10 iterations at t[s]:    124.01
SCF: Cycle:  1   F: -541.146126502736706   dF: +1.448e-01   |Residual|: 2.141e-01   |deigs|: 3.959e-03  t[s]:    124.15
	Linear fluid (dielectric constant: 7.2) occupying 0.845003 of unit cell:	Completed after 10 iterations at t[s]:    124.33
	FillingsUpdate:  mu: -0.122274354  nElectrons: 300.000000
	Linear fluid (dielectric constant: 7.2) occupying 0.844829 of unit cell:	Completed after 5 iterations at t[s]:    127.08
SCF: Cycle:  2   F: -541.293226670629224   dF: -1.471e-01   |Residual|: 2.924e-03   |deigs|: 1.764e-03  t[s]:    127.22
	Linear fluid (dielectric constant: 7.2) occupying 0.844973 of unit cell:	Completed after 5 iterations at t[s]:    127.34
	FillingsUpdate:  mu: -0.122236277  nElectrons: 300.000000
	Linear fluid (dielectric constant: 7.2) occupying 0.844805 of unit cell:	Completed after 4 iterations at t[s]:    129.67
SCF: Cycle:  3   F: -541.293251924271090   dF: -2.525e-05   |Residual|: 9.364e-04   |deigs|: 1.240e-03  t[s]:    129.81
	Linear fluid (dielectric constant: 7.2) occupying 0.844922 of unit cell:	Completed after 4 iterations at t[s]:    129.93
	FillingsUpdate:  mu: -0.122267650  nElectrons: 300.000000
	Linear fluid (dielectric constant: 7.2) occupying 0.844788 of unit cell:	Completed after 4 iterations at t[s]:    132.27
SCF: Cycle:  4   F: -541.293163493389898   dF: +8.843e-05   |Residual|: 1.437e-03   |deigs|: 1.563e-03  t[s]:    132.40
	Linear fluid (dielectric constant: 7.2) occupying 0.844894 of unit cell:	Completed after 4 iterations at t[s]:    132.53
	FillingsUpdate:  mu: -0.122270643  nElectrons: 300.000000
	Linear fluid (dielectric constant: 7.2) occupying 0.844793 of unit cell:	Completed after 4 iterations at t[s]:    134.90
SCF: Cycle:  5   F: -541.293163209596855   dF: +2.838e-07   |Residual|: 1.526e-03   |deigs|: 5.443e-05  t[s]:    135.04
	Linear fluid (dielectric constant: 7.2) occupying 0.844838 of unit cell:	Completed after 4 iterations at t[s]:    135.16
	FillingsUpdate:  mu: -0.122264758  nElectrons: 300.000000
	Linear fluid (dielectric constant: 7.2) occupying 0.844796 of unit cell:	Completed after 3 iterations at t[s]:    137.54
SCF: Cycle:  6   F: -541.293220552950288   dF: -5.734e-05   |Residual|: 7.991e-04   |deigs|: 4.217e-04  t[s]:    137.67
	Linear fluid (dielectric constant: 7.2) occupying 0.844801 of unit cell:	Completed after 3 iterations at t[s]:    137.79
	FillingsUpdate:  mu: -0.122258163  nElectrons: 300.000000
	Linear fluid (dielectric constant: 7.2) occupying 0.844804 of unit cell:	Completed after 2 iterations at t[s]:    140.14
SCF: Cycle:  7   F: -541.293188916977556   dF: +3.164e-05   |Residual|: 2.633e-04   |deigs|: 3.868e-04  t[s]:    140.26
	Linear fluid (dielectric constant: 7.2) occupying 0.844790 of unit cell:	Completed after 2 iterations at t[s]:    140.37
	FillingsUpdate:  mu: -0.122264874  nElectrons: 300.000000
	Linear fluid (dielectric constant: 7.2) occupying 0.844791 of unit cell:	Completed after 2 iterations at t[s]:    142.72
SCF: Cycle:  8   F: -541.293214527325631   dF: -2.561e-05   |Residual|: 2.786e-04   |deigs|: 1.897e-04  t[s]:    142.84
	Linear fluid (dielectric constant: 7.2) occupying 0.844776 of unit cell:	Completed after 2 iterations at t[s]:    142.96
	FillingsUpdate:  mu: -0.122268389  nElectrons: 300.000000
	Linear fluid (dielectric constant: 7.2) occupying 0.844794 of unit cell:	Completed after 2 iterations at t[s]:    145.30
SCF: Cycle:  9   F: -541.293221038497336   dF: -6.511e-06   |Residual|: 2.072e-04   |deigs|: 8.555e-05  t[s]:    145.42
	Linear fluid (dielectric constant: 7.2) occupying 0.844767 of unit cell:	Completed after 1 iterations at t[s]:    145.53
	FillingsUpdate:  mu: -0.122282515  nElectrons: 300.000000
	Linear fluid (dielectric constant: 7.2) occupying 0.844785 of unit cell:	Completed after 2 iterations at t[s]:    147.86
SCF: Cycle: 10   F: -541.293210899992118   dF: +1.014e-05   |Residual|: 3.235e-04   |deigs|: 2.174e-04  t[s]:    148.00
	Linear fluid (dielectric constant: 7.2) occupying 0.844758 of unit cell:	Completed after 2 iterations at t[s]:    148.12
	FillingsUpdate:  mu: -0.122281935  nElectrons: 300.000000
	Linear fluid (dielectric constant: 7.2) occupying 0.844792 of unit cell:	Completed after 1 iterations at t[s]:    150.46
SCF: Cycle: 11   F: -541.293209635064613   dF: +1.265e-06   |Residual|: 1.555e-04   |deigs|: 6.063e-05  t[s]:    150.58
	Linear fluid (dielectric constant: 7.2) occupying 0.844762 of unit cell:	Completed after 1 iterations at t[s]:    150.70
	FillingsUpdate:  mu: -0.122282558  nElectrons: 300.000000
	Linear fluid (dielectric constant: 7.2) occupying 0.844781 of unit cell:	Completed after 2 iterations at t[s]:    153.03
SCF: Cycle: 12   F: -541.293213465366307   dF: -3.830e-06   |Residual|: 2.303e-04   |deigs|: 6.613e-05  t[s]:    153.16
	Linear fluid (dielectric constant: 7.2) occupying 0.844759 of unit cell:	Completed after 2 iterations at t[s]:    153.27
	FillingsUpdate:  mu: -0.122288144  nElectrons: 300.000000
	Linear fluid (dielectric constant: 7.2) occupying 0.844787 of unit cell:	Completed after 1 iterations at t[s]:    155.59
SCF: Cycle: 13   F: -541.293217234322469   dF: -3.769e-06   |Residual|: 1.051e-04   |deigs|: 6.114e-05  t[s]:    155.71
	Linear fluid (dielectric constant: 7.2) occupying 0.844760 of unit cell:	Completed after 1 iterations at t[s]:    155.82
	FillingsUpdate:  mu: -0.122289158  nElectrons: 300.000000
	Linear fluid (dielectric constant: 7.2) occupying 0.844781 of unit cell:	Completed after 1 iterations at t[s]:    158.13
SCF: Cycle: 14   F: -541.293218882846190   dF: -1.649e-06   |Residual|: 8.718e-05   |deigs|: 6.244e-05  t[s]:    158.25
	Linear fluid (dielectric constant: 7.2) occupying 0.844760 of unit cell:	Completed after 1 iterations at t[s]:    158.35
	FillingsUpdate:  mu: -0.122299369  nElectrons: 300.000000
	Linear fluid (dielectric constant: 7.2) occupying 0.844781 of unit cell:	Completed after 1 iterations at t[s]:    160.68
SCF: Cycle: 15   F: -541.293220691250781   dF: -1.808e-06   |Residual|: 1.925e-04   |deigs|: 7.059e-05  t[s]:    160.80
	Linear fluid (dielectric constant: 7.2) occupying 0.844762 of unit cell:	Completed after 1 iterations at t[s]:    160.91
	FillingsUpdate:  mu: -0.122290200  nElectrons: 300.000000
	Linear fluid (dielectric constant: 7.2) occupying 0.844780 of unit cell:	Completed after 1 iterations at t[s]:    162.69
SCF: Cycle: 16   F: -541.293220927652555   dF: -2.364e-07   |Residual|: 2.682e-04   |deigs|: 1.461e-05  t[s]:    162.81
	Linear fluid (dielectric constant: 7.2) occupying 0.844764 of unit cell:	Completed after 2 iterations at t[s]:    162.92
	FillingsUpdate:  mu: -0.122295390  nElectrons: 300.000000
	Linear fluid (dielectric constant: 7.2) occupying 0.844780 of unit cell:	Completed after 0 iterations at t[s]:    165.22
SCF: Cycle: 17   F: -541.293220576523936   dF: +3.511e-07   |Residual|: 2.881e-05   |deigs|: 7.803e-05  t[s]:    165.34
	Linear fluid (dielectric constant: 7.2) occupying 0.844768 of unit cell:	Completed after 0 iterations at t[s]:    165.43
	FillingsUpdate:  mu: -0.122301804  nElectrons: 300.000000
	Linear fluid (dielectric constant: 7.2) occupying 0.844779 of unit cell:	Completed after 1 iterations at t[s]:    167.75
SCF: Cycle: 18   F: -541.293219819777732   dF: +7.567e-07   |Residual|: 1.808e-04   |deigs|: 6.489e-05  t[s]:    167.88
	Linear fluid (dielectric constant: 7.2) occupying 0.844770 of unit cell:	Completed after 1 iterations at t[s]:    167.98
	FillingsUpdate:  mu: -0.122302184  nElectrons: 300.000000
	Linear fluid (dielectric constant: 7.2) occupying 0.844780 of unit cell:	Completed after 1 iterations at t[s]:    170.28
SCF: Cycle: 19   F: -541.293219803189459   dF: +1.659e-08   |Residual|: 8.031e-05   |deigs|: 5.245e-05  t[s]:    170.40
	Linear fluid (dielectric constant: 7.2) occupying 0.844773 of unit cell:	Completed after 1 iterations at t[s]:    170.50
	FillingsUpdate:  mu: -0.122303109  nElectrons: 300.000000
	Linear fluid (dielectric constant: 7.2) occupying 0.844780 of unit cell:	Completed after 1 iterations at t[s]:    172.82
SCF: Cycle: 20   F: -541.293219119296396   dF: +6.839e-07   |Residual|: 2.224e-04   |deigs|: 2.356e-05  t[s]:    172.94
	Linear fluid (dielectric constant: 7.2) occupying 0.844775 of unit cell:	Completed after 1 iterations at t[s]:    173.05
	FillingsUpdate:  mu: -0.122305379  nElectrons: 300.000000
	Linear fluid (dielectric constant: 7.2) occupying 0.844781 of unit cell:	Completed after 1 iterations at t[s]:    175.32
SCF: Cycle: 21   F: -541.293219774030376   dF: -6.547e-07   |Residual|: 1.374e-04   |deigs|: 4.070e-05  t[s]:    175.44
	Linear fluid (dielectric constant: 7.2) occupying 0.844779 of unit cell:	Completed after 1 iterations at t[s]:    175.54
	FillingsUpdate:  mu: -0.122303950  nElectrons: 300.000000
	Linear fluid (dielectric constant: 7.2) occupying 0.844782 of unit cell:	Completed after 1 iterations at t[s]:    177.87
SCF: Cycle: 22   F: -541.293219007337257   dF: +7.667e-07   |Residual|: 4.094e-05   |deigs|: 6.295e-05  t[s]:    177.99
	Linear fluid (dielectric constant: 7.2) occupying 0.844779 of unit cell:	Completed after 0 iterations at t[s]:    178.09
	FillingsUpdate:  mu: -0.122292160  nElectrons: 300.000000
	Linear fluid (dielectric constant: 7.2) occupying 0.844783 of unit cell:	Completed after 2 iterations at t[s]:    180.41
SCF: Cycle: 23   F: -541.293218090588311   dF: +9.167e-07   |Residual|: 4.513e-04   |deigs|: 4.312e-05  t[s]:    180.54
	Linear fluid (dielectric constant: 7.2) occupying 0.844779 of unit cell:	Completed after 2 iterations at t[s]:    180.66
	FillingsUpdate:  mu: -0.122304330  nElectrons: 300.000000
	Linear fluid (dielectric constant: 7.2) occupying 0.844783 of unit cell:	Completed after 1 iterations at t[s]:    182.46
SCF: Cycle: 24   F: -541.293218974328283   dF: -8.837e-07   |Residual|: 1.239e-04   |deigs|: 8.190e-06  t[s]:    182.58
	Linear fluid (dielectric constant: 7.2) occupying 0.844779 of unit cell:	Completed after 1 iterations at t[s]:    182.68
	FillingsUpdate:  mu: -0.122303360  nElectrons: 300.000000
	Linear fluid (dielectric constant: 7.2) occupying 0.844783 of unit cell:	Completed after 1 iterations at t[s]:    184.40
SCF: Cycle: 25   F: -541.293218833712103   dF: +1.406e-07   |Residual|: 8.983e-05   |deigs|: 8.595e-06  t[s]:    184.52
	Linear fluid (dielectric constant: 7.2) occupying 0.844780 of unit cell:	Completed after 1 iterations at t[s]:    184.62
	FillingsUpdate:  mu: -0.122304815  nElectrons: 300.000000
	Linear fluid (dielectric constant: 7.2) occupying 0.844783 of unit cell:	Completed after 0 iterations at t[s]:    186.34
SCF: Cycle: 26   F: -541.293218732763989   dF: +1.009e-07   |Residual|: 3.406e-05   |deigs|: 1.665e-05  t[s]:    186.45
	Linear fluid (dielectric constant: 7.2) occupying 0.844780 of unit cell:	Completed after 0 iterations at t[s]:    186.54
	FillingsUpdate:  mu: -0.122292689  nElectrons: 300.000000
	Linear fluid (dielectric constant: 7.2) occupying 0.844783 of unit cell:	Completed after 2 iterations at t[s]:    188.87
SCF: Cycle: 27   F: -541.293218161459436   dF: +5.713e-07   |Residual|: 4.873e-04   |deigs|: 3.998e-05  t[s]:    188.99
	Linear fluid (dielectric constant: 7.2) occupying 0.844780 of unit cell:	Completed after 2 iterations at t[s]:    189.10
	FillingsUpdate:  mu: -0.122305373  nElectrons: 300.000000
	Linear fluid (dielectric constant: 7.2) occupying 0.844783 of unit cell:	Completed after 1 iterations at t[s]:    191.40
SCF: Cycle: 28   F: -541.293219016210287   dF: -8.548e-07   |Residual|: 1.018e-04   |deigs|: 2.029e-05  t[s]:    191.52
	Linear fluid (dielectric constant: 7.2) occupying 0.844781 of unit cell:	Completed after 1 iterations at t[s]:    191.62
	FillingsUpdate:  mu: -0.122304598  nElectrons: 300.000000
	Linear fluid (dielectric constant: 7.2) occupying 0.844783 of unit cell:	Completed after 0 iterations at t[s]:    193.30
SCF: Cycle: 29   F: -541.293218974594993   dF: +4.162e-08   |Residual|: 4.038e-05   |deigs|: 3.231e-05  t[s]:    193.41
	Linear fluid (dielectric constant: 7.2) occupying 0.844782 of unit cell:	Completed after 0 iterations at t[s]:    193.50
	FillingsUpdate:  mu: -0.122294992  nElectrons: 300.000000
	Linear fluid (dielectric constant: 7.2) occupying 0.844782 of unit cell:	Completed after 2 iterations at t[s]:    198.53
SCF: Cycle: 30   F: -541.293218136718224   dF: +8.379e-07   |Residual|: 4.643e-04   |deigs|: 1.991e-05  t[s]:    198.66
	Linear fluid (dielectric constant: 7.2) occupying 0.844782 of unit cell:	Completed after 1 iterations at t[s]:    198.75
	FillingsUpdate:  mu: -0.122309074  nElectrons: 300.000000
	Linear fluid (dielectric constant: 7.2) occupying 0.844783 of unit cell:	Completed after 1 iterations at t[s]:    211.77
SCF: Cycle: 31   F: -541.293218963396725   dF: -8.267e-07   |Residual|: 6.974e-05   |deigs|: 1.631e-05  t[s]:    211.89
	Linear fluid (dielectric constant: 7.2) occupying 0.844782 of unit cell:	Completed after 1 iterations at t[s]:    211.99
	FillingsUpdate:  mu: -0.122305128  nElectrons: 300.000000
	Linear fluid (dielectric constant: 7.2) occupying 0.844783 of unit cell:	Completed after 0 iterations at t[s]:    213.65
SCF: Cycle: 32   F: -541.293218928672331   dF: +3.472e-08   |Residual|: 6.166e-05   |deigs|: 8.362e-06  t[s]:    213.77
	Linear fluid (dielectric constant: 7.2) occupying 0.844783 of unit cell:	Completed after 1 iterations at t[s]:    213.86
	FillingsUpdate:  mu: -0.122303139  nElectrons: 300.000000
	Linear fluid (dielectric constant: 7.2) occupying 0.844783 of unit cell:	Completed after 1 iterations at t[s]:    216.16
SCF: Cycle: 33   F: -541.293218854730185   dF: +7.394e-08   |Residual|: 5.867e-05   |deigs|: 1.354e-05  t[s]:    216.28
	Linear fluid (dielectric constant: 7.2) occupying 0.844783 of unit cell:	Completed after 1 iterations at t[s]:    216.39
	FillingsUpdate:  mu: -0.122301473  nElectrons: 300.000000
	Linear fluid (dielectric constant: 7.2) occupying 0.844783 of unit cell:	Completed after 1 iterations at t[s]:    218.06
SCF: Cycle: 34   F: -541.293218757598424   dF: +9.713e-08   |Residual|: 1.705e-04   |deigs|: 1.022e-05  t[s]:    218.19
	Linear fluid (dielectric constant: 7.2) occupying 0.844784 of unit cell:	Completed after 1 iterations at t[s]:    218.29
	FillingsUpdate:  mu: -0.122299466  nElectrons: 300.000000
	Linear fluid (dielectric constant: 7.2) occupying 0.844783 of unit cell:	Completed after 1 iterations at t[s]:    219.93
SCF: Cycle: 35   F: -541.293218686186265   dF: +7.141e-08   |Residual|: 2.299e-04   |deigs|: 1.007e-05  t[s]:    220.05
	Linear fluid (dielectric constant: 7.2) occupying 0.844784 of unit cell:	Completed after 2 iterations at t[s]:    220.17
	FillingsUpdate:  mu: -0.122301294  nElectrons: 300.000000
	Linear fluid (dielectric constant: 7.2) occupying 0.844783 of unit cell:	Completed after 1 iterations at t[s]:    222.42
SCF: Cycle: 36   F: -541.293218684959584   dF: +1.227e-09   |Residual|: 2.565e-04   |deigs|: 7.556e-06  t[s]:    222.54
	Linear fluid (dielectric constant: 7.2) occupying 0.844784 of unit cell:	Completed after 1 iterations at t[s]:    222.65
	FillingsUpdate:  mu: -0.122302247  nElectrons: 300.000000
	Linear fluid (dielectric constant: 7.2) occupying 0.844783 of unit cell:	Completed after 1 iterations at t[s]:    224.71
SCF: Cycle: 37   F: -541.293218727992098   dF: -4.303e-08   |Residual|: 2.362e-04   |deigs|: 3.431e-06  t[s]:    224.83
	Linear fluid (dielectric constant: 7.2) occupying 0.844784 of unit cell:	Completed after 1 iterations at t[s]:    224.93
	FillingsUpdate:  mu: -0.122303938  nElectrons: 300.000000
	Linear fluid (dielectric constant: 7.2) occupying 0.844783 of unit cell:	Completed after 1 iterations at t[s]:    227.11
SCF: Cycle: 38   F: -541.293218804589515   dF: -7.660e-08   |Residual|: 1.905e-04   |deigs|: 4.204e-06  t[s]:    227.23
	Linear fluid (dielectric constant: 7.2) occupying 0.844784 of unit cell:	Completed after 1 iterations at t[s]:    227.33
	FillingsUpdate:  mu: -0.122304141  nElectrons: 300.000000
	Linear fluid (dielectric constant: 7.2) occupying 0.844783 of unit cell:	Completed after 1 iterations at t[s]:    229.48
SCF: Cycle: 39   F: -541.293218846434002   dF: -4.184e-08   |Residual|: 1.657e-04   |deigs|: 7.473e-06  t[s]:    229.60
	Linear fluid (dielectric constant: 7.2) occupying 0.844783 of unit cell:	Completed after 1 iterations at t[s]:    229.71
	FillingsUpdate:  mu: -0.122304132  nElectrons: 300.000000
	Linear fluid (dielectric constant: 7.2) occupying 0.844783 of unit cell:	Completed after 1 iterations at t[s]:    231.24
SCF: Cycle: 40   F: -541.293218868853842   dF: -2.242e-08   |Residual|: 1.486e-04   |deigs|: 2.885e-06  t[s]:    231.37
	Linear fluid (dielectric constant: 7.2) occupying 0.844783 of unit cell:	Completed after 1 iterations at t[s]:    231.47
	FillingsUpdate:  mu: -0.122305440  nElectrons: 300.000000
	Linear fluid (dielectric constant: 7.2) occupying 0.844783 of unit cell:	Completed after 1 iterations at t[s]:    233.74
SCF: Cycle: 41   F: -541.293218995846019   dF: -1.270e-07   |Residual|: 5.262e-05   |deigs|: 1.373e-05  t[s]:    233.86
	Linear fluid (dielectric constant: 7.2) occupying 0.844784 of unit cell:	Completed after 1 iterations at t[s]:    233.97
	FillingsUpdate:  mu: -0.122305020  nElectrons: 300.000000
	Linear fluid (dielectric constant: 7.2) occupying 0.844783 of unit cell:	Completed after 1 iterations at t[s]:    235.62
SCF: Cycle: 42   F: -541.293218966995823   dF: +2.885e-08   |Residual|: 5.120e-05   |deigs|: 1.760e-05  t[s]:    235.74
	Linear fluid (dielectric constant: 7.2) occupying 0.844784 of unit cell:	Completed after 0 iterations at t[s]:    235.85
	FillingsUpdate:  mu: -0.122309706  nElectrons: 300.000000
	Linear fluid (dielectric constant: 7.2) occupying 0.844784 of unit cell:	Completed after 1 iterations at t[s]:    237.63
SCF: Cycle: 43   F: -541.293218747373999   dF: +2.196e-07   |Residual|: 2.823e-04   |deigs|: 4.371e-06  t[s]:    237.75
	Linear fluid (dielectric constant: 7.2) occupying 0.844784 of unit cell:	Completed after 2 iterations at t[s]:    237.87
	FillingsUpdate:  mu: -0.122302198  nElectrons: 300.000000
	Linear fluid (dielectric constant: 7.2) occupying 0.844783 of unit cell:	Completed after 1 iterations at t[s]:    239.65
SCF: Cycle: 44   F: -541.293218904532296   dF: -1.572e-07   |Residual|: 1.634e-04   |deigs|: 6.701e-06  t[s]:    239.77
	Linear fluid (dielectric constant: 7.2) occupying 0.844784 of unit cell:	Completed after 1 iterations at t[s]:    239.87
	FillingsUpdate:  mu: -0.122303905  nElectrons: 300.000000
	Linear fluid (dielectric constant: 7.2) occupying 0.844783 of unit cell:	Completed after 1 iterations at t[s]:    241.58
SCF: Cycle: 45   F: -541.293218977429433   dF: -7.290e-08   |Residual|: 1.033e-04   |deigs|: 4.014e-06  t[s]:    241.71
	Linear fluid (dielectric constant: 7.2) occupying 0.844783 of unit cell:	Completed after 1 iterations at t[s]:    241.81
	FillingsUpdate:  mu: -0.122304696  nElectrons: 300.000000
	Linear fluid (dielectric constant: 7.2) occupying 0.844783 of unit cell:	Completed after 1 iterations at t[s]:    243.99
SCF: Cycle: 46   F: -541.293219063333595   dF: -8.590e-08   |Residual|: 5.862e-05   |deigs|: 7.803e-06  t[s]:    244.11
	Linear fluid (dielectric constant: 7.2) occupying 0.844783 of unit cell:	Completed after 1 iterations at t[s]:    244.22
	FillingsUpdate:  mu: -0.122304270  nElectrons: 300.000000
	Linear fluid (dielectric constant: 7.2) occupying 0.844783 of unit cell:	Completed after 1 iterations at t[s]:    245.75
SCF: Cycle: 47   F: -541.293219065933499   dF: -2.600e-09   |Residual|: 8.105e-05   |deigs|: 3.008e-06  t[s]:    245.87
	Linear fluid (dielectric constant: 7.2) occupying 0.844783 of unit cell:	Completed after 1 iterations at t[s]:    245.98
	FillingsUpdate:  mu: -0.122303997  nElectrons: 300.000000
	Linear fluid (dielectric constant: 7.2) occupying 0.844783 of unit cell:	Completed after 1 iterations at t[s]:    248.04
SCF: Cycle: 48   F: -541.293219059844432   dF: +6.089e-09   |Residual|: 9.646e-05   |deigs|: 2.413e-06  t[s]:    248.17
	Linear fluid (dielectric constant: 7.2) occupying 0.844783 of unit cell:	Completed after 1 iterations at t[s]:    248.27
	FillingsUpdate:  mu: -0.122304469  nElectrons: 300.000000
	Linear fluid (dielectric constant: 7.2) occupying 0.844783 of unit cell:	Completed after 1 iterations at t[s]:    250.27
SCF: Cycle: 49   F: -541.293219111576263   dF: -5.173e-08   |Residual|: 7.262e-05   |deigs|: 4.480e-06  t[s]:    250.39
	Linear fluid (dielectric constant: 7.2) occupying 0.844783 of unit cell:	Completed after 1 iterations at t[s]:    250.49
Setting wave functions to eigenvectors of Hamiltonian
Single-point solvation energy estimate, DeltaF = -0.015852200406584

Computing DFT-D3 correction:
# coordination-number C 3.299 3.299 3.299 3.299 3.299 3.287 3.299 3.299 3.274 3.299 3.299 3.299 3.299 3.299 3.270 3.297 3.299 3.287 3.473 3.299 3.299 3.299 3.287 3.299 3.299 3.287 3.299 3.299 3.274 3.299 3.299 3.473 3.297 3.299 3.299 3.299 3.299 3.287 3.299 3.299 3.274 3.299 3.299 3.299 3.299 3.299 3.297 3.299 3.299 3.274 3.287 3.299 3.297 3.472 3.299 3.299 3.299 3.270 3.299 3.299 3.472 3.299 3.299 3.287 3.299 3.287
# coordination-number N 3.148 3.148 3.148 3.148
# coordination-number Fe 4.997
# diagonal-C6 C 24.29 24.29 24.29 24.29 24.29 24.41 24.29 24.29 24.52 24.29 24.29 24.29 24.29 24.29 24.55 24.31 24.29 24.41 22.05 24.29 24.29 24.29 24.40 24.29 24.29 24.40 24.29 24.29 24.52 24.29 24.29 22.04 24.31 24.29 24.29 24.29 24.29 24.41 24.29 24.29 24.52 24.29 24.29 24.29 24.29 24.29 24.31 24.29 24.29 24.52 24.40 24.29 24.31 22.06 24.29 24.29 24.29 24.55 24.29 24.29 22.06 24.29 24.29 24.40 24.29 24.41
# diagonal-C6 N 15.61 15.61 15.61 15.61
# diagonal-C6 Fe 204.99
EvdW_6 =   -0.051456
EvdW_8 =   -0.041826

# Ionic positions in cartesian coordinates:
ion C  28.005857181630002   0.000000000000000   1.000001652210000 0
ion C  25.672025513790000   4.042310104620000   1.000001652210000 0
ion C  11.669128103520009  20.211535405260001   1.000001652210000 0
ion C   4.667680343250000   0.000000000000000   1.000001652210000 0
ion C  23.338288332449999   0.000000000000000   1.000001652210000 0
ion C   2.333822219190000   4.042310104620000   1.000001652210000 0
ion C  16.336708291080008  20.211535405260001   1.000001652210000 0
ion C  23.338191956219998   8.084622098970000   1.000001652210000 0
ion C   9.335305884330001  16.169223410910011   1.000001652210000 0
ion C   9.335322891900001   0.000000000000000   1.000001652210000 0
ion C  18.670626886499999   0.000000000000000   1.000001652210000 0
ion C  18.670539958920003  16.169223410910011   1.000001652210000 0
ion C  21.004371626759990  12.126913306290001   1.000001652210000 0
ion C  14.002984337850000   0.000000000000000   1.000001652210000 0
ion C   0.000000000000000   8.084622098970000   1.000001652210000 0
ion C   7.001485554870008  20.211535405260001   1.000001652210000 0
ion C  -7.001481775409991  20.211535405260001   1.000001652210000 0
ion C  -2.333822219189998  12.126913306290001   1.000001652210000 0
ion C   4.667663335679999  16.169223410910011   1.000001652210000 0
ion C  -2.333820329459993  20.211535405260001   1.000001652210000 0
ion C   2.333824108920002  20.211535405260001   1.000001652210000 0
ion C  -4.667659556220000  16.169223410910011   1.000001652210000 0
ion C   7.001483665139999   4.042310104620000   1.000001652210000 0
ion C  21.004430208389998   4.042310104620000   1.000001652210000 0
ion C  14.002948432980006  16.169223410910011   1.000001652210000 0
ion C   0.000001889729997  16.169223410910011   1.000001652210000 0
ion C  11.669126213789999   4.042310104620000   1.000001652210000 0
ion C  18.670609878929998   8.084622098970000   1.000001652210000 0
ion C  11.669126213789998  12.126913306290001   1.000001652210000 0
ion C  16.336787659739997  12.126913306290001   1.000001652210000 0
ion C  16.336789549470002   4.042310104620000   1.000001652210000 0
ion C   9.335303994600004   8.084622098970000   1.000001652210000 0
ion C  14.002948432980002   8.084622098970000   1.000001652210000 0
ion C   0.000000000000000   2.694874032990001   1.000001652210000 0
ion C  11.669128103519999  22.906390540950017   1.000001652210000 0
ion C -11.669124324059998  22.906390540950017   1.000001652210000 0
ion C  -2.333822219190000   6.737165240310007   1.000001652210000 0
ion C   9.335305884330001  18.864097443900004   1.000001652210000 0
ion C  -7.001481775409996  22.906390540950017   1.000001652210000 0
ion C   7.001485554870008  22.906390540950017   1.000001652210000 0
ion C   2.333822219189996   6.737165240310007   1.000001652210000 0
ion C  -9.335302104869994  18.864097443900004   1.000001652210000 0
ion C  -4.667661445950001  10.779477234660009   1.000001652210000 0
ion C  -2.333820329460000  22.906390540950017   1.000001652210000 0
ion C   2.333824108919998  22.906390540950017   1.000001652210000 0
ion C  -7.001483665140000  14.821787339280013   1.000001652210000 0
ion C   4.667661445950001   2.694874032990001   1.000001652210000 0
ion C  23.338269435150011   2.694874032990001   1.000001652210000 0
ion C  14.002967330279997  18.864097443900004   1.000001652210000 0
ion C   0.000000000000000  10.779477234660009   1.000001652210000 0
ion C   4.667663335679999  18.864097443900004   1.000001652210000 0
ion C  -4.667640658919993  18.864097443900004   1.000001652210000 0
ion C  -2.333822219190001  14.821787339280013   1.000001652210000 0
ion C   2.333824108919995  14.821787339280013   1.000001652210000 0
ion C   0.000001889729999  18.864097443900004   1.000001652210000 0
ion C   9.335303994599997   2.694874032990001   1.000001652210000 0
ion C  21.004430208390001   6.737165240310007   1.000001652210000 0
ion C  11.669126213790003  14.821787339280013   1.000001652210000 0
ion C  16.336789549469998  14.821787339280013   1.000001652210000 0
ion C  18.670609878930012   2.694874032990001   1.000001652210000 0
ion C   7.001483665139997   6.737165240310007   1.000001652210000 0
ion C  14.002946543250001   2.694874032990001   1.000001652210000 0
ion C  18.670607989199997  10.779477234660009   1.000001652210000 0
ion C  11.669126213789998   6.737165240310007   1.000001652210000 0
ion C  16.336787659740001   6.737165240310007   1.000001652210000 0
ion C  14.002946543250001  10.779477234660009   1.000001652210000 0
ion N   4.667661445950002   8.084622098970000   1.000001652210000 0
ion N   2.333822219190005  12.126913306290001   1.000001652210000 0
ion N   7.001485554869994  14.821787339280013   1.000001652210000 0
ion N   9.335305884329998  10.779477234660009   1.000001652210000 0
ion Fe   5.837109518069997  11.454309266310007   1.000001652210000 0

# Forces in Cartesian coordinates:
force C   0.004004964632890  -0.000056038719068   0.000000000000000 0
force C   0.001415511815069  -0.001551542824151   0.000000000000000 0
force C   0.003873481073409  -0.001804258782438   0.000000000000000 0
force C   0.001516413686750   0.002796242323658   0.000000000000000 0
force C   0.002551757980885  -0.000448425833275   0.000000000000000 0
force C   0.005402888124609   0.002059454906942   0.000000000000000 0
force C   0.000715242155415  -0.000874717717367   0.000000000000000 0
force C  -0.000654881944766   0.001996464494961   0.000000000000000 0
force C  -0.033799943179511  -0.014010212964125   0.000000000000000 0
force C  -0.001150186572175   0.000872531511514   0.000000000000000 0
force C  -0.000476707328626  -0.000197622890533   0.000000000000000 0
force C  -0.000391119036396   0.001069586496343   0.000000000000000 0
force C   0.001927396946550   0.003570557927092   0.000000000000000 0
force C  -0.001592534787566  -0.000852115601952   0.000000000000000 0
force C   0.010014934235912   0.005765988012601   0.000000000000000 0
force C   0.003093714829932   0.002376311817197   0.000000000000000 0
force C   0.001220378306845   0.000694698086672   0.000000000000000 0
force C   0.004476685922001   0.003652273526430   0.000000000000000 0
force C   0.030535234019053   0.011579899183169   0.000000000000000 0
force C   0.000172850925477  -0.001389695681374   0.000000000000000 0
force C  -0.003952570832479   0.000970273237666   0.000000000000000 0
force C   0.003153551807936  -0.000031509301207   0.000000000000000 0
force C   0.004643620172801   0.007567359662738   0.000000000000000 0
force C   0.001374298615637   0.000793477695240   0.000000000000000 0
force C  -0.003009189306709  -0.001737742911182   0.000000000000000 0
force C   0.008863737013619   0.000253049143143   0.000000000000000 0
force C  -0.001116733959196  -0.003920196809585   0.000000000000000 0
force C   0.000877935809022   0.002483687633451   0.000000000000000 0
force C  -0.029027274946555  -0.022243554975071   0.000000000000000 0
force C   0.000367008742171   0.004244228244462   0.000000000000000 0
force C  -0.000448273871397  -0.000270210536814   0.000000000000000 0
force C   0.025298560554652   0.020634338515268   0.000000000000000 0
force C   0.003615821111317   0.001481076336318   0.000000000000000 0
force C  -0.003842850787621   0.001794443774248   0.000000000000000 0
force C  -0.004015787285329   0.000059384026105   0.000000000000000 0
force C  -0.002556837875579   0.000458384601864   0.000000000000000 0
force C   0.003035245042980   0.001749368509951   0.000000000000000 0
force C  -0.005405180250724  -0.002086419749949   0.000000000000000 0
force C   0.000488270391728   0.000219659498873   0.000000000000000 0
force C  -0.001512723623625  -0.002782470775496   0.000000000000000 0
force C   0.033897119499031   0.014090123746778   0.000000000000000 0
force C  -0.001363026916678  -0.000806194562400   0.000000000000000 0
force C  -0.000350418958087  -0.004241899803144   0.000000000000000 0
force C   0.001586261952793   0.000859582728088   0.000000000000000 0
force C   0.001146204617161  -0.000869466200342   0.000000000000000 0
force C  -0.000849118015303  -0.002494379773431   0.000000000000000 0
force C  -0.003095162208128  -0.002366141451229   0.000000000000000 0
force C  -0.000729895853591   0.000858503193157   0.000000000000000 0
force C  -0.001442545925689   0.001551149721257   0.000000000000000 0
force C   0.029143096887933   0.022320625037569   0.000000000000000 0
force C  -0.004631094915169  -0.007597686942175   0.000000000000000 0
force C   0.000430554061626   0.000259231605270   0.000000000000000 0
force C  -0.003591717522822  -0.001509567539126   0.000000000000000 0
force C  -0.025298624335282  -0.020789050664250   0.000000000000000 0
force C   0.001118119891924   0.003917138791262   0.000000000000000 0
force C   0.003951766661666  -0.000990256359925   0.000000000000000 0
force C   0.000383421337117  -0.001044419718765   0.000000000000000 0
force C  -0.010034823468218  -0.005795483640875   0.000000000000000 0
force C   0.000617868162657  -0.002020108492823   0.000000000000000 0
force C  -0.001211572659746  -0.000708373567512   0.000000000000000 0
force C  -0.030641561660121  -0.011534696363348   0.000000000000000 0
force C  -0.000155844408812   0.001387686955857   0.000000000000000 0
force C  -0.001948522947961  -0.003564423753802   0.000000000000000 0
force C  -0.008884806093744  -0.000213303072433   0.000000000000000 0
force C  -0.003166698657001   0.000052396619785   0.000000000000000 0
force C  -0.004491861366248  -0.003638020085313   0.000000000000000 0
force N   0.025845411483870  -0.027931431760196   0.000000000000000 0
force N  -0.011205574402464   0.036317523140134   0.000000000000000 0
force N  -0.025672767507860   0.028041469049006   0.000000000000000 0
force N   0.011510338381511  -0.036295770947929   0.000000000000000 0
force Fe   0.000069683457398  -0.000502671616426   0.000000000000000 0

# Energy components:
   A_diel =       -0.0158607847088644
   Eewald =     3662.7038090246446700
       EH =     4094.5449071200528124
     Eloc =    -8492.3907144570202945
      Enl =       77.8645866861255200
     EvdW =       -0.0932828464594460
      Exc =     -144.8637529155203367
 Exc_core =        3.3626682071217719
       KE =      257.6728021736185497
-------------------------------------
     Etot =     -541.2148377921450901
       TS =        0.0789045386174626
-------------------------------------
        F =     -541.2937423307625977

IonicMinimize: Iter:   0  F: -541.293742330762598  |grad|_K:  0.000e+00  alpha:  1.000e+00
IonicMinimize: Converged (|grad|_K<1.000000e-04).

#--- Lowdin population analysis ---
# oxidation-state C +0.046 +0.038 +0.042 +0.038 +0.042 +0.030 +0.040 +0.038 +0.155 +0.042 +0.040 +0.040 +0.046 +0.042 +0.014 +0.051 +0.044 +0.030 +0.135 +0.042 +0.038 +0.038 +0.036 +0.047 +0.053 +0.036 +0.038 +0.042 +0.155 +0.042 +0.040 +0.135 +0.051 +0.042 +0.046 +0.042 +0.053 +0.030 +0.040 +0.038 +0.155 +0.047 +0.042 +0.042 +0.042 +0.042 +0.051 +0.040 +0.038 +0.155 +0.036 +0.040 +0.051 +0.135 +0.038 +0.038 +0.040 +0.014 +0.038 +0.044 +0.135 +0.042 +0.046 +0.036 +0.038 +0.030
# oxidation-state N -0.133 -0.133 -0.132 -0.132
# oxidation-state Fe +0.144


Dumping 'FeN4-glyme-vdw.fillings' ... done
Dumping 'FeN4-glyme-vdw.wfns' ... done
Dumping 'FeN4-glyme-vdw.fluidState' ... done
Dumping 'FeN4-glyme-vdw.ionpos' ... done
Dumping 'FeN4-glyme-vdw.eigenvals' ... done
End date and time: Wed Jan 15 17:49:05 2025  (Duration: 0-0:04:15.79)
Done!

*************** JDFTx 1.7.0  ***************

Start date and time: Thu Jan 16 15:02:42 2025
Executable jdftx_gpu with command-line: -i /home/akim2/JDFTx/FeN4-glyme-vdw/FeN4-glyme-vdw.in -o /home/akim2/JDFTx/FeN4-glyme-vdw/FeN4-glyme-vdw.out
Running on hosts (process indices):  exp-3-57 (0)
Divided in process groups (process indices):  0 (0)
gpuInit: Found compatible cuda device 0 'Tesla V100-SXM2-32GB'
gpuInit: Selected device 0
Resource initialization completed at t[s]:      0.75
Run totals: 1 processes, 1 threads, 1 GPUs


Input parsed successfully to the following command list (including defaults):

basis kpoint-dependent
coords-type Cartesian
core-overlap-check vector
coulomb-interaction Slab 001
coulomb-truncation-embed 0 0 1
davidson-band-ratio 1.1
dump End State
dump-name FeN4-glyme-vdw.$VAR
elec-cutoff 20 100
elec-eigen-algo Davidson
elec-ex-corr gga-PBE
elec-smearing Fermi 0.01
electronic-minimize  \
	dirUpdateScheme      FletcherReeves \
	linminMethod         DirUpdateRecommended \
	nIterations          100 \
	history              15 \
	knormThreshold       0 \
	energyDiffThreshold  1e-08 \
	nEnergyDiff          2 \
	alphaTstart          1 \
	alphaTmin            1e-10 \
	updateTestStepSize   yes \
	alphaTreduceFactor   0.1 \
	alphaTincreaseFactor 3 \
	nAlphaAdjustMax      3 \
	wolfeEnergy          0.0001 \
	wolfeGradient        0.9 \
	fdTest               no
exchange-regularization WignerSeitzTruncated
fluid LinearPCM 298.000000 1.013250
fluid-ex-corr lda-TF lda-PZ
fluid-gummel-loop 10 1.000000e-05
fluid-minimize  \
	dirUpdateScheme      PolakRibiere \
	linminMethod         DirUpdateRecommended \
	nIterations          400 \
	history              15 \
	knormThreshold       1e-11 \
	energyDiffThreshold  0 \
	nEnergyDiff          2 \
	alphaTstart          1 \
	alphaTmin            1e-10 \
	updateTestStepSize   yes \
	alphaTreduceFactor   0.1 \
	alphaTincreaseFactor 3 \
	nAlphaAdjustMax      6 \
	wolfeEnergy          0.0001 \
	wolfeGradient        0.9 \
	fdTest               no
fluid-solvent Glyme 9.62137 ScalarEOS \
	epsBulk 7.2 \
	pMol 0 \
	epsInf 1.9 \
	Pvap 0 \
	sigmaBulk 0 \
	Rvdw 0 \
	Res 0 \
	tauNuc 343133
forces-output-coords Positions
ion C  28.005857181630002   0.000000000000000   1.000001652210000 0
ion C  25.672025513790000   4.042310104620000   1.000001652210000 0
ion C  11.669128103520009  20.211535405260001   1.000001652210000 0
ion C   4.667680343250000   0.000000000000000   1.000001652210000 0
ion C  23.338288332449999   0.000000000000000   1.000001652210000 0
ion C   2.333822219190000   4.042310104620000   1.000001652210000 0
ion C  16.336708291080008  20.211535405260001   1.000001652210000 0
ion C  23.338191956219998   8.084622098970000   1.000001652210000 0
ion C   9.335305884330001  16.169223410910011   1.000001652210000 0
ion C   9.335322891900001   0.000000000000000   1.000001652210000 0
ion C  18.670626886499999   0.000000000000000   1.000001652210000 0
ion C  18.670539958920003  16.169223410910011   1.000001652210000 0
ion C  21.004371626759990  12.126913306290001   1.000001652210000 0
ion C  14.002984337850000   0.000000000000000   1.000001652210000 0
ion C   0.000000000000000   8.084622098970000   1.000001652210000 0
ion C   7.001485554870008  20.211535405260001   1.000001652210000 0
ion C  -7.001481775409990  20.211535405260001   1.000001652210000 0
ion C  -2.333822219189998  12.126913306290001   1.000001652210000 0
ion C   4.667663335679999  16.169223410910011   1.000001652210000 0
ion C  -2.333820329459991  20.211535405260001   1.000001652210000 0
ion C   2.333824108920002  20.211535405260001   1.000001652210000 0
ion C  -4.667659556220000  16.169223410910011   1.000001652210000 0
ion C   7.001483665139999   4.042310104620000   1.000001652210000 0
ion C  21.004430208389998   4.042310104620000   1.000001652210000 0
ion C  14.002948432980006  16.169223410910011   1.000001652210000 0
ion C   0.000001889729997  16.169223410910011   1.000001652210000 0
ion C  11.669126213789999   4.042310104620000   1.000001652210000 0
ion C  18.670609878929998   8.084622098970000   1.000001652210000 0
ion C  11.669126213789998  12.126913306290001   1.000001652210000 0
ion C  16.336787659739997  12.126913306290001   1.000001652210000 0
ion C  16.336789549470002   4.042310104620000   1.000001652210000 0
ion C   9.335303994600004   8.084622098970000   1.000001652210000 0
ion C  14.002948432980002   8.084622098970000   1.000001652210000 0
ion C   0.000000000000000   2.694874032990001   1.000001652210000 0
ion C  11.669128103519997  22.906390540950021   1.000001652210000 0
ion C -11.669124324059998  22.906390540950021   1.000001652210000 0
ion C  -2.333822219190000   6.737165240310008   1.000001652210000 0
ion C   9.335305884330001  18.864097443900004   1.000001652210000 0
ion C  -7.001481775409997  22.906390540950021   1.000001652210000 0
ion C   7.001485554870007  22.906390540950021   1.000001652210000 0
ion C   2.333822219189995   6.737165240310008   1.000001652210000 0
ion C  -9.335302104869992  18.864097443900004   1.000001652210000 0
ion C  -4.667661445950001  10.779477234660011   1.000001652210000 0
ion C  -2.333820329460000  22.906390540950021   1.000001652210000 0
ion C   2.333824108919996  22.906390540950021   1.000001652210000 0
ion C  -7.001483665140001  14.821787339280014   1.000001652210000 0
ion C   4.667661445950001   2.694874032990001   1.000001652210000 0
ion C  23.338269435150014   2.694874032990001   1.000001652210000 0
ion C  14.002967330279997  18.864097443900004   1.000001652210000 0
ion C  -0.000000000000001  10.779477234660011   1.000001652210000 0
ion C   4.667663335679999  18.864097443900004   1.000001652210000 0
ion C  -4.667640658919992  18.864097443900004   1.000001652210000 0
ion C  -2.333822219190002  14.821787339280014   1.000001652210000 0
ion C   2.333824108919995  14.821787339280014   1.000001652210000 0
ion C   0.000001889729999  18.864097443900004   1.000001652210000 0
ion C   9.335303994599997   2.694874032990001   1.000001652210000 0
ion C  21.004430208389998   6.737165240310008   1.000001652210000 0
ion C  11.669126213790001  14.821787339280014   1.000001652210000 0
ion C  16.336789549469998  14.821787339280014   1.000001652210000 0
ion C  18.670609878930012   2.694874032990001   1.000001652210000 0
ion C   7.001483665139997   6.737165240310008   1.000001652210000 0
ion C  14.002946543250001   2.694874032990001   1.000001652210000 0
ion C  18.670607989199993  10.779477234660011   1.000001652210000 0
ion C  11.669126213789998   6.737165240310008   1.000001652210000 0
ion C  16.336787659740001   6.737165240310008   1.000001652210000 0
ion C  14.002946543249999  10.779477234660011   1.000001652210000 0
ion N   4.667661445950002   8.084622098970000   1.000001652210000 0
ion N   2.333822219190005  12.126913306290001   1.000001652210000 0
ion N   7.001485554869992  14.821787339280014   1.000001652210000 0
ion N   9.335305884329998  10.779477234660011   1.000001652210000 0
ion Fe   5.837109518069997  11.454309266310009   1.000001652210000 0
ion-species GBRV/$ID_pbe.uspp
ion-width Ecut
ionic-minimize  \
	dirUpdateScheme      FletcherReeves \
	linminMethod         DirUpdateRecommended \
	nIterations          200 \
	history              15 \
	knormThreshold       0.0001 \
	energyDiffThreshold  1e-06 \
	nEnergyDiff          2 \
	alphaTstart          1 \
	alphaTmin            1e-10 \
	updateTestStepSize   yes \
	alphaTreduceFactor   0.1 \
	alphaTincreaseFactor 3 \
	nAlphaAdjustMax      3 \
	wolfeEnergy          0.0001 \
	wolfeGradient        0.9 \
	fdTest               no
kpoint   0.000000000000   0.000000000000   0.000000000000  1.00000000000000
kpoint-folding 1 1 1 
latt-move-scale 1 1 1
latt-scale 1 1 1 
lattice Triclinic 28.0058 28.0058 32.1253 90 90 120
lattice-minimize  \
	dirUpdateScheme      L-BFGS \
	linminMethod         DirUpdateRecommended \
	nIterations          0 \
	history              15 \
	knormThreshold       0 \
	energyDiffThreshold  1e-06 \
	nEnergyDiff          2 \
	alphaTstart          1 \
	alphaTmin            1e-10 \
	updateTestStepSize   yes \
	alphaTreduceFactor   0.1 \
	alphaTincreaseFactor 3 \
	nAlphaAdjustMax      3 \
	wolfeEnergy          0.0001 \
	wolfeGradient        0.9 \
	fdTest               no
lcao-params -1 1e-06 0.01
pcm-variant GLSSA13
spintype no-spin
subspace-rotation-factor 1 yes
symmetries automatic
symmetry-threshold 0.0001
van-der-waals D3



---------- Setting up symmetries ----------

Found 24 point-group symmetries of the bravais lattice
Found 2 space-group symmetries with basis
Applied RMS atom displacement 0 bohrs to make symmetries exact.

---------- Initializing the Grid ----------
R = 
[      28.0058     -14.0029            0  ]
[            0      24.2537            0  ]
[            0            0      32.1253  ]
unit cell volume = 21821
G =
[   0.224353    0.12953         -0  ]
[          0   0.259061          0  ]
[          0         -0   0.195584  ]
Minimum fftbox size, Smin = [  128  128  148  ]
Chosen fftbox size, S = [  128  128  150  ]

---------- Initializing tighter grid for wavefunction operations ----------
R = 
[      28.0058     -14.0029            0  ]
[            0      24.2537            0  ]
[            0            0      32.1253  ]
unit cell volume = 21821
G =
[   0.224353    0.12953         -0  ]
[          0   0.259061          0  ]
[          0         -0   0.195584  ]
Minimum fftbox size, Smin = [  116  116  132  ]
Chosen fftbox size, S = [  120  120  140  ]

---------- Exchange Correlation functional ----------
Initalized PBE GGA exchange.
Initalized PBE GGA correlation.

---------- Setting up pseudopotentials ----------
Width of ionic core gaussian charges (only for fluid interactions / plotting) set to 0.397384

Reading pseudopotential file '/home/akim2/jdftx_install/build/pseudopotentials/GBRV/c_pbe.uspp':
  Title: C.  Created by USPP 7.3.6 on 3-2-2014
  Reference state energy: -5.406344.  4 valence electrons in orbitals:
    |200>  occupation: 2  eigenvalue: -0.504890
    |210>  occupation: 2  eigenvalue: -0.194356
  lMax: 1  lLocal: 2  QijEcut: 5
  4 projectors sampled on a log grid with 503 points:
    l: 0  eig: -0.504890  rCut: 1.3
    l: 0  eig: 0.000000  rCut: 1.3
    l: 1  eig: -0.194357  rCut: 1.3
    l: 1  eig: 0.000000  rCut: 1.3
  Partial core density with radius 1.1
  Transforming core density to a uniform radial grid of dG=0.02 with 1618 points.
  Transforming local potential to a uniform radial grid of dG=0.02 with 1618 points.
  Transforming nonlocal projectors to a uniform radial grid of dG=0.02 with 432 points.
  Transforming density augmentations to a uniform radial grid of dG=0.02 with 1618 points.
  Transforming atomic orbitals to a uniform radial grid of dG=0.02 with 432 points.
  Core radius for overlap checks: 1.30 bohrs.

Reading pseudopotential file '/home/akim2/jdftx_install/build/pseudopotentials/GBRV/n_pbe.uspp':
  Title: N.  Created by USPP 7.3.6 on 3-2-2014
  Reference state energy: -9.763716.  5 valence electrons in orbitals:
    |200>  occupation: 2  eigenvalue: -0.681964
    |210>  occupation: 3  eigenvalue: -0.260726
  lMax: 1  lLocal: 2  QijEcut: 6
  4 projectors sampled on a log grid with 491 points:
    l: 0  eig: -0.681964  rCut: 1.15
    l: 0  eig: 0.000000  rCut: 1.15
    l: 1  eig: -0.260729  rCut: 1.2
    l: 1  eig: 0.500000  rCut: 1.2
  Partial core density with radius 0.8
  Transforming core density to a uniform radial grid of dG=0.02 with 1618 points.
  Transforming local potential to a uniform radial grid of dG=0.02 with 1618 points.
  Transforming nonlocal projectors to a uniform radial grid of dG=0.02 with 432 points.
  Transforming density augmentations to a uniform radial grid of dG=0.02 with 1618 points.
  Transforming atomic orbitals to a uniform radial grid of dG=0.02 with 432 points.
  Core radius for overlap checks: 1.20 bohrs.

Reading pseudopotential file '/home/akim2/jdftx_install/build/pseudopotentials/GBRV/fe_pbe.uspp':
  Title: Fe.  Created by USPP 7.3.6 on 15-6-15
  Reference state energy: -124.316937.  16 valence electrons in orbitals:
    |300>  occupation: 2  eigenvalue: -4.008817
    |310>  occupation: 6  eigenvalue: -2.753096
    |320>  occupation: 5  eigenvalue: -0.791264
    |400>  occupation: 2  eigenvalue: -0.516384
    |410>  occupation: 0  eigenvalue: -0.312222
  lMax: 2  lLocal: 3  QijEcut: 6
  6 projectors sampled on a log grid with 607 points:
    l: 0  eig: -4.008819  rCut: 1.55
    l: 0  eig: -0.516386  rCut: 1.55
    l: 1  eig: -2.753096  rCut: 1.55
    l: 1  eig: -0.312226  rCut: 1.55
    l: 2  eig: -0.791264  rCut: 1.65
    l: 2  eig: -0.450000  rCut: 1.65
  Partial core density with radius 0.65
  Transforming core density to a uniform radial grid of dG=0.02 with 1618 points.
  Transforming local potential to a uniform radial grid of dG=0.02 with 1618 points.
  Transforming nonlocal projectors to a uniform radial grid of dG=0.02 with 432 points.
  Transforming density augmentations to a uniform radial grid of dG=0.02 with 1618 points.
  Transforming atomic orbitals to a uniform radial grid of dG=0.02 with 432 points.
  Core radius for overlap checks: 1.65 bohrs.

Initialized 3 species with 71 total atoms.

Folded 1 k-points by 1x1x1 to 1 k-points.

---------- Setting up k-points, bands, fillings ----------
No reducable k-points. 
Computing the number of bands and number of electrons
Calculating initial fillings.
nElectrons: 300.000000   nBands: 293   nStates: 1

----- Setting up reduced wavefunction bases (one per k-point) -----
average nbasis = 93173.000 , ideal nbasis = 93220.781

---------- Setting up coulomb interaction ----------
Fluid mode embedding: using embedded box, but periodic Coulomb kernel.
(Fluid response is responsible for (approximate) separation between periodic images.)
Setting up double-sized grid for truncated Coulomb potentials:
R = 
[      28.0058     -14.0029            0  ]
[            0      24.2537            0  ]
[            0            0      64.2506  ]
unit cell volume = 43641.9
G =
[   0.224353    0.12953         -0  ]
[          0   0.259061          0  ]
[          0         -0  0.0977919  ]
Chosen fftbox size, S = [  128  128  300  ]
Integer grid location selected as the embedding center:
   Grid: [  0  0  5  ]
   Lattice: [  0  0  0.0311281  ]
   Cartesian: [  0  0  1  ]
Constructing Wigner-Seitz cell: 8 faces (6 quadrilaterals, 2 hexagons)
Range-separation parameter for embedded mesh potentials due to point charges: 0.590105 bohrs.

Initializing DFT-D3 calculator:
	Parameters set for gga-PBE functional
	s6:  1.000  s_r6:  1.217
[...]
	Linear fluid (dielectric constant: 7.2) occupying 0.844835 of unit cell:	Completed after 1 iterations at t[s]:    253.48
	FillingsUpdate:  mu: -0.122303597  nElectrons: 300.000000
	SubspaceRotationAdjust: set factor to 0.142
ElecMinimize: Iter:   9  F: -541.293255396994368  |grad|_K:  7.002e-07  alpha:  1.720e-01  linmin: -6.369e-05  t[s]:    254.29
	Linear fluid (dielectric constant: 7.2) occupying 0.844826 of unit cell:	Completed after 0 iterations at t[s]:    254.88
	Linear fluid (dielectric constant: 7.2) occupying 0.844829 of unit cell:	Completed after 1 iterations at t[s]:    255.54
	FillingsUpdate:  mu: -0.122453403  nElectrons: 300.000000
	SubspaceRotationAdjust: set factor to 0.149
ElecMinimize: Iter:  10  F: -541.293257246654548  |grad|_K:  6.296e-07  alpha:  1.230e-01  linmin: -1.343e-04  t[s]:    256.32
	Linear fluid (dielectric constant: 7.2) occupying 0.844822 of unit cell:	Completed after 1 iterations at t[s]:    256.93
	Linear fluid (dielectric constant: 7.2) occupying 0.844824 of unit cell:	Completed after 0 iterations at t[s]:    257.58
	FillingsUpdate:  mu: -0.122422786  nElectrons: 300.000000
	SubspaceRotationAdjust: set factor to 0.169
ElecMinimize: Iter:  11  F: -541.293258784943873  |grad|_K:  5.621e-07  alpha:  9.558e-02  linmin: -1.872e-04  t[s]:    258.39
	Linear fluid (dielectric constant: 7.2) occupying 0.844819 of unit cell:	Completed after 1 iterations at t[s]:    259.00
	Linear fluid (dielectric constant: 7.2) occupying 0.844820 of unit cell:	Completed after 0 iterations at t[s]:    259.63
	FillingsUpdate:  mu: -0.122319474  nElectrons: 300.000000
	SubspaceRotationAdjust: set factor to 0.183
ElecMinimize: Iter:  12  F: -541.293260019381819  |grad|_K:  4.889e-07  alpha:  7.558e-02  linmin: -2.278e-04  t[s]:    260.41
	Linear fluid (dielectric constant: 7.2) occupying 0.844817 of unit cell:	Completed after 1 iterations at t[s]:    261.02
	Linear fluid (dielectric constant: 7.2) occupying 0.844818 of unit cell:	Completed after 0 iterations at t[s]:    261.67
	FillingsUpdate:  mu: -0.122232121  nElectrons: 300.000000
	SubspaceRotationAdjust: set factor to 0.193
ElecMinimize: Iter:  13  F: -541.293260917962812  |grad|_K:  4.495e-07  alpha:  6.044e-02  linmin: -2.581e-04  t[s]:    262.47
	Linear fluid (dielectric constant: 7.2) occupying 0.844815 of unit cell:	Completed after 1 iterations at t[s]:    263.07
	Linear fluid (dielectric constant: 7.2) occupying 0.844816 of unit cell:	Completed after 0 iterations at t[s]:    263.69
	FillingsUpdate:  mu: -0.122190070  nElectrons: 300.000000
	SubspaceRotationAdjust: set factor to 0.216
ElecMinimize: Iter:  14  F: -541.293261652376941  |grad|_K:  4.241e-07  alpha:  4.914e-02  linmin: -2.926e-04  t[s]:    264.47
	Linear fluid (dielectric constant: 7.2) occupying 0.844814 of unit cell:	Completed after 0 iterations at t[s]:    265.06
	Linear fluid (dielectric constant: 7.2) occupying 0.844814 of unit cell:	Completed after 0 iterations at t[s]:    265.69
	FillingsUpdate:  mu: -0.122200643  nElectrons: 300.000000
	SubspaceRotationAdjust: set factor to 0.254
ElecMinimize: Iter:  15  F: -541.293262269675438  |grad|_K:  3.903e-07  alpha:  3.994e-02  linmin: -3.304e-04  t[s]:    266.50
	Linear fluid (dielectric constant: 7.2) occupying 0.844812 of unit cell:	Completed after 0 iterations at t[s]:    267.08
	Linear fluid (dielectric constant: 7.2) occupying 0.844813 of unit cell:	Completed after 0 iterations at t[s]:    267.70
	FillingsUpdate:  mu: -0.122237970  nElectrons: 300.000000
	SubspaceRotationAdjust: set factor to 0.302
ElecMinimize: Iter:  16  F: -541.293262726306693  |grad|_K:  3.597e-07  alpha:  3.163e-02  linmin: -3.457e-04  t[s]:    268.49
	Linear fluid (dielectric constant: 7.2) occupying 0.844811 of unit cell:	Completed after 1 iterations at t[s]:    269.09
	Linear fluid (dielectric constant: 7.2) occupying 0.844812 of unit cell:	Completed after 0 iterations at t[s]:    269.73
	FillingsUpdate:  mu: -0.122271798  nElectrons: 300.000000
	SubspaceRotationAdjust: set factor to 0.36
ElecMinimize: Iter:  17  F: -541.293263025272950  |grad|_K:  3.417e-07  alpha:  2.373e-02  linmin: -3.318e-04  t[s]:    270.53
	Linear fluid (dielectric constant: 7.2) occupying 0.844811 of unit cell:	Completed after 0 iterations at t[s]:    271.12
	Linear fluid (dielectric constant: 7.2) occupying 0.844811 of unit cell:	Completed after 0 iterations at t[s]:    271.74
	FillingsUpdate:  mu: -0.122271245  nElectrons: 300.000000
	SubspaceRotationAdjust: set factor to 0.445
ElecMinimize: Iter:  18  F: -541.293263208651297  |grad|_K:  3.374e-07  alpha:  1.669e-02  linmin: -3.110e-04  t[s]:    272.52
	Linear fluid (dielectric constant: 7.2) occupying 0.844810 of unit cell:	Completed after 0 iterations at t[s]:    273.11
	Linear fluid (dielectric constant: 7.2) occupying 0.844810 of unit cell:	Completed after 0 iterations at t[s]:    273.73
	FillingsUpdate:  mu: -0.122303679  nElectrons: 300.000000
	SubspaceRotationAdjust: set factor to 0.564
ElecMinimize: Iter:  19  F: -541.293263312302656  |grad|_K:  3.424e-07  alpha:  1.077e-02  linmin: -2.837e-04  t[s]:    274.53
	Linear fluid (dielectric constant: 7.2) occupying 0.844810 of unit cell:	Completed after 0 iterations at t[s]:    275.12
	Linear fluid (dielectric constant: 7.2) occupying 0.844810 of unit cell:	Completed after 0 iterations at t[s]:    275.73
	FillingsUpdate:  mu: -0.122303528  nElectrons: 300.000000
	SubspaceRotationAdjust: set factor to 0.72
ElecMinimize: Iter:  20  F: -541.293263364110771  |grad|_K:  3.522e-07  alpha:  6.439e-03  linmin: -2.637e-04  t[s]:    276.50
	Linear fluid (dielectric constant: 7.2) occupying 0.844810 of unit cell:	Completed after 0 iterations at t[s]:    277.10
	Linear fluid (dielectric constant: 7.2) occupying 0.844810 of unit cell:	Completed after 0 iterations at t[s]:    277.72
	FillingsUpdate:  mu: -0.122303501  nElectrons: 300.000000
	SubspaceRotationAdjust: set factor to 0.784
	SubspaceRotationAdjust: resetting CG because factor has changed by 7.67888
	Linear fluid (dielectric constant: 7.2) occupying 0.844810 of unit cell:	Completed after 0 iterations at t[s]:    278.85
ElecMinimize: 	State modified externally: resetting search direction.
ElecMinimize: Iter:  21  F: -541.293263383969929  |grad|_K:  3.753e-07  alpha:  3.549e-03
	Linear fluid (dielectric constant: 7.2) occupying 0.844810 of unit cell:	Completed after 0 iterations at t[s]:    280.20
	Linear fluid (dielectric constant: 7.2) occupying 0.844810 of unit cell:	Completed after 0 iterations at t[s]:    280.81
ElecMinimize: 	Step increased F by 4.622962e-09, reducing alpha to 1.172706e-04.
	Linear fluid (dielectric constant: 7.2) occupying 0.844810 of unit cell:	Completed after 0 iterations at t[s]:    282.06
ElecMinimize: 	Step increased F by 4.713456e-10, reducing alpha to 1.172706e-05.
	Linear fluid (dielectric constant: 7.2) occupying 0.844810 of unit cell:	Completed after 0 iterations at t[s]:    283.31
ElecMinimize: 	Step increased F by 3.967671e-11, reducing alpha to 1.172706e-06.
ElecMinimize: 	Step failed to reduce F after 3 attempts. Quitting step.
ElecMinimize: 	Undoing step.
	Linear fluid (dielectric constant: 7.2) occupying 0.844810 of unit cell:	Completed after 0 iterations at t[s]:    284.59
ElecMinimize: 	Step failed along negative gradient direction.
ElecMinimize: Probably at roundoff error limit. (Stopping)
Setting wave functions to eigenvectors of Hamiltonian
Single-point solvation energy estimate, DeltaF = -0.015373261099967

Computing DFT-D3 correction:
# coordination-number C 3.299 3.299 3.299 3.299 3.299 3.287 3.299 3.299 3.274 3.299 3.299 3.299 3.299 3.299 3.270 3.297 3.299 3.287 3.473 3.299 3.299 3.299 3.287 3.299 3.299 3.287 3.299 3.299 3.274 3.299 3.299 3.473 3.297 3.299 3.299 3.299 3.299 3.287 3.299 3.299 3.274 3.299 3.299 3.299 3.299 3.299 3.297 3.299 3.299 3.274 3.287 3.299 3.297 3.472 3.299 3.299 3.299 3.270 3.299 3.299 3.472 3.299 3.299 3.287 3.299 3.287
# coordination-number N 3.148 3.148 3.148 3.148
# coordination-number Fe 4.997
# diagonal-C6 C 24.29 24.29 24.29 24.29 24.29 24.41 24.29 24.29 24.52 24.29 24.29 24.29 24.29 24.29 24.55 24.31 24.29 24.41 22.05 24.29 24.29 24.29 24.40 24.29 24.29 24.40 24.29 24.29 24.52 24.29 24.29 22.04 24.31 24.29 24.29 24.29 24.29 24.41 24.29 24.29 24.52 24.29 24.29 24.29 24.29 24.29 24.31 24.29 24.29 24.52 24.40 24.29 24.31 22.06 24.29 24.29 24.29 24.55 24.29 24.29 22.06 24.29 24.29 24.40 24.29 24.41
# diagonal-C6 N 15.61 15.61 15.61 15.61
# diagonal-C6 Fe 204.99
EvdW_6 =   -0.051456
EvdW_8 =   -0.041826

# Ionic positions in cartesian coordinates:
ion C  28.005857181630002   0.000000000000000   1.000001652210000 0
ion C  25.672025513790000   4.042310104620000   1.000001652210000 0
ion C  11.669128103520009  20.211535405260001   1.000001652210000 0
ion C   4.667680343250000   0.000000000000000   1.000001652210000 0
ion C  23.338288332449999   0.000000000000000   1.000001652210000 0
ion C   2.333822219190000   4.042310104620000   1.000001652210000 0
ion C  16.336708291080008  20.211535405260001   1.000001652210000 0
ion C  23.338191956219998   8.084622098970000   1.000001652210000 0
ion C   9.335305884330001  16.169223410910011   1.000001652210000 0
ion C   9.335322891900001   0.000000000000000   1.000001652210000 0
ion C  18.670626886499999   0.000000000000000   1.000001652210000 0
ion C  18.670539958920003  16.169223410910011   1.000001652210000 0
ion C  21.004371626759990  12.126913306290001   1.000001652210000 0
ion C  14.002984337850000   0.000000000000000   1.000001652210000 0
ion C   0.000000000000000   8.084622098970000   1.000001652210000 0
ion C   7.001485554870008  20.211535405260001   1.000001652210000 0
ion C  -7.001481775409990  20.211535405260001   1.000001652210000 0
ion C  -2.333822219189998  12.126913306290001   1.000001652210000 0
ion C   4.667663335679999  16.169223410910011   1.000001652210000 0
ion C  -2.333820329459991  20.211535405260001   1.000001652210000 0
ion C   2.333824108920002  20.211535405260001   1.000001652210000 0
ion C  -4.667659556220000  16.169223410910011   1.000001652210000 0
ion C   7.001483665139999   4.042310104620000   1.000001652210000 0
ion C  21.004430208389998   4.042310104620000   1.000001652210000 0
ion C  14.002948432980006  16.169223410910011   1.000001652210000 0
ion C   0.000001889729997  16.169223410910011   1.000001652210000 0
ion C  11.669126213789999   4.042310104620000   1.000001652210000 0
ion C  18.670609878929998   8.084622098970000   1.000001652210000 0
ion C  11.669126213789998  12.126913306290001   1.000001652210000 0
ion C  16.336787659739997  12.126913306290001   1.000001652210000 0
ion C  16.336789549470002   4.042310104620000   1.000001652210000 0
ion C   9.335303994600004   8.084622098970000   1.000001652210000 0
ion C  14.002948432980002   8.084622098970000   1.000001652210000 0
ion C   0.000000000000000   2.694874032990001   1.000001652210000 0
ion C  11.669128103519997  22.906390540950021   1.000001652210000 0
ion C -11.669124324059998  22.906390540950021   1.000001652210000 0
ion C  -2.333822219190000   6.737165240310008   1.000001652210000 0
ion C   9.335305884330001  18.864097443900004   1.000001652210000 0
ion C  -7.001481775409997  22.906390540950021   1.000001652210000 0
ion C   7.001485554870007  22.906390540950021   1.000001652210000 0
ion C   2.333822219189995   6.737165240310008   1.000001652210000 0
ion C  -9.335302104869992  18.864097443900004   1.000001652210000 0
ion C  -4.667661445950001  10.779477234660011   1.000001652210000 0
ion C  -2.333820329460000  22.906390540950021   1.000001652210000 0
ion C   2.333824108919996  22.906390540950021   1.000001652210000 0
ion C  -7.001483665140001  14.821787339280014   1.000001652210000 0
ion C   4.667661445950001   2.694874032990001   1.000001652210000 0
ion C  23.338269435150014   2.694874032990001   1.000001652210000 0
ion C  14.002967330279997  18.864097443900004   1.000001652210000 0
ion C  -0.000000000000001  10.779477234660011   1.000001652210000 0
ion C   4.667663335679999  18.864097443900004   1.000001652210000 0
ion C  -4.667640658919992  18.864097443900004   1.000001652210000 0
ion C  -2.333822219190002  14.821787339280014   1.000001652210000 0
ion C   2.333824108919995  14.821787339280014   1.000001652210000 0
ion C   0.000001889729999  18.864097443900004   1.000001652210000 0
ion C   9.335303994599997   2.694874032990001   1.000001652210000 0
ion C  21.004430208389998   6.737165240310008   1.000001652210000 0
ion C  11.669126213790001  14.821787339280014   1.000001652210000 0
ion C  16.336789549469998  14.821787339280014   1.000001652210000 0
ion C  18.670609878930012   2.694874032990001   1.000001652210000 0
ion C   7.001483665139997   6.737165240310008   1.000001652210000 0
ion C  14.002946543250001   2.694874032990001   1.000001652210000 0
ion C  18.670607989199993  10.779477234660011   1.000001652210000 0
ion C  11.669126213789998   6.737165240310008   1.000001652210000 0
ion C  16.336787659740001   6.737165240310008   1.000001652210000 0
ion C  14.002946543249999  10.779477234660011   1.000001652210000 0
ion N   4.667661445950002   8.084622098970000   1.000001652210000 0
ion N   2.333822219190005  12.126913306290001   1.000001652210000 0
ion N   7.001485554869992  14.821787339280014   1.000001652210000 0
ion N   9.335305884329998  10.779477234660011   1.000001652210000 0
ion Fe   5.837109518069997  11.454309266310009   1.000001652210000 0

# Forces in Cartesian coordinates:
force C   0.004001767469715  -0.000057971340519   0.000000000000000 0
force C   0.001419070489553  -0.001554127500822   0.000000000000000 0
force C   0.003880042686225  -0.001801268418827   0.000000000000000 0
force C   0.001510200209615   0.002787814483310   0.000000000000000 0
force C   0.002557992150843  -0.000442576593073   0.000000000000000 0
force C   0.005392037047525   0.002059542861432   0.000000000000000 0
force C   0.000718001749813  -0.000871682814235   0.000000000000000 0
force C  -0.000654610688422   0.002001070419811   0.000000000000000 0
force C  -0.033792353890550  -0.014018839302751   0.000000000000000 0
force C  -0.001152297250266   0.000870638681673   0.000000000000000 0
force C  -0.000464996998930  -0.000194524534883   0.000000000000000 0
force C  -0.000386273817349   0.001070373108097   0.000000000000000 0
force C   0.001922542029513   0.003568550506201   0.000000000000000 0
force C  -0.001590120217374  -0.000850371659757   0.000000000000000 0
force C   0.010017154406849   0.005771139502067   0.000000000000000 0
force C   0.003098968199373   0.002384542413760   0.000000000000000 0
force C   0.001213146904825   0.000689345235700   0.000000000000000 0
force C   0.004472528404953   0.003640419913965   0.000000000000000 0
force C   0.030526273618441   0.011588255758923   0.000000000000000 0
force C   0.000170512523520  -0.001390114766904   0.000000000000000 0
force C  -0.003955489089294   0.000974197424919   0.000000000000000 0
force C   0.003146021293439  -0.000033759272428   0.000000000000000 0
force C   0.004638230291258   0.007557645985830   0.000000000000000 0
force C   0.001382428978567   0.000797459602338   0.000000000000000 0
force C  -0.002995846108899  -0.001729505754597   0.000000000000000 0
force C   0.008855600375416   0.000252812040317   0.000000000000000 0
force C  -0.001114742034051  -0.003927071948187   0.000000000000000 0
force C   0.000886965631939   0.002485514608190   0.000000000000000 0
force C  -0.029023982705406  -0.022223362112194   0.000000000000000 0
force C   0.000372002043088   0.004249423260366   0.000000000000000 0
force C  -0.000438089205012  -0.000263173807934   0.000000000000000 0
force C   0.025301413623877   0.020612354944745   0.000000000000000 0
force C   0.003629649108378   0.001480587324021   0.000000000000000 0
force C  -0.003848906581555   0.001792159211359   0.000000000000000 0
force C  -0.004013223300005   0.000061123284370   0.000000000000000 0
force C  -0.002562103851443   0.000452576753867   0.000000000000000 0
force C   0.003022656275284   0.001741297485008   0.000000000000000 0
force C  -0.005395325020855  -0.002087869386082   0.000000000000000 0
force C   0.000476122994046   0.000217760483608   0.000000000000000 0
force C  -0.001506580427640  -0.002775191715613   0.000000000000000 0
force C   0.033886716672876   0.014098270531340   0.000000000000000 0
force C  -0.001371845669277  -0.000810474885368   0.000000000000000 0
force C  -0.000354218650503  -0.004246359018237   0.000000000000000 0
force C   0.001583370400081   0.000857739495422   0.000000000000000 0
force C   0.001148621719887  -0.000868805792839   0.000000000000000 0
force C  -0.000858590140729  -0.002495676845028   0.000000000000000 0
force C  -0.003100326929898  -0.002374487030501   0.000000000000000 0
force C  -0.000731067876797   0.000855553330214   0.000000000000000 0
force C  -0.001446252442651   0.001552975951716   0.000000000000000 0
force C   0.029136225672287   0.022300612147509   0.000000000000000 0
force C  -0.004625955763617  -0.007588319080272   0.000000000000000 0
force C   0.000421142748856   0.000251282283431   0.000000000000000 0
force C  -0.003605004542140  -0.001508586361097   0.000000000000000 0
force C  -0.025302289130494  -0.020767119666393   0.000000000000000 0
force C   0.001116823482549   0.003922425837003   0.000000000000000 0
force C   0.003954018777908  -0.000994433506975   0.000000000000000 0
force C   0.000379714305121  -0.001044289239374   0.000000000000000 0
force C  -0.010036057429374  -0.005801203316928   0.000000000000000 0
force C   0.000616909322319  -0.002025043175451   0.000000000000000 0
force C  -0.001205594951328  -0.000703636233639   0.000000000000000 0
force C  -0.030629090955637  -0.011543611246529   0.000000000000000 0
force C  -0.000154102079097   0.001388454768921   0.000000000000000 0
force C  -0.001944746779891  -0.003562002412380   0.000000000000000 0
force C  -0.008878841269280  -0.000210990587092   0.000000000000000 0
force C  -0.003159529206157   0.000055232597525   0.000000000000000 0
force C  -0.004487547708732  -0.003625803241412   0.000000000000000 0
force N   0.025828372693095  -0.027908758823375   0.000000000000000 0
force N  -0.011183906656034   0.036283613542143   0.000000000000000 0
force N  -0.025659092117259   0.028022868949751   0.000000000000000 0
force N   0.011493251351083  -0.036260003975740   0.000000000000000 0
force Fe  -0.000058144163346  -0.000418486168566   0.000000000000000 0

# Energy components:
   A_diel =       -0.0157513381898617
   Eewald =     3662.7038090246446700
       EH =     4094.5604175951962134
     Eloc =    -8492.4059164041045733
      Enl =       77.8645782095912011
     EvdW =       -0.0932828464594460
      Exc =     -144.8638990353975657
 Exc_core =        3.3626682071217719
       KE =      257.6729435436452036
-------------------------------------
     Etot =     -541.2144330439525675
       TS =        0.0788303399781313
-------------------------------------
        F =     -541.2932633839307073

IonicMinimize: Iter:   0  F: -541.293263383930707  |grad|_K:  0.000e+00  alpha:  1.000e+00
IonicMinimize: Converged (|grad|_K<1.000000e-04).

#--- Lowdin population analysis ---
# oxidation-state C +0.046 +0.038 +0.042 +0.038 +0.042 +0.030 +0.040 +0.038 +0.155 +0.042 +0.040 +0.040 +0.046 +0.042 +0.014 +0.051 +0.044 +0.030 +0.135 +0.042 +0.038 +0.038 +0.036 +0.047 +0.053 +0.036 +0.038 +0.042 +0.155 +0.042 +0.040 +0.135 +0.051 +0.042 +0.046 +0.042 +0.053 +0.030 +0.040 +0.038 +0.155 +0.047 +0.042 +0.042 +0.042 +0.042 +0.051 +0.040 +0.038 +0.155 +0.036 +0.040 +0.051 +0.135 +0.038 +0.038 +0.040 +0.014 +0.038 +0.044 +0.135 +0.042 +0.046 +0.036 +0.038 +0.030
# oxidation-state N -0.132 -0.132 -0.132 -0.132
# oxidation-state Fe +0.140


Dumping 'FeN4-glyme-vdw.fillings' ... done
Dumping 'FeN4-glyme-vdw.wfns' ... done
Dumping 'FeN4-glyme-vdw.fluidState' ... done
Dumping 'FeN4-glyme-vdw.ionpos' ... done
Dumping 'FeN4-glyme-vdw.eigenvals' ... done
End date and time: Thu Jan 16 15:07:32 2025  (Duration: 0-0:04:49.56)
Done!
