
*************** JDFTx 1.7.0  ***************

Start date and time: Sat Sep 28 11:50:18 2024
Executable jdftx with command-line: -i graphene-SCF.in -o graphene-SCF.out
Running on hosts (process indices):  thinkstation-ThinkStation-P620 (0)
Divided in process groups (process indices):  0 (0)
Resource initialization completed at t[s]:      0.00
Run totals: 1 processes, 16 threads, 0 GPUs


Input parsed successfully to the following command list (including defaults):

basis kpoint-dependent
coords-type Cartesian
core-overlap-check vector
coulomb-interaction Slab 001
coulomb-truncation-embed 0 0 0.621625
davidson-band-ratio 1.1
dump End State
dump-name graphene-SCF.$VAR
elec-cutoff 20 100
elec-eigen-algo Davidson
elec-ex-corr gga-PBE
elec-smearing Fermi 0.01
electronic-minimize  \
	dirUpdateScheme      FletcherReeves \
	linminMethod         DirUpdateRecommended \
	nIterations          100 \
	history              15 \
	knormThreshold       0 \
	energyDiffThreshold  1e-08 \
	nEnergyDiff          2 \
	alphaTstart          1 \
	alphaTmin            1e-10 \
	updateTestStepSize   yes \
	alphaTreduceFactor   0.1 \
	alphaTincreaseFactor 3 \
	nAlphaAdjustMax      3 \
	wolfeEnergy          0.0001 \
	wolfeGradient        0.9 \
	fdTest               no
electronic-scf  \
	nIterations	50 \
	energyDiffThreshold	1e-08 \
	residualThreshold	1e-07 \
	mixFraction	0.5 \
	qMetric	0.8 \
	history	10 \
	nEigSteps	2 \
	eigDiffThreshold	1e-08 \
	mixedVariable	Density \
	qKerker	0.8 \
	qKappa	-1 \
	verbose	no \
	mixFractionMag	1.5
exchange-regularization WignerSeitzTruncated
fluid None
fluid-ex-corr lda-TF lda-PZ
fluid-gummel-loop 10 1.000000e-05
fluid-minimize  \
	dirUpdateScheme      PolakRibiere \
	linminMethod         DirUpdateRecommended \
	nIterations          100 \
	history              15 \
	knormThreshold       0 \
	energyDiffThreshold  0 \
	nEnergyDiff          2 \
	alphaTstart          1 \
	alphaTmin            1e-10 \
	updateTestStepSize   yes \
	alphaTreduceFactor   0.1 \
	alphaTincreaseFactor 3 \
	nAlphaAdjustMax      3 \
	wolfeEnergy          0.0001 \
	wolfeGradient        0.9 \
	fdTest               no
fluid-solvent H2O 55.338 ScalarEOS \
	epsBulk 78.4 \
	pMol 0.92466 \
	epsInf 1.77 \
	Pvap 1.06736e-10 \
	sigmaBulk 4.62e-05 \
	Rvdw 2.61727 \
	Res 1.42 \
	tauNuc 343133 \
	poleEl 15 7 1
forces-output-coords Positions
ion C  28.014162925916441   0.004453384674690   0.488700336250719 1
ion C  16.346425888740537  20.217875004139895   0.494441368511783 1
ion C   2.341491267388133   4.043706087769919   0.494288650092468 1
ion C  23.346676486641851   0.004384458899791   0.483901318126691 1
ion C   4.676245474304146   0.003825684533332   0.487138916511071 1
ion C  11.677668704867260  20.219126759791724   0.483004299183591 1
ion C  25.678811057378848   4.044276294935732   0.499408675705300 1
ion C  18.680488284317882  16.174907144025568   0.511821298159187 1
ion C   4.677492135958810   8.082325094833877   0.480434218273455 1
ion C  18.679382389646399   0.004419539788082   0.483426455373358 1
ion C   9.343823638707176   0.003953947274407   0.485047852861264 1
ion C   9.343132606087327  16.180035273305720   0.462238808629923 1
ion C  23.345124811792481   8.086659640014878   0.516110558754391 1
ion C  21.013103120380649  12.130537488137511   0.522228736787792 1
ion C   7.010396563482270  12.130147336608232   0.448669631144288 1
ion C  14.011721669833374   0.004487328277764   0.486992976749196 1
ion C  14.013558296018106  16.179574426149870   0.498757826101649 1
ion C   7.009818515150769   4.042499155409574   0.483844483499080 1
ion C  21.013258005010439   4.045063281439558   0.499911963395391 1
ion C  16.350423015839485  12.130599170600259   0.518035179028320 1
ion C   9.342281602294870   8.081813368171400   0.475546112810431 1
ion C  16.347062351595820   4.043993563439029   0.499817348777331 1
ion C  11.678225160842871   4.043864528802732   0.491257888877005 1
ion C  11.678772579836281  12.132656534902800   0.479943835860723 1
ion C  18.681222676379655   8.086169753017820   0.517364251816780 1
ion C   7.009916898374378  20.219343866477669   0.472579061328808 1
ion C  -6.992609659547584  20.216547172333016   0.496399385793957 1
ion C   0.003266530903848   8.083516107494180   0.512278174675210 1
ion C  14.015955885954099   8.083119896903865   0.508223950230427 1
ion C   2.342093071666017  20.219019570074146   0.480326146245694 1
ion C  -4.659880863172909  16.174560757149859   0.510300320021681 1
ion C   2.339186588937720  12.132995157544903   0.489299233363809 1
ion C  -2.329954496254302  12.131009916067642   0.516589949079655 1
ion C  -2.326304055174534  20.217696998809753   0.491504033873881 1
ion C   4.676726791076918  16.180841540819191   0.466168264274856 1
ion C   0.006137637165399  16.178703673620589   0.495659639727563 1
ion C  14.012348709644570  21.564438777735628   0.489604884116641 1
ion C   2.342824768057115   1.350062948308334   0.489941598843277 1
ion C  25.680516519737949   1.350702761820675   0.488903069804863 1
ion C  16.348003904104942  17.524448264432507   0.502678071625706 1
ion C   4.676210764116784   5.387823892778022   0.487264968155824 1
ion C  21.013008310099927   1.350663380772684   0.487704732809103 1
ion C   7.009950811972321   1.349259225414340   0.484223002515041 1
ion C  11.677762640953041  17.525450596518706   0.480362871851007 1
ion C  23.346324894239519   5.392231680162620   0.505102574666328 1
ion C  18.681997813576384  13.480334719088798   0.519483950082130 1
ion C   7.010361707405792   9.432882251512828   0.458902066493309 1
ion C  16.345682566415046   1.350653197918856   0.488395943382983 1
ion C  11.677343100946770   1.350076750284254   0.487853421160832 1
ion C   9.341532935239169  13.484022034967618   0.456042416622729 1
ion C  21.013053215586027   9.435742751134139   0.521852547273891 1
ion C   9.343921412688335  21.564967661889821   0.477772535012715 1
ion C  -9.325533050580070  21.563719294268761   0.490997739711112 1
ion C   0.006621766066881   5.389878389931321   0.504040826675343 1
ion C  14.017461384638807  13.483496515252018   0.507386649611831 1
ion C   9.343663251770447   5.388443811910577   0.484361305393769 1
ion C  18.680116870408927   5.391612106124537   0.506293009054609 1
ion C  16.349307086552550   9.434553397568571   0.516260415420756 1
ion C  11.678730991940606   9.429609444088063   0.492142348590622 1
ion C  14.013221041087657   5.389351834858124   0.501819267339133 1
ion C   4.676087364948579  21.564740743826302   0.475841543189748 1
ion C  -6.992581671971104  17.522334606507364   0.508981806064543 1
ion C   2.340099012219734   9.430388049872771   0.500315667712528 1
ion C  -2.329065275086099   9.435064464295710   0.516027596967280 1
ion C  -4.659725635779632  21.563781912962209   0.489331157040134 1
ion C   7.009941513485121  17.526875139515802   0.463681891904688 1
ion C   0.007471279885106  21.564584663929224   0.486805220524936 1
ion C  -4.661048587855587  13.480345295815439   0.517705640484358 1
ion C   4.678420581440577  13.483969691801144   0.461191111877959 1
ion C   2.341877433067657  17.525550844977925   0.479816581548121 1
ion C  -2.327622151484986  17.523857084604192   0.499038527601275 1
ion C   0.001623704991355  13.483660458022491   0.506902314285373 1
ion-species GBRV/$ID_pbe.uspp
ion-width 0
ionic-minimize  \
	dirUpdateScheme      L-BFGS \
	linminMethod         DirUpdateRecommended \
	nIterations          0 \
	history              15 \
	knormThreshold       0.0001 \
	energyDiffThreshold  1e-06 \
	nEnergyDiff          2 \
	alphaTstart          1 \
	alphaTmin            1e-10 \
	updateTestStepSize   yes \
	alphaTreduceFactor   0.1 \
	alphaTincreaseFactor 3 \
	nAlphaAdjustMax      3 \
	wolfeEnergy          0.0001 \
	wolfeGradient        0.9 \
	fdTest               no
kpoint   0.000000000000   0.000000000000   0.000000000000  1.00000000000000
kpoint-folding 1 1 1 
latt-move-scale 1 1 1
latt-scale 1 1 1 
lattice Triclinic 28.0058 28.0058 37.7946 90 90 120
lattice-minimize  \
	dirUpdateScheme      L-BFGS \
	linminMethod         DirUpdateRecommended \
	nIterations          0 \
	history              15 \
	knormThreshold       0 \
	energyDiffThreshold  1e-06 \
	nEnergyDiff          2 \
	alphaTstart          1 \
	alphaTmin            1e-10 \
	updateTestStepSize   yes \
	alphaTreduceFactor   0.1 \
	alphaTincreaseFactor 3 \
	nAlphaAdjustMax      3 \
	wolfeEnergy          0.0001 \
	wolfeGradient        0.9 \
	fdTest               no
lcao-params -1 1e-06 0.01
pcm-variant GLSSA13
spintype no-spin
subspace-rotation-factor 1 yes
symmetries automatic
symmetry-threshold 0.0001



---------- Setting up symmetries ----------

Found 24 point-group symmetries of the bravais lattice
Found 1 space-group symmetries with basis
Applied RMS atom displacement 0 bohrs to make symmetries exact.

---------- Initializing the Grid ----------
R = 
[      28.0058     -14.0029            0  ]
[            0      24.2537            0  ]
[            0            0      37.7946  ]
unit cell volume = 25671.8
G =
[   0.224353    0.12953         -0  ]
[          0   0.259061          0  ]
[          0         -0   0.166246  ]
Minimum fftbox size, Smin = [  128  128  172  ]
Chosen fftbox size, S = [  128  128  180  ]

---------- Initializing tighter grid for wavefunction operations ----------
R = 
[      28.0058     -14.0029            0  ]
[            0      24.2537            0  ]
[            0            0      37.7946  ]
unit cell volume = 25671.8
G =
[   0.224353    0.12953         -0  ]
[          0   0.259061          0  ]
[          0         -0   0.166246  ]
Minimum fftbox size, Smin = [  116  116  156  ]
Chosen fftbox size, S = [  120  120  160  ]

---------- Exchange Correlation functional ----------
Initalized PBE GGA exchange.
Initalized PBE GGA correlation.

---------- Setting up pseudopotentials ----------
Width of ionic core gaussian charges (only for fluid interactions / plotting) set to 0

Reading pseudopotential file '/home/andrewkim/jdftx_install/build/pseudopotentials/GBRV/c_pbe.uspp':
  Title: C.  Created by USPP 7.3.6 on 3-2-2014
  Reference state energy: -5.406344.  4 valence electrons in orbitals:
    |200>  occupation: 2  eigenvalue: -0.504890
    |210>  occupation: 2  eigenvalue: -0.194356
  lMax: 1  lLocal: 2  QijEcut: 5
  4 projectors sampled on a log grid with 503 points:
    l: 0  eig: -0.504890  rCut: 1.3
    l: 0  eig: 0.000000  rCut: 1.3
    l: 1  eig: -0.194357  rCut: 1.3
    l: 1  eig: 0.000000  rCut: 1.3
  Partial core density with radius 1.1
  Transforming core density to a uniform radial grid of dG=0.02 with 1625 points.
  Transforming local potential to a uniform radial grid of dG=0.02 with 1625 points.
  Transforming nonlocal projectors to a uniform radial grid of dG=0.02 with 432 points.
  Transforming density augmentations to a uniform radial grid of dG=0.02 with 1625 points.
  Transforming atomic orbitals to a uniform radial grid of dG=0.02 with 432 points.
  Core radius for overlap checks: 1.30 bohrs.

Initialized 1 species with 72 total atoms.

Folded 1 k-points by 1x1x1 to 1 k-points.

---------- Setting up k-points, bands, fillings ----------
No reducable k-points. 
Computing the number of bands and number of electrons
Calculating initial fillings.
nElectrons: 288.000000   nBands: 288   nStates: 1

----- Setting up reduced wavefunction bases (one per k-point) -----
average nbasis = 109673.000 , ideal nbasis = 109671.883

---------- Setting up coulomb interaction ----------
Setting up double-sized grid for truncated Coulomb potentials:
R = 
[      28.0058     -14.0029            0  ]
[            0      24.2537            0  ]
[            0            0      75.5892  ]
unit cell volume = 51343.6
G =
[   0.224353    0.12953         -0  ]
[          0   0.259061          0  ]
[          0         -0  0.0831228  ]
Chosen fftbox size, S = [  128  128  360  ]
Integer grid location selected as the embedding center:
   Grid: [  0  0  3  ]
   Lattice: [  0  0  0.0164475  ]
   Cartesian: [  0  0  0.621625  ]
Constructing Wigner-Seitz cell: 8 faces (6 quadrilaterals, 2 hexagons)
Range-separation parameter for embedded mesh potentials due to point charges: 0.590105 bohrs.
Initialized slab truncation along lattice direction 001

---------- Setting up 2D ewald sum ----------
Optimum gaussian width for ewald sums = 15.547689 bohr.
Real space sums over 289 unit cells with max indices [  8  8  0  ]
Reciprocal space sums over 81 terms with max indices [  4  4  0  ]

---------- Allocating electronic variables ----------
Initializing wave functions:  linear combination of atomic orbitals
C pseudo-atom occupations:   s ( 2 )  p ( 2 )
	FillingsUpdate:  mu: -0.320352097  nElectrons: 288.000000
LCAOMinimize: Iter:   0  F: -406.8215090974340455  |grad|_K:  6.241e-05  alpha:  1.000e+00
	FillingsUpdate:  mu: -0.320362631  nElectrons: 288.000000
LCAOMinimize: Iter:   1  F: -406.8215846103829563  |grad|_K:  4.751e-05  alpha:  4.636e-01  linmin: -1.535e-04  cgtest:  2.174e-03  t[s]:    118.02
	FillingsUpdate:  mu: -0.320373903  nElectrons: 288.000000
LCAOMinimize: Iter:   2  F: -406.8216263306256337  |grad|_K:  1.297e-05  alpha:  4.422e-01  linmin:  6.515e-05  cgtest: -9.030e-03  t[s]:    154.11
	FillingsUpdate:  mu: -0.320374783  nElectrons: 288.000000
LCAOMinimize: Iter:   3  F: -406.8216284183397988  |grad|_K:  1.556e-06  alpha:  2.974e-01  linmin: -7.739e-05  cgtest:  1.408e-03  t[s]:    190.59
	FillingsUpdate:  mu: -0.320374687  nElectrons: 288.000000
LCAOMinimize: Iter:   4  F: -406.8216284501689302  |grad|_K:  2.064e-07  alpha:  3.152e-01  linmin:  1.146e-04  cgtest: -5.725e-04  t[s]:    226.86
	FillingsUpdate:  mu: -0.320374579  nElectrons: 288.000000
LCAOMinimize: Iter:   5  F: -406.8216284509135789  |grad|_K:  8.965e-08  alpha:  4.636e-01  linmin:  5.401e-02  cgtest: -1.928e-01  t[s]:    263.36
LCAOMinimize: Converged (|Delta F|<1.000000e-06 for 2 iters).


---- Citations for features of the code used in this run ----

   Software package:
      R. Sundararaman, K. Letchworth-Weaver, K.A. Schwarz, D. Gunceler, Y. Ozhabes and T.A. Arias, 'JDFTx: software for joint density-functional theory', SoftwareX 6, 278 (2017)

   gga-PBE exchange-correlation functional:
      J.P. Perdew, K. Burke and M. Ernzerhof, Phys. Rev. Lett. 77, 3865 (1996)

   Pseudopotentials:
      KF Garrity, JW Bennett, KM Rabe and D Vanderbilt, Comput. Mater. Sci. 81, 446 (2014)

   Truncated Coulomb potentials:
      R. Sundararaman and T.A. Arias, Phys. Rev. B 87, 165122 (2013)

This list may not be complete. Please suggest additional citations or
report any other bugs at https://github.com/shankar1729/jdftx/issues

Initialization completed successfully at t[s]:    285.69


-------- Electronic minimization -----------
Will mix electronic density at each iteration.
	FillingsUpdate:  mu: -0.320374579  nElectrons: 288.000000
	FillingsUpdate:  mu: -0.329115321  nElectrons: 288.000000
SCF: Cycle:  0   F: -410.467358523568066   dF: -3.646e+00   |Residual|: 9.579e-01   |deigs|: 1.189e-01  t[s]:    481.72
	FillingsUpdate:  mu: -0.293626881  nElectrons: 288.000000
SCF: Cycle:  1   F: -410.915499760130558   dF: -4.481e-01   |Residual|: 5.035e-01   |deigs|: 3.928e-02  t[s]:    658.51
	FillingsUpdate:  mu: -0.247652511  nElectrons: 288.000000
SCF: Cycle:  2   F: -411.193661127797782   dF: -2.782e-01   |Residual|: 1.280e-01   |deigs|: 4.657e-02  t[s]:    834.44
	FillingsUpdate:  mu: -0.242252848  nElectrons: 288.000000
SCF: Cycle:  3   F: -411.191064334694374   dF: +2.597e-03   |Residual|: 7.470e-02   |deigs|: 4.777e-03  t[s]:   1011.10
	FillingsUpdate:  mu: -0.225389490  nElectrons: 288.000000
SCF: Cycle:  4   F: -411.207848524686142   dF: -1.678e-02   |Residual|: 3.357e-02   |deigs|: 1.532e-02  t[s]:   1188.35
	FillingsUpdate:  mu: -0.211391677  nElectrons: 288.000000
SCF: Cycle:  5   F: -411.210484154793789   dF: -2.636e-03   |Residual|: 1.916e-02   |deigs|: 1.208e-02  t[s]:   1365.20
	FillingsUpdate:  mu: -0.203146324  nElectrons: 288.000000
SCF: Cycle:  6   F: -411.209848637969515   dF: +6.355e-04   |Residual|: 3.495e-02   |deigs|: 8.222e-03  t[s]:   1536.51
	FillingsUpdate:  mu: -0.195758573  nElectrons: 288.000000
SCF: Cycle:  7   F: -411.211179578438362   dF: -1.331e-03   |Residual|: 3.266e-02   |deigs|: 6.901e-03  t[s]:   1714.57
	FillingsUpdate:  mu: -0.193944816  nElectrons: 288.000000
SCF: Cycle:  8   F: -411.210917350494242   dF: +2.622e-04   |Residual|: 2.527e-02   |deigs|: 3.036e-03  t[s]:   1890.41
	FillingsUpdate:  mu: -0.185870240  nElectrons: 288.000000
SCF: Cycle:  9   F: -411.211595379566177   dF: -6.780e-04   |Residual|: 1.127e-02   |deigs|: 7.206e-03  t[s]:   2056.81
	FillingsUpdate:  mu: -0.182109913  nElectrons: 288.000000
SCF: Cycle: 10   F: -411.211591781644188   dF: +3.598e-06   |Residual|: 1.385e-02   |deigs|: 4.216e-03  t[s]:   2209.61
	FillingsUpdate:  mu: -0.176449045  nElectrons: 288.000000
SCF: Cycle: 11   F: -411.211596219150010   dF: -4.438e-06   |Residual|: 4.916e-03   |deigs|: 5.342e-03  t[s]:   2362.90
	FillingsUpdate:  mu: -0.168206204  nElectrons: 288.000000
SCF: Cycle: 12   F: -411.211568678639935   dF: +2.754e-05   |Residual|: 4.910e-03   |deigs|: 8.202e-03  t[s]:   2529.69
	FillingsUpdate:  mu: -0.161042058  nElectrons: 288.000000
SCF: Cycle: 13   F: -411.211608293284542   dF: -3.961e-05   |Residual|: 3.892e-03   |deigs|: 7.095e-03  t[s]:   2682.71
	FillingsUpdate:  mu: -0.158069878  nElectrons: 288.000000
SCF: Cycle: 14   F: -411.211624592297710   dF: -1.630e-05   |Residual|: 1.370e-03   |deigs|: 3.485e-03  t[s]:   2836.07
	FillingsUpdate:  mu: -0.157338493  nElectrons: 288.000000
SCF: Cycle: 15   F: -411.211626402888271   dF: -1.811e-06   |Residual|: 7.754e-04   |deigs|: 1.411e-03  t[s]:   2989.56
	FillingsUpdate:  mu: -0.156994586  nElectrons: 288.000000
SCF: Cycle: 16   F: -411.211626889045647   dF: -4.862e-07   |Residual|: 2.554e-04   |deigs|: 2.033e-03  t[s]:   3143.83
	FillingsUpdate:  mu: -0.156862399  nElectrons: 288.000000
SCF: Cycle: 17   F: -411.211627016017019   dF: -1.270e-07   |Residual|: 1.303e-04   |deigs|: 8.569e-04  t[s]:   3297.59
	FillingsUpdate:  mu: -0.156824058  nElectrons: 288.000000
SCF: Cycle: 18   F: -411.211627061165700   dF: -4.515e-08   |Residual|: 6.192e-05   |deigs|: 6.655e-04  t[s]:   3450.81
	FillingsUpdate:  mu: -0.156815056  nElectrons: 288.000000
SCF: Cycle: 19   F: -411.211627077891308   dF: -1.673e-08   |Residual|: 4.775e-05   |deigs|: 2.942e-04  t[s]:   3603.94
	FillingsUpdate:  mu: -0.156806559  nElectrons: 288.000000
SCF: Cycle: 20   F: -411.211627112920496   dF: -3.503e-08   |Residual|: 4.356e-05   |deigs|: 2.233e-04  t[s]:   3756.90
	FillingsUpdate:  mu: -0.156819461  nElectrons: 288.000000
SCF: Cycle: 21   F: -411.211627142088957   dF: -2.917e-08   |Residual|: 3.087e-05   |deigs|: 1.884e-04  t[s]:   3910.36
	FillingsUpdate:  mu: -0.156836168  nElectrons: 288.000000
SCF: Cycle: 22   F: -411.211627159929151   dF: -1.784e-08   |Residual|: 1.934e-05   |deigs|: 1.381e-04  t[s]:   4063.41
	FillingsUpdate:  mu: -0.156846888  nElectrons: 288.000000
SCF: Cycle: 23   F: -411.211627164289666   dF: -4.361e-09   |Residual|: 1.690e-05   |deigs|: 9.443e-05  t[s]:   4216.54
	FillingsUpdate:  mu: -0.156849470  nElectrons: 288.000000
SCF: Cycle: 24   F: -411.211627167581526   dF: -3.292e-09   |Residual|: 1.658e-05   |deigs|: 7.212e-05  t[s]:   4369.99
SCF: Converged (|Delta E|<1.000000e-08 for 2 iters).

Setting wave functions to eigenvectors of Hamiltonian

# Ionic positions in cartesian coordinates:
ion C  28.014162925916441   0.004453384674690   0.488700336250719 1
ion C  16.346425888740537  20.217875004139895   0.494441368511783 1
ion C   2.341491267388133   4.043706087769919   0.494288650092468 1
ion C  23.346676486641851   0.004384458899791   0.483901318126691 1
ion C   4.676245474304146   0.003825684533332   0.487138916511071 1
ion C  11.677668704867260  20.219126759791724   0.483004299183591 1
ion C  25.678811057378848   4.044276294935732   0.499408675705300 1
ion C  18.680488284317882  16.174907144025568   0.511821298159187 1
ion C   4.677492135958810   8.082325094833877   0.480434218273455 1
ion C  18.679382389646399   0.004419539788082   0.483426455373358 1
ion C   9.343823638707176   0.003953947274407   0.485047852861264 1
ion C   9.343132606087327  16.180035273305720   0.462238808629923 1
ion C  23.345124811792481   8.086659640014878   0.516110558754391 1
ion C  21.013103120380649  12.130537488137511   0.522228736787792 1
ion C   7.010396563482270  12.130147336608232   0.448669631144288 1
ion C  14.011721669833374   0.004487328277764   0.486992976749196 1
ion C  14.013558296018106  16.179574426149870   0.498757826101649 1
ion C   7.009818515150769   4.042499155409574   0.483844483499080 1
ion C  21.013258005010439   4.045063281439558   0.499911963395391 1
ion C  16.350423015839485  12.130599170600259   0.518035179028320 1
ion C   9.342281602294870   8.081813368171400   0.475546112810431 1
ion C  16.347062351595820   4.043993563439029   0.499817348777331 1
ion C  11.678225160842871   4.043864528802732   0.491257888877005 1
ion C  11.678772579836281  12.132656534902800   0.479943835860723 1
ion C  18.681222676379655   8.086169753017820   0.517364251816780 1
ion C   7.009916898374378  20.219343866477669   0.472579061328808 1
ion C  -6.992609659547584  20.216547172333016   0.496399385793957 1
ion C   0.003266530903848   8.083516107494180   0.512278174675210 1
ion C  14.015955885954099   8.083119896903865   0.508223950230427 1
ion C   2.342093071666017  20.219019570074146   0.480326146245694 1
ion C  -4.659880863172909  16.174560757149859   0.510300320021681 1
ion C   2.339186588937720  12.132995157544903   0.489299233363809 1
ion C  -2.329954496254302  12.131009916067642   0.516589949079655 1
ion C  -2.326304055174534  20.217696998809753   0.491504033873881 1
ion C   4.676726791076918  16.180841540819191   0.466168264274856 1
ion C   0.006137637165399  16.178703673620589   0.495659639727563 1
ion C  14.012348709644570  21.564438777735628   0.489604884116641 1
ion C   2.342824768057115   1.350062948308334   0.489941598843277 1
ion C  25.680516519737949   1.350702761820675   0.488903069804863 1
ion C  16.348003904104942  17.524448264432507   0.502678071625706 1
ion C   4.676210764116784   5.387823892778022   0.487264968155824 1
ion C  21.013008310099927   1.350663380772684   0.487704732809103 1
ion C   7.009950811972321   1.349259225414340   0.484223002515041 1
ion C  11.677762640953041  17.525450596518706   0.480362871851007 1
ion C  23.346324894239519   5.392231680162620   0.505102574666328 1
ion C  18.681997813576384  13.480334719088798   0.519483950082130 1
ion C   7.010361707405792   9.432882251512828   0.458902066493309 1
ion C  16.345682566415046   1.350653197918856   0.488395943382983 1
ion C  11.677343100946770   1.350076750284254   0.487853421160832 1
ion C   9.341532935239169  13.484022034967618   0.456042416622729 1
ion C  21.013053215586027   9.435742751134139   0.521852547273891 1
ion C   9.343921412688335  21.564967661889821   0.477772535012715 1
ion C  -9.325533050580070  21.563719294268761   0.490997739711112 1
ion C   0.006621766066881   5.389878389931321   0.504040826675343 1
ion C  14.017461384638807  13.483496515252018   0.507386649611831 1
ion C   9.343663251770447   5.388443811910577   0.484361305393769 1
ion C  18.680116870408927   5.391612106124537   0.506293009054609 1
ion C  16.349307086552550   9.434553397568571   0.516260415420756 1
ion C  11.678730991940606   9.429609444088063   0.492142348590622 1
ion C  14.013221041087657   5.389351834858124   0.501819267339133 1
ion C   4.676087364948579  21.564740743826302   0.475841543189748 1
ion C  -6.992581671971104  17.522334606507364   0.508981806064543 1
ion C   2.340099012219734   9.430388049872771   0.500315667712528 1
ion C  -2.329065275086099   9.435064464295710   0.516027596967280 1
ion C  -4.659725635779632  21.563781912962209   0.489331157040134 1
ion C   7.009941513485121  17.526875139515802   0.463681891904688 1
ion C   0.007471279885106  21.564584663929224   0.486805220524936 1
ion C  -4.661048587855587  13.480345295815439   0.517705640484358 1
ion C   4.678420581440577  13.483969691801144   0.461191111877959 1
ion C   2.341877433067657  17.525550844977925   0.479816581548121 1
ion C  -2.327622151484986  17.523857084604192   0.499038527601275 1
ion C   0.001623704991355  13.483660458022491   0.506902314285373 1

# Forces in Cartesian coordinates:
force C   0.000283864077194  -0.000185177944350   0.000131531515382 1
force C   0.000142616359312   0.000010534575487   0.000034632549545 1
force C  -0.000007809970614  -0.000048080141105   0.000090552000020 1
force C   0.000081003843059   0.000063042459062   0.000053392617658 1
force C   0.000149366440728  -0.000291501964787   0.000012434675130 1
force C   0.000237609121369  -0.000302860979048  -0.000044076832587 1
force C   0.000339811221972  -0.000031218598975   0.000044867035904 1
force C  -0.000053906441477   0.000142777397286   0.000118470236839 1
force C  -0.001299730743278   0.001532194642292   0.000086838232907 1
force C  -0.000081512216905  -0.000012037281711   0.000015436003776 1
force C  -0.000090327090673  -0.000344437307456   0.000104789306371 1
force C   0.000176486343877  -0.001191544728704   0.000277746690774 1
force C   0.000052290764559   0.000420681071822   0.000025517296654 1
force C   0.000079828350559   0.000464245465879   0.000040592012971 1
force C  -0.000350052241947   0.000893492034996   0.000590468806588 1
force C  -0.000268350993689  -0.000154417011717   0.000098344450237 1
force C  -0.000109823274676  -0.001222774839034  -0.000068869662233 1
force C   0.000104297914992  -0.000267103090959  -0.000060607058907 1
force C  -0.000034737476319  -0.000156647660363   0.000020787427245 1
force C  -0.001163886244483   0.000630776263432   0.000061036068241 1
force C   0.001251441537118   0.001638967787579   0.000092136152081 1
force C  -0.000219224086729   0.000002371004884  -0.000005776188026 1
force C   0.000042696188732  -0.000145038662085   0.000112572915748 1
force C   0.000386012153033  -0.000616545963346   0.000755216526600 1
force C  -0.000180197512937   0.000469409200805  -0.000022987508866 1
force C   0.000064958910211   0.000053511006308  -0.000089767003097 1
force C  -0.000024835574361  -0.000052704423189  -0.000014840412458 1
force C   0.001495786934514   0.001437545153254  -0.000222351890856 1
force C  -0.001225234455464   0.001530245377103  -0.000169949039143 1
force C  -0.000237337426494  -0.000231670955814   0.000015724825756 1
force C  -0.000046854821363   0.000242950948320   0.000024632554675 1
force C   0.000679947564256  -0.000562988597704   0.000155323187205 1
force C   0.000837162511720   0.000422094749373   0.000070126482830 1
force C  -0.000063994193730  -0.000027195730633   0.000021105726103 1
force C  -0.000200172507464  -0.001705980640587  -0.000057034983987 1
force C   0.000252626655519  -0.000689910064937   0.000057227652255 1
force C  -0.000216502694980   0.000072118636284  -0.000055173042325 1
force C  -0.000404227426550   0.000174914465117   0.000058210846038 1
force C  -0.000292108975472   0.000018000746113   0.000190354170556 1
force C  -0.000449063776081  -0.000315401749519   0.000154310408409 1
force C  -0.000019004296279   0.000987602855528  -0.000005900455749 1
force C   0.000053137371988   0.000338331518155   0.000101595884201 1
force C   0.000036586441915   0.000254384954829   0.000189526568318 1
force C   0.000314193881877  -0.000406965755581   0.000086364054550 1
force C  -0.000192171275849   0.000029352062089   0.000161899203483 1
force C  -0.000408476785738  -0.000637066293213   0.000106604695809 1
force C  -0.000292971379791   0.000236943099257   0.000777177872793 1
force C   0.000158827128878  -0.000018409033730   0.000203654745224 1
force C   0.000298973878822   0.000236497638175   0.000015386504964 1
force C   0.001943117270683  -0.001856122118420   0.000324477807828 1
force C  -0.000003893868472  -0.000321922300802  -0.000128142485020 1
force C  -0.000022998214719   0.000147894604071   0.000092089346393 1
force C  -0.000327267759435   0.000102359070040   0.000228779410711 1
force C  -0.000004054087950   0.000262845892259  -0.000022507314780 1
force C  -0.002164016958868  -0.001803110398698  -0.000914315651354 1
force C  -0.000092369216723   0.000431435677310  -0.000007502621227 1
force C   0.000045539291805   0.000176714573020   0.000098412010083 1
force C  -0.000814399022666  -0.000035642018627   0.000161950441176 1
force C   0.000140927614387   0.002537593005859  -0.000641941289917 1
force C   0.000015700031534   0.000455424955791  -0.000022612054615 1
force C  -0.000027058980617   0.000230483184673   0.000228749594918 1
force C  -0.000012452110628  -0.000112993431036  -0.000196482174959 1
force C   0.000259575457341   0.002265241625546  -0.000719152406023 1
force C   0.000655244913838  -0.000050475081246   0.000259805219060 1
force C   0.000203606045867   0.000109009323760   0.000215508306360 1
force C   0.000058694560926  -0.000296683236437  -0.000017071140010 1
force C   0.000286070587178  -0.000007682367490  -0.000080660979956 1
force C   0.000043368919503  -0.000692493957310   0.000123212387903 1
force C  -0.002184020910270  -0.001841559041660   0.000447592834318 1
force C  -0.000330519715886  -0.000503826781325   0.000130671157488 1
force C   0.000368864562173  -0.000086507099195   0.000183209246567 1
force C   0.002382103337912  -0.001793160936461  -0.000542267744845 1

# Energy components:
   Eewald =     -710.2887026377272832
       EH =     -403.7558578864622518
     Eloc =      536.8050775955517793
      Enl =       58.0406603056489629
      Exc =     -130.6646425517938326
 Exc_core =        2.4246714842535559
       KE =      236.2840271871106097
-------------------------------------
     Etot =     -411.1547665034185002
       TS =        0.0568606641630023
-------------------------------------
        F =     -411.2116271675815256

IonicMinimize: Iter:   0  F: -411.211627167581526  |grad|_K:  6.241e-04  t[s]:   4399.66
IonicMinimize: None of the convergence criteria satisfied after 0 iterations.

#--- Lowdin population analysis ---
# oxidation-state C +0.043 +0.043 +0.043 +0.043 +0.043 +0.043 +0.043 +0.043 +0.043 +0.043 +0.043 +0.043 +0.043 +0.043 +0.043 +0.043 +0.043 +0.043 +0.043 +0.043 +0.043 +0.043 +0.043 +0.043 +0.043 +0.043 +0.043 +0.043 +0.043 +0.043 +0.043 +0.043 +0.043 +0.043 +0.043 +0.043 +0.043 +0.043 +0.043 +0.043 +0.043 +0.043 +0.043 +0.043 +0.043 +0.043 +0.043 +0.043 +0.043 +0.043 +0.043 +0.043 +0.043 +0.043 +0.043 +0.043 +0.043 +0.043 +0.043 +0.043 +0.043 +0.043 +0.043 +0.043 +0.043 +0.043 +0.043 +0.043 +0.043 +0.043 +0.043 +0.043


Dumping 'graphene-SCF.fillings' ... done
Dumping 'graphene-SCF.wfns' ... done
Dumping 'graphene-SCF.eigenvals' ... done
End date and time: Sat Sep 28 13:03:55 2024  (Duration: 0-1:13:36.88)
Done!

*************** JDFTx 1.7.0  ***************

Start date and time: Sat Oct  5 12:26:38 2024
Executable jdftx with command-line: -i graphene-SCF.in -o graphene-SCF.out
Running on hosts (process indices):  thinkstation-ThinkStation-P620 (0)
Divided in process groups (process indices):  0 (0)
Resource initialization completed at t[s]:      0.00
Run totals: 1 processes, 16 threads, 0 GPUs


Input parsed successfully to the following command list (including defaults):

basis kpoint-dependent
coords-type Cartesian
core-overlap-check vector
coulomb-interaction Slab 001
coulomb-truncation-embed 0 0 0.621625
davidson-band-ratio 1.1
dump End State
dump-name graphene-SCF.$VAR
elec-cutoff 20 100
elec-eigen-algo Davidson
elec-ex-corr gga-PBE
elec-smearing Fermi 0.01
electronic-minimize  \
	dirUpdateScheme      FletcherReeves \
	linminMethod         DirUpdateRecommended \
	nIterations          100 \
	history              15 \
	knormThreshold       0 \
	energyDiffThreshold  1e-08 \
	nEnergyDiff          2 \
	alphaTstart          1 \
	alphaTmin            1e-10 \
	updateTestStepSize   yes \
	alphaTreduceFactor   0.1 \
	alphaTincreaseFactor 3 \
	nAlphaAdjustMax      3 \
	wolfeEnergy          0.0001 \
	wolfeGradient        0.9 \
	fdTest               no
electronic-scf  \
	nIterations	50 \
	energyDiffThreshold	1e-08 \
	residualThreshold	1e-07 \
	mixFraction	0.5 \
	qMetric	0.8 \
	history	10 \
	nEigSteps	2 \
	eigDiffThreshold	1e-08 \
	mixedVariable	Density \
	qKerker	0.8 \
	qKappa	-1 \
	verbose	no \
	mixFractionMag	1.5
exchange-regularization WignerSeitzTruncated
fluid None
fluid-ex-corr lda-TF lda-PZ
fluid-gummel-loop 10 1.000000e-05
fluid-minimize  \
	dirUpdateScheme      PolakRibiere \
	linminMethod         DirUpdateRecommended \
	nIterations          100 \
	history              15 \
	knormThreshold       0 \
	energyDiffThreshold  0 \
	nEnergyDiff          2 \
	alphaTstart          1 \
	alphaTmin            1e-10 \
	updateTestStepSize   yes \
	alphaTreduceFactor   0.1 \
	alphaTincreaseFactor 3 \
	nAlphaAdjustMax      3 \
	wolfeEnergy          0.0001 \
	wolfeGradient        0.9 \
	fdTest               no
fluid-solvent H2O 55.338 ScalarEOS \
	epsBulk 78.4 \
	pMol 0.92466 \
	epsInf 1.77 \
	Pvap 1.06736e-10 \
	sigmaBulk 4.62e-05 \
	Rvdw 2.61727 \
	Res 1.42 \
	tauNuc 343133 \
	poleEl 15 7 1
forces-output-coords Positions
ion C  28.014162925916441   0.004453384674690   0.488700336250719 1
ion C  16.346425888740537  20.217875004139895   0.494441368511783 1
ion C   2.341491267388133   4.043706087769919   0.494288650092468 1
ion C  23.346676486641851   0.004384458899791   0.483901318126691 1
ion C   4.676245474304146   0.003825684533332   0.487138916511071 1
ion C  11.677668704867260  20.219126759791724   0.483004299183591 1
ion C  25.678811057378848   4.044276294935732   0.499408675705300 1
ion C  18.680488284317882  16.174907144025568   0.511821298159187 1
ion C   4.677492135958810   8.082325094833877   0.480434218273455 1
ion C  18.679382389646399   0.004419539788082   0.483426455373358 1
ion C   9.343823638707176   0.003953947274407   0.485047852861264 1
ion C   9.343132606087327  16.180035273305720   0.462238808629923 1
ion C  23.345124811792481   8.086659640014878   0.516110558754391 1
ion C  21.013103120380649  12.130537488137511   0.522228736787792 1
ion C   7.010396563482270  12.130147336608232   0.448669631144288 1
ion C  14.011721669833374   0.004487328277764   0.486992976749196 1
ion C  14.013558296018106  16.179574426149870   0.498757826101649 1
ion C   7.009818515150769   4.042499155409574   0.483844483499080 1
ion C  21.013258005010439   4.045063281439558   0.499911963395391 1
ion C  16.350423015839485  12.130599170600259   0.518035179028320 1
ion C   9.342281602294870   8.081813368171400   0.475546112810431 1
ion C  16.347062351595820   4.043993563439029   0.499817348777331 1
ion C  11.678225160842871   4.043864528802732   0.491257888877005 1
ion C  11.678772579836281  12.132656534902800   0.479943835860723 1
ion C  18.681222676379655   8.086169753017820   0.517364251816780 1
ion C   7.009916898374378  20.219343866477669   0.472579061328808 1
ion C  -6.992609659547584  20.216547172333016   0.496399385793957 1
ion C   0.003266530903848   8.083516107494180   0.512278174675210 1
ion C  14.015955885954099   8.083119896903865   0.508223950230427 1
ion C   2.342093071666017  20.219019570074146   0.480326146245694 1
ion C  -4.659880863172909  16.174560757149859   0.510300320021681 1
ion C   2.339186588937720  12.132995157544903   0.489299233363809 1
ion C  -2.329954496254302  12.131009916067642   0.516589949079655 1
ion C  -2.326304055174534  20.217696998809753   0.491504033873881 1
ion C   4.676726791076918  16.180841540819191   0.466168264274856 1
ion C   0.006137637165399  16.178703673620589   0.495659639727563 1
ion C  14.012348709644570  21.564438777735628   0.489604884116641 1
ion C   2.342824768057115   1.350062948308334   0.489941598843277 1
ion C  25.680516519737949   1.350702761820675   0.488903069804863 1
ion C  16.348003904104942  17.524448264432507   0.502678071625706 1
ion C   4.676210764116784   5.387823892778022   0.487264968155824 1
ion C  21.013008310099927   1.350663380772684   0.487704732809103 1
ion C   7.009950811972321   1.349259225414340   0.484223002515041 1
ion C  11.677762640953041  17.525450596518706   0.480362871851007 1
ion C  23.346324894239519   5.392231680162620   0.505102574666328 1
ion C  18.681997813576384  13.480334719088798   0.519483950082130 1
ion C   7.010361707405792   9.432882251512828   0.458902066493309 1
ion C  16.345682566415046   1.350653197918856   0.488395943382983 1
ion C  11.677343100946770   1.350076750284254   0.487853421160832 1
ion C   9.341532935239169  13.484022034967618   0.456042416622729 1
ion C  21.013053215586027   9.435742751134139   0.521852547273891 1
ion C   9.343921412688335  21.564967661889821   0.477772535012715 1
ion C  -9.325533050580070  21.563719294268761   0.490997739711112 1
ion C   0.006621766066881   5.389878389931321   0.504040826675343 1
ion C  14.017461384638807  13.483496515252018   0.507386649611831 1
ion C   9.343663251770447   5.388443811910577   0.484361305393769 1
ion C  18.680116870408927   5.391612106124537   0.506293009054609 1
ion C  16.349307086552550   9.434553397568571   0.516260415420756 1
ion C  11.678730991940606   9.429609444088063   0.492142348590622 1
ion C  14.013221041087657   5.389351834858124   0.501819267339133 1
ion C   4.676087364948579  21.564740743826302   0.475841543189748 1
ion C  -6.992581671971104  17.522334606507364   0.508981806064543 1
ion C   2.340099012219734   9.430388049872771   0.500315667712528 1
ion C  -2.329065275086099   9.435064464295710   0.516027596967280 1
ion C  -4.659725635779632  21.563781912962209   0.489331157040134 1
ion C   7.009941513485121  17.526875139515802   0.463681891904688 1
ion C   0.007471279885106  21.564584663929224   0.486805220524936 1
ion C  -4.661048587855587  13.480345295815439   0.517705640484358 1
ion C   4.678420581440577  13.483969691801144   0.461191111877959 1
ion C   2.341877433067657  17.525550844977925   0.479816581548121 1
ion C  -2.327622151484986  17.523857084604192   0.499038527601275 1
ion C   0.001623704991355  13.483660458022491   0.506902314285373 1
ion-species GBRV/$ID_pbe.uspp
ion-width 0
ionic-minimize  \
	dirUpdateScheme      L-BFGS \
	linminMethod         DirUpdateRecommended \
	nIterations          0 \
	history              15 \
	knormThreshold       0.0001 \
	energyDiffThreshold  1e-06 \
	nEnergyDiff          2 \
	alphaTstart          1 \
	alphaTmin            1e-10 \
	updateTestStepSize   yes \
	alphaTreduceFactor   0.1 \
	alphaTincreaseFactor 3 \
	nAlphaAdjustMax      3 \
	wolfeEnergy          0.0001 \
	wolfeGradient        0.9 \
	fdTest               no
kpoint   0.000000000000   0.000000000000   0.000000000000  1.00000000000000
kpoint-folding 1 1 1 
latt-move-scale 1 1 1
latt-scale 1 1 1 
lattice Triclinic 28.0058 28.0058 37.7946 90 90 120
lattice-minimize  \
	dirUpdateScheme      L-BFGS \
	linminMethod         DirUpdateRecommended \
	nIterations          0 \
	history              15 \
	knormThreshold       0 \
	energyDiffThreshold  1e-06 \
	nEnergyDiff          2 \
	alphaTstart          1 \
	alphaTmin            1e-10 \
	updateTestStepSize   yes \
	alphaTreduceFactor   0.1 \
	alphaTincreaseFactor 3 \
	nAlphaAdjustMax      3 \
	wolfeEnergy          0.0001 \
	wolfeGradient        0.9 \
	fdTest               no
lcao-params -1 1e-06 0.01
pcm-variant GLSSA13
spintype no-spin
subspace-rotation-factor 1 yes
symmetries automatic
symmetry-threshold 0.0001
van-der-waals D3



---------- Setting up symmetries ----------

Found 24 point-group symmetries of the bravais lattice
Found 1 space-group symmetries with basis
Applied RMS atom displacement 0 bohrs to make symmetries exact.

---------- Initializing the Grid ----------
R = 
[      28.0058     -14.0029            0  ]
[            0      24.2537            0  ]
[            0            0      37.7946  ]
unit cell volume = 25671.8
G =
[   0.224353    0.12953         -0  ]
[          0   0.259061          0  ]
[          0         -0   0.166246  ]
Minimum fftbox size, Smin = [  128  128  172  ]
Chosen fftbox size, S = [  128  128  180  ]

---------- Initializing tighter grid for wavefunction operations ----------
R = 
[      28.0058     -14.0029            0  ]
[            0      24.2537            0  ]
[            0            0      37.7946  ]
unit cell volume = 25671.8
G =
[   0.224353    0.12953         -0  ]
[          0   0.259061          0  ]
[          0         -0   0.166246  ]
Minimum fftbox size, Smin = [  116  116  156  ]
Chosen fftbox size, S = [  120  120  160  ]

---------- Exchange Correlation functional ----------
Initalized PBE GGA exchange.
Initalized PBE GGA correlation.

---------- Setting up pseudopotentials ----------
Width of ionic core gaussian charges (only for fluid interactions / plotting) set to 0

Reading pseudopotential file '/home/andrewkim/jdftx_install/build/pseudopotentials/GBRV/c_pbe.uspp':
  Title: C.  Created by USPP 7.3.6 on 3-2-2014
  Reference state energy: -5.406344.  4 valence electrons in orbitals:
    |200>  occupation: 2  eigenvalue: -0.504890
    |210>  occupation: 2  eigenvalue: -0.194356
  lMax: 1  lLocal: 2  QijEcut: 5
  4 projectors sampled on a log grid with 503 points:
    l: 0  eig: -0.504890  rCut: 1.3
    l: 0  eig: 0.000000  rCut: 1.3
    l: 1  eig: -0.194357  rCut: 1.3
    l: 1  eig: 0.000000  rCut: 1.3
  Partial core density with radius 1.1
  Transforming core density to a uniform radial grid of dG=0.02 with 1625 points.
  Transforming local potential to a uniform radial grid of dG=0.02 with 1625 points.
  Transforming nonlocal projectors to a uniform radial grid of dG=0.02 with 432 points.
  Transforming density augmentations to a uniform radial grid of dG=0.02 with 1625 points.
  Transforming atomic orbitals to a uniform radial grid of dG=0.02 with 432 points.
  Core radius for overlap checks: 1.30 bohrs.

Initialized 1 species with 72 total atoms.

Folded 1 k-points by 1x1x1 to 1 k-points.

---------- Setting up k-points, bands, fillings ----------
No reducable k-points. 
Computing the number of bands and number of electrons
Calculating initial fillings.
nElectrons: 288.000000   nBands: 288   nStates: 1

----- Setting up reduced wavefunction bases (one per k-point) -----
average nbasis = 109673.000 , ideal nbasis = 109671.883

---------- Setting up coulomb interaction ----------
Setting up double-sized grid for truncated Coulomb potentials:
R = 
[      28.0058     -14.0029            0  ]
[            0      24.2537            0  ]
[            0            0      75.5892  ]
unit cell volume = 51343.6
G =
[   0.224353    0.12953         -0  ]
[          0   0.259061          0  ]
[          0         -0  0.0831228  ]
Chosen fftbox size, S = [  128  128  360  ]
Integer grid location selected as the embedding center:
   Grid: [  0  0  3  ]
   Lattice: [  0  0  0.0164475  ]
   Cartesian: [  0  0  0.621625  ]
Constructing Wigner-Seitz cell: 8 faces (6 quadrilaterals, 2 hexagons)
Range-separation parameter for embedded mesh potentials due to point charges: 0.590105 bohrs.
Initialized slab truncation along lattice direction 001

Initializing DFT-D3 calculator:
	Parameters set for gga-PBE functional
	s6:  1.000  s_r6:  1.217
	s8:  0.722  s_r8:  1.000
	Per-atom parameters loaded for:
	 C:  sqrtQ[a0]:  3.105  Rcov[a0]:  1.417  CN: [ 0.00 0.99 2.00 3.00 3.98 ]

---------- Setting up 2D ewald sum ----------
Optimum gaussian width for ewald sums = 15.547689 bohr.
Real space sums over 289 unit cells with max indices [  8  8  0  ]
Reciprocal space sums over 81 terms with max indices [  4  4  0  ]

Computing DFT-D3 correction:
# coordination-number C 3.300 3.300 3.300 3.301 3.301 3.300 3.301 3.300 3.298 3.301 3.301 3.298 3.300 3.300 3.296 3.300 3.298 3.301 3.301 3.298 3.298 3.301 3.300 3.295 3.300 3.301 3.300 3.298 3.298 3.300 3.300 3.295 3.299 3.300 3.298 3.299 3.300 3.301 3.300 3.300 3.300 3.300 3.301 3.299 3.300 3.300 3.297 3.301 3.301 3.296 3.300 3.301 3.301 3.300 3.296 3.300 3.300 3.298 3.296 3.300 3.301 3.301 3.296 3.299 3.301 3.300 3.300 3.300 3.296 3.299 3.300 3.297
# diagonal-C6 C 24.28 24.28 24.28 24.27 24.28 24.28 24.28 24.28 24.31 24.28 24.28 24.30 24.28 24.28 24.32 24.28 24.30 24.27 24.28 24.30 24.30 24.28 24.28 24.33 24.28 24.27 24.28 24.30 24.30 24.28 24.28 24.33 24.30 24.28 24.30 24.30 24.28 24.28 24.28 24.28 24.29 24.28 24.27 24.29 24.28 24.28 24.31 24.28 24.28 24.32 24.28 24.28 24.27 24.28 24.32 24.28 24.28 24.30 24.32 24.29 24.28 24.28 24.32 24.29 24.27 24.28 24.28 24.28 24.32 24.29 24.28 24.31
EvdW_6 =   -0.050968
EvdW_8 =   -0.039700

---------- Allocating electronic variables ----------
Initializing wave functions:  linear combination of atomic orbitals
C pseudo-atom occupations:   s ( 2 )  p ( 2 )
	FillingsUpdate:  mu: -0.320352097  nElectrons: 288.000000
LCAOMinimize: Iter:   0  F: -406.9121767021088090  |grad|_K:  6.241e-05  alpha:  1.000e+00
	FillingsUpdate:  mu: -0.320362631  nElectrons: 288.000000
LCAOMinimize: Iter:   1  F: -406.9122522150566965  |grad|_K:  4.751e-05  alpha:  4.636e-01  linmin: -1.535e-04  cgtest:  2.174e-03  t[s]:    143.05
	FillingsUpdate:  mu: -0.320373903  nElectrons: 288.000000
LCAOMinimize: Iter:   2  F: -406.9122939352856179  |grad|_K:  1.297e-05  alpha:  4.422e-01  linmin:  6.506e-05  cgtest: -9.029e-03  t[s]:    178.74
	FillingsUpdate:  mu: -0.320374783  nElectrons: 288.000000
LCAOMinimize: Iter:   3  F: -406.9122960230509989  |grad|_K:  1.556e-06  alpha:  2.974e-01  linmin: -7.161e-05  cgtest:  1.381e-03  t[s]:    214.46
	FillingsUpdate:  mu: -0.320374687  nElectrons: 288.000000
LCAOMinimize: Iter:   4  F: -406.9122960548269816  |grad|_K:  2.063e-07  alpha:  3.150e-01  linmin: -2.239e-03  cgtest:  5.003e-03  t[s]:    250.28
	FillingsUpdate:  mu: -0.320374582  nElectrons: 288.000000
LCAOMinimize: Iter:   5  F: -406.9122960556515523  |grad|_K:  8.655e-08  alpha:  4.522e-01  linmin:  3.830e-02  cgtest: -1.360e-01  t[s]:    286.15
LCAOMinimize: Converged (|Delta F|<1.000000e-06 for 2 iters).


---- Citations for features of the code used in this run ----

   Software package:
      R. Sundararaman, K. Letchworth-Weaver, K.A. Schwarz, D. Gunceler, Y. Ozhabes and T.A. Arias, 'JDFTx: software for joint density-functional theory', SoftwareX 6, 278 (2017)

   gga-PBE exchange-correlation functional:
      J.P. Perdew, K. Burke and M. Ernzerhof, Phys. Rev. Lett. 77, 3865 (1996)

   Pseudopotentials:
      KF Garrity, JW Bennett, KM Rabe and D Vanderbilt, Comput. Mater. Sci. 81, 446 (2014)

   Truncated Coulomb potentials:
      R. Sundararaman and T.A. Arias, Phys. Rev. B 87, 165122 (2013)

   DFT-D3 dispersion correction:
      S. Grimme, J. Antony, S. Ehrlich and H. Krieg, J. Chem. Phys. 132, 154104 (2010)

This list may not be complete. Please suggest additional citations or
report any other bugs at https://github.com/shankar1729/jdftx/issues

Initialization completed successfully at t[s]:    308.61


Computing DFT-D3 correction:
# coordination-number C 3.300 3.300 3.300 3.301 3.301 3.300 3.301 3.300 3.298 3.301 3.301 3.298 3.300 3.300 3.296 3.300 3.298 3.301 3.301 3.298 3.298 3.301 3.300 3.295 3.300 3.301 3.300 3.298 3.298 3.300 3.300 3.295 3.299 3.300 3.298 3.299 3.300 3.301 3.300 3.300 3.300 3.300 3.301 3.299 3.300 3.300 3.297 3.301 3.301 3.296 3.300 3.301 3.301 3.300 3.296 3.300 3.300 3.298 3.296 3.300 3.301 3.301 3.296 3.299 3.301 3.300 3.300 3.300 3.296 3.299 3.300 3.297
# diagonal-C6 C 24.28 24.28 24.28 24.27 24.28 24.28 24.28 24.28 24.31 24.28 24.28 24.30 24.28 24.28 24.32 24.28 24.30 24.27 24.28 24.30 24.30 24.28 24.28 24.33 24.28 24.27 24.28 24.30 24.30 24.28 24.28 24.33 24.30 24.28 24.30 24.30 24.28 24.28 24.28 24.28 24.29 24.28 24.27 24.29 24.28 24.28 24.31 24.28 24.28 24.32 24.28 24.28 24.27 24.28 24.32 24.28 24.28 24.30 24.32 24.29 24.28 24.28 24.32 24.29 24.27 24.28 24.28 24.28 24.32 24.29 24.28 24.31
EvdW_6 =   -0.050968
EvdW_8 =   -0.039700

-------- Electronic minimization -----------
Will mix electronic density at each iteration.
	FillingsUpdate:  mu: -0.320374582  nElectrons: 288.000000
	FillingsUpdate:  mu: -0.329115324  nElectrons: 288.000000
SCF: Cycle:  0   F: -410.558026100754944   dF: -3.646e+00   |Residual|: 9.579e-01   |deigs|: 1.189e-01  t[s]:    528.95
	FillingsUpdate:  mu: -0.293626883  nElectrons: 288.000000
SCF: Cycle:  1   F: -411.006167352940508   dF: -4.481e-01   |Residual|: 5.035e-01   |deigs|: 3.928e-02  t[s]:    704.91
	FillingsUpdate:  mu: -0.247652513  nElectrons: 288.000000
SCF: Cycle:  2   F: -411.284328736898715   dF: -2.782e-01   |Residual|: 1.280e-01   |deigs|: 4.657e-02  t[s]:    880.46
	FillingsUpdate:  mu: -0.242252848  nElectrons: 288.000000
SCF: Cycle:  3   F: -411.281731920156574   dF: +2.597e-03   |Residual|: 7.470e-02   |deigs|: 4.777e-03  t[s]:   1055.34
	FillingsUpdate:  mu: -0.225389489  nElectrons: 288.000000
SCF: Cycle:  4   F: -411.298516131111001   dF: -1.678e-02   |Residual|: 3.357e-02   |deigs|: 1.532e-02  t[s]:   1230.98
	FillingsUpdate:  mu: -0.211391677  nElectrons: 288.000000
SCF: Cycle:  5   F: -411.301151756346542   dF: -2.636e-03   |Residual|: 1.916e-02   |deigs|: 1.208e-02  t[s]:   1406.41
	FillingsUpdate:  mu: -0.203146345  nElectrons: 288.000000
SCF: Cycle:  6   F: -411.300516250435862   dF: +6.355e-04   |Residual|: 3.495e-02   |deigs|: 8.222e-03  t[s]:   1575.88
	FillingsUpdate:  mu: -0.195758618  nElectrons: 288.000000
SCF: Cycle:  7   F: -411.301847176546175   dF: -1.331e-03   |Residual|: 3.266e-02   |deigs|: 6.901e-03  t[s]:   1752.85
	FillingsUpdate:  mu: -0.193944827  nElectrons: 288.000000
SCF: Cycle:  8   F: -411.301584998483463   dF: +2.622e-04   |Residual|: 2.527e-02   |deigs|: 3.036e-03  t[s]:   1928.05
	FillingsUpdate:  mu: -0.185869394  nElectrons: 288.000000
SCF: Cycle:  9   F: -411.302262990992915   dF: -6.780e-04   |Residual|: 1.127e-02   |deigs|: 7.207e-03  t[s]:   2094.03
	FillingsUpdate:  mu: -0.182110905  nElectrons: 288.000000
SCF: Cycle: 10   F: -411.302259381366582   dF: +3.610e-06   |Residual|: 1.386e-02   |deigs|: 4.215e-03  t[s]:   2246.38
	FillingsUpdate:  mu: -0.176458518  nElectrons: 288.000000
SCF: Cycle: 11   F: -411.302263677477185   dF: -4.296e-06   |Residual|: 4.917e-03   |deigs|: 5.334e-03  t[s]:   2399.38
	FillingsUpdate:  mu: -0.168205705  nElectrons: 288.000000
SCF: Cycle: 12   F: -411.302236341654634   dF: +2.734e-05   |Residual|: 4.907e-03   |deigs|: 8.211e-03  t[s]:   2565.04
	FillingsUpdate:  mu: -0.161042972  nElectrons: 288.000000
SCF: Cycle: 13   F: -411.302275940891889   dF: -3.960e-05   |Residual|: 3.881e-03   |deigs|: 7.093e-03  t[s]:   2717.86
	FillingsUpdate:  mu: -0.158071155  nElectrons: 288.000000
SCF: Cycle: 14   F: -411.302292190938260   dF: -1.625e-05   |Residual|: 1.372e-03   |deigs|: 3.485e-03  t[s]:   2870.60
	FillingsUpdate:  mu: -0.157338494  nElectrons: 288.000000
SCF: Cycle: 15   F: -411.302294007888747   dF: -1.817e-06   |Residual|: 7.755e-04   |deigs|: 1.412e-03  t[s]:   3024.31
	FillingsUpdate:  mu: -0.156994673  nElectrons: 288.000000
SCF: Cycle: 16   F: -411.302294493579609   dF: -4.857e-07   |Residual|: 2.551e-04   |deigs|: 2.034e-03  t[s]:   3176.78
	FillingsUpdate:  mu: -0.156861990  nElectrons: 288.000000
SCF: Cycle: 17   F: -411.302294620790235   dF: -1.272e-07   |Residual|: 1.302e-04   |deigs|: 8.560e-04  t[s]:   3329.69
	FillingsUpdate:  mu: -0.156823883  nElectrons: 288.000000
SCF: Cycle: 18   F: -411.302294665821535   dF: -4.503e-08   |Residual|: 6.207e-05   |deigs|: 6.649e-04  t[s]:   3482.53
	FillingsUpdate:  mu: -0.156814896  nElectrons: 288.000000
SCF: Cycle: 19   F: -411.302294682454715   dF: -1.663e-08   |Residual|: 4.784e-05   |deigs|: 2.929e-04  t[s]:   3635.09
	FillingsUpdate:  mu: -0.156806488  nElectrons: 288.000000
SCF: Cycle: 20   F: -411.302294717461848   dF: -3.501e-08   |Residual|: 4.361e-05   |deigs|: 2.230e-04  t[s]:   3788.11
	FillingsUpdate:  mu: -0.156819597  nElectrons: 288.000000
SCF: Cycle: 21   F: -411.302294746785321   dF: -2.932e-08   |Residual|: 3.086e-05   |deigs|: 1.908e-04  t[s]:   3940.86
	FillingsUpdate:  mu: -0.156836415  nElectrons: 288.000000
SCF: Cycle: 22   F: -411.302294764547014   dF: -1.776e-08   |Residual|: 1.939e-05   |deigs|: 1.372e-04  t[s]:   4093.34
	FillingsUpdate:  mu: -0.156847167  nElectrons: 288.000000
SCF: Cycle: 23   F: -411.302294768946865   dF: -4.400e-09   |Residual|: 1.684e-05   |deigs|: 9.568e-05  t[s]:   4245.75
	FillingsUpdate:  mu: -0.156849384  nElectrons: 288.000000
SCF: Cycle: 24   F: -411.302294772235257   dF: -3.288e-09   |Residual|: 1.656e-05   |deigs|: 7.537e-05  t[s]:   4398.39
SCF: Converged (|Delta E|<1.000000e-08 for 2 iters).

Setting wave functions to eigenvectors of Hamiltonian

Computing DFT-D3 correction:
# coordination-number C 3.300 3.300 3.300 3.301 3.301 3.300 3.301 3.300 3.298 3.301 3.301 3.298 3.300 3.300 3.296 3.300 3.298 3.301 3.301 3.298 3.298 3.301 3.300 3.295 3.300 3.301 3.300 3.298 3.298 3.300 3.300 3.295 3.299 3.300 3.298 3.299 3.300 3.301 3.300 3.300 3.300 3.300 3.301 3.299 3.300 3.300 3.297 3.301 3.301 3.296 3.300 3.301 3.301 3.300 3.296 3.300 3.300 3.298 3.296 3.300 3.301 3.301 3.296 3.299 3.301 3.300 3.300 3.300 3.296 3.299 3.300 3.297
# diagonal-C6 C 24.28 24.28 24.28 24.27 24.28 24.28 24.28 24.28 24.31 24.28 24.28 24.30 24.28 24.28 24.32 24.28 24.30 24.27 24.28 24.30 24.30 24.28 24.28 24.33 24.28 24.27 24.28 24.30 24.30 24.28 24.28 24.33 24.30 24.28 24.30 24.30 24.28 24.28 24.28 24.28 24.29 24.28 24.27 24.29 24.28 24.28 24.31 24.28 24.28 24.32 24.28 24.28 24.27 24.28 24.32 24.28 24.28 24.30 24.32 24.29 24.28 24.28 24.32 24.29 24.27 24.28 24.28 24.28 24.32 24.29 24.28 24.31
EvdW_6 =   -0.050968
EvdW_8 =   -0.039700

# Ionic positions in cartesian coordinates:
ion C  28.014162925916441   0.004453384674690   0.488700336250719 1
ion C  16.346425888740537  20.217875004139895   0.494441368511783 1
ion C   2.341491267388133   4.043706087769919   0.494288650092468 1
ion C  23.346676486641851   0.004384458899791   0.483901318126691 1
ion C   4.676245474304146   0.003825684533332   0.487138916511071 1
ion C  11.677668704867260  20.219126759791724   0.483004299183591 1
ion C  25.678811057378848   4.044276294935732   0.499408675705300 1
ion C  18.680488284317882  16.174907144025568   0.511821298159187 1
ion C   4.677492135958810   8.082325094833877   0.480434218273455 1
ion C  18.679382389646399   0.004419539788082   0.483426455373358 1
ion C   9.343823638707176   0.003953947274407   0.485047852861264 1
ion C   9.343132606087327  16.180035273305720   0.462238808629923 1
ion C  23.345124811792481   8.086659640014878   0.516110558754391 1
ion C  21.013103120380649  12.130537488137511   0.522228736787792 1
ion C   7.010396563482270  12.130147336608232   0.448669631144288 1
ion C  14.011721669833374   0.004487328277764   0.486992976749196 1
ion C  14.013558296018106  16.179574426149870   0.498757826101649 1
ion C   7.009818515150769   4.042499155409574   0.483844483499080 1
ion C  21.013258005010439   4.045063281439558   0.499911963395391 1
ion C  16.350423015839485  12.130599170600259   0.518035179028320 1
ion C   9.342281602294870   8.081813368171400   0.475546112810431 1
ion C  16.347062351595820   4.043993563439029   0.499817348777331 1
ion C  11.678225160842871   4.043864528802732   0.491257888877005 1
ion C  11.678772579836281  12.132656534902800   0.479943835860723 1
ion C  18.681222676379655   8.086169753017820   0.517364251816780 1
ion C   7.009916898374378  20.219343866477669   0.472579061328808 1
ion C  -6.992609659547584  20.216547172333016   0.496399385793957 1
ion C   0.003266530903848   8.083516107494180   0.512278174675210 1
ion C  14.015955885954099   8.083119896903865   0.508223950230427 1
ion C   2.342093071666017  20.219019570074146   0.480326146245694 1
ion C  -4.659880863172909  16.174560757149859   0.510300320021681 1
ion C   2.339186588937720  12.132995157544903   0.489299233363809 1
ion C  -2.329954496254302  12.131009916067642   0.516589949079655 1
ion C  -2.326304055174534  20.217696998809753   0.491504033873881 1
ion C   4.676726791076918  16.180841540819191   0.466168264274856 1
ion C   0.006137637165399  16.178703673620589   0.495659639727563 1
ion C  14.012348709644570  21.564438777735628   0.489604884116641 1
ion C   2.342824768057115   1.350062948308334   0.489941598843277 1
ion C  25.680516519737949   1.350702761820675   0.488903069804863 1
ion C  16.348003904104942  17.524448264432507   0.502678071625706 1
ion C   4.676210764116784   5.387823892778022   0.487264968155824 1
ion C  21.013008310099927   1.350663380772684   0.487704732809103 1
ion C   7.009950811972321   1.349259225414340   0.484223002515041 1
ion C  11.677762640953041  17.525450596518706   0.480362871851007 1
ion C  23.346324894239519   5.392231680162620   0.505102574666328 1
ion C  18.681997813576384  13.480334719088798   0.519483950082130 1
ion C   7.010361707405792   9.432882251512828   0.458902066493309 1
ion C  16.345682566415046   1.350653197918856   0.488395943382983 1
ion C  11.677343100946770   1.350076750284254   0.487853421160832 1
ion C   9.341532935239169  13.484022034967618   0.456042416622729 1
ion C  21.013053215586027   9.435742751134139   0.521852547273891 1
ion C   9.343921412688335  21.564967661889821   0.477772535012715 1
ion C  -9.325533050580070  21.563719294268761   0.490997739711112 1
ion C   0.006621766066881   5.389878389931321   0.504040826675343 1
ion C  14.017461384638807  13.483496515252018   0.507386649611831 1
ion C   9.343663251770447   5.388443811910577   0.484361305393769 1
ion C  18.680116870408927   5.391612106124537   0.506293009054609 1
ion C  16.349307086552550   9.434553397568571   0.516260415420756 1
ion C  11.678730991940606   9.429609444088063   0.492142348590622 1
ion C  14.013221041087657   5.389351834858124   0.501819267339133 1
ion C   4.676087364948579  21.564740743826302   0.475841543189748 1
ion C  -6.992581671971104  17.522334606507364   0.508981806064543 1
ion C   2.340099012219734   9.430388049872771   0.500315667712528 1
ion C  -2.329065275086099   9.435064464295710   0.516027596967280 1
ion C  -4.659725635779632  21.563781912962209   0.489331157040134 1
ion C   7.009941513485121  17.526875139515802   0.463681891904688 1
ion C   0.007471279885106  21.564584663929224   0.486805220524936 1
ion C  -4.661048587855587  13.480345295815439   0.517705640484358 1
ion C   4.678420581440577  13.483969691801144   0.461191111877959 1
ion C   2.341877433067657  17.525550844977925   0.479816581548121 1
ion C  -2.327622151484986  17.523857084604192   0.499038527601275 1
ion C   0.001623704991355  13.483660458022491   0.506902314285373 1

# Forces in Cartesian coordinates:
force C   0.000284182907568  -0.000185336812358   0.000131381198817 1
force C   0.000142591502809   0.000009762100647   0.000034558163121 1
force C  -0.000007911020793  -0.000046521245770   0.000090899876076 1
force C   0.000081068879350   0.000063180945338   0.000052958308576 1
force C   0.000149190197346  -0.000291872564178   0.000012249231461 1
force C   0.000238207581858  -0.000304245112528  -0.000043645142100 1
force C   0.000340587759795  -0.000030977823627   0.000044503817233 1
force C  -0.000054893402837   0.000142004137439   0.000118270771643 1
force C  -0.001302808439649   0.001537938005358   0.000087012075697 1
force C  -0.000081687712686  -0.000011858054484   0.000014991403353 1
force C  -0.000090077361557  -0.000344805953361   0.000104491013465 1
force C   0.000177557311704  -0.001196985406776   0.000276643180673 1
force C   0.000053136323655   0.000421796537395   0.000025118243894 1
force C   0.000079499806803   0.000464843635345   0.000040253528080 1
force C  -0.000350921830067   0.000894216785213   0.000586922339945 1
force C  -0.000268745690229  -0.000154611739915   0.000098349475697 1
force C  -0.000111110478255  -0.001227703923005  -0.000067435182417 1
force C   0.000104157296037  -0.000266505915921  -0.000059823914961 1
force C  -0.000034922237588  -0.000156636853420   0.000020494625381 1
force C  -0.001169089220716   0.000631280811189   0.000061731476352 1
force C   0.001254255646801   0.001644560764952   0.000092065929379 1
force C  -0.000219963871679   0.000002808363681  -0.000005860496822 1
force C   0.000042998418594  -0.000143836767386   0.000112993530773 1
force C   0.000386267229446  -0.000617680203579   0.000754935606682 1
force C  -0.000181619691222   0.000470722086543  -0.000023101203592 1
force C   0.000065014959341   0.000052601733577  -0.000089638164535 1
force C  -0.000024894442444  -0.000053118843134  -0.000014880209271 1
force C   0.001500211016777   0.001441941185828  -0.000220941440277 1
force C  -0.001228884330880   0.001535191641960  -0.000168743913328 1
force C  -0.000238043020019  -0.000232926937525   0.000015910253126 1
force C  -0.000046432361297   0.000242534743736   0.000024505345380 1
force C   0.000681609242056  -0.000564384237433   0.000156329821786 1
force C   0.000841533575217   0.000422393071176   0.000070284514259 1
force C  -0.000063899789510  -0.000027695404069   0.000021013467213 1
force C  -0.000201215457302  -0.001712078851070  -0.000057245975549 1
force C   0.000254305547141  -0.000693885285380   0.000057931865677 1
force C  -0.000216752246093   0.000071796928618  -0.000054752069320 1
force C  -0.000404923545849   0.000175125213235   0.000058079983792 1
force C  -0.000292167919909   0.000018234168309   0.000189781346980 1
force C  -0.000450954439661  -0.000316628275071   0.000154112204430 1
force C  -0.000019412347081   0.000991770617382  -0.000005813913310 1
force C   0.000053247733769   0.000339009470305   0.000101479196548 1
force C   0.000036737963761   0.000254832758249   0.000188809819125 1
force C   0.000315066351752  -0.000410256990981   0.000086618847436 1
force C  -0.000192267373346   0.000029900320136   0.000161311634704 1
force C  -0.000410627878626  -0.000638457346822   0.000106366950560 1
force C  -0.000293649436022   0.000240022456414   0.000774390426921 1
force C   0.000158842084934  -0.000018243644859   0.000203311310882 1
force C   0.000299497062999   0.000236824729758   0.000015238690764 1
force C   0.001947082732053  -0.001861359220751   0.000322192510125 1
force C  -0.000004103365191  -0.000322306203002  -0.000127957492403 1
force C  -0.000022330191371   0.000148157181402   0.000092588397493 1
force C  -0.000327937511310   0.000102157015576   0.000228148945837 1
force C  -0.000003405400764   0.000265615745660  -0.000021827133822 1
force C  -0.002169193958359  -0.001807401711228  -0.000912297766094 1
force C  -0.000092088804159   0.000434906122517  -0.000007532730258 1
force C   0.000045449196106   0.000177673314194   0.000098218410721 1
force C  -0.000818238438956  -0.000034056641111   0.000162312351773 1
force C   0.000141111795049   0.002543586359415  -0.000640502472882 1
force C   0.000015430656137   0.000458512939124  -0.000021832542327 1
force C  -0.000027703403270   0.000230808347212   0.000228860126464 1
force C  -0.000012612551152  -0.000113131617591  -0.000196011546185 1
force C   0.000260687504048   0.002270853168571  -0.000716756597913 1
force C   0.000658796198106  -0.000049371507389   0.000259748119667 1
force C   0.000204148856527   0.000108777378929   0.000214857977643 1
force C   0.000058588879411  -0.000299101800633  -0.000016499546887 1
force C   0.000286497767390  -0.000008011652215  -0.000080237251195 1
force C   0.000044594815134  -0.000693858466852   0.000122944084160 1
force C  -0.002187969626601  -0.001846843409962   0.000446090592210 1
force C  -0.000330907308083  -0.000507148838615   0.000130795649448 1
force C   0.000370589998639  -0.000087037859586   0.000182816838976 1
force C   0.002388375702201  -0.001797319482531  -0.000540786366344 1

# Energy components:
   Eewald =     -710.2887026377272832
       EH =     -403.7558570034631771
     Eloc =      536.8050771911042602
      Enl =       58.0406600894599478
     EvdW =       -0.0906676046741249
      Exc =     -130.6646425052992981
 Exc_core =        2.4246714842535559
       KE =      236.2840268781183681
-------------------------------------
     Etot =     -411.2454341082278120
       TS =        0.0568606640074660
-------------------------------------
        F =     -411.3022947722352569

IonicMinimize: Iter:   0  F: -411.302294772235257  |grad|_K:  6.256e-04  t[s]:   4453.87
IonicMinimize: None of the convergence criteria satisfied after 0 iterations.

#--- Lowdin population analysis ---
# oxidation-state C +0.043 +0.043 +0.043 +0.043 +0.043 +0.043 +0.043 +0.043 +0.043 +0.043 +0.043 +0.043 +0.043 +0.043 +0.043 +0.043 +0.043 +0.043 +0.043 +0.043 +0.043 +0.043 +0.043 +0.043 +0.043 +0.043 +0.043 +0.043 +0.043 +0.043 +0.043 +0.043 +0.043 +0.043 +0.043 +0.043 +0.043 +0.043 +0.043 +0.043 +0.043 +0.043 +0.043 +0.043 +0.043 +0.043 +0.043 +0.043 +0.043 +0.043 +0.043 +0.043 +0.043 +0.043 +0.043 +0.043 +0.043 +0.043 +0.043 +0.043 +0.043 +0.043 +0.043 +0.043 +0.043 +0.043 +0.043 +0.043 +0.043 +0.043 +0.043 +0.043


Dumping 'graphene-SCF.fillings' ... done
Dumping 'graphene-SCF.wfns' ... done
Dumping 'graphene-SCF.eigenvals' ... done
End date and time: Sat Oct  5 13:41:10 2024  (Duration: 0-1:14:31.43)
Done!
