
*************** JDFTx 1.7.0  ***************

Start date and time: Wed Sep 11 03:18:28 2024
Executable jdftx_gpu with command-line: -i /home/akim2/JDFTx/N_graphene-glyme-vdw/N_graphene-glyme-vdw.in -o /home/akim2/JDFTx/N_graphene-glyme-vdw/N_graphene-glyme-vdw.out
Running on hosts (process indices):  exp-1-60 (0)
Divided in process groups (process indices):  0 (0)
gpuInit: Found compatible cuda device 0 'Tesla V100-SXM2-32GB'
gpuInit: Selected device 0
Resource initialization completed at t[s]:      0.44
Run totals: 1 processes, 40 threads, 1 GPUs


Input parsed successfully to the following command list (including defaults):

basis kpoint-dependent
coords-type Cartesian
core-overlap-check vector
coulomb-interaction Slab 001
coulomb-truncation-embed 0 0 5
davidson-band-ratio 1.1
dump End State
dump-name N_graphene-glyme-vdw.$VAR
elec-cutoff 20 100
elec-eigen-algo Davidson
elec-ex-corr gga-PBE
elec-smearing Fermi 0.01
electronic-minimize  \
	dirUpdateScheme      FletcherReeves \
	linminMethod         DirUpdateRecommended \
	nIterations          100 \
	history              15 \
	knormThreshold       0 \
	energyDiffThreshold  1e-08 \
	nEnergyDiff          2 \
	alphaTstart          1 \
	alphaTmin            1e-10 \
	updateTestStepSize   yes \
	alphaTreduceFactor   0.1 \
	alphaTincreaseFactor 3 \
	nAlphaAdjustMax      3 \
	wolfeEnergy          0.0001 \
	wolfeGradient        0.9 \
	fdTest               no
electronic-scf  \
	nIterations	50 \
	energyDiffThreshold	1e-08 \
	residualThreshold	1e-07 \
	mixFraction	0.5 \
	qMetric	0.8 \
	history	10 \
	nEigSteps	2 \
	eigDiffThreshold	1e-08 \
	mixedVariable	Density \
	qKerker	0.8 \
	qKappa	-1 \
	verbose	no \
	mixFractionMag	1.5
exchange-regularization WignerSeitzTruncated
fluid LinearPCM 298.000000 1.013250
fluid-ex-corr lda-TF lda-PZ
fluid-gummel-loop 10 1.000000e-05
fluid-minimize  \
	dirUpdateScheme      PolakRibiere \
	linminMethod         DirUpdateRecommended \
	nIterations          400 \
	history              15 \
	knormThreshold       1e-11 \
	energyDiffThreshold  0 \
	nEnergyDiff          2 \
	alphaTstart          1 \
	alphaTmin            1e-10 \
	updateTestStepSize   yes \
	alphaTreduceFactor   0.1 \
	alphaTincreaseFactor 3 \
	nAlphaAdjustMax      6 \
	wolfeEnergy          0.0001 \
	wolfeGradient        0.9 \
	fdTest               no
fluid-solvent Glyme 9.62137 ScalarEOS \
	epsBulk 7.2 \
	pMol 0 \
	epsInf 1.9 \
	Pvap 0 \
	sigmaBulk 0 \
	Rvdw 0 \
	Res 0 \
	tauNuc 343133
forces-output-coords Positions
ion C  28.010542013705631   0.002014969601156   0.635465203747167 0
ion C  16.341968157882292  20.214705522223607   0.636370795694031 0
ion C   2.338532027351695   4.042411505399060   0.630361847754816 0
ion C  23.343313188735969   0.002278716019722   0.640022467239564 0
ion C   4.672620934470559   0.001554156700161   0.632050616002296 0
ion C  11.674116326115334  20.215100669694028   0.619847495055023 0
ion C  25.676530282256284   4.042904097616445   0.653564930084009 0
ion C  18.675851376129700  16.172910511284943   0.662695583431347 0
ion C   4.671777948336020   8.082036709586005   0.612564386226399 0
ion C  18.676336142016080   0.002101964498535   0.651180333522277 0
ion C   9.339850970925752   0.001738039847832   0.641511836963307 0
ion C   9.341212652353351  16.175613291750459   0.599279306155555 0
ion C  23.342941439729607   8.084920466015539   0.683240254571249 0
ion C  21.009110272076708  12.128959849493356   0.688453340004557 0
ion C   7.009085367604252  12.128528685817338   0.597262204671189 0
ion C  14.008105470077210   0.001988816408382   0.654008834012114 0
ion C  14.009120976896664  16.174984627607692   0.629938477890011 0
ion C   7.005550759074101   4.041176716120078   0.616350899393808 0
ion C  21.010101094155836   4.043302536041172   0.668670850704729 0
ion C  16.344445762465487  12.130683361169906   0.668518806438794 0
ion C   9.337643998902927   8.081728763982859   0.614931622729934 0
ion C  16.343783017314891   4.042062713362387   0.668836182024798 0
ion C  11.674085450205249   4.041278849785761   0.642196060576936 0
ion C  11.675597583834264  12.133622242506720   0.630068253549407 0
ion C  18.678074956154809   8.085220585829878   0.685769374381508 0
ion C   7.007175797728255  20.216155157604103   0.619709324068161 0
ion C  -6.996748017889801  20.214440105700564   0.653094683289385 0
ion C   0.002354623270169   8.082966457809835   0.657418822396948 0
ion C  14.012576459862725   8.083203697825988   0.669712893069494 0
ion C   2.339067441062872  20.216465077180068   0.646220757178249 0
ion C  -4.663670527593792  16.172490992184059   0.678596642017759 0
ion C   2.336125814129785  12.127745765919109   0.656417500003109 0
ion C  -2.332224039758668  12.128030282589300   0.685859862245795 0
ion C  -2.329659352792410  20.215194179952768   0.659830322184195 0
ion C   4.673933801454849  16.177740252210711   0.625359734501050 0
ion C   0.002990588629148  16.174656174657997   0.666554428718456 0
ion C  14.008266720144102  21.561374576259517   0.629777200837147 0
ion C   2.338930816614256   1.348570645432834   0.632009758527847 0
ion C  25.677100562977380   1.348988124751942   0.641986895200073 0
ion C  16.342686998612663  17.520648868856785   0.642302048336074 0
ion C   4.672307145938162   5.388219921962990   0.616057256550324 0
ion C  21.010123495302889   1.349044430338556   0.652394834146865 0
ion C   7.005937845436384   1.348033936218268   0.628031389286509 0
ion C  11.674692189550257  17.521226022139913   0.612057705166649 0
ion C  23.343784883173043   5.390651685198355   0.669612389866280 0
ion C  18.676972543384359  13.478483594758318   0.675595907033575 0
ion C   7.004963348139576   9.432115986525980   0.597538283264729 0
ion C  16.342472076605748   1.348066366442404   0.659130179870282 0
ion C  11.673522256343780   1.347802312891912   0.646547034509048 0
ion C   9.340696631175403  13.481256291567631   0.599303874261302 0
ion C  21.010487586627971   9.434228317035956   0.689549670827176 0
ion C   9.340862584041272  21.562275316056120   0.623251203387415 0
ion C  -9.330262385564788  21.561165527783945   0.640491424243255 0
ion C   0.004476893676090   5.389148113018151   0.645932445799481 0
ion C  14.011432130181314  13.480719160062115   0.643556882023976 0
ion C   9.339051356617166   5.386992451363917   0.621078239496768 0
ion C  18.677007069088155   5.390558998944344   0.676741055188348 0
ion C  16.345725884609092   9.434637493571932   0.679131999516677 0
ion C  14.009428395823310   5.387478001177438   0.662736904438848 0
ion C   4.673293824799767  21.561882602550448   0.637519226383223 0
ion C  -6.996841473985326  17.520066852095106   0.666346621047357 0
ion C   2.337134667876788   9.428913976861832   0.643387178107247 0
ion C  -2.330217064543965   9.432650452790400   0.678563548363968 0
ion C  -4.663349535264295  21.561481505082671   0.652392573786173 0
ion C   7.008365318233412  17.523060541264897   0.607450639135720 0
ion C   0.004487123343837  21.561671103490092   0.654109318198199 0
ion C  -4.664147187494722  13.477588422800194   0.688047082736968 0
ion C   4.674619807111762  13.479414560663223   0.625188064189185 0
ion C   2.338448909138405  17.522455183042435   0.645633689115609 0
ion C  -2.330712054942804  17.520790606615741   0.670058696770369 0
ion C   0.000363098194401  13.478789474313889   0.675559226948007 0
ion N  11.674484029805171   9.432912355349794   0.644194404697448 0
ion-species GBRV/$ID_pbe.uspp
ion-width Ecut
ionic-minimize  \
	dirUpdateScheme      FletcherReeves \
	linminMethod         DirUpdateRecommended \
	nIterations          200 \
	history              15 \
	knormThreshold       0.0001 \
	energyDiffThreshold  1e-06 \
	nEnergyDiff          2 \
	alphaTstart          1 \
	alphaTmin            1e-10 \
	updateTestStepSize   yes \
	alphaTreduceFactor   0.1 \
	alphaTincreaseFactor 3 \
	nAlphaAdjustMax      3 \
	wolfeEnergy          0.0001 \
	wolfeGradient        0.9 \
	fdTest               no
kpoint   0.000000000000   0.000000000000   0.000000000000  1.00000000000000
kpoint-folding 1 1 1 
latt-move-scale 1 1 1
latt-scale 1 1 1 
lattice Triclinic 28.0058 28.0058 37.7946 90 90 120
lattice-minimize  \
	dirUpdateScheme      L-BFGS \
	linminMethod         DirUpdateRecommended \
	nIterations          0 \
	history              15 \
	knormThreshold       0 \
	energyDiffThreshold  1e-06 \
	nEnergyDiff          2 \
	alphaTstart          1 \
	alphaTmin            1e-10 \
	updateTestStepSize   yes \
	alphaTreduceFactor   0.1 \
	alphaTincreaseFactor 3 \
	nAlphaAdjustMax      3 \
	wolfeEnergy          0.0001 \
	wolfeGradient        0.9 \
	fdTest               no
lcao-params -1 1e-06 0.01
pcm-variant GLSSA13
spintype no-spin
subspace-rotation-factor 1 yes
symmetries automatic
symmetry-threshold 0.0001
van-der-waals D3



---------- Setting up symmetries ----------

Found 24 point-group symmetries of the bravais lattice
Found 1 space-group symmetries with basis
Applied RMS atom displacement 0 bohrs to make symmetries exact.

---------- Initializing the Grid ----------
R = 
[      28.0058     -14.0029            0  ]
[            0      24.2537            0  ]
[            0            0      37.7946  ]
unit cell volume = 25671.8
G =
[   0.224353    0.12953         -0  ]
[          0   0.259061          0  ]
[          0         -0   0.166246  ]
Minimum fftbox size, Smin = [  128  128  172  ]
Chosen fftbox size, S = [  128  128  180  ]

---------- Initializing tighter grid for wavefunction operations ----------
R = 
[      28.0058     -14.0029            0  ]
[            0      24.2537            0  ]
[            0            0      37.7946  ]
unit cell volume = 25671.8
G =
[   0.224353    0.12953         -0  ]
[          0   0.259061          0  ]
[          0         -0   0.166246  ]
Minimum fftbox size, Smin = [  116  116  156  ]
Chosen fftbox size, S = [  120  120  160  ]

---------- Exchange Correlation functional ----------
Initalized PBE GGA exchange.
Initalized PBE GGA correlation.

---------- Setting up pseudopotentials ----------
Width of ionic core gaussian charges (only for fluid interactions / plotting) set to 0.397384

Reading pseudopotential file '/home/akim2/jdftx_install/build/pseudopotentials/GBRV/c_pbe.uspp':
  Title: C.  Created by USPP 7.3.6 on 3-2-2014
  Reference state energy: -5.406344.  4 valence electrons in orbitals:
    |200>  occupation: 2  eigenvalue: -0.504890
    |210>  occupation: 2  eigenvalue: -0.194356
  lMax: 1  lLocal: 2  QijEcut: 5
  4 projectors sampled on a log grid with 503 points:
    l: 0  eig: -0.504890  rCut: 1.3
    l: 0  eig: 0.000000  rCut: 1.3
    l: 1  eig: -0.194357  rCut: 1.3
    l: 1  eig: 0.000000  rCut: 1.3
  Partial core density with radius 1.1
  Transforming core density to a uniform radial grid of dG=0.02 with 1625 points.
  Transforming local potential to a uniform radial grid of dG=0.02 with 1625 points.
  Transforming nonlocal projectors to a uniform radial grid of dG=0.02 with 432 points.
  Transforming density augmentations to a uniform radial grid of dG=0.02 with 1625 points.
  Transforming atomic orbitals to a uniform radial grid of dG=0.02 with 432 points.
  Core radius for overlap checks: 1.30 bohrs.

Reading pseudopotential file '/home/akim2/jdftx_install/build/pseudopotentials/GBRV/n_pbe.uspp':
  Title: N.  Created by USPP 7.3.6 on 3-2-2014
  Reference state energy: -9.763716.  5 valence electrons in orbitals:
    |200>  occupation: 2  eigenvalue: -0.681964
    |210>  occupation: 3  eigenvalue: -0.260726
  lMax: 1  lLocal: 2  QijEcut: 6
  4 projectors sampled on a log grid with 491 points:
    l: 0  eig: -0.681964  rCut: 1.15
    l: 0  eig: 0.000000  rCut: 1.15
    l: 1  eig: -0.260729  rCut: 1.2
    l: 1  eig: 0.500000  rCut: 1.2
  Partial core density with radius 0.8
  Transforming core density to a uniform radial grid of dG=0.02 with 1625 points.
  Transforming local potential to a uniform radial grid of dG=0.02 with 1625 points.
  Transforming nonlocal projectors to a uniform radial grid of dG=0.02 with 432 points.
  Transforming density augmentations to a uniform radial grid of dG=0.02 with 1625 points.
  Transforming atomic orbitals to a uniform radial grid of dG=0.02 with 432 points.
  Core radius for overlap checks: 1.20 bohrs.

Initialized 2 species with 72 total atoms.

Folded 1 k-points by 1x1x1 to 1 k-points.

---------- Setting up k-points, bands, fillings ----------
No reducable k-points. 
Computing the number of bands and number of electrons
Calculating initial fillings.
nElectrons: 289.000000   nBands: 288   nStates: 1

----- Setting up reduced wavefunction bases (one per k-point) -----
average nbasis = 109673.000 , ideal nbasis = 109671.883

---------- Setting up coulomb interaction ----------
Fluid mode embedding: using embedded box, but periodic Coulomb kernel.
(Fluid response is responsible for (approximate) separation between periodic images.)
Setting up double-sized grid for truncated Coulomb potentials:
R = 
[      28.0058     -14.0029            0  ]
[            0      24.2537            0  ]
[            0            0      75.5892  ]
unit cell volume = 51343.6
G =
[   0.224353    0.12953         -0  ]
[          0   0.259061          0  ]
[          0         -0  0.0831228  ]
Chosen fftbox size, S = [  128  128  360  ]
Integer grid location selected as the embedding center:
   Grid: [  0  0  24  ]
   Lattice: [  0  0  0.132294  ]
   Cartesian: [  0  0  5  ]
Constructing Wigner-Seitz cell: 8 faces (6 quadrilaterals, 2 hexagons)
Range-separation parameter for embedded mesh potentials due to point charges: 0.590105 bohrs.

Initializing DFT-D3 calculator:
	Parameters set for gga-PBE functional
	s6:  1.000  s_r6:  1.217
	s8:  0.722  s_r8:  1.000
	Per-atom parameters loaded for:
	 C:  sqrtQ[a0]:  3.105  Rcov[a0]:  1.417  CN: [ 0.00 0.99 2.00 3.00 3.98 ]
	 N:  sqrtQ[a0]:  2.712  Rcov[a0]:  1.342  CN: [ 0.00 0.99 2.01 2.99 ]

---------- Setting up ewald sum ----------
Optimum gaussian width for ewald sums = 7.269704 bohr.
Real space sum over 405 unit cells with max indices [  4  4  2  ]
Reciprocal space sum over 7875 terms with max indices [  7  7  17  ]

Computing DFT-D3 correction:
# coordination-number C 3.300 3.300 3.300 3.300 3.300 3.300 3.300 3.300 3.298 3.300 3.300 3.299 3.300 3.300 3.294 3.300 3.300 3.300 3.300 3.296 3.296 3.300 3.297 3.296 3.300 3.301 3.300 3.299 3.296 3.300 3.300 3.296 3.299 3.300 3.298 3.298 3.300 3.300 3.300 3.300 3.300 3.300 3.301 3.300 3.300 3.300 3.285 3.300 3.300 3.285 3.300 3.300 3.300 3.300 3.286 3.286 3.299 3.285 3.286 3.300 3.300 3.298 3.299 3.300 3.300 3.300 3.300 3.297 3.299 3.300 3.297
# coordination-number N 3.208
# diagonal-C6 C 24.28 24.28 24.28 24.28 24.28 24.28 24.28 24.28 24.30 24.28 24.28 24.29 24.28 24.28 24.34 24.28 24.29 24.28 24.28 24.32 24.32 24.28 24.31 24.32 24.29 24.28 24.28 24.29 24.32 24.28 24.29 24.32 24.29 24.28 24.30 24.30 24.28 24.28 24.28 24.28 24.28 24.28 24.28 24.28 24.28 24.28 24.43 24.28 24.28 24.42 24.28 24.28 24.28 24.28 24.41 24.41 24.29 24.42 24.41 24.28 24.28 24.31 24.29 24.28 24.28 24.28 24.28 24.31 24.29 24.28 24.31
# diagonal-C6 N 15.60
EvdW_6 =   -0.051235
EvdW_8 =   -0.040061

---------- Allocating electronic variables ----------
Initializing wave functions:  linear combination of atomic orbitals
C pseudo-atom occupations:   s ( 2 )  p ( 2 )
N pseudo-atom occupations:   s ( 2 )  p ( 3 )
	FillingsUpdate:  mu: -0.282299701  nElectrons: 289.000000
LCAOMinimize: Iter:   0  F: -411.0696434266425285  |grad|_K:  2.945e-03  alpha:  1.000e+00
	FillingsUpdate:  mu: -0.274417840  nElectrons: 289.000000
LCAOMinimize: Iter:   1  F: -411.1415595788123483  |grad|_K:  9.746e-04  alpha:  1.469e-01  linmin: -2.493e-01  cgtest:  9.047e-01  t[s]:      8.44
LCAOMinimize: Encountered beta<0, resetting CG.
	FillingsUpdate:  mu: -0.272458815  nElectrons: 289.000000
LCAOMinimize: Iter:   2  F: -411.1505705881610311  |grad|_K:  2.577e-04  alpha:  2.323e-01  linmin:  5.598e-02  cgtest: -1.715e-01  t[s]:     10.36
	FillingsUpdate:  mu: -0.272572047  nElectrons: 289.000000
LCAOMinimize: Iter:   3  F: -411.1512629656343165  |grad|_K:  8.476e-05  alpha:  2.738e-01  linmin: -8.619e-05  cgtest:  2.878e-01  t[s]:     12.28
	FillingsUpdate:  mu: -0.272671556  nElectrons: 289.000000
LCAOMinimize: Iter:   4  F: -411.1513511663143845  |grad|_K:  3.923e-05  alpha:  2.939e-01  linmin: -1.459e-03  cgtest:  2.190e-03  t[s]:     14.16
	FillingsUpdate:  mu: -0.272638352  nElectrons: 289.000000
LCAOMinimize: Iter:   5  F: -411.1513801071864691  |grad|_K:  2.632e-05  alpha:  4.496e-01  linmin:  2.370e-04  cgtest: -4.627e-03  t[s]:     16.05
	FillingsUpdate:  mu: -0.272650884  nElectrons: 289.000000
LCAOMinimize: Iter:   6  F: -411.1513895363182201  |grad|_K:  3.558e-06  alpha:  3.262e-01  linmin:  7.003e-05  cgtest:  1.791e-02  t[s]:     17.91
	FillingsUpdate:  mu: -0.272651875  nElectrons: 289.000000
LCAOMinimize: Iter:   7  F: -411.1513897494455136  |grad|_K:  1.716e-06  alpha:  4.031e-01  linmin: -6.818e-05  cgtest:  3.864e-04  t[s]:     19.78
	FillingsUpdate:  mu: -0.272650131  nElectrons: 289.000000
LCAOMinimize: Iter:   8  F: -411.1513898045883479  |grad|_K:  9.893e-07  alpha:  4.484e-01  linmin: -5.588e-06  cgtest: -2.789e-04  t[s]:     21.61
LCAOMinimize: Converged (|Delta F|<1.000000e-06 for 2 iters).
----- createFluidSolver() ----- (Fluid-side solver setup)
   Initializing fluid molecule 'Glyme'
     Net charge: 0   dipole magnitude: 0
     Initializing spherical shell mfKernel with radius 0 Bohr
     deltaS corrections:

Correction to mu due to finite nuclear width = -0.00558485
   Cavity determined by nc: 8.36e-05 and sigma: 0.6
   Effective cavity tension: -8.03e-06 Eh/bohr^2 to account for cavitation and dispersion.


---- Citations for features of the code used in this run ----

   Software package:
      R. Sundararaman, K. Letchworth-Weaver, K.A. Schwarz, D. Gunceler, Y. Ozhabes and T.A. Arias, 'JDFTx: software for joint density-functional theory', SoftwareX 6, 278 (2017)

   gga-PBE exchange-correlation functional:
      J.P. Perdew, K. Burke and M. Ernzerhof, Phys. Rev. Lett. 77, 3865 (1996)

   Pseudopotentials:
      KF Garrity, JW Bennett, KM Rabe and D Vanderbilt, Comput. Mater. Sci. 81, 446 (2014)

   Truncated Coulomb potentials:
      R. Sundararaman and T.A. Arias, Phys. Rev. B 87, 165122 (2013)

   DFT-D3 dispersion correction:
      S. Grimme, J. Antony, S. Ehrlich and H. Krieg, J. Chem. Phys. 132, 154104 (2010)

   Linear/nonlinear dielectric/ionic fluid model with effective cavity tension:
      D. Gunceler, K. Letchworth-Weaver, R. Sundararaman, K.A. Schwarz and T.A. Arias, Modelling Simul. Mater. Sci. Eng. 21, 074005 (2013)

This list may not be complete. Please suggest additional citations or
report any other bugs at https://github.com/shankar1729/jdftx/issues

Initialization completed successfully at t[s]:     21.90


Computing DFT-D3 correction:
# coordination-number C 3.300 3.300 3.300 3.300 3.300 3.300 3.300 3.300 3.298 3.300 3.300 3.299 3.300 3.300 3.294 3.300 3.300 3.300 3.300 3.296 3.296 3.300 3.297 3.296 3.300 3.301 3.300 3.299 3.296 3.300 3.300 3.296 3.299 3.300 3.298 3.298 3.300 3.300 3.300 3.300 3.300 3.300 3.301 3.300 3.300 3.300 3.285 3.300 3.300 3.285 3.300 3.300 3.300 3.300 3.286 3.286 3.299 3.285 3.286 3.300 3.300 3.298 3.299 3.300 3.300 3.300 3.300 3.297 3.299 3.300 3.297
# coordination-number N 3.208
# diagonal-C6 C 24.28 24.28 24.28 24.28 24.28 24.28 24.28 24.28 24.30 24.28 24.28 24.29 24.28 24.28 24.34 24.28 24.29 24.28 24.28 24.32 24.32 24.28 24.31 24.32 24.29 24.28 24.28 24.29 24.32 24.28 24.29 24.32 24.29 24.28 24.30 24.30 24.28 24.28 24.28 24.28 24.28 24.28 24.28 24.28 24.28 24.28 24.43 24.28 24.28 24.42 24.28 24.28 24.28 24.28 24.41 24.41 24.29 24.42 24.41 24.28 24.28 24.31 24.29 24.28 24.28 24.28 24.28 24.31 24.29 24.28 24.31
# diagonal-C6 N 15.60
EvdW_6 =   -0.051235
EvdW_8 =   -0.040061
Fluid solver invoked on fresh (random / LCAO) wavefunctions
Running a vacuum solve first:

-------- Initial electronic minimization -----------
Will mix electronic density at each iteration.
	FillingsUpdate:  mu: -0.272650131  nElectrons: 289.000000
	FillingsUpdate:  mu: -0.281556271  nElectrons: 289.000000
SCF: Cycle:  0   F: -414.809692018582268   dF: -3.658e+00   |Residual|: 9.586e-01   |deigs|: 1.173e-01  t[s]:     28.88
	FillingsUpdate:  mu: -0.246026134  nElectrons: 289.000000
SCF: Cycle:  1   F: -415.260116590359189   dF: -4.504e-01   |Residual|: 5.024e-01   |deigs|: 3.893e-02  t[s]:     32.94
	FillingsUpdate:  mu: -0.200453954  nElectrons: 289.000000
SCF: Cycle:  2   F: -415.535796430677067   dF: -2.757e-01   |Residual|: 1.269e-01   |deigs|: 4.580e-02  t[s]:     37.15
	FillingsUpdate:  mu: -0.195018502  nElectrons: 289.000000
SCF: Cycle:  3   F: -415.534105140320207   dF: +1.691e-03   |Residual|: 7.019e-02   |deigs|: 4.730e-03  t[s]:     41.33
	FillingsUpdate:  mu: -0.178270560  nElectrons: 289.000000
SCF: Cycle:  4   F: -415.550051989869132   dF: -1.595e-02   |Residual|: 3.346e-02   |deigs|: 1.516e-02  t[s]:     45.50
	FillingsUpdate:  mu: -0.165009912  nElectrons: 289.000000
SCF: Cycle:  5   F: -415.552778845033799   dF: -2.727e-03   |Residual|: 1.980e-02   |deigs|: 1.126e-02  t[s]:     49.65
	FillingsUpdate:  mu: -0.160060354  nElectrons: 289.000000
SCF: Cycle:  6   F: -415.552052644329024   dF: +7.262e-04   |Residual|: 2.232e-02   |deigs|: 5.608e-03  t[s]:     53.54
	FillingsUpdate:  mu: -0.151643488  nElectrons: 289.000000
SCF: Cycle:  7   F: -415.553161826300425   dF: -1.109e-03   |Residual|: 1.087e-02   |deigs|: 7.590e-03  t[s]:     57.28
	FillingsUpdate:  mu: -0.150227921  nElectrons: 289.000000
SCF: Cycle:  8   F: -415.553442674437690   dF: -2.808e-04   |Residual|: 1.588e-02   |deigs|: 2.271e-03  t[s]:     61.11
	FillingsUpdate:  mu: -0.145434941  nElectrons: 289.000000
SCF: Cycle:  9   F: -415.553405443725012   dF: +3.723e-05   |Residual|: 1.266e-02   |deigs|: 4.290e-03  t[s]:     64.61
	FillingsUpdate:  mu: -0.139591290  nElectrons: 289.000000
SCF: Cycle: 10   F: -415.553515166035879   dF: -1.097e-04   |Residual|: 8.394e-03   |deigs|: 5.595e-03  t[s]:     68.06
	FillingsUpdate:  mu: -0.137912454  nElectrons: 289.000000
SCF: Cycle: 11   F: -415.553577085406289   dF: -6.192e-05   |Residual|: 7.139e-03   |deigs|: 2.377e-03  t[s]:     71.44
	FillingsUpdate:  mu: -0.131217417  nElectrons: 289.000000
SCF: Cycle: 12   F: -415.553698366118908   dF: -1.213e-04   |Residual|: 5.009e-03   |deigs|: 5.938e-03  t[s]:     74.81
	FillingsUpdate:  mu: -0.125735361  nElectrons: 289.000000
SCF: Cycle: 13   F: -415.553727514952982   dF: -2.915e-05   |Residual|: 4.556e-03   |deigs|: 5.702e-03  t[s]:     78.20
	FillingsUpdate:  mu: -0.123077445  nElectrons: 289.000000
SCF: Cycle: 14   F: -415.553741992012363   dF: -1.448e-05   |Residual|: 2.686e-03   |deigs|: 2.381e-03  t[s]:     81.59
	FillingsUpdate:  mu: -0.121175543  nElectrons: 289.000000
SCF: Cycle: 15   F: -415.553746432689195   dF: -4.441e-06   |Residual|: 1.501e-03   |deigs|: 2.361e-03  t[s]:     84.97
	FillingsUpdate:  mu: -0.120210607  nElectrons: 289.000000
SCF: Cycle: 16   F: -415.553749506676866   dF: -3.074e-06   |Residual|: 8.698e-04   |deigs|: 1.627e-03  t[s]:     88.34
	FillingsUpdate:  mu: -0.120075919  nElectrons: 289.000000
SCF: Cycle: 17   F: -415.553755584405906   dF: -6.078e-06   |Residual|: 6.842e-04   |deigs|: 1.201e-03  t[s]:     91.76
	FillingsUpdate:  mu: -0.119930565  nElectrons: 289.000000
SCF: Cycle: 18   F: -415.553762347704378   dF: -6.763e-06   |Residual|: 5.237e-04   |deigs|: 4.451e-04  t[s]:     95.17
	FillingsUpdate:  mu: -0.119949453  nElectrons: 289.000000
SCF: Cycle: 19   F: -415.553766616159805   dF: -4.268e-06   |Residual|: 3.898e-04   |deigs|: 7.301e-04  t[s]:     98.53
	FillingsUpdate:  mu: -0.119982725  nElectrons: 289.000000
SCF: Cycle: 20   F: -415.553767621726251   dF: -1.006e-06   |Residual|: 3.165e-04   |deigs|: 4.014e-04  t[s]:    101.91
	FillingsUpdate:  mu: -0.119919741  nElectrons: 289.000000
SCF: Cycle: 21   F: -415.553768135475082   dF: -5.137e-07   |Residual|: 2.433e-04   |deigs|: 7.257e-04  t[s]:    105.30
	FillingsUpdate:  mu: -0.119903343  nElectrons: 289.000000
SCF: Cycle: 22   F: -415.553768554058706   dF: -4.186e-07   |Residual|: 2.252e-04   |deigs|: 1.461e-04  t[s]:    108.72
	FillingsUpdate:  mu: -0.119985592  nElectrons: 289.000000
SCF: Cycle: 23   F: -415.553768929405578   dF: -3.753e-07   |Residual|: 1.975e-04   |deigs|: 7.543e-04  t[s]:    112.07
	FillingsUpdate:  mu: -0.119909674  nElectrons: 289.000000
SCF: Cycle: 24   F: -415.553769075053310   dF: -1.456e-07   |Residual|: 1.600e-04   |deigs|: 6.917e-04  t[s]:    115.58
	FillingsUpdate:  mu: -0.119771854  nElectrons: 289.000000
SCF: Cycle: 25   F: -415.553769087604849   dF: -1.255e-08   |Residual|: 1.124e-04   |deigs|: 4.506e-04  t[s]:    119.00
	FillingsUpdate:  mu: -0.119734282  nElectrons: 289.000000
SCF: Cycle: 26   F: -415.553769092973710   dF: -5.369e-09   |Residual|: 8.278e-05   |deigs|: 4.175e-04  t[s]:    122.42
	FillingsUpdate:  mu: -0.119720298  nElectrons: 289.000000
SCF: Cycle: 27   F: -415.553769123356460   dF: -3.038e-08   |Residual|: 3.714e-05   |deigs|: 6.398e-04  t[s]:    125.89
	FillingsUpdate:  mu: -0.119720401  nElectrons: 289.000000
SCF: Cycle: 28   F: -415.553769127612441   dF: -4.256e-09   |Residual|: 2.093e-05   |deigs|: 2.919e-04  t[s]:    129.25
	FillingsUpdate:  mu: -0.119727383  nElectrons: 289.000000
SCF: Cycle: 29   F: -415.553769130976946   dF: -3.365e-09   |Residual|: 1.315e-05   |deigs|: 1.258e-04  t[s]:    132.68
SCF: Converged (|Delta E|<1.000000e-08 for 2 iters).

Setting wave functions to eigenvectors of Hamiltonian
Vacuum energy after initial minimize, F = -415.553769130976946


-------- Electronic minimization -----------
Will mix electronic density at each iteration.
	FillingsUpdate:  mu: -0.119727383  nElectrons: 289.000000
	Linear fluid (dielectric constant: 7.2) occupying 0.869252 of unit cell:	Completed after 11 iterations at t[s]:    133.54
	FillingsUpdate:  mu: -0.124678580  nElectrons: 289.000000
	Linear fluid (dielectric constant: 7.2) occupying 0.869155 of unit cell:	Completed after 6 iterations at t[s]:    138.06
SCF: Cycle:  0   F: -415.566879009641468   dF: +4.908e-04   |Residual|: 7.408e-03   |deigs|: 1.178e-04  t[s]:    138.24
	Linear fluid (dielectric constant: 7.2) occupying 0.869209 of unit cell:	Completed after 5 iterations at t[s]:    138.40
	FillingsUpdate:  mu: -0.124733665  nElectrons: 289.000000
	Linear fluid (dielectric constant: 7.2) occupying 0.869156 of unit cell:	Completed after 5 iterations at t[s]:    141.95
SCF: Cycle:  1   F: -415.567383186522648   dF: -5.042e-04   |Residual|: 2.381e-03   |deigs|: 2.733e-04  t[s]:    142.13
	Linear fluid (dielectric constant: 7.2) occupying 0.869168 of unit cell:	Completed after 4 iterations at t[s]:    142.27
	FillingsUpdate:  mu: -0.124748013  nElectrons: 289.000000
	Linear fluid (dielectric constant: 7.2) occupying 0.869160 of unit cell:	Completed after 4 iterations at t[s]:    145.80
SCF: Cycle:  2   F: -415.567468149583533   dF: -8.496e-05   |Residual|: 1.545e-03   |deigs|: 1.653e-04  t[s]:    145.95
	Linear fluid (dielectric constant: 7.2) occupying 0.869138 of unit cell:	Completed after 4 iterations at t[s]:    146.09
	FillingsUpdate:  mu: -0.124753762  nElectrons: 289.000000
	Linear fluid (dielectric constant: 7.2) occupying 0.869165 of unit cell:	Completed after 4 iterations at t[s]:    149.56
SCF: Cycle:  3   F: -415.567482872073072   dF: -1.472e-05   |Residual|: 9.518e-04   |deigs|: 1.560e-04  t[s]:    149.72
	Linear fluid (dielectric constant: 7.2) occupying 0.869113 of unit cell:	Completed after 3 iterations at t[s]:    149.85
	FillingsUpdate:  mu: -0.124748522  nElectrons: 289.000000
	Linear fluid (dielectric constant: 7.2) occupying 0.869169 of unit cell:	Completed after 4 iterations at t[s]:    153.24
SCF: Cycle:  4   F: -415.567485493761410   dF: -2.622e-06   |Residual|: 5.368e-04   |deigs|: 2.049e-04  t[s]:    153.39
	Linear fluid (dielectric constant: 7.2) occupying 0.869128 of unit cell:	Completed after 3 iterations at t[s]:    153.53
	FillingsUpdate:  mu: -0.124742289  nElectrons: 289.000000
	Linear fluid (dielectric constant: 7.2) occupying 0.869166 of unit cell:	Completed after 3 iterations at t[s]:    157.08
SCF: Cycle:  5   F: -415.567486411455718   dF: -9.177e-07   |Residual|: 3.289e-04   |deigs|: 1.643e-04  t[s]:    157.22
	Linear fluid (dielectric constant: 7.2) occupying 0.869152 of unit cell:	Completed after 3 iterations at t[s]:    157.36
	FillingsUpdate:  mu: -0.124732146  nElectrons: 289.000000
	Linear fluid (dielectric constant: 7.2) occupying 0.869162 of unit cell:	Completed after 3 iterations at t[s]:    160.87
SCF: Cycle:  6   F: -415.567487869516242   dF: -1.458e-06   |Residual|: 2.255e-04   |deigs|: 1.665e-04  t[s]:    161.02
	Linear fluid (dielectric constant: 7.2) occupying 0.869165 of unit cell:	Completed after 1 iterations at t[s]:    161.14
	FillingsUpdate:  mu: -0.124725661  nElectrons: 289.000000
	Linear fluid (dielectric constant: 7.2) occupying 0.869159 of unit cell:	Completed after 1 iterations at t[s]:    164.56
SCF: Cycle:  7   F: -415.567489302693730   dF: -1.433e-06   |Residual|: 1.473e-04   |deigs|: 1.446e-04  t[s]:    164.70
	Linear fluid (dielectric constant: 7.2) occupying 0.869162 of unit cell:	Completed after 1 iterations at t[s]:    164.81
	FillingsUpdate:  mu: -0.124725810  nElectrons: 289.000000
	Linear fluid (dielectric constant: 7.2) occupying 0.869158 of unit cell:	Completed after 2 iterations at t[s]:    168.36
SCF: Cycle:  8   F: -415.567490123837842   dF: -8.211e-07   |Residual|: 1.109e-04   |deigs|: 1.618e-04  t[s]:    168.50
	Linear fluid (dielectric constant: 7.2) occupying 0.869155 of unit cell:	Completed after 1 iterations at t[s]:    168.62
	FillingsUpdate:  mu: -0.124727413  nElectrons: 289.000000
	Linear fluid (dielectric constant: 7.2) occupying 0.869157 of unit cell:	Completed after 1 iterations at t[s]:    172.15
SCF: Cycle:  9   F: -415.567490257950169   dF: -1.341e-07   |Residual|: 6.757e-05   |deigs|: 1.431e-04  t[s]:    172.29
	Linear fluid (dielectric constant: 7.2) occupying 0.869152 of unit cell:	Completed after 1 iterations at t[s]:    172.41
	FillingsUpdate:  mu: -0.124728122  nElectrons: 289.000000
	Linear fluid (dielectric constant: 7.2) occupying 0.869156 of unit cell:	Completed after 1 iterations at t[s]:    175.83
SCF: Cycle: 10   F: -415.567490272940972   dF: -1.499e-08   |Residual|: 4.354e-05   |deigs|: 1.312e-04  t[s]:    175.96
	Linear fluid (dielectric constant: 7.2) occupying 0.869152 of unit cell:	Completed after 0 iterations at t[s]:    176.08
	FillingsUpdate:  mu: -0.124728210  nElectrons: 289.000000
	Linear fluid (dielectric constant: 7.2) occupying 0.869156 of unit cell:	Completed after 0 iterations at t[s]:    179.51
SCF: Cycle: 11   F: -415.567490297410927   dF: -2.447e-08   |Residual|: 3.034e-05   |deigs|: 1.276e-04  t[s]:    179.64
	Linear fluid (dielectric constant: 7.2) occupying 0.869153 of unit cell:	Completed after 0 iterations at t[s]:    179.74
	FillingsUpdate:  mu: -0.124734706  nElectrons: 289.000000
	Linear fluid (dielectric constant: 7.2) occupying 0.869156 of unit cell:	Completed after 0 iterations at t[s]:    183.23
SCF: Cycle: 12   F: -415.567490307734715   dF: -1.032e-08   |Residual|: 2.369e-05   |deigs|: 1.506e-04  t[s]:    183.37
	Linear fluid (dielectric constant: 7.2) occupying 0.869154 of unit cell:	Completed after 0 iterations at t[s]:    183.47
	FillingsUpdate:  mu: -0.124730054  nElectrons: 289.000000
	Linear fluid (dielectric constant: 7.2) occupying 0.869156 of unit cell:	Completed after 1 iterations at t[s]:    186.92
SCF: Cycle: 13   F: -415.567490298191103   dF: +9.544e-09   |Residual|: 3.612e-05   |deigs|: 1.137e-04  t[s]:    187.05
	Linear fluid (dielectric constant: 7.2) occupying 0.869154 of unit cell:	Completed after 0 iterations at t[s]:    187.17
	FillingsUpdate:  mu: -0.124732121  nElectrons: 289.000000
	Linear fluid (dielectric constant: 7.2) occupying 0.869156 of unit cell:	Completed after 0 iterations at t[s]:    190.55
SCF: Cycle: 14   F: -415.567490300150666   dF: -1.960e-09   |Residual|: 3.555e-05   |deigs|: 6.945e-05  t[s]:    190.69
	Linear fluid (dielectric constant: 7.2) occupying 0.869155 of unit cell:	Completed after 0 iterations at t[s]:    190.80
	FillingsUpdate:  mu: -0.124731458  nElectrons: 289.000000
	Linear fluid (dielectric constant: 7.2) occupying 0.869156 of unit cell:	Completed after 0 iterations at t[s]:    194.18
SCF: Cycle: 15   F: -415.567490302041790   dF: -1.891e-09   |Residual|: 3.432e-05   |deigs|: 5.688e-05  t[s]:    194.31
SCF: Converged (|Delta E|<1.000000e-08 for 2 iters).

Setting wave functions to eigenvectors of Hamiltonian
Single-point solvation energy estimate, DeltaF = -0.013721171064844

Computing DFT-D3 correction:
# coordination-number C 3.300 3.300 3.300 3.300 3.300 3.300 3.300 3.300 3.298 3.300 3.300 3.299 3.300 3.300 3.294 3.300 3.300 3.300 3.300 3.296 3.296 3.300 3.297 3.296 3.300 3.301 3.300 3.299 3.296 3.300 3.300 3.296 3.299 3.300 3.298 3.298 3.300 3.300 3.300 3.300 3.300 3.300 3.301 3.300 3.300 3.300 3.285 3.300 3.300 3.285 3.300 3.300 3.300 3.300 3.286 3.286 3.299 3.285 3.286 3.300 3.300 3.298 3.299 3.300 3.300 3.300 3.300 3.297 3.299 3.300 3.297
# coordination-number N 3.208
# diagonal-C6 C 24.28 24.28 24.28 24.28 24.28 24.28 24.28 24.28 24.30 24.28 24.28 24.29 24.28 24.28 24.34 24.28 24.29 24.28 24.28 24.32 24.32 24.28 24.31 24.32 24.29 24.28 24.28 24.29 24.32 24.28 24.29 24.32 24.29 24.28 24.30 24.30 24.28 24.28 24.28 24.28 24.28 24.28 24.28 24.28 24.28 24.28 24.43 24.28 24.28 24.42 24.28 24.28 24.28 24.28 24.41 24.41 24.29 24.42 24.41 24.28 24.28 24.31 24.29 24.28 24.28 24.28 24.28 24.31 24.29 24.28 24.31
# diagonal-C6 N 15.60
EvdW_6 =   -0.051235
EvdW_8 =   -0.040061

# Ionic positions in cartesian coordinates:
ion C  28.010542013705631   0.002014969601156   0.635465203747167 0
ion C  16.341968157882292  20.214705522223607   0.636370795694031 0
ion C   2.338532027351695   4.042411505399060   0.630361847754816 0
ion C  23.343313188735969   0.002278716019722   0.640022467239564 0
ion C   4.672620934470559   0.001554156700161   0.632050616002296 0
ion C  11.674116326115334  20.215100669694028   0.619847495055023 0
ion C  25.676530282256284   4.042904097616445   0.653564930084009 0
ion C  18.675851376129700  16.172910511284943   0.662695583431347 0
ion C   4.671777948336020   8.082036709586005   0.612564386226399 0
ion C  18.676336142016080   0.002101964498535   0.651180333522277 0
ion C   9.339850970925752   0.001738039847832   0.641511836963307 0
ion C   9.341212652353351  16.175613291750459   0.599279306155555 0
ion C  23.342941439729607   8.084920466015539   0.683240254571249 0
ion C  21.009110272076708  12.128959849493356   0.688453340004557 0
ion C   7.009085367604252  12.128528685817338   0.597262204671189 0
ion C  14.008105470077210   0.001988816408382   0.654008834012114 0
ion C  14.009120976896664  16.174984627607692   0.629938477890011 0
ion C   7.005550759074101   4.041176716120078   0.616350899393808 0
ion C  21.010101094155836   4.043302536041172   0.668670850704729 0
ion C  16.344445762465487  12.130683361169906   0.668518806438794 0
ion C   9.337643998902927   8.081728763982859   0.614931622729934 0
ion C  16.343783017314891   4.042062713362387   0.668836182024798 0
ion C  11.674085450205249   4.041278849785761   0.642196060576936 0
ion C  11.675597583834264  12.133622242506720   0.630068253549407 0
ion C  18.678074956154809   8.085220585829878   0.685769374381508 0
ion C   7.007175797728255  20.216155157604103   0.619709324068161 0
ion C  -6.996748017889801  20.214440105700564   0.653094683289385 0
ion C   0.002354623270169   8.082966457809835   0.657418822396948 0
ion C  14.012576459862725   8.083203697825988   0.669712893069494 0
ion C   2.339067441062872  20.216465077180068   0.646220757178249 0
ion C  -4.663670527593792  16.172490992184059   0.678596642017759 0
ion C   2.336125814129785  12.127745765919109   0.656417500003109 0
ion C  -2.332224039758668  12.128030282589300   0.685859862245795 0
ion C  -2.329659352792410  20.215194179952768   0.659830322184195 0
ion C   4.673933801454849  16.177740252210711   0.625359734501050 0
ion C   0.002990588629148  16.174656174657997   0.666554428718456 0
ion C  14.008266720144102  21.561374576259517   0.629777200837147 0
ion C   2.338930816614256   1.348570645432834   0.632009758527847 0
ion C  25.677100562977380   1.348988124751942   0.641986895200073 0
ion C  16.342686998612663  17.520648868856785   0.642302048336074 0
ion C   4.672307145938162   5.388219921962990   0.616057256550324 0
ion C  21.010123495302889   1.349044430338556   0.652394834146865 0
ion C   7.005937845436384   1.348033936218268   0.628031389286509 0
ion C  11.674692189550257  17.521226022139913   0.612057705166649 0
ion C  23.343784883173043   5.390651685198355   0.669612389866280 0
ion C  18.676972543384359  13.478483594758318   0.675595907033575 0
ion C   7.004963348139576   9.432115986525980   0.597538283264729 0
ion C  16.342472076605748   1.348066366442404   0.659130179870282 0
ion C  11.673522256343780   1.347802312891912   0.646547034509048 0
ion C   9.340696631175403  13.481256291567631   0.599303874261302 0
ion C  21.010487586627971   9.434228317035956   0.689549670827176 0
ion C   9.340862584041272  21.562275316056120   0.623251203387415 0
ion C  -9.330262385564788  21.561165527783945   0.640491424243255 0
ion C   0.004476893676090   5.389148113018151   0.645932445799481 0
ion C  14.011432130181314  13.480719160062115   0.643556882023976 0
ion C   9.339051356617166   5.386992451363917   0.621078239496768 0
ion C  18.677007069088155   5.390558998944344   0.676741055188348 0
ion C  16.345725884609092   9.434637493571932   0.679131999516677 0
ion C  14.009428395823310   5.387478001177438   0.662736904438848 0
ion C   4.673293824799767  21.561882602550448   0.637519226383223 0
ion C  -6.996841473985326  17.520066852095106   0.666346621047357 0
ion C   2.337134667876788   9.428913976861832   0.643387178107247 0
ion C  -2.330217064543965   9.432650452790400   0.678563548363968 0
ion C  -4.663349535264295  21.561481505082671   0.652392573786173 0
ion C   7.008365318233412  17.523060541264897   0.607450639135720 0
ion C   0.004487123343837  21.561671103490092   0.654109318198199 0
ion C  -4.664147187494722  13.477588422800194   0.688047082736968 0
ion C   4.674619807111762  13.479414560663223   0.625188064189185 0
ion C   2.338448909138405  17.522455183042435   0.645633689115609 0
ion C  -2.330712054942804  17.520790606615741   0.670058696770369 0
ion C   0.000363098194401  13.478789474313889   0.675559226948007 0
ion N  11.674484029805171   9.432912355349794   0.644194404697448 0

# Forces in Cartesian coordinates:
force C  -0.000465300262635   0.000300961344491   0.000304533077611 0
force C  -0.000848926918380   0.000147769571793   0.000441634426586 0
force C  -0.000371059735542  -0.000142393447105   0.000438952620564 0
force C   0.000927902165745   0.000413793750658   0.000341113087187 0
force C  -0.000785494856631   0.000587000643731   0.000387989138097 0
force C   0.000245719272703   0.000337562603006   0.000370779185406 0
force C   0.000233019386552  -0.000809188915800   0.000385044198237 0
force C  -0.000163625319957   0.001991904105643   0.000302079290023 0
force C   0.001225177349938  -0.003519029140071   0.000590396988979 0
force C   0.000638681058387   0.000598219249110   0.000306314382170 0
force C  -0.001951888019977  -0.001010250222002   0.000327396173244 0
force C   0.004534503611620   0.000613086946386   0.000437212994662 0
force C  -0.000200966891447  -0.000464100208589   0.000028849004182 0
force C   0.001772116851576  -0.000847772486153   0.000083248955587 0
force C  -0.006885964627015   0.003996066554312   0.000851553196920 0
force C   0.001717165042529  -0.000961145806058   0.000459095259329 0
force C  -0.004697076551676   0.000715362351484   0.000488313898177 0
force C  -0.003279928872645   0.003590523101190   0.000394264937201 0
force C   0.000400272641133  -0.000097525839557   0.000232885515593 0
force C   0.005205732943309   0.003111565596846   0.000396754933336 0
force C   0.005894329294316   0.004088148692364   0.000660821224341 0
force C   0.003060643199566   0.003632000802279   0.000287899200019 0
force C   0.000074557080722  -0.006086960017070   0.000614809463084 0
force C   0.000060338033306  -0.006748350085641  -0.000013713164836 0
force C  -0.001595470091329  -0.004126983120345   0.000079200303140 0
force C   0.001024011059188   0.000195890235931   0.000481288390840 0
force C  -0.001871007437676   0.000933618523715   0.000327372609686 0
force C   0.000914187829390  -0.000259892552288   0.000413236808808 0
force C  -0.006092295768831   0.003804223094438  -0.000497978744844 0
force C   0.001635329161772   0.000629237029840   0.000342039474290 0
force C   0.000189800058866   0.000024054974789   0.000107178860516 0
force C  -0.000500985382640  -0.000449200848013  -0.000455766549650 0
force C   0.000683589024970  -0.001621525807802   0.000071409349297 0
force C   0.000010421126986  -0.000395721470069   0.000321647538608 0
force C  -0.000087957756189  -0.000073054727113   0.000355894538635 0
force C   0.000327037323650  -0.000516080223773   0.000316007772770 0
force C   0.000082886694387  -0.000235017371616   0.000445895098925 0
force C   0.000308537766510  -0.000093619817287   0.000449821885870 0
force C  -0.000139847554833  -0.000043288110120   0.000533963714625 0
force C   0.001442151338702  -0.001093629593580   0.000518011249558 0
force C   0.000476043844669   0.000537608875775   0.000442450237662 0
force C  -0.000665733300162   0.000118354716467   0.000513296333732 0
force C   0.001826385060832  -0.000850099334243   0.000566753036627 0
force C   0.000216675712825  -0.000551182228822   0.000426896382513 0
force C  -0.000537699130714   0.000352275715774   0.000356801902908 0
force C  -0.004640169847609  -0.003017888291684   0.000215648301069 0
force C   0.010077345094118   0.002447318533699   0.000866157910295 0
force C  -0.001689385884493  -0.000542059017236   0.000344950133589 0
force C   0.000330855921296   0.005285468784521   0.000373551016909 0
force C   0.003266426625092  -0.010927332937887   0.000625859994320 0
force C  -0.000400135892194   0.001504483589380   0.000100162271964 0
force C  -0.000313811806040  -0.000307944641923   0.000472636132450 0
force C   0.001556119308700  -0.000782847466952   0.000506473942646 0
force C   0.000060180056594   0.000480850797809   0.000510897727051 0
force C  -0.003534818299322  -0.010644448434437   0.000475176216460 0
force C   0.007411999355186   0.007831830431428   0.000662723003229 0
force C  -0.000617464361579   0.000282473442100   0.000349626385223 0
force C  -0.010465865167206   0.002049731651312   0.000160986885410 0
force C  -0.007021877504362   0.008009342943418   0.000309261229784 0
force C  -0.001616954881323  -0.000614367596035   0.000506111555299 0
force C  -0.000376477922359  -0.001311461510224   0.000392888108227 0
force C   0.000278831310615   0.003622274434611   0.000270396838122 0
force C   0.000090468817881   0.001859897338187   0.000298464831739 0
force C   0.000974944468290   0.001105914196170   0.000467943779865 0
force C  -0.002000542287961  -0.001364234660441   0.000462194796114 0
force C  -0.000783497626212   0.001261017818952   0.000467377835119 0
force C  -0.001331098534184  -0.000123958399286   0.000113260650521 0
force C   0.003061513455325  -0.003487978747499   0.000199400721922 0
force C   0.000353541449340  -0.001760269777330   0.000587041716912 0
force C   0.000230731454541  -0.000011785009896   0.000376202908621 0
force C   0.002880436607877  -0.000773983002186   0.000017678318445 0
force N   0.000211653262560   0.000228451830157   0.001055126582238 0

# Energy components:
   A_diel =       -0.0138652017123981
   Eewald =     4151.2859881094664161
       EH =     4471.1555737726594089
     Eloc =    -9205.9695571723823377
      Enl =       58.7389477064644154
     EvdW =       -0.0912961333768287
      Exc =     -131.5011453511422701
 Exc_core =        2.4796103962346052
       KE =      238.4030299889675177
-------------------------------------
     Etot =     -415.5127138848210961
       TS =        0.0547764172207219
-------------------------------------
        F =     -415.5674903020417901

IonicMinimize: Iter:   0  F: -415.567490302041790  |grad|_K:  0.000e+00  alpha:  1.000e+00
IonicMinimize: Converged (|grad|_K<1.000000e-04).

#--- Lowdin population analysis ---
# oxidation-state C +0.040 +0.040 +0.040 +0.040 +0.040 +0.040 +0.040 +0.042 +0.041 +0.041 +0.042 +0.041 +0.041 +0.042 +0.045 +0.042 +0.041 +0.041 +0.040 +0.045 +0.141 +0.041 +0.046 +0.140 +0.041 +0.041 +0.041 +0.040 +0.140 +0.041 +0.040 +0.042 +0.041 +0.041 +0.042 +0.040 +0.041 +0.041 +0.037 +0.042 +0.039 +0.041 +0.042 +0.039 +0.041 +0.035 +0.028 +0.041 +0.035 +0.028 +0.041 +0.041 +0.039 +0.041 +0.028 +0.028 +0.039 +0.028 +0.028 +0.039 +0.039 +0.041 +0.039 +0.039 +0.042 +0.039 +0.039 +0.035 +0.039 +0.035 +0.039
# oxidation-state N -0.000


Dumping 'N_graphene-glyme-vdw.fillings' ... done
Dumping 'N_graphene-glyme-vdw.wfns' ... done
Dumping 'N_graphene-glyme-vdw.fluidState' ... done
Dumping 'N_graphene-glyme-vdw.ionpos' ... done
Dumping 'N_graphene-glyme-vdw.eigenvals' ... done
End date and time: Wed Sep 11 03:22:06 2024  (Duration: 0-0:03:38.84)
Done!
