
*************** JDFTx 1.7.0  ***************

Start date and time: Sat Sep 28 15:36:30 2024
Executable jdftx with command-line: -i N_graphene-PC-elecmin.in -o N_graphene-PC-elecmin.out
Running on hosts (process indices):  Wolf-Dell (0)
Divided in process groups (process indices):  0 (0)
Resource initialization completed at t[s]:      0.00
Run totals: 1 processes, 6 threads, 0 GPUs


Input parsed successfully to the following command list (including defaults):

basis kpoint-dependent
coords-type Cartesian
core-overlap-check vector
coulomb-interaction Slab 001
coulomb-truncation-embed 0 0 0
davidson-band-ratio 1.1
dump End State
dump-name N_graphene-PC-elecmin.$VAR
elec-cutoff 20 100
elec-eigen-algo Davidson
elec-ex-corr gga-PBE
elec-smearing Fermi 0.01
electronic-minimize  \
	dirUpdateScheme      FletcherReeves \
	linminMethod         DirUpdateRecommended \
	nIterations          100 \
	history              15 \
	knormThreshold       0 \
	energyDiffThreshold  1e-08 \
	nEnergyDiff          2 \
	alphaTstart          1 \
	alphaTmin            1e-10 \
	updateTestStepSize   yes \
	alphaTreduceFactor   0.1 \
	alphaTincreaseFactor 3 \
	nAlphaAdjustMax      3 \
	wolfeEnergy          0.0001 \
	wolfeGradient        0.9 \
	fdTest               no
exchange-regularization WignerSeitzTruncated
fluid LinearPCM 298.000000 1.013250
fluid-ex-corr lda-TF lda-PZ
fluid-gummel-loop 10 1.000000e-05
fluid-minimize  \
	dirUpdateScheme      PolakRibiere \
	linminMethod         DirUpdateRecommended \
	nIterations          400 \
	history              15 \
	knormThreshold       1e-11 \
	energyDiffThreshold  0 \
	nEnergyDiff          2 \
	alphaTstart          1 \
	alphaTmin            1e-10 \
	updateTestStepSize   yes \
	alphaTreduceFactor   0.1 \
	alphaTincreaseFactor 3 \
	nAlphaAdjustMax      6 \
	wolfeEnergy          0.0001 \
	wolfeGradient        0.9 \
	fdTest               no
fluid-solvent PC 11.6429 ScalarEOS \
	epsBulk 64 \
	pMol 2.95 \
	epsInf 2.02 \
	Pvap 1.53277e-13 \
	sigmaBulk 2.88e-05 \
	Rvdw 0 \
	Res 0 \
	tauNuc 343133
forces-output-coords Positions
ion C -14.002727627687380  24.253668077025498   0.000000000000000 1
ion C  -2.332277130014860   4.043999089052938   0.000000000000000 1
ion C  11.663156955574374  20.202512645977635   0.000000000000000 1
ion C  -9.335410080962010  24.257857652522503   0.000000000000000 1
ion C   9.334584366807666  24.251595966418623   0.000000000000000 1
ion C   2.338618181910239   4.051937732845367   0.000000000000000 1
ion C -11.672697133136179  20.209557726283961   0.000000000000000 1
ion C  -4.665401820755021   8.085089593808325   0.000000000000000 1
ion C   9.326749280804760  16.144953662638397   0.000000000000000 1
ion C  -4.667469166902983  24.257857652522503   0.000000000000000 1
ion C   4.668334985327336  24.251595966418623   0.000000000000000 1
ion C   4.684363501450970   8.104105624462404   0.000000000000000 1
ion C  -9.338726676106663  16.167002311344088   0.000000000000000 1
ion C  -7.001439623932503  12.127081536099558   0.000000000000000 1
ion C  -0.000151620177615  24.253668077025498   0.000000000000000 1
ion C   0.005557300430192   8.087808763294756   0.000000000000000 1
ion C   7.001459676067501  20.205067122690377   0.000000000000000 1
ion C  -7.001439623932499  20.211472563383516   0.000000000000000 1
ion C  -2.323079097596632  12.126234270456884   0.000000000000000 1
ion C   4.676170071330246  16.144953662638397   0.000000000000000 1
ion C  -2.330182114728819  20.209557726283961   0.000000000000000 1
ion C   2.339762396560630  20.202512645977635   0.000000000000000 1
ion C   2.359073896713716  12.131625362179085   0.000000000000000 1
ion C  -4.664152571758336  16.167002311344088   0.000000000000000 1
ion C   7.001459676067497   4.050513191900404   0.000000000000000 1
ion C  21.004358976067490   4.042317202803072   0.000000000000000 1
ion C  13.995811391300066  16.165085728689739   0.000000000000000 1
ion C   0.007107960834928  16.165085728689739   0.000000000000000 1
ion C  11.664301170224753   4.051937732845367   0.000000000000000 1
ion C  18.668321172890018   8.085089593808325   0.000000000000000 1
ion C  11.643845455421285  12.131625362179085   0.000000000000000 1
ion C  16.325998449731628  12.126234270456884   0.000000000000000 1
ion C  16.335196482149858   4.043999089052938   0.000000000000000 1
ion C   9.318555850684024   8.104105624462404   0.000000000000000 1
ion C  13.997362051704801   8.087808763294756   0.000000000000000 1
ion C   0.002078371147835   2.699762730254924   0.000000000000000 1
ion C  11.665904952798785  22.902102980346783   0.000000000000000 1
ion C -11.672490364191200  22.908304965670279   0.000000000000000 1
ion C  -2.331308653256349   6.738618575873758   0.000000000000000 1
ion C   9.323185481007343  18.850359027162042   0.000000000000000 1
ion C  -7.001439623932496  22.908152619039438   0.000000000000000 1
ion C   7.001459676067501  22.903447497532365   0.000000000000000 1
ion C   2.339631828340087   6.754489283359140   0.000000000000000 1
ion C  -9.336833058009363  18.863132535555557   0.000000000000000 1
ion C  -4.662366905583447  10.778818938678182   0.000000000000000 1
ion C   7.001459676067499  14.798553282237654   0.000000000000000 1
ion C  -2.330388883673796  22.908304965670279   0.000000000000000 1
ion C   2.337014399336217  22.902102980346783   0.000000000000000 1
ion C   4.687735632174416  10.791065683521115   0.000000000000000 1
ion C  -7.001439623932503  14.817807758809995   0.000000000000000 1
ion C   4.665724140044407   2.698981497683131   0.000000000000000 1
ion C  23.337850793935992   2.695075073604910   0.000000000000000 1
ion C  13.998404404500507  18.863657886516435   0.000000000000000 1
ion C   0.017906023400243  10.775836338758701   0.000000000000000 1
ion C   4.679733871127656  18.850359027162042   0.000000000000000 1
ion C  -4.666046189855643  18.863132535555557   0.000000000000000 1
ion C  -2.331220588388597  14.818045265080322   0.000000000000000 1
ion C   2.330366384766362  14.823751852235860   0.000000000000000 1
ion C   0.004514947634492  18.863657886516435   0.000000000000000 1
ion C   9.337195212090583   2.698981497683131   0.000000000000000 1
ion C  21.004358976067497   6.736801461199398   0.000000000000000 1
ion C  11.672552967368642  14.823751852235860   0.000000000000000 1
ion C  16.334139940523592  14.818045265080322   0.000000000000000 1
ion C  18.670867158199009   2.695075073604910   0.000000000000000 1
ion C   7.001459676067496   6.733180944808161   0.000000000000000 1
ion C  14.000840980987157   2.699762730254924   0.000000000000000 1
ion C  18.665286257718442  10.778818938678182   0.000000000000000 1
ion C   9.315183719960579  10.791065683521115   0.000000000000000 1
ion C  11.663287523794907   6.754489283359140   0.000000000000000 1
ion C  16.334228005391335   6.738618575873758   0.000000000000000 1
ion C  13.985013328734750  10.775836338758701   0.000000000000000 1
ion N   7.001459676067497  12.126894883093295   0.000000000000000 1
ion-species GBRV/$ID_pbe.uspp
ion-width Ecut
ionic-minimize  \
	dirUpdateScheme      L-BFGS \
	linminMethod         DirUpdateRecommended \
	nIterations          0 \
	history              15 \
	knormThreshold       0.0001 \
	energyDiffThreshold  1e-06 \
	nEnergyDiff          2 \
	alphaTstart          1 \
	alphaTmin            1e-10 \
	updateTestStepSize   yes \
	alphaTreduceFactor   0.1 \
	alphaTincreaseFactor 3 \
	nAlphaAdjustMax      3 \
	wolfeEnergy          0.0001 \
	wolfeGradient        0.9 \
	fdTest               no
kpoint   0.000000000000   0.000000000000   0.000000000000  1.00000000000000
kpoint-folding 1 1 1 
latt-move-scale 1 1 1
latt-scale 1 1 1 
lattice Triclinic 28.0058 28.0058 37.7946 90 90 120
lattice-minimize  \
	dirUpdateScheme      L-BFGS \
	linminMethod         DirUpdateRecommended \
	nIterations          0 \
	history              15 \
	knormThreshold       0 \
	energyDiffThreshold  1e-06 \
	nEnergyDiff          2 \
	alphaTstart          1 \
	alphaTmin            1e-10 \
	updateTestStepSize   yes \
	alphaTreduceFactor   0.1 \
	alphaTincreaseFactor 3 \
	nAlphaAdjustMax      3 \
	wolfeEnergy          0.0001 \
	wolfeGradient        0.9 \
	fdTest               no
lcao-params -1 1e-06 0.01
pcm-variant GLSSA13
spintype no-spin
subspace-rotation-factor 1 yes
symmetries automatic
symmetry-threshold 0.0001



---------- Setting up symmetries ----------

Found 24 point-group symmetries of the bravais lattice
Found 12 space-group symmetries with basis
Applied RMS atom displacement 1.86303e-15 bohrs to make symmetries exact.

---------- Initializing the Grid ----------
R = 
[      28.0058     -14.0029            0  ]
[            0      24.2537            0  ]
[            0            0      37.7946  ]
unit cell volume = 25671.8
G =
[   0.224353    0.12953         -0  ]
[          0   0.259061          0  ]
[          0         -0   0.166246  ]
Minimum fftbox size, Smin = [  128  128  172  ]
Chosen fftbox size, S = [  128  128  180  ]

---------- Initializing tighter grid for wavefunction operations ----------
R = 
[      28.0058     -14.0029            0  ]
[            0      24.2537            0  ]
[            0            0      37.7946  ]
unit cell volume = 25671.8
G =
[   0.224353    0.12953         -0  ]
[          0   0.259061          0  ]
[          0         -0   0.166246  ]
Minimum fftbox size, Smin = [  116  116  156  ]
Chosen fftbox size, S = [  120  120  160  ]

---------- Exchange Correlation functional ----------
Initalized PBE GGA exchange.
Initalized PBE GGA correlation.

---------- Setting up pseudopotentials ----------
Width of ionic core gaussian charges (only for fluid interactions / plotting) set to 0.397384

Reading pseudopotential file '/home/akakimmykim/jdftx_install/build/pseudopotentials/GBRV/c_pbe.uspp':
  Title: C.  Created by USPP 7.3.6 on 3-2-2014
  Reference state energy: -5.406344.  4 valence electrons in orbitals:
    |200>  occupation: 2  eigenvalue: -0.504890
    |210>  occupation: 2  eigenvalue: -0.194356
  lMax: 1  lLocal: 2  QijEcut: 5
  4 projectors sampled on a log grid with 503 points:
    l: 0  eig: -0.504890  rCut: 1.3
    l: 0  eig: 0.000000  rCut: 1.3
    l: 1  eig: -0.194357  rCut: 1.3
    l: 1  eig: 0.000000  rCut: 1.3
  Partial core density with radius 1.1
  Transforming core density to a uniform radial grid of dG=0.02 with 1625 points.
  Transforming local potential to a uniform radial grid of dG=0.02 with 1625 points.
  Transforming nonlocal projectors to a uniform radial grid of dG=0.02 with 432 points.
  Transforming density augmentations to a uniform radial grid of dG=0.02 with 1625 points.
  Transforming atomic orbitals to a uniform radial grid of dG=0.02 with 432 points.
  Core radius for overlap checks: 1.30 bohrs.

Reading pseudopotential file '/home/akakimmykim/jdftx_install/build/pseudopotentials/GBRV/n_pbe.uspp':
  Title: N.  Created by USPP 7.3.6 on 3-2-2014
  Reference state energy: -9.763716.  5 valence electrons in orbitals:
    |200>  occupation: 2  eigenvalue: -0.681964
    |210>  occupation: 3  eigenvalue: -0.260726
  lMax: 1  lLocal: 2  QijEcut: 6
  4 projectors sampled on a log grid with 491 points:
    l: 0  eig: -0.681964  rCut: 1.15
    l: 0  eig: 0.000000  rCut: 1.15
    l: 1  eig: -0.260729  rCut: 1.2
    l: 1  eig: 0.500000  rCut: 1.2
  Partial core density with radius 0.8
  Transforming core density to a uniform radial grid of dG=0.02 with 1625 points.
  Transforming local potential to a uniform radial grid of dG=0.02 with 1625 points.
  Transforming nonlocal projectors to a uniform radial grid of dG=0.02 with 432 points.
  Transforming density augmentations to a uniform radial grid of dG=0.02 with 1625 points.
  Transforming atomic orbitals to a uniform radial grid of dG=0.02 with 432 points.
  Core radius for overlap checks: 1.20 bohrs.

Initialized 2 species with 72 total atoms.

Folded 1 k-points by 1x1x1 to 1 k-points.

---------- Setting up k-points, bands, fillings ----------
No reducable k-points. 
Computing the number of bands and number of electrons
Calculating initial fillings.
nElectrons: 289.000000   nBands: 288   nStates: 1

----- Setting up reduced wavefunction bases (one per k-point) -----
average nbasis = 109673.000 , ideal nbasis = 109671.883

---------- Setting up coulomb interaction ----------
Fluid mode embedding: using embedded box, but periodic Coulomb kernel.
(Fluid response is responsible for (approximate) separation between periodic images.)
Setting up double-sized grid for truncated Coulomb potentials:
R = 
[      28.0058     -14.0029            0  ]
[            0      24.2537            0  ]
[            0            0      75.5892  ]
unit cell volume = 51343.6
G =
[   0.224353    0.12953         -0  ]
[          0   0.259061          0  ]
[          0         -0  0.0831228  ]
Chosen fftbox size, S = [  128  128  360  ]
Integer grid location selected as the embedding center:
   Grid: [  0  0  0  ]
   Lattice: [  0  0  0  ]
   Cartesian: [  0  0  0  ]
Constructing Wigner-Seitz cell: 8 faces (6 quadrilaterals, 2 hexagons)
Range-separation parameter for embedded mesh potentials due to point charges: 0.590105 bohrs.

---------- Setting up ewald sum ----------
Optimum gaussian width for ewald sums = 7.269704 bohr.
Real space sum over 405 unit cells with max indices [  4  4  2  ]
Reciprocal space sum over 7875 terms with max indices [  7  7  17  ]

---------- Allocating electronic variables ----------
Initializing wave functions:  linear combination of atomic orbitals
C pseudo-atom occupations:   s ( 2 )  p ( 2 )
N pseudo-atom occupations:   s ( 2 )  p ( 3 )
	FillingsUpdate:  mu: -0.281814511  nElectrons: 289.000000
LCAOMinimize: Iter:   0  F: -410.9837777324167405  |grad|_K:  2.853e-03  alpha:  1.000e+00
	FillingsUpdate:  mu: -0.274261962  nElectrons: 289.000000
LCAOMinimize: Iter:   1  F: -411.0513344168576850  |grad|_K:  9.487e-04  alpha:  1.470e-01  linmin: -2.492e-01  cgtest:  9.053e-01  t[s]:    282.25
LCAOMinimize: Encountered beta<0, resetting CG.
	FillingsUpdate:  mu: -0.272457716  nElectrons: 289.000000
LCAOMinimize: Iter:   2  F: -411.0599593443618005  |grad|_K:  2.528e-04  alpha:  2.344e-01  linmin:  5.160e-02  cgtest: -1.588e-01  t[s]:    368.97
	FillingsUpdate:  mu: -0.272574910  nElectrons: 289.000000
LCAOMinimize: Iter:   3  F: -411.0606331220869265  |grad|_K:  8.190e-05  alpha:  2.743e-01  linmin: -1.273e-04  cgtest:  2.620e-01  t[s]:    456.29
	FillingsUpdate:  mu: -0.272668174  nElectrons: 289.000000
LCAOMinimize: Iter:   4  F: -411.0607201825434913  |grad|_K:  3.932e-05  alpha:  3.107e-01  linmin: -1.318e-03  cgtest:  1.646e-03  t[s]:    542.96
	FillingsUpdate:  mu: -0.272633719  nElectrons: 289.000000
LCAOMinimize: Iter:   5  F: -411.0607486764739633  |grad|_K:  2.588e-05  alpha:  4.405e-01  linmin:  2.123e-04  cgtest: -4.477e-03  t[s]:    629.48
	FillingsUpdate:  mu: -0.272646282  nElectrons: 289.000000
LCAOMinimize: Iter:   6  F: -411.0607575436078491  |grad|_K:  3.762e-06  alpha:  3.174e-01  linmin:  4.132e-05  cgtest:  1.443e-02  t[s]:    716.75
	FillingsUpdate:  mu: -0.272647553  nElectrons: 289.000000
LCAOMinimize: Iter:   7  F: -411.0607577699690864  |grad|_K:  1.796e-06  alpha:  3.828e-01  linmin:  5.096e-04  cgtest: -2.223e-03  t[s]:    803.65
	FillingsUpdate:  mu: -0.272645626  nElectrons: 289.000000
LCAOMinimize: Iter:   8  F: -411.0607578284246415  |grad|_K:  1.082e-06  alpha:  4.377e-01  linmin: -1.001e-03  cgtest:  9.802e-03  t[s]:    890.71
LCAOMinimize: Converged (|Delta F|<1.000000e-06 for 2 iters).
----- createFluidSolver() ----- (Fluid-side solver setup)
   Initializing fluid molecule 'PC'
     Net charge: 0   dipole magnitude: 0
     Initializing spherical shell mfKernel with radius 0 Bohr
     deltaS corrections:

Correction to mu due to finite nuclear width = -0.00558485
   Cavity determined by nc: 0.00098 and sigma: 0.6
   Effective cavity tension: 9.53e-06 Eh/bohr^2 to account for cavitation and dispersion.


---- Citations for features of the code used in this run ----

   Software package:
      R. Sundararaman, K. Letchworth-Weaver, K.A. Schwarz, D. Gunceler, Y. Ozhabes and T.A. Arias, 'JDFTx: software for joint density-functional theory', SoftwareX 6, 278 (2017)

   gga-PBE exchange-correlation functional:
      J.P. Perdew, K. Burke and M. Ernzerhof, Phys. Rev. Lett. 77, 3865 (1996)

   Pseudopotentials:
      KF Garrity, JW Bennett, KM Rabe and D Vanderbilt, Comput. Mater. Sci. 81, 446 (2014)

   Truncated Coulomb potentials:
      R. Sundararaman and T.A. Arias, Phys. Rev. B 87, 165122 (2013)

   Linear/nonlinear dielectric/ionic fluid model with effective cavity tension:
      D. Gunceler, K. Letchworth-Weaver, R. Sundararaman, K.A. Schwarz and T.A. Arias, Modelling Simul. Mater. Sci. Eng. 21, 074005 (2013)

   Total energy minimization with Auxiliary Hamiltonian:
      C. Freysoldt, S. Boeck, and J. Neugebauer, Phys. Rev. B 79, 241103(R) (2009)

This list may not be complete. Please suggest additional citations or
report any other bugs at https://github.com/shankar1729/jdftx/issues

Initialization completed successfully at t[s]:    948.93

Fluid solver invoked on fresh (random / LCAO) wavefunctions
Running a vacuum solve first:

-------- Initial electronic minimization -----------
	FillingsUpdate:  mu: -0.272645626  nElectrons: 289.000000
ElecMinimize: Iter:   0  F: -411.060757828418673  |grad|_K:  4.281e-04  alpha:  1.000e+00
	FillingsUpdate:  mu: -0.126709802  nElectrons: 289.000000
	SubspaceRotationAdjust: set factor to 1
ElecMinimize: Iter:   1  F: -415.141505164151170  |grad|_K:  1.048e-04  alpha:  7.137e-01  linmin: -1.262e-04  t[s]:   1389.08
	FillingsUpdate:  mu: -0.123819704  nElectrons: 289.000000
	SubspaceRotationAdjust: set factor to 1
ElecMinimize: Iter:   2  F: -415.404075518677189  |grad|_K:  4.195e-05  alpha:  7.541e-01  linmin: -8.329e-06  t[s]:   1692.14
	FillingsUpdate:  mu: -0.121569175  nElectrons: 289.000000
	SubspaceRotationAdjust: set factor to 0.662
ElecMinimize: Iter:   3  F: -415.444423717234713  |grad|_K:  3.599e-05  alpha:  7.211e-01  linmin:  3.309e-05  t[s]:   1995.30
	FillingsUpdate:  mu: -0.121663153  nElectrons: 289.000000
	SubspaceRotationAdjust: set factor to 0.369
ElecMinimize: Iter:   4  F: -415.455164918744117  |grad|_K:  1.615e-05  alpha:  2.695e-01  linmin:  2.064e-05  t[s]:   2299.09
ElecMinimize: 	Predicted alpha/alphaT>3.000000, increasing alphaT to 8.084648e-01.
	FillingsUpdate:  mu: -0.120471260  nElectrons: 289.000000
	SubspaceRotationAdjust: set factor to 0.377
ElecMinimize: Iter:   5  F: -415.462247862084155  |grad|_K:  8.362e-06  alpha:  8.663e-01  linmin:  1.194e-05  t[s]:   2674.39
	FillingsUpdate:  mu: -0.119691634  nElectrons: 289.000000
	SubspaceRotationAdjust: set factor to 0.271
ElecMinimize: Iter:   6  F: -415.463567778997401  |grad|_K:  3.990e-06  alpha:  5.955e-01  linmin:  5.689e-06  t[s]:   2979.23
	FillingsUpdate:  mu: -0.119673314  nElectrons: 289.000000
	SubspaceRotationAdjust: set factor to 0.336
ElecMinimize: Iter:   7  F: -415.463936223804637  |grad|_K:  1.897e-06  alpha:  7.331e-01  linmin:  7.512e-06  t[s]:   3283.56
	FillingsUpdate:  mu: -0.119747850  nElectrons: 289.000000
	SubspaceRotationAdjust: set factor to 0.365
ElecMinimize: Iter:   8  F: -415.464027824310051  |grad|_K:  1.053e-06  alpha:  8.086e-01  linmin:  7.194e-06  t[s]:   3586.93
	FillingsUpdate:  mu: -0.119706310  nElectrons: 289.000000
	SubspaceRotationAdjust: set factor to 0.411
ElecMinimize: Iter:   9  F: -415.464055464202545  |grad|_K:  6.209e-07  alpha:  7.947e-01  linmin:  3.071e-06  t[s]:   3890.83
	FillingsUpdate:  mu: -0.119718116  nElectrons: 289.000000
	SubspaceRotationAdjust: set factor to 0.566
ElecMinimize: Iter:  10  F: -415.464066132619337  |grad|_K:  3.777e-07  alpha:  8.849e-01  linmin:  1.273e-06  t[s]:   4195.79
	FillingsUpdate:  mu: -0.119755445  nElectrons: 289.000000
	SubspaceRotationAdjust: set factor to 0.584
ElecMinimize: Iter:  11  F: -415.464069643859148  |grad|_K:  2.384e-07  alpha:  7.874e-01  linmin:  2.067e-07  t[s]:   4498.66
	FillingsUpdate:  mu: -0.119753457  nElectrons: 289.000000
	SubspaceRotationAdjust: set factor to 0.424
ElecMinimize: Iter:  12  F: -415.464070657593254  |grad|_K:  1.419e-07  alpha:  5.635e-01  linmin: -1.627e-08  t[s]:   4802.89
	FillingsUpdate:  mu: -0.119750405  nElectrons: 289.000000
	SubspaceRotationAdjust: set factor to 0.421
ElecMinimize: Iter:  13  F: -415.464071051808958  |grad|_K:  6.842e-08  alpha:  6.192e-01  linmin:  1.116e-07  t[s]:   5105.00
	FillingsUpdate:  mu: -0.119746154  nElectrons: 289.000000
	SubspaceRotationAdjust: set factor to 0.477
ElecMinimize: Iter:  14  F: -415.464071170238867  |grad|_K:  4.722e-08  alpha:  8.014e-01  linmin: -6.931e-09  t[s]:   5408.44
	FillingsUpdate:  mu: -0.119743853  nElectrons: 289.000000
	SubspaceRotationAdjust: set factor to 0.564
ElecMinimize: Iter:  15  F: -415.464071234951746  |grad|_K:  4.125e-08  alpha:  9.431e-01  linmin:  9.472e-07  t[s]:   5712.70
	FillingsUpdate:  mu: -0.119744030  nElectrons: 289.000000
	SubspaceRotationAdjust: set factor to 0.641
ElecMinimize: Iter:  16  F: -415.464071243312674  |grad|_K:  3.973e-08  alpha:  1.063e-01  linmin: -2.427e-06  t[s]:   6018.29
	FillingsUpdate:  mu: -0.119745497  nElectrons: 289.000000
	SubspaceRotationAdjust: set factor to 0.529
ElecMinimize: Iter:  17  F: -415.464071270349280  |grad|_K:  3.078e-08  alpha:  3.049e-01  linmin:  8.738e-08  t[s]:   6321.88
	FillingsUpdate:  mu: -0.119745903  nElectrons: 289.000000
	SubspaceRotationAdjust: set factor to 0.399
ElecMinimize: Iter:  18  F: -415.464071277474375  |grad|_K:  3.097e-08  alpha:  2.380e-01  linmin: -4.518e-08  t[s]:   6624.60
	FillingsUpdate:  mu: -0.119745917  nElectrons: 289.000000
	SubspaceRotationAdjust: set factor to 0.332
ElecMinimize: Iter:  19  F: -415.464071283596468  |grad|_K:  2.866e-08  alpha:  1.580e-01  linmin:  8.300e-08  t[s]:   6926.61
ElecMinimize: Converged (|Delta F|<1.000000e-08 for 2 iters).
Setting wave functions to eigenvectors of Hamiltonian
Vacuum energy after initial minimize, F = -415.464071283596468


-------- Electronic minimization -----------
	Linear fluid (dielectric constant: 64) occupying 0.904819 of unit cell:	Completed after 32 iterations at t[s]:   6964.56
	FillingsUpdate:  mu: -0.111736200  nElectrons: 289.000000
ElecMinimize: Iter:   0  F: -415.464521818775552  |grad|_K:  5.677e-06  alpha:  1.000e+00
	Linear fluid (dielectric constant: 64) occupying 0.904595 of unit cell:	Completed after 17 iterations at t[s]:   7223.18
	Linear fluid (dielectric constant: 64) occupying 0.904599 of unit cell:	Completed after 0 iterations at t[s]:   7296.92
	FillingsUpdate:  mu: -0.112004341  nElectrons: 289.000000
	SubspaceRotationAdjust: set factor to 0.327
ElecMinimize: Iter:   1  F: -415.465523968521154  |grad|_K:  2.853e-06  alpha:  9.832e-01  linmin: -1.109e-05  t[s]:   7408.24
	Linear fluid (dielectric constant: 64) occupying 0.904538 of unit cell:	Completed after 11 iterations at t[s]:   7534.97
	Linear fluid (dielectric constant: 64) occupying 0.904539 of unit cell:	Completed after 0 iterations at t[s]:   7609.69
	FillingsUpdate:  mu: -0.112238479  nElectrons: 289.000000
	SubspaceRotationAdjust: set factor to 0.368
ElecMinimize: Iter:   2  F: -415.465774272605699  |grad|_K:  1.336e-06  alpha:  9.707e-01  linmin: -4.362e-06  t[s]:   7721.75
	Linear fluid (dielectric constant: 64) occupying 0.904523 of unit cell:	Completed after 4 iterations at t[s]:   7845.52
	Linear fluid (dielectric constant: 64) occupying 0.904525 of unit cell:	Completed after 3 iterations at t[s]:   7920.07
	FillingsUpdate:  mu: -0.112317209  nElectrons: 289.000000
	SubspaceRotationAdjust: set factor to 0.45
ElecMinimize: Iter:   3  F: -415.465823507877985  |grad|_K:  6.405e-07  alpha:  8.744e-01  linmin: -3.301e-06  t[s]:   8031.21
	Linear fluid (dielectric constant: 64) occupying 0.904519 of unit cell:	Completed after 3 iterations at t[s]:   8154.40
	Linear fluid (dielectric constant: 64) occupying 0.904519 of unit cell:	Completed after 0 iterations at t[s]:   8228.05
	FillingsUpdate:  mu: -0.112326001  nElectrons: 289.000000
	SubspaceRotationAdjust: set factor to 0.652
ElecMinimize: Iter:   4  F: -415.465836303769095  |grad|_K:  3.083e-07  alpha:  9.804e-01  linmin: -1.004e-06  t[s]:   8340.28
	Linear fluid (dielectric constant: 64) occupying 0.904523 of unit cell:	Completed after 2 iterations at t[s]:   8463.92
	Linear fluid (dielectric constant: 64) occupying 0.904523 of unit cell:	Completed after 0 iterations at t[s]:   8536.87
	FillingsUpdate:  mu: -0.112315856  nElectrons: 289.000000
	SubspaceRotationAdjust: set factor to 0.843
ElecMinimize: Iter:   5  F: -415.465839420214593  |grad|_K:  1.538e-07  alpha:  1.031e+00  linmin: -1.657e-06  t[s]:   8649.41
	Linear fluid (dielectric constant: 64) occupying 0.904526 of unit cell:	Completed after 2 iterations at t[s]:   8772.86
	Linear fluid (dielectric constant: 64) occupying 0.904525 of unit cell:	Completed after 0 iterations at t[s]:   8846.45
	FillingsUpdate:  mu: -0.112318833  nElectrons: 289.000000
	SubspaceRotationAdjust: set factor to 0.78
ElecMinimize: Iter:   6  F: -415.465840063930330  |grad|_K:  7.621e-08  alpha:  8.535e-01  linmin: -1.236e-07  t[s]:   8958.10
	Linear fluid (dielectric constant: 64) occupying 0.904526 of unit cell:	Completed after 0 iterations at t[s]:   9079.76
	Linear fluid (dielectric constant: 64) occupying 0.904526 of unit cell:	Completed after 0 iterations at t[s]:   9152.83
	FillingsUpdate:  mu: -0.112319194  nElectrons: 289.000000
	SubspaceRotationAdjust: set factor to 0.925
ElecMinimize: Iter:   7  F: -415.465840239261070  |grad|_K:  4.750e-08  alpha:  9.666e-01  linmin:  8.027e-07  t[s]:   9264.16
	Linear fluid (dielectric constant: 64) occupying 0.904527 of unit cell:	Completed after 1 iterations at t[s]:   9387.29
	Linear fluid (dielectric constant: 64) occupying 0.904526 of unit cell:	Completed after 0 iterations at t[s]:   9460.62
ElecMinimize: 	Step increased F by 9.866028e-09, reducing alpha to 4.050228e-02.
	Linear fluid (dielectric constant: 64) occupying 0.904526 of unit cell:	Completed after 0 iterations at t[s]:   9644.16
ElecMinimize: 	Step increased F by 2.294297e-08, reducing alpha to 4.050228e-03.
	Linear fluid (dielectric constant: 64) occupying 0.904526 of unit cell:	Completed after 0 iterations at t[s]:   9826.79
ElecMinimize: 	Step increased F by 2.525019e-08, reducing alpha to 4.050228e-04.
ElecMinimize: 	Step failed to reduce F after 3 attempts. Quitting step.
ElecMinimize: 	Undoing step.
	Linear fluid (dielectric constant: 64) occupying 0.904526 of unit cell:	Completed after 0 iterations at t[s]:  10010.13
ElecMinimize: 	Step failed: resetting search direction.
	FillingsUpdate:  mu: -0.112316237  nElectrons: 289.000000
	SubspaceRotationAdjust: set factor to 0.929
ElecMinimize: Iter:   8  F: -415.465840213899469  |grad|_K:  5.472e-08  alpha:  4.050e-04
	Linear fluid (dielectric constant: 64) occupying 0.904527 of unit cell:	Completed after 0 iterations at t[s]:  10244.09
	Linear fluid (dielectric constant: 64) occupying 0.904526 of unit cell:	Completed after 0 iterations at t[s]:  10317.88
	FillingsUpdate:  mu: -0.112316574  nElectrons: 289.000000
	SubspaceRotationAdjust: set factor to 1.24
ElecMinimize: Iter:   9  F: -415.465840254790692  |grad|_K:  2.407e-08  alpha:  6.228e-01  linmin: -8.091e-06  t[s]:  10430.24
	Linear fluid (dielectric constant: 64) occupying 0.904527 of unit cell:	Completed after 0 iterations at t[s]:  10553.27
	Linear fluid (dielectric constant: 64) occupying 0.904527 of unit cell:	Completed after 0 iterations at t[s]:  10626.65
	FillingsUpdate:  mu: -0.112316652  nElectrons: 289.000000
	SubspaceRotationAdjust: set factor to 1.06
ElecMinimize: Iter:  10  F: -415.465840286893808  |grad|_K:  2.406e-08  alpha:  1.620e+00  linmin:  1.037e-06  t[s]:  10737.99
	Linear fluid (dielectric constant: 64) occupying 0.904527 of unit cell:	Completed after 0 iterations at t[s]:  10859.75
	Linear fluid (dielectric constant: 64) occupying 0.904527 of unit cell:	Completed after 0 iterations at t[s]:  10932.91
	FillingsUpdate:  mu: -0.112316692  nElectrons: 289.000000
	SubspaceRotationAdjust: set factor to 1.12
ElecMinimize: Iter:  11  F: -415.465840297191619  |grad|_K:  2.093e-08  alpha:  3.985e-01  linmin: -3.193e-06  t[s]:  11045.01
	Linear fluid (dielectric constant: 64) occupying 0.904527 of unit cell:	Completed after 0 iterations at t[s]:  11166.36
	Linear fluid (dielectric constant: 64) occupying 0.904527 of unit cell:	Completed after 0 iterations at t[s]:  11239.73
	FillingsUpdate:  mu: -0.112316815  nElectrons: 289.000000
	SubspaceRotationAdjust: set factor to 0.951
ElecMinimize: Iter:  12  F: -415.465840310961710  |grad|_K:  3.328e-08  alpha:  1.172e+00  linmin:  3.349e-06  t[s]:  11350.42
ElecMinimize: 	Bad step direction: g.d > 0.
ElecMinimize: 	Undoing step.
	Linear fluid (dielectric constant: 64) occupying 0.904527 of unit cell:	Completed after 0 iterations at t[s]:  11466.47
ElecMinimize: 	Step failed: resetting search direction.
	FillingsUpdate:  mu: -0.112316815  nElectrons: 289.000000
	SubspaceRotationAdjust: set factor to 0.877
ElecMinimize: Iter:  13  F: -415.465840310960459  |grad|_K:  3.162e-08  alpha:  0.000e+00
	Linear fluid (dielectric constant: 64) occupying 0.904527 of unit cell:	Completed after 0 iterations at t[s]:  11699.40
	Linear fluid (dielectric constant: 64) occupying 0.904527 of unit cell:	Completed after 0 iterations at t[s]:  11773.83
	FillingsUpdate:  mu: -0.112316807  nElectrons: 289.000000
	SubspaceRotationAdjust: set factor to 1.13
ElecMinimize: Iter:  14  F: -415.465840334410643  |grad|_K:  1.177e-08  alpha:  8.174e-01  linmin: -5.589e-07  t[s]:  11885.38
	Linear fluid (dielectric constant: 64) occupying 0.904527 of unit cell:	Completed after 0 iterations at t[s]:  12008.11
	Linear fluid (dielectric constant: 64) occupying 0.904527 of unit cell:	Completed after 0 iterations at t[s]:  12081.42
	FillingsUpdate:  mu: -0.112316775  nElectrons: 289.000000
	SubspaceRotationAdjust: set factor to 1.15
ElecMinimize: Iter:  15  F: -415.465840341614580  |grad|_K:  1.030e-08  alpha:  1.272e+00  linmin: -1.088e-06  t[s]:  12192.08
	Linear fluid (dielectric constant: 64) occupying 0.904527 of unit cell:	Completed after 0 iterations at t[s]:  12314.01
ElecMinimize: 	Wrong curvature in test step, increasing alphaT to 3.817212e+00.
	Linear fluid (dielectric constant: 64) occupying 0.904527 of unit cell:	Completed after 0 iterations at t[s]:  12326.61
	FillingsUpdate:  mu: -0.112316737  nElectrons: 289.000000
	SubspaceRotationAdjust: set factor to 1.65
ElecMinimize: Iter:  16  F: -415.465840352316150  |grad|_K:  9.431e-09  alpha: -2.981e+01  linmin: -4.548e-06  t[s]:  12437.33
	Linear fluid (dielectric constant: 64) occupying 0.904527 of unit cell:	Completed after 0 iterations at t[s]:  12558.51
	Linear fluid (dielectric constant: 64) occupying 0.904527 of unit cell:	Completed after 0 iterations at t[s]:  12631.82
ElecMinimize: 	Step increased F by 3.921627e-09, reducing alpha to 1.258990e-01.
	Linear fluid (dielectric constant: 64) occupying 0.904527 of unit cell:	Completed after 0 iterations at t[s]:  12814.90
	FillingsUpdate:  mu: -0.112316737  nElectrons: 289.000000
	SubspaceRotationAdjust: set factor to 1.91
ElecMinimize: Iter:  17  F: -415.465840354275542  |grad|_K:  9.651e-09  alpha:  1.259e-01  linmin: -7.046e-06  t[s]:  12925.81
	Linear fluid (dielectric constant: 64) occupying 0.904527 of unit cell:	Completed after 0 iterations at t[s]:  13046.89
	Linear fluid (dielectric constant: 64) occupying 0.904527 of unit cell:	Completed after 0 iterations at t[s]:  13120.86
	FillingsUpdate:  mu: -0.112316743  nElectrons: 289.000000
	SubspaceRotationAdjust: set factor to 2.65
	SubspaceRotationAdjust: resetting CG because factor has changed by 7.96731
	Linear fluid (dielectric constant: 64) occupying 0.904527 of unit cell:	Completed after 0 iterations at t[s]:  13243.28
ElecMinimize: 	State modified externally: resetting search direction.
ElecMinimize: Iter:  18  F: -415.465840358043579  |grad|_K:  8.456e-09  alpha:  2.376e-01
ElecMinimize: Converged (|Delta F|<1.000000e-08 for 2 iters).
Setting wave functions to eigenvectors of Hamiltonian
Single-point solvation energy estimate, DeltaF = -0.001769074447111

# Ionic positions in cartesian coordinates:
ion C -14.002727627687380  24.253668077025498   0.000000000000000 1
ion C  -2.332277130014861   4.043999089052937   0.000000000000000 1
ion C  11.663156955574371  20.202512645977635   0.000000000000000 1
ion C  -9.335410080962010  24.257857652522503   0.000000000000000 1
ion C   9.334584366807666  24.251595966418623   0.000000000000000 1
ion C   2.338618181910239   4.051937732845367   0.000000000000000 1
ion C -11.672697133136179  20.209557726283961   0.000000000000000 1
ion C  -4.665401820755022   8.085089593808323   0.000000000000000 1
ion C   9.326749280804760  16.144953662638397   0.000000000000000 1
ion C  -4.667469166902983  24.257857652522503   0.000000000000000 1
ion C   4.668334985327336  24.251595966418623   0.000000000000000 1
ion C   4.684363501450970   8.104105624462404   0.000000000000000 1
ion C  -9.338726676106665  16.167002311344088   0.000000000000000 1
ion C  -7.001439623932501  12.127081536099558   0.000000000000000 1
ion C  -0.000151620177615  24.253668077025498   0.000000000000000 1
ion C   0.005557300430192   8.087808763294756   0.000000000000000 1
ion C   7.001459676067501  20.205067122690377   0.000000000000000 1
ion C  -7.001439623932497  20.211472563383516   0.000000000000000 1
ion C  -2.323079097596632  12.126234270456884   0.000000000000000 1
ion C   4.676170071330242  16.144953662638397   0.000000000000000 1
ion C  -2.330182114728821  20.209557726283961   0.000000000000000 1
ion C   2.339762396560630  20.202512645977635   0.000000000000000 1
ion C   2.359073896713714  12.131625362179085   0.000000000000000 1
ion C  -4.664152571758335  16.167002311344088   0.000000000000000 1
ion C   7.001459676067496   4.050513191900404   0.000000000000000 1
ion C  21.004358976067493   4.042317202803072   0.000000000000000 1
ion C  13.995811391300069  16.165085728689739   0.000000000000000 1
ion C   0.007107960834931  16.165085728689739   0.000000000000000 1
ion C  11.664301170224753   4.051937732845367   0.000000000000000 1
ion C  18.668321172890018   8.085089593808323   0.000000000000000 1
ion C  11.643845455421285  12.131625362179085   0.000000000000000 1
ion C  16.325998449731628  12.126234270456884   0.000000000000000 1
ion C  16.335196482149854   4.043999089052937   0.000000000000000 1
ion C   9.318555850684024   8.104105624462404   0.000000000000000 1
ion C  13.997362051704801   8.087808763294756   0.000000000000000 1
ion C   0.002078371147835   2.699762730254924   0.000000000000000 1
ion C  11.665904952798785  22.902102980346783   0.000000000000000 1
ion C -11.672490364191200  22.908304965670279   0.000000000000000 1
ion C  -2.331308653256346   6.738618575873758   0.000000000000000 1
ion C   9.323185481007343  18.850359027162042   0.000000000000000 1
ion C  -7.001439623932498  22.908152619039438   0.000000000000000 1
ion C   7.001459676067501  22.903447497532365   0.000000000000000 1
ion C   2.339631828340087   6.754489283359140   0.000000000000000 1
ion C  -9.336833058009361  18.863132535555557   0.000000000000000 1
ion C  -4.662366905583447  10.778818938678182   0.000000000000000 1
ion C   7.001459676067499  14.798553282237654   0.000000000000000 1
ion C  -2.330388883673796  22.908304965670279   0.000000000000000 1
ion C   2.337014399336217  22.902102980346783   0.000000000000000 1
ion C   4.687735632174416  10.791065683521115   0.000000000000000 1
ion C  -7.001439623932503  14.817807758809995   0.000000000000000 1
ion C   4.665724140044409   2.698981497683129   0.000000000000000 1
ion C  23.337850793935988   2.695075073604909   0.000000000000000 1
ion C  13.998404404500507  18.863657886516435   0.000000000000000 1
ion C   0.017906023400243  10.775836338758701   0.000000000000000 1
ion C   4.679733871127656  18.850359027162042   0.000000000000000 1
ion C  -4.666046189855642  18.863132535555557   0.000000000000000 1
ion C  -2.331220588388597  14.818045265080322   0.000000000000000 1
ion C   2.330366384766361  14.823751852235860   0.000000000000000 1
ion C   0.004514947634492  18.863657886516435   0.000000000000000 1
ion C   9.337195212090585   2.698981497683129   0.000000000000000 1
ion C  21.004358976067497   6.736801461199396   0.000000000000000 1
ion C  11.672552967368638  14.823751852235860   0.000000000000000 1
ion C  16.334139940523592  14.818045265080322   0.000000000000000 1
ion C  18.670867158199005   2.695075073604909   0.000000000000000 1
ion C   7.001459676067495   6.733180944808161   0.000000000000000 1
ion C  14.000840980987157   2.699762730254924   0.000000000000000 1
ion C  18.665286257718442  10.778818938678182   0.000000000000000 1
ion C   9.315183719960579  10.791065683521115   0.000000000000000 1
ion C  11.663287523794907   6.754489283359140   0.000000000000000 1
ion C  16.334228005391338   6.738618575873758   0.000000000000000 1
ion C  13.985013328734750  10.775836338758701   0.000000000000000 1
ion N   7.001459676067497  12.126894883093295   0.000000000000000 1

# Forces in Cartesian coordinates:
force C  -0.000183322440095   0.000105841260137   0.000000000000000 1
force C  -0.000034481246142   0.000011201560276  -0.000000000000000 1
force C  -0.000170350885705   0.000023364044272  -0.000000000000000 1
force C  -0.000107803992564  -0.000006002989003   0.000000000000000 1
force C  -0.000026941458832   0.000024260854975   0.000000000000000 1
force C  -0.000105409298727   0.000135846172441   0.000000000000000 1
force C  -0.000048703255307   0.000096362490691   0.000000000000000 1
force C  -0.000007539787310  -0.000035462415251   0.000000000000000 1
force C  -0.000013144795293  -0.000305611481765   0.000000000000000 1
force C   0.000107803992564  -0.000006002989003   0.000000000000000 1
force C   0.000026941458832   0.000024260854975   0.000000000000000 1
force C   0.000258094909250   0.000164189467534   0.000000000000000 1
force C   0.000059100737257  -0.000090359501688  -0.000000000000000 1
force C  -0.000000000000000  -0.000211682520275  -0.000000000000000 1
force C   0.000183322440095   0.000105841260137   0.000000000000000 1
force C   0.000093251397458   0.000053838719425   0.000000000000000 1
force C   0.000000000000000  -0.000107677438849   0.000000000000000 1
force C  -0.000000000000000   0.000000000000000   0.000000000000000 1
force C   0.000064941586978  -0.000159210216714   0.000000000000000 1
force C   0.000013144795293  -0.000305611481765   0.000000000000000 1
force C   0.000048703255307   0.000096362490691   0.000000000000000 1
force C   0.000170350885705   0.000023364044272   0.000000000000000 1
force C   0.000271239704543   0.000141422014231  -0.000000000000000 1
force C  -0.000059100737257  -0.000090359501688   0.000000000000000 1
force C   0.000000000000000  -0.000168091248602   0.000000000000000 1
force C   0.000000000000000  -0.000000000000000   0.000000000000000 1
force C   0.000145571291443   0.000084045624301   0.000000000000000 1
force C  -0.000145571291443   0.000084045624301   0.000000000000000 1
force C   0.000105409298727   0.000135846172441   0.000000000000000 1
force C   0.000007539787310  -0.000035462415251   0.000000000000000 1
force C  -0.000271239704543   0.000141422014231   0.000000000000000 1
force C  -0.000064941586978  -0.000159210216714   0.000000000000000 1
force C   0.000034481246142   0.000011201560276  -0.000000000000000 1
force C  -0.000258094909250   0.000164189467534   0.000000000000000 1
force C  -0.000093251397458   0.000053838719425   0.000000000000000 1
force C   0.000159090989977  -0.000064315041865  -0.000000000000000 1
force C   0.000135243955089  -0.000105619317901   0.000000000000000 1
force C   0.000170266452532  -0.000098303382203   0.000000000000000 1
force C   0.000062256720119   0.000035943934119  -0.000000000000000 1
force C   0.000113419989436  -0.000423113726855   0.000000000000000 1
force C   0.000000000000000   0.000075868349825   0.000000000000000 1
force C   0.000000000000000  -0.000071887868239   0.000000000000000 1
force C   0.000423137230865   0.000113332271279  -0.000000000000000 1
force C  -0.000065703918292  -0.000037934174913   0.000000000000000 1
force C   0.000023847034888   0.000169934359766  -0.000000000000000 1
force C  -0.000000000000000  -0.002610334694567  -0.000000000000000 1
force C  -0.000170266452532  -0.000098303382203   0.000000000000000 1
force C  -0.000135243955089  -0.000105619317901  -0.000000000000000 1
force C   0.002260616157875   0.001305167347283  -0.000000000000000 1
force C   0.000000000000000   0.000196606764407  -0.000000000000000 1
force C   0.000197689585915   0.000172635421127  -0.000000000000000 1
force C   0.000070722270949  -0.000040831522170   0.000000000000000 1
force C  -0.000050661867332  -0.000257521914030   0.000000000000000 1
force C   0.000309717241428   0.000309781455576   0.000000000000000 1
force C  -0.000113419989436  -0.000423113726855   0.000000000000000 1
force C   0.000065703918292  -0.000037934174913  -0.000000000000000 1
force C   0.000248351453247   0.000084886492902   0.000000000000000 1
force C   0.001081703359095  -0.000624521725557   0.000000000000000 1
force C   0.000050661867332  -0.000257521914030   0.000000000000000 1
force C  -0.000197689585915   0.000172635421127   0.000000000000000 1
force C   0.000000000000000   0.000081663044340   0.000000000000000 1
force C  -0.001081703359095  -0.000624521725557   0.000000000000000 1
force C  -0.000248351453247   0.000084886492902   0.000000000000000 1
force C  -0.000070722270949  -0.000040831522170   0.000000000000000 1
force C   0.000000000000000   0.001249043451113  -0.000000000000000 1
force C  -0.000159090989977  -0.000064315041865  -0.000000000000000 1
force C  -0.000023847034888   0.000169934359766   0.000000000000000 1
force C  -0.002260616157874   0.001305167347284   0.000000000000000 1
force C  -0.000423137230865   0.000113332271279  -0.000000000000000 1
force C  -0.000062256720119   0.000035943934119   0.000000000000000 1
force C  -0.000309717241428   0.000309781455576   0.000000000000000 1
force N   0.000000000000000   0.000000000000000   0.000000000000000 1

# Energy components:
   A_diel =       -0.0042941997652380
   Eewald =     4151.4368254945065928
       EH =     4470.9638827241769832
     Eloc =    -9205.9108565554088273
      Enl =       58.7362537267084832
      Exc =     -131.4894526964570218
 Exc_core =        2.4796106047619744
       KE =      238.3766908889981266
-------------------------------------
     Etot =     -415.4113400124790587
       TS =        0.0545003455645177
-------------------------------------
        F =     -415.4658403580435788

IonicMinimize: Iter:   0  F: -415.465840358043579  |grad|_K:  3.607e-04  t[s]:  13429.57
IonicMinimize: None of the convergence criteria satisfied after 0 iterations.

#--- Lowdin population analysis ---
# oxidation-state C +0.036 +0.038 +0.039 +0.036 +0.038 +0.039 +0.036 +0.038 +0.033 +0.036 +0.038 +0.033 +0.036 +0.036 +0.036 +0.037 +0.037 +0.031 +0.039 +0.033 +0.036 +0.039 +0.033 +0.036 +0.033 +0.034 +0.033 +0.033 +0.039 +0.038 +0.033 +0.039 +0.038 +0.033 +0.037 +0.038 +0.038 +0.039 +0.037 +0.041 +0.038 +0.037 +0.041 +0.038 +0.038 +0.157 +0.039 +0.038 +0.157 +0.039 +0.041 +0.036 +0.041 +0.041 +0.041 +0.038 +0.041 +0.050 +0.041 +0.041 +0.036 +0.050 +0.041 +0.036 +0.050 +0.038 +0.038 +0.157 +0.041 +0.037 +0.041
# oxidation-state N +0.023


Dumping 'N_graphene-PC-elecmin.fillings' ... done
Dumping 'N_graphene-PC-elecmin.wfns' ... done
Dumping 'N_graphene-PC-elecmin.fluidState' ... done
Dumping 'N_graphene-PC-elecmin.eigenvals' ... done
End date and time: Sat Sep 28 19:21:04 2024  (Duration: 0-3:44:33.90)
Done!
