
*************** JDFTx 1.7.0  ***************

Start date and time: Thu Sep 26 04:42:19 2024
Executable jdftx_gpu with command-line: -i /home/akim2/JDFTx/TiO2-PC/TiO2-PC.in -o /home/akim2/JDFTx/TiO2-PC/TiO2-PC.out
Running on hosts (process indices):  exp-1-58 (0)
Divided in process groups (process indices):  0 (0)
gpuInit: Found compatible cuda device 0 'Tesla V100-SXM2-32GB'
gpuInit: Selected device 0
Resource initialization completed at t[s]:      0.37
Run totals: 1 processes, 1 threads, 1 GPUs


Input parsed successfully to the following command list (including defaults):

basis kpoint-dependent
coords-type Cartesian
core-overlap-check vector
coulomb-interaction Slab 001
coulomb-truncation-embed 0 0 2
davidson-band-ratio 1.1
dump End State
dump-name TiO2-PC.$VAR
elec-cutoff 20 100
elec-eigen-algo Davidson
elec-ex-corr gga-PBE
elec-smearing Fermi 0.01
electronic-minimize  \
	dirUpdateScheme      FletcherReeves \
	linminMethod         DirUpdateRecommended \
	nIterations          100 \
	history              15 \
	knormThreshold       0 \
	energyDiffThreshold  1e-08 \
	nEnergyDiff          2 \
	alphaTstart          1 \
	alphaTmin            1e-10 \
	updateTestStepSize   yes \
	alphaTreduceFactor   0.1 \
	alphaTincreaseFactor 3 \
	nAlphaAdjustMax      3 \
	wolfeEnergy          0.0001 \
	wolfeGradient        0.9 \
	fdTest               no
exchange-regularization WignerSeitzTruncated
fluid LinearPCM 298.000000 1.013250
fluid-ex-corr lda-TF lda-PZ
fluid-gummel-loop 10 1.000000e-05
fluid-minimize  \
	dirUpdateScheme      PolakRibiere \
	linminMethod         DirUpdateRecommended \
	nIterations          400 \
	history              15 \
	knormThreshold       1e-11 \
	energyDiffThreshold  0 \
	nEnergyDiff          2 \
	alphaTstart          1 \
	alphaTmin            1e-10 \
	updateTestStepSize   yes \
	alphaTreduceFactor   0.1 \
	alphaTincreaseFactor 3 \
	nAlphaAdjustMax      6 \
	wolfeEnergy          0.0001 \
	wolfeGradient        0.9 \
	fdTest               no
fluid-solvent PC 11.6429 ScalarEOS \
	epsBulk 64 \
	pMol 2.95 \
	epsInf 2.02 \
	Pvap 1.53277e-13 \
	sigmaBulk 2.88e-05 \
	Rvdw 0 \
	Res 0 \
	tauNuc 343133
forces-output-coords Positions
ion Ti   0.000000174975000  -0.000000174975000   2.000000000000000 0
ion Ti   4.340445422775000   4.340445072825000   4.795024053800001 0
ion Ti   0.000000174975000   8.680909217924999   2.000000000000000 0
ion Ti   4.340445422775000  13.021354465725000   4.795024053800001 0
ion Ti   0.000000174975000  17.361818610825001   2.000000000000000 0
ion Ti   4.340445422775000  21.702263858624999   4.795024053800001 0
ion Ti   8.680909567874998  -0.000000174975000   2.000000000000000 0
ion Ti  13.021354815675002   4.340445072825000   4.795024053800001 0
ion Ti   8.680909567874998   8.680909217924999   2.000000000000000 0
ion Ti  13.021354815675002  13.021354465725000   4.795024053800001 0
ion Ti   8.680909567874998  17.361818610825001   2.000000000000000 0
ion Ti  13.021364264325003  21.702263858624999   4.795024053800001 0
ion Ti  17.361818960775000  -0.000000174975000   2.000000000000000 0
ion Ti  21.702264208574999   4.340445072825000   4.795024053800001 0
ion Ti  17.361818960775000   8.680909217924999   2.000000000000000 0
ion Ti  21.702264208574999  13.021363914375000   4.795024053800001 0
ion Ti  17.361818960775000  17.361818610825001   2.000000000000000 0
ion Ti  21.702264208574999  21.702263858624999   4.795024053800001 0
ion O   2.650289808075000   2.650289458125000   2.000000000000000 0
ion O   6.030619934775000   6.030619584825001   2.000000000000000 0
ion O   1.690174686975000   6.990734705924999   4.795024053800001 0
ion O   6.990735055874999   1.690174337025000   4.795024053800001 0
ion O   2.650289808075000  11.331198851025000   2.000000000000000 0
ion O   6.030619934775000  14.711528977725004   2.000000000000000 0
ion O   1.690174686975000  15.671644098825000   4.795024053800001 0
ion O   6.990735055874999  10.371083729925001   4.795024053800001 0
ion O   2.650289808075000  20.012108243924999   2.000000000000000 0
ion O   6.030619934775000  23.392438370625001   2.000000000000000 0
ion O   1.690174686975000  24.352553491725004   4.795024053800001 0
ion O   6.990735055874999  19.051993122824996   4.795024053800001 0
ion O  11.331199200975000   2.650289458125000   2.000000000000000 0
ion O  14.711529327675001   6.030619584825001   2.000000000000000 0
ion O  10.371084079875001   6.990734705924999   4.795024053800001 0
ion O  15.671644448774998   1.690174337025000   4.795024053800001 0
ion O  11.331199200975000  11.331198851025000   2.000000000000000 0
ion O  14.711529327675001  14.711528977725004   2.000000000000000 0
ion O  10.371084079875001  15.671644098825000   4.795024053800001 0
ion O  15.671644448774998  10.371083729925001   4.795024053800001 0
ion O  11.331199200975000  20.012108243924999   2.000000000000000 0
ion O  14.711529327675001  23.392438370625001   2.000000000000000 0
ion O  10.371084079875001  24.352553491725004   4.795024053800001 0
ion O  15.671644448774998  19.051993122824996   4.795024053800001 0
ion O  20.012108593874995   2.650289458125000   2.000000000000000 0
ion O  23.392438720575004   6.030619584825001   2.000000000000000 0
ion O  19.051993472774999   6.990734705924999   4.795024053800001 0
ion O  24.352553841675000   1.690174337025000   4.795024053800001 0
ion O  20.012108593874995  11.331198851025000   2.000000000000000 0
ion O  23.392438720575004  14.711528977725004   2.000000000000000 0
ion O  19.051993472774999  15.671644098825000   4.795024053800001 0
ion O  24.352553841675000  10.371083729925001   4.795024053800001 0
ion O  20.012108593874995  20.012108243924999   2.000000000000000 0
ion O  23.392438720575004  23.392438370625001   2.000000000000000 0
ion O  19.051993472774999  24.352553491725004   4.795024053800001 0
ion O  24.352553841675000  19.051993122824996   4.795024053800001 0
ion-species GBRV/$ID_pbe.uspp
ion-width Ecut
ionic-minimize  \
	dirUpdateScheme      FletcherReeves \
	linminMethod         DirUpdateRecommended \
	nIterations          200 \
	history              15 \
	knormThreshold       0.0001 \
	energyDiffThreshold  1e-06 \
	nEnergyDiff          2 \
	alphaTstart          1 \
	alphaTmin            1e-10 \
	updateTestStepSize   yes \
	alphaTreduceFactor   0.1 \
	alphaTincreaseFactor 3 \
	nAlphaAdjustMax      3 \
	wolfeEnergy          0.0001 \
	wolfeGradient        0.9 \
	fdTest               no
kpoint   0.000000000000   0.000000000000   0.000000000000  1.00000000000000
kpoint-folding 1 1 1 
latt-move-scale 1 1 1
latt-scale 1 1 1 
lattice Tetragonal 26.04 37.7946
lattice-minimize  \
	dirUpdateScheme      L-BFGS \
	linminMethod         DirUpdateRecommended \
	nIterations          0 \
	history              15 \
	knormThreshold       0 \
	energyDiffThreshold  1e-06 \
	nEnergyDiff          2 \
	alphaTstart          1 \
	alphaTmin            1e-10 \
	updateTestStepSize   yes \
	alphaTreduceFactor   0.1 \
	alphaTincreaseFactor 3 \
	nAlphaAdjustMax      3 \
	wolfeEnergy          0.0001 \
	wolfeGradient        0.9 \
	fdTest               no
lcao-params -1 1e-06 0.01
pcm-variant GLSSA13
spintype no-spin
subspace-rotation-factor 1 yes
symmetries automatic
symmetry-threshold 0.0001



---------- Setting up symmetries ----------

Found 16 point-group symmetries of the bravais lattice
Found 2 space-group symmetries with basis
Applied RMS atom displacement 1.37066e-15 bohrs to make symmetries exact.

---------- Initializing the Grid ----------
R = 
[        26.04            0            0  ]
[            0        26.04            0  ]
[            0            0      37.7946  ]
unit cell volume = 25627.8
G =
[    0.24129          0          0  ]
[          0    0.24129          0  ]
[          0          0   0.166246  ]
Minimum fftbox size, Smin = [  120  120  172  ]
Chosen fftbox size, S = [  120  120  180  ]

---------- Initializing tighter grid for wavefunction operations ----------
R = 
[        26.04            0            0  ]
[            0        26.04            0  ]
[            0            0      37.7946  ]
unit cell volume = 25627.8
G =
[    0.24129          0          0  ]
[          0    0.24129          0  ]
[          0          0   0.166246  ]
Minimum fftbox size, Smin = [  108  108  156  ]
Chosen fftbox size, S = [  108  108  160  ]

---------- Exchange Correlation functional ----------
Initalized PBE GGA exchange.
Initalized PBE GGA correlation.

---------- Setting up pseudopotentials ----------
Width of ionic core gaussian charges (only for fluid interactions / plotting) set to 0.397384

Reading pseudopotential file '/home/akim2/jdftx_install/build/pseudopotentials/GBRV/ti_pbe.uspp':
  Title: Ti.  Created by USPP 7.3.6 on 31-3-15
  Reference state energy: -59.020943.  12 valence electrons in orbitals:
    |300>  occupation: 2  eigenvalue: -2.777623
    |310>  occupation: 6  eigenvalue: -1.894596
    |400>  occupation: 2  eigenvalue: -0.438610
    |320>  occupation: 1  eigenvalue: -0.583119
  lMax: 2  lLocal: 3  QijEcut: 6
  6 projectors sampled on a log grid with 597 points:
    l: 0  eig: -2.777624  rCut: 1.8
    l: 0  eig: -0.438611  rCut: 1.8
    l: 1  eig: -1.894596  rCut: 1.8
    l: 1  eig: 0.500000  rCut: 1.8
    l: 2  eig: -0.583118  rCut: 1.8
    l: 2  eig: 0.150000  rCut: 1.8
  Partial core density with radius 0.8
  Transforming core density to a uniform radial grid of dG=0.02 with 1273 points.
  Transforming local potential to a uniform radial grid of dG=0.02 with 1273 points.
  Transforming nonlocal projectors to a uniform radial grid of dG=0.02 with 432 points.
  Transforming density augmentations to a uniform radial grid of dG=0.02 with 1273 points.
  Transforming atomic orbitals to a uniform radial grid of dG=0.02 with 432 points.
  Core radius for overlap checks: 1.80 bohrs.

Reading pseudopotential file '/home/akim2/jdftx_install/build/pseudopotentials/GBRV/o_pbe.uspp':
  Title: O.  Created by USPP 7.3.6 on 3-2-2014
  Reference state energy: -15.894388.  6 valence electrons in orbitals:
    |200>  occupation: 2  eigenvalue: -0.878823
    |210>  occupation: 4  eigenvalue: -0.332131
  lMax: 2  lLocal: 2  QijEcut: 6
  5 projectors sampled on a log grid with 511 points:
    l: 0  eig: -0.878823  rCut: 1.25
    l: 0  eig: 0.000000  rCut: 1.25
    l: 1  eig: -0.332132  rCut: 1.25
    l: 1  eig: 0.000000  rCut: 1.25
    l: 2  eig: 1.000000  rCut: 1.25
  Partial core density with radius 0.7
  Transforming core density to a uniform radial grid of dG=0.02 with 1273 points.
  Transforming local potential to a uniform radial grid of dG=0.02 with 1273 points.
  Transforming nonlocal projectors to a uniform radial grid of dG=0.02 with 432 points.
  Transforming density augmentations to a uniform radial grid of dG=0.02 with 1273 points.
  Transforming atomic orbitals to a uniform radial grid of dG=0.02 with 432 points.
  Core radius for overlap checks: 1.25 bohrs.

Initialized 2 species with 54 total atoms.

Folded 1 k-points by 1x1x1 to 1 k-points.

---------- Setting up k-points, bands, fillings ----------
No reducable k-points. 
Computing the number of bands and number of electrons
Calculating initial fillings.
nElectrons: 432.000000   nBands: 324   nStates: 1

----- Setting up reduced wavefunction bases (one per k-point) -----
average nbasis = 109517.000 , ideal nbasis = 109484.012

---------- Setting up coulomb interaction ----------
Fluid mode embedding: using embedded box, but periodic Coulomb kernel.
(Fluid response is responsible for (approximate) separation between periodic images.)
Setting up double-sized grid for truncated Coulomb potentials:
R = 
[        26.04            0            0  ]
[            0        26.04            0  ]
[            0            0      75.5892  ]
unit cell volume = 51255.6
G =
[    0.24129          0          0  ]
[          0    0.24129          0  ]
[          0          0  0.0831228  ]
Chosen fftbox size, S = [  120  120  360  ]
Integer grid location selected as the embedding center:
   Grid: [  0  0  10  ]
   Lattice: [  0  0  0.0529176  ]
   Cartesian: [  0  0  2  ]
Constructing Wigner-Seitz cell: 6 faces (6 quadrilaterals, 0 hexagons)
Range-separation parameter for embedded mesh potentials due to point charges: 0.587679 bohrs.

---------- Setting up ewald sum ----------
Optimum gaussian width for ewald sums = 7.622399 bohr.
Real space sum over 405 unit cells with max indices [  4  4  2  ]
Reciprocal space sum over 7425 terms with max indices [  7  7  16  ]

---------- Allocating electronic variables ----------
Initializing wave functions:  linear combination of atomic orbitals
Ti pseudo-atom occupations:   s ( 2 0 )  p ( 6 )  d ( 4 )
O pseudo-atom occupations:   s ( 2 )  p ( 4 )
	FillingsUpdate:  mu: +0.255085966  nElectrons: 432.000000
LCAOMinimize: Iter:   0  F: -1601.2867953302813930  |grad|_K:  1.660e-02  alpha:  1.000e+00
	FillingsUpdate:  mu: +0.248354152  nElectrons: 432.000000
LCAOMinimize: Iter:   1  F: -1602.5272507383165248  |grad|_K:  1.656e-02  alpha:  4.166e-02  linmin: -2.036e-01  cgtest:  9.498e-01  t[s]:      6.51
LCAOMinimize: 	Wrong curvature in test step, increasing alphaT to 1.249694e-01.
	FillingsUpdate:  mu: +0.240358329  nElectrons: 432.000000
LCAOMinimize: Iter:   2  F: -1603.8363434120267357  |grad|_K:  1.665e-02  alpha: -6.179e-01  linmin: -2.011e-01  cgtest:  9.381e-01  t[s]:      8.10
	FillingsUpdate:  mu: +0.230552479  nElectrons: 432.000000
LCAOMinimize: Iter:   3  F: -1605.2826338855031736  |grad|_K:  1.687e-02  alpha:  4.394e-02  linmin: -2.022e-01  cgtest:  9.243e-01  t[s]:      9.73
LCAOMinimize: 	Wrong curvature in test step, increasing alphaT to 1.318067e-01.
	FillingsUpdate:  mu: +0.219113704  nElectrons: 432.000000
LCAOMinimize: Iter:   4  F: -1606.8209427119882093  |grad|_K:  1.721e-02  alpha: -4.003e-01  linmin: -2.067e-01  cgtest:  9.142e-01  t[s]:     11.36
	FillingsUpdate:  mu: +0.204360423  nElectrons: 432.000000
LCAOMinimize: Iter:   5  F: -1608.6414053855778548  |grad|_K:  1.768e-02  alpha:  4.825e-02  linmin: -2.159e-01  cgtest:  8.954e-01  t[s]:     13.00
LCAOMinimize: 	Wrong curvature in test step, increasing alphaT to 1.447555e-01.
	FillingsUpdate:  mu: +0.186727604  nElectrons: 432.000000
LCAOMinimize: Iter:   6  F: -1610.6445080273954318  |grad|_K:  1.822e-02  alpha: -3.065e-01  linmin: -2.285e-01  cgtest:  8.837e-01  t[s]:     14.61
	FillingsUpdate:  mu: +0.162151296  nElectrons: 432.000000
LCAOMinimize: Iter:   7  F: -1613.2115189674000248  |grad|_K:  1.884e-02  alpha:  5.580e-02  linmin: -2.477e-01  cgtest:  8.536e-01  t[s]:     16.27
LCAOMinimize: 	Wrong curvature in test step, increasing alphaT to 1.674051e-01.
	FillingsUpdate:  mu: +0.132235114  nElectrons: 432.000000
LCAOMinimize: Iter:   8  F: -1616.1026540109116922  |grad|_K:  1.927e-02  alpha: -2.680e-01  linmin: -2.711e-01  cgtest:  8.389e-01  t[s]:     17.87
	FillingsUpdate:  mu: +0.092128518  nElectrons: 432.000000
LCAOMinimize: Iter:   9  F: -1619.7235936817592119  |grad|_K:  1.901e-02  alpha:  6.526e-02  linmin: -3.032e-01  cgtest:  8.043e-01  t[s]:     19.52
LCAOMinimize: 	Wrong curvature in test step, increasing alphaT to 1.957854e-01.
	FillingsUpdate:  mu: +0.049557138  nElectrons: 432.000000
LCAOMinimize: Iter:  10  F: -1623.1471046482593010  |grad|_K:  1.720e-02  alpha: -4.923e-01  linmin: -3.391e-01  cgtest:  8.074e-01  t[s]:     21.16
	FillingsUpdate:  mu: +0.020797004  nElectrons: 432.000000
LCAOMinimize: Iter:  11  F: -1625.0941132805185134  |grad|_K:  1.478e-02  alpha:  5.390e-02  linmin: -3.944e-01  cgtest:  8.707e-01  t[s]:     22.83
LCAOMinimize: Encountered beta<0, resetting CG.
LCAOMinimize: 	Predicted alpha/alphaT>3.000000, increasing alphaT to 1.616957e-01.
LCAOMinimize: 	Step increased F by 7.301442e+00, reducing alpha to 3.117819e-02.
	FillingsUpdate:  mu: +0.009169630  nElectrons: 432.000000
LCAOMinimize: Iter:  12  F: -1625.8012034731639233  |grad|_K:  1.340e-02  alpha:  3.118e-02  linmin: -4.320e-01  cgtest:  9.433e-01  t[s]:     26.16
LCAOMinimize: Encountered beta<0, resetting CG.
LCAOMinimize: 	Predicted alpha/alphaT>3.000000, increasing alphaT to 9.353458e-02.
LCAOMinimize: 	Predicted alpha/alphaT>3.000000, increasing alphaT to 2.806038e-01.
	FillingsUpdate:  mu: -0.015126899  nElectrons: 432.000000
LCAOMinimize: Iter:  13  F: -1627.4674145326725920  |grad|_K:  7.014e-03  alpha:  1.022e-01  linmin: -4.809e-01  cgtest:  8.143e-01  t[s]:     28.82
LCAOMinimize: Encountered beta<0, resetting CG.
	FillingsUpdate:  mu: +0.005379730  nElectrons: 432.000000
LCAOMinimize: Iter:  14  F: -1627.8326402146960845  |grad|_K:  3.102e-03  alpha:  1.782e-01  linmin:  4.882e-01  cgtest: -7.873e-01  t[s]:     30.49
LCAOMinimize: 	Bad step direction: g.d > 0.
LCAOMinimize: 	Undoing step.
LCAOMinimize: 	Step failed: resetting search direction.
	FillingsUpdate:  mu: +0.005379730  nElectrons: 432.000000
LCAOMinimize: Iter:  15  F: -1627.8326402146960845  |grad|_K:  3.102e-03  alpha:  0.000e+00
	FillingsUpdate:  mu: +0.002316520  nElectrons: 432.000000
LCAOMinimize: Iter:  16  F: -1627.8933691821923730  |grad|_K:  7.173e-04  alpha:  1.233e-01  linmin: -1.746e-02  cgtest: -2.249e-02  t[s]:     33.37
LCAOMinimize: 	Predicted alpha/alphaT>3.000000, increasing alphaT to 3.697876e-01.
	FillingsUpdate:  mu: +0.011981552  nElectrons: 432.000000
LCAOMinimize: Iter:  17  F: -1627.9125146994115312  |grad|_K:  1.381e-04  alpha:  6.964e-01  linmin: -3.637e-02  cgtest:  1.340e-01  t[s]:     35.56
	FillingsUpdate:  mu: +0.012275649  nElectrons: 432.000000
LCAOMinimize: Iter:  18  F: -1627.9129266497561730  |grad|_K:  1.433e-04  alpha:  4.053e-01  linmin: -3.614e-04  cgtest:  3.398e-03  t[s]:     37.24
	FillingsUpdate:  mu: +0.012130942  nElectrons: 432.000000
LCAOMinimize: Iter:  19  F: -1627.9131315936483588  |grad|_K:  2.033e-05  alpha:  1.887e-01  linmin: -7.682e-05  cgtest: -2.624e-02  t[s]:     38.94
	FillingsUpdate:  mu: +0.012160852  nElectrons: 432.000000
LCAOMinimize: Iter:  20  F: -1627.9131358525121414  |grad|_K:  1.786e-05  alpha:  1.951e-01  linmin:  2.533e-05  cgtest:  7.665e-05  t[s]:     40.62
	FillingsUpdate:  mu: +0.012289195  nElectrons: 432.000000
LCAOMinimize: Iter:  21  F: -1627.9131419447091957  |grad|_K:  6.614e-06  alpha:  3.619e-01  linmin:  3.038e-04  cgtest: -1.434e-03  t[s]:     42.28
	FillingsUpdate:  mu: +0.012295167  nElectrons: 432.000000
LCAOMinimize: Iter:  22  F: -1627.9131422171312806  |grad|_K:  1.476e-06  alpha:  1.179e-01  linmin: -4.382e-04  cgtest:  4.100e-03  t[s]:     43.92
	FillingsUpdate:  mu: +0.012292501  nElectrons: 432.000000
LCAOMinimize: Iter:  23  F: -1627.9131422426380595  |grad|_K:  9.441e-07  alpha:  2.216e-01  linmin: -3.020e-04  cgtest:  1.584e-04  t[s]:     45.57
LCAOMinimize: Converged (|Delta F|<1.000000e-06 for 2 iters).
----- createFluidSolver() ----- (Fluid-side solver setup)
   Initializing fluid molecule 'PC'
     Net charge: 0   dipole magnitude: 0
     Initializing spherical shell mfKernel with radius 0 Bohr
     deltaS corrections:

Correction to mu due to finite nuclear width = -0.00836261
   Cavity determined by nc: 0.00098 and sigma: 0.6
   Effective cavity tension: 9.53e-06 Eh/bohr^2 to account for cavitation and dispersion.


---- Citations for features of the code used in this run ----

   Software package:
      R. Sundararaman, K. Letchworth-Weaver, K.A. Schwarz, D. Gunceler, Y. Ozhabes and T.A. Arias, 'JDFTx: software for joint density-functional theory', SoftwareX 6, 278 (2017)

   gga-PBE exchange-correlation functional:
      J.P. Perdew, K. Burke and M. Ernzerhof, Phys. Rev. Lett. 77, 3865 (1996)

   Pseudopotentials:
      KF Garrity, JW Bennett, KM Rabe and D Vanderbilt, Comput. Mater. Sci. 81, 446 (2014)

   Truncated Coulomb potentials:
      R. Sundararaman and T.A. Arias, Phys. Rev. B 87, 165122 (2013)

   Linear/nonlinear dielectric/ionic fluid model with effective cavity tension:
      D. Gunceler, K. Letchworth-Weaver, R. Sundararaman, K.A. Schwarz and T.A. Arias, Modelling Simul. Mater. Sci. Eng. 21, 074005 (2013)

   Total energy minimization with Auxiliary Hamiltonian:
      C. Freysoldt, S. Boeck, and J. Neugebauer, Phys. Rev. B 79, 241103(R) (2009)

This list may not be complete. Please suggest additional citations or
report any other bugs at https://github.com/shankar1729/jdftx/issues

Initialization completed successfully at t[s]:     45.79

Fluid solver invoked on fresh (random / LCAO) wavefunctions
Running a vacuum solve first:

-------- Initial electronic minimization -----------
	FillingsUpdate:  mu: +0.012292501  nElectrons: 432.000000
ElecMinimize: Iter:   0  F: -1627.913142242635331  |grad|_K:  3.585e-04  alpha:  1.000e+00
	FillingsUpdate:  mu: -0.070796958  nElectrons: 432.000000
	SubspaceRotationAdjust: set factor to 1
ElecMinimize: Iter:   1  F: -1629.529143694964887  |grad|_K:  1.646e-04  alpha:  3.553e-01  linmin:  2.580e-03  t[s]:     49.67
	FillingsUpdate:  mu: -0.081956681  nElectrons: 432.000000
	SubspaceRotationAdjust: set factor to 0.923
ElecMinimize: Iter:   2  F: -1630.059548535890599  |grad|_K:  7.752e-05  alpha:  5.499e-01  linmin: -1.190e-04  t[s]:     51.96
	FillingsUpdate:  mu: -0.081985910  nElectrons: 432.000000
	SubspaceRotationAdjust: set factor to 0.706
ElecMinimize: Iter:   3  F: -1630.154042354343346  |grad|_K:  7.960e-05  alpha:  4.264e-01  linmin:  3.455e-05  t[s]:     54.26
	FillingsUpdate:  mu: -0.090653992  nElectrons: 432.000000
	SubspaceRotationAdjust: set factor to 0.655
ElecMinimize: Iter:   4  F: -1630.207899996584501  |grad|_K:  3.676e-05  alpha:  2.442e-01  linmin:  4.195e-06  t[s]:     56.58
	FillingsUpdate:  mu: -0.097253638  nElectrons: 432.000000
	SubspaceRotationAdjust: set factor to 0.735
ElecMinimize: Iter:   5  F: -1630.232937367233490  |grad|_K:  2.463e-05  alpha:  5.259e-01  linmin:  4.694e-05  t[s]:     58.94
	FillingsUpdate:  mu: -0.097988084  nElectrons: 432.000000
	SubspaceRotationAdjust: set factor to 0.618
ElecMinimize: Iter:   6  F: -1630.240017725765028  |grad|_K:  1.900e-05  alpha:  3.298e-01  linmin: -4.107e-06  t[s]:     61.25
	FillingsUpdate:  mu: -0.099990250  nElectrons: 432.000000
	SubspaceRotationAdjust: set factor to 0.588
ElecMinimize: Iter:   7  F: -1630.245036343803349  |grad|_K:  1.240e-05  alpha:  3.907e-01  linmin:  7.459e-06  t[s]:     63.63
	FillingsUpdate:  mu: -0.101020006  nElectrons: 432.000000
	SubspaceRotationAdjust: set factor to 0.712
ElecMinimize: Iter:   8  F: -1630.247263057837472  |grad|_K:  7.877e-06  alpha:  4.086e-01  linmin:  1.351e-05  t[s]:     65.97
	FillingsUpdate:  mu: -0.101389856  nElectrons: 432.000000
	SubspaceRotationAdjust: set factor to 0.634
ElecMinimize: Iter:   9  F: -1630.248266916945568  |grad|_K:  7.142e-06  alpha:  4.568e-01  linmin:  5.542e-06  t[s]:     68.32
	FillingsUpdate:  mu: -0.101848884  nElectrons: 432.000000
	SubspaceRotationAdjust: set factor to 0.561
ElecMinimize: Iter:  10  F: -1630.248805352552836  |grad|_K:  3.536e-06  alpha:  2.979e-01  linmin: -4.002e-06  t[s]:     70.59
	FillingsUpdate:  mu: -0.101534715  nElectrons: 432.000000
	SubspaceRotationAdjust: set factor to 0.639
ElecMinimize: Iter:  11  F: -1630.249062056326238  |grad|_K:  2.761e-06  alpha:  5.770e-01  linmin: -5.116e-06  t[s]:     72.93
	FillingsUpdate:  mu: -0.101403743  nElectrons: 432.000000
	SubspaceRotationAdjust: set factor to 0.537
ElecMinimize: Iter:  12  F: -1630.249168247917169  |grad|_K:  1.958e-06  alpha:  3.917e-01  linmin: -2.853e-08  t[s]:     75.28
	FillingsUpdate:  mu: -0.101521318  nElectrons: 432.000000
	SubspaceRotationAdjust: set factor to 0.529
ElecMinimize: Iter:  13  F: -1630.249228347771805  |grad|_K:  1.469e-06  alpha:  4.412e-01  linmin:  1.711e-06  t[s]:     77.57
	FillingsUpdate:  mu: -0.101425737  nElectrons: 432.000000
	SubspaceRotationAdjust: set factor to 0.557
ElecMinimize: Iter:  14  F: -1630.249264701142920  |grad|_K:  1.088e-06  alpha:  4.742e-01  linmin:  2.981e-06  t[s]:     79.88
	FillingsUpdate:  mu: -0.101364938  nElectrons: 432.000000
	SubspaceRotationAdjust: set factor to 0.598
ElecMinimize: Iter:  15  F: -1630.249285731023974  |grad|_K:  8.566e-07  alpha:  5.009e-01  linmin:  4.169e-06  t[s]:     82.15
	FillingsUpdate:  mu: -0.101464459  nElectrons: 432.000000
	SubspaceRotationAdjust: set factor to 0.564
ElecMinimize: Iter:  16  F: -1630.249298147353784  |grad|_K:  6.981e-07  alpha:  4.772e-01  linmin:  3.484e-06  t[s]:     84.50
	FillingsUpdate:  mu: -0.101504682  nElectrons: 432.000000
	SubspaceRotationAdjust: set factor to 0.47
ElecMinimize: Iter:  17  F: -1630.249305210488728  |grad|_K:  5.399e-07  alpha:  4.085e-01  linmin:  2.273e-06  t[s]:     86.82
	FillingsUpdate:  mu: -0.101545979  nElectrons: 432.000000
	SubspaceRotationAdjust: set factor to 0.53
ElecMinimize: Iter:  18  F: -1630.249310804620109  |grad|_K:  3.797e-07  alpha:  5.420e-01  linmin:  4.719e-06  t[s]:     89.20
	FillingsUpdate:  mu: -0.101596201  nElectrons: 432.000000
	SubspaceRotationAdjust: set factor to 0.485
ElecMinimize: Iter:  19  F: -1630.249313624870865  |grad|_K:  3.579e-07  alpha:  5.532e-01  linmin:  8.426e-07  t[s]:     91.51
	FillingsUpdate:  mu: -0.101594938  nElectrons: 432.000000
	SubspaceRotationAdjust: set factor to 0.459
ElecMinimize: Iter:  20  F: -1630.249315583377665  |grad|_K:  2.587e-07  alpha:  4.305e-01  linmin:  1.264e-07  t[s]:     93.82
	FillingsUpdate:  mu: -0.101576527  nElectrons: 432.000000
	SubspaceRotationAdjust: set factor to 0.519
ElecMinimize: Iter:  21  F: -1630.249317081999152  |grad|_K:  1.967e-07  alpha:  6.308e-01  linmin:  1.330e-06  t[s]:     96.21
	FillingsUpdate:  mu: -0.101574286  nElectrons: 432.000000
	SubspaceRotationAdjust: set factor to 0.511
ElecMinimize: Iter:  22  F: -1630.249317791570093  |grad|_K:  1.703e-07  alpha:  5.168e-01  linmin:  2.175e-07  t[s]:     98.53
	FillingsUpdate:  mu: -0.101565411  nElectrons: 432.000000
	SubspaceRotationAdjust: set factor to 0.439
ElecMinimize: Iter:  23  F: -1630.249318264424346  |grad|_K:  1.225e-07  alpha:  4.588e-01  linmin:  1.942e-07  t[s]:    100.84
	FillingsUpdate:  mu: -0.101564835  nElectrons: 432.000000
	SubspaceRotationAdjust: set factor to 0.445
ElecMinimize: Iter:  24  F: -1630.249318541709499  |grad|_K:  9.340e-08  alpha:  5.199e-01  linmin:  3.276e-07  t[s]:    103.18
	FillingsUpdate:  mu: -0.101558107  nElectrons: 432.000000
	SubspaceRotationAdjust: set factor to 0.464
ElecMinimize: Iter:  25  F: -1630.249318703772360  |grad|_K:  7.816e-08  alpha:  5.232e-01  linmin:  1.253e-07  t[s]:    105.56
	FillingsUpdate:  mu: -0.101554392  nElectrons: 432.000000
	SubspaceRotationAdjust: set factor to 0.46
ElecMinimize: Iter:  26  F: -1630.249318818537176  |grad|_K:  6.104e-08  alpha:  5.288e-01  linmin:  1.541e-07  t[s]:    107.92
	FillingsUpdate:  mu: -0.101562783  nElectrons: 432.000000
	SubspaceRotationAdjust: set factor to 0.468
ElecMinimize: Iter:  27  F: -1630.249318898999036  |grad|_K:  5.636e-08  alpha:  6.081e-01  linmin:  1.436e-07  t[s]:    110.30
	FillingsUpdate:  mu: -0.101564541  nElectrons: 432.000000
	SubspaceRotationAdjust: set factor to 0.478
ElecMinimize: Iter:  28  F: -1630.249318954160572  |grad|_K:  4.264e-08  alpha:  4.888e-01  linmin:  7.207e-08  t[s]:    112.62
	FillingsUpdate:  mu: -0.101565031  nElectrons: 432.000000
	SubspaceRotationAdjust: set factor to 0.495
ElecMinimize: Iter:  29  F: -1630.249318993149927  |grad|_K:  3.603e-08  alpha:  6.040e-01  linmin:  2.188e-07  t[s]:    114.93
	FillingsUpdate:  mu: -0.101567876  nElectrons: 432.000000
	SubspaceRotationAdjust: set factor to 0.502
ElecMinimize: Iter:  30  F: -1630.249319018307233  |grad|_K:  3.028e-08  alpha:  5.460e-01  linmin:  5.705e-08  t[s]:    117.22
	FillingsUpdate:  mu: -0.101566804  nElectrons: 432.000000
	SubspaceRotationAdjust: set factor to 0.456
ElecMinimize: Iter:  31  F: -1630.249319034491464  |grad|_K:  2.548e-08  alpha:  4.971e-01  linmin:  1.639e-07  t[s]:    119.59
	FillingsUpdate:  mu: -0.101566534  nElectrons: 432.000000
	SubspaceRotationAdjust: set factor to 0.469
ElecMinimize: Iter:  32  F: -1630.249319047667541  |grad|_K:  2.153e-08  alpha:  5.725e-01  linmin:  2.368e-08  t[s]:    121.91
	FillingsUpdate:  mu: -0.101567034  nElectrons: 432.000000
	SubspaceRotationAdjust: set factor to 0.472
ElecMinimize: Iter:  33  F: -1630.249319056748618  |grad|_K:  1.822e-08  alpha:  5.511e-01  linmin:  3.845e-08  t[s]:    124.21
	FillingsUpdate:  mu: -0.101566108  nElectrons: 432.000000
	SubspaceRotationAdjust: set factor to 0.442
ElecMinimize: Iter:  34  F: -1630.249319063666235  |grad|_K:  1.659e-08  alpha:  5.868e-01  linmin:  1.739e-07  t[s]:    126.52
ElecMinimize: Converged (|Delta F|<1.000000e-08 for 2 iters).
Setting wave functions to eigenvectors of Hamiltonian
Vacuum energy after initial minimize, F = -1630.249319063666235


-------- Electronic minimization -----------
	Linear fluid (dielectric constant: 64) occupying 0.881904 of unit cell:	Completed after 36 iterations at t[s]:    127.37
	FillingsUpdate:  mu: -0.077641467  nElectrons: 432.000000
ElecMinimize: Iter:   0  F: -1631.067825672603021  |grad|_K:  1.355e-04  alpha:  1.000e+00
	Linear fluid (dielectric constant: 64) occupying 0.887326 of unit cell:	Completed after 51 iterations at t[s]:    129.79
	Linear fluid (dielectric constant: 64) occupying 0.885938 of unit cell:	Completed after 39 iterations at t[s]:    131.01
	FillingsUpdate:  mu: -0.041080323  nElectrons: 432.000000
	SubspaceRotationAdjust: set factor to 0.427
ElecMinimize: Iter:   1  F: -1631.533417090618514  |grad|_K:  1.258e-04  alpha:  7.409e-01  linmin: -2.460e-04  t[s]:    132.12
	Linear fluid (dielectric constant: 64) occupying 0.888827 of unit cell:	Completed after 59 iterations at t[s]:    133.45
	Linear fluid (dielectric constant: 64) occupying 0.887976 of unit cell:	Completed after 45 iterations at t[s]:    134.73
	FillingsUpdate:  mu: -0.015719758  nElectrons: 432.000000
	SubspaceRotationAdjust: set factor to 0.439
ElecMinimize: Iter:   2  F: -1631.823660707598947  |grad|_K:  9.820e-05  alpha:  4.970e-01  linmin: -9.233e-05  t[s]:    135.83
	Linear fluid (dielectric constant: 64) occupying 0.887564 of unit cell:	Completed after 48 iterations at t[s]:    137.07
	Linear fluid (dielectric constant: 64) occupying 0.887521 of unit cell:	Completed after 31 iterations at t[s]:    138.19
	FillingsUpdate:  mu: -0.010398316  nElectrons: 432.000000
	SubspaceRotationAdjust: set factor to 0.57
ElecMinimize: Iter:   3  F: -1632.011287302439314  |grad|_K:  6.303e-05  alpha:  5.349e-01  linmin: -2.230e-04  t[s]:    139.29
	Linear fluid (dielectric constant: 64) occupying 0.886231 of unit cell:	Completed after 41 iterations at t[s]:    140.46
	Linear fluid (dielectric constant: 64) occupying 0.886375 of unit cell:	Completed after 26 iterations at t[s]:    141.53
	FillingsUpdate:  mu: -0.003881354  nElectrons: 432.000000
	SubspaceRotationAdjust: set factor to 0.661
ElecMinimize: Iter:   4  F: -1632.082419563205576  |grad|_K:  4.529e-05  alpha:  4.792e-01  linmin: -8.458e-05  t[s]:    142.67
	Linear fluid (dielectric constant: 64) occupying 0.885153 of unit cell:	Completed after 43 iterations at t[s]:    143.88
	Linear fluid (dielectric constant: 64) occupying 0.884929 of unit cell:	Completed after 31 iterations at t[s]:    144.99
	FillingsUpdate:  mu: -0.006593141  nElectrons: 432.000000
	SubspaceRotationAdjust: set factor to 0.814
ElecMinimize: Iter:   5  F: -1632.123598165423573  |grad|_K:  3.699e-05  alpha:  5.475e-01  linmin: -2.182e-05  t[s]:    146.09
	Linear fluid (dielectric constant: 64) occupying 0.881676 of unit cell:	Completed after 41 iterations at t[s]:    147.24
	Linear fluid (dielectric constant: 64) occupying 0.881673 of unit cell:	Completed after 0 iterations at t[s]:    148.03
	FillingsUpdate:  mu: -0.016621005  nElectrons: 432.000000
	SubspaceRotationAdjust: set factor to 0.924
ElecMinimize: Iter:   6  F: -1632.150555323300523  |grad|_K:  2.730e-05  alpha:  5.478e-01  linmin:  1.783e-04  t[s]:    149.08
	Linear fluid (dielectric constant: 64) occupying 0.876861 of unit cell:	Completed after 40 iterations at t[s]:    150.25
	Linear fluid (dielectric constant: 64) occupying 0.878815 of unit cell:	Completed after 33 iterations at t[s]:    151.36
	FillingsUpdate:  mu: -0.024212266  nElectrons: 432.000000
	SubspaceRotationAdjust: set factor to 0.941
ElecMinimize: Iter:   7  F: -1632.160130066048168  |grad|_K:  2.211e-05  alpha:  3.847e-01  linmin:  2.969e-07  t[s]:    152.47
	Linear fluid (dielectric constant: 64) occupying 0.876695 of unit cell:	Completed after 38 iterations at t[s]:    153.59
	Linear fluid (dielectric constant: 64) occupying 0.876932 of unit cell:	Completed after 22 iterations at t[s]:    154.61
	FillingsUpdate:  mu: -0.027861721  nElectrons: 432.000000
	SubspaceRotationAdjust: set factor to 1.16
ElecMinimize: Iter:   8  F: -1632.166227840413967  |grad|_K:  1.932e-05  alpha:  3.504e-01  linmin:  1.675e-05  t[s]:    155.70
	Linear fluid (dielectric constant: 64) occupying 0.876355 of unit cell:	Completed after 41 iterations at t[s]:    156.90
	Linear fluid (dielectric constant: 64) occupying 0.876056 of unit cell:	Completed after 35 iterations at t[s]:    158.04
	FillingsUpdate:  mu: -0.028902768  nElectrons: 432.000000
	SubspaceRotationAdjust: set factor to 1.25
ElecMinimize: Iter:   9  F: -1632.172336235747025  |grad|_K:  2.338e-05  alpha:  4.833e-01  linmin:  7.601e-05  t[s]:    159.13
	Linear fluid (dielectric constant: 64) occupying 0.874542 of unit cell:	Completed after 45 iterations at t[s]:    160.34
	Linear fluid (dielectric constant: 64) occupying 0.875757 of unit cell:	Completed after 43 iterations at t[s]:    161.61
	FillingsUpdate:  mu: -0.030228783  nElectrons: 432.000000
	SubspaceRotationAdjust: set factor to 1.33
ElecMinimize: Iter:  10  F: -1632.175640062950151  |grad|_K:  2.336e-05  alpha:  1.510e-01  linmin: -1.204e-04  t[s]:    162.72
	Linear fluid (dielectric constant: 64) occupying 0.875536 of unit cell:	Completed after 36 iterations at t[s]:    163.80
	Linear fluid (dielectric constant: 64) occupying 0.875502 of unit cell:	Completed after 20 iterations at t[s]:    164.80
	FillingsUpdate:  mu: -0.033044055  nElectrons: 432.000000
	SubspaceRotationAdjust: set factor to 1.41
ElecMinimize: Iter:  11  F: -1632.179482164754518  |grad|_K:  2.228e-05  alpha:  1.673e-01  linmin:  4.013e-05  t[s]:    165.89
	Linear fluid (dielectric constant: 64) occupying 0.875440 of unit cell:	Completed after 36 iterations at t[s]:    167.04
	Linear fluid (dielectric constant: 64) occupying 0.875480 of unit cell:	Completed after 28 iterations at t[s]:    168.14
	FillingsUpdate:  mu: -0.035124259  nElectrons: 432.000000
	SubspaceRotationAdjust: set factor to 1.56
ElecMinimize: Iter:  12  F: -1632.181361217973517  |grad|_K:  1.927e-05  alpha:  1.110e-01  linmin:  3.108e-07  t[s]:    169.21
	Linear fluid (dielectric constant: 64) occupying 0.875780 of unit cell:	Completed after 35 iterations at t[s]:    170.32
	Linear fluid (dielectric constant: 64) occupying 0.875807 of unit cell:	Completed after 19 iterations at t[s]:    171.33
	FillingsUpdate:  mu: -0.036489257  nElectrons: 432.000000
	SubspaceRotationAdjust: set factor to 1.75
ElecMinimize: Iter:  13  F: -1632.182965543777982  |grad|_K:  1.978e-05  alpha:  1.216e-01  linmin:  3.379e-06  t[s]:    172.41
	Linear fluid (dielectric constant: 64) occupying 0.876563 of unit cell:	Completed after 33 iterations at t[s]:    173.48
	Linear fluid (dielectric constant: 64) occupying 0.876713 of unit cell:	Completed after 21 iterations at t[s]:    174.49
	FillingsUpdate:  mu: -0.037215930  nElectrons: 432.000000
	SubspaceRotationAdjust: set factor to 1.91
ElecMinimize: Iter:  14  F: -1632.185014445426987  |grad|_K:  2.157e-05  alpha:  1.474e-01  linmin: -1.122e-05  t[s]:    175.58
	Linear fluid (dielectric constant: 64) occupying 0.878007 of unit cell:	Completed after 35 iterations at t[s]:    176.71
	Linear fluid (dielectric constant: 64) occupying 0.877743 of unit cell:	Completed after 21 iterations at t[s]:    177.71
	FillingsUpdate:  mu: -0.037189511  nElectrons: 432.000000
	SubspaceRotationAdjust: set factor to 2.12
ElecMinimize: Iter:  15  F: -1632.186946277233119  |grad|_K:  1.881e-05  alpha:  1.153e-01  linmin: -3.522e-06  t[s]:    178.80
	Linear fluid (dielectric constant: 64) occupying 0.878475 of unit cell:	Completed after 35 iterations at t[s]:    179.95
	Linear fluid (dielectric constant: 64) occupying 0.878399 of unit cell:	Completed after 19 iterations at t[s]:    180.94
	FillingsUpdate:  mu: -0.036881641  nElectrons: 432.000000
	SubspaceRotationAdjust: set factor to 2.46
ElecMinimize: Iter:  16  F: -1632.188244938444768  |grad|_K:  1.659e-05  alpha:  1.028e-01  linmin:  2.232e-08  t[s]:    182.05
	Linear fluid (dielectric constant: 64) occupying 0.878702 of unit cell:	Completed after 30 iterations at t[s]:    183.12
	Linear fluid (dielectric constant: 64) occupying 0.878732 of unit cell:	Completed after 12 iterations at t[s]:    184.05
	FillingsUpdate:  mu: -0.036864417  nElectrons: 432.000000
	SubspaceRotationAdjust: set factor to 2.88
ElecMinimize: Iter:  17  F: -1632.189347958499184  |grad|_K:  1.694e-05  alpha:  1.129e-01  linmin:  4.003e-07  t[s]:    185.12
	Linear fluid (dielectric constant: 64) occupying 0.878734 of unit cell:	Completed after 28 iterations at t[s]:    186.26
	Linear fluid (dielectric constant: 64) occupying 0.878734 of unit cell:	Completed after 4 iterations at t[s]:    187.07
	FillingsUpdate:  mu: -0.037552269  nElectrons: 432.000000
	SubspaceRotationAdjust: set factor to 3.43
	SubspaceRotationAdjust: resetting CG because factor has changed by 7.75987
	Linear fluid (dielectric constant: 64) occupying 0.878734 of unit cell:	Completed after 0 iterations at t[s]:    188.54
ElecMinimize: 	State modified externally: resetting search direction.
ElecMinimize: Iter:  18  F: -1632.190455383535209  |grad|_K:  1.725e-05  alpha:  1.086e-01
	Linear fluid (dielectric constant: 64) occupying 0.878463 of unit cell:	Completed after 30 iterations at t[s]:    190.60
	Linear fluid (dielectric constant: 64) occupying 0.878151 of unit cell:	Completed after 31 iterations at t[s]:    191.73
	FillingsUpdate:  mu: -0.038795388  nElectrons: 432.000000
	SubspaceRotationAdjust: set factor to 3.14
ElecMinimize: Iter:  19  F: -1632.192832671877341  |grad|_K:  1.282e-05  alpha:  2.247e-01  linmin: -2.145e-06  t[s]:    192.80
	Linear fluid (dielectric constant: 64) occupying 0.878401 of unit cell:	Completed after 26 iterations at t[s]:    193.80
	Linear fluid (dielectric constant: 64) occupying 0.878341 of unit cell:	Completed after 14 iterations at t[s]:    194.74
	FillingsUpdate:  mu: -0.037514861  nElectrons: 432.000000
	SubspaceRotationAdjust: set factor to 2.05
ElecMinimize: Iter:  20  F: -1632.193782684486450  |grad|_K:  1.074e-05  alpha:  1.637e-01  linmin: -3.171e-06  t[s]:    195.83
	Linear fluid (dielectric constant: 64) occupying 0.878333 of unit cell:	Completed after 30 iterations at t[s]:    196.86
	Linear fluid (dielectric constant: 64) occupying 0.878323 of unit cell:	Completed after 26 iterations at t[s]:    197.91
	FillingsUpdate:  mu: -0.037731057  nElectrons: 432.000000
	SubspaceRotationAdjust: set factor to 2.01
ElecMinimize: Iter:  21  F: -1632.194805657559527  |grad|_K:  7.547e-06  alpha:  2.520e-01  linmin:  7.336e-05  t[s]:    199.00
	Linear fluid (dielectric constant: 64) occupying 0.878319 of unit cell:	Completed after 22 iterations at t[s]:    199.96
	Linear fluid (dielectric constant: 64) occupying 0.878310 of unit cell:	Completed after 25 iterations at t[s]:    201.01
	FillingsUpdate:  mu: -0.038430911  nElectrons: 432.000000
	SubspaceRotationAdjust: set factor to 1.83
ElecMinimize: Iter:  22  F: -1632.196055222539599  |grad|_K:  9.880e-06  alpha:  6.321e-01  linmin: -1.651e-05  t[s]:    202.08
	Linear fluid (dielectric constant: 64) occupying 0.879000 of unit cell:	Completed after 38 iterations at t[s]:    203.20
	Linear fluid (dielectric constant: 64) occupying 0.878640 of unit cell:	Completed after 34 iterations at t[s]:    204.36
	FillingsUpdate:  mu: -0.039217800  nElectrons: 432.000000
	SubspaceRotationAdjust: set factor to 1.49
ElecMinimize: Iter:  23  F: -1632.197066293477747  |grad|_K:  8.457e-06  alpha:  2.912e-01  linmin: -3.721e-06  t[s]:    205.44
	Linear fluid (dielectric constant: 64) occupying 0.879353 of unit cell:	Completed after 27 iterations at t[s]:    206.46
	Linear fluid (dielectric constant: 64) occupying 0.879737 of unit cell:	Completed after 24 iterations at t[s]:    207.48
	FillingsUpdate:  mu: -0.039170376  nElectrons: 432.000000
	SubspaceRotationAdjust: set factor to 1.58
ElecMinimize: Iter:  24  F: -1632.198253525025621  |grad|_K:  8.613e-06  alpha:  4.636e-01  linmin: -3.160e-05  t[s]:    208.58
	Linear fluid (dielectric constant: 64) occupying 0.880774 of unit cell:	Completed after 33 iterations at t[s]:    209.67
	Linear fluid (dielectric constant: 64) occupying 0.880812 of unit cell:	Completed after 6 iterations at t[s]:    210.55
	FillingsUpdate:  mu: -0.039565757  nElectrons: 432.000000
	SubspaceRotationAdjust: set factor to 1.4
ElecMinimize: Iter:  25  F: -1632.199542450326589  |grad|_K:  8.772e-06  alpha:  4.835e-01  linmin:  8.425e-06  t[s]:    211.64
	Linear fluid (dielectric constant: 64) occupying 0.881584 of unit cell:	Completed after 27 iterations at t[s]:    212.69
	Linear fluid (dielectric constant: 64) occupying 0.881462 of unit cell:	Completed after 15 iterations at t[s]:    213.63
	FillingsUpdate:  mu: -0.040873590  nElectrons: 432.000000
	SubspaceRotationAdjust: set factor to 1.25
ElecMinimize: Iter:  26  F: -1632.200647699864703  |grad|_K:  8.509e-06  alpha:  3.878e-01  linmin:  3.382e-05  t[s]:    214.74
	Linear fluid (dielectric constant: 64) occupying 0.882022 of unit cell:	Completed after 33 iterations at t[s]:    215.87
	Linear fluid (dielectric constant: 64) occupying 0.881948 of unit cell:	Completed after 20 iterations at t[s]:    216.86
	FillingsUpdate:  mu: -0.040858187  nElectrons: 432.000000
	SubspaceRotationAdjust: set factor to 1.58
ElecMinimize: Iter:  27  F: -1632.201490014326282  |grad|_K:  8.460e-06  alpha:  3.258e-01  linmin:  2.634e-05  t[s]:    217.97
	Linear fluid (dielectric constant: 64) occupying 0.882277 of unit cell:	Completed after 27 iterations at t[s]:    219.04
	Linear fluid (dielectric constant: 64) occupying 0.882230 of unit cell:	Completed after 12 iterations at t[s]:    219.92
	FillingsUpdate:  mu: -0.040648787  nElectrons: 432.000000
	SubspaceRotationAdjust: set factor to 1.81
ElecMinimize: Iter:  28  F: -1632.202178882913358  |grad|_K:  8.266e-06  alpha:  2.705e-01  linmin:  4.046e-06  t[s]:    221.01
	Linear fluid (dielectric constant: 64) occupying 0.882314 of unit cell:	Completed after 29 iterations at t[s]:    222.08
	Linear fluid (dielectric constant: 64) occupying 0.882310 of unit cell:	Completed after 8 iterations at t[s]:    222.93
	FillingsUpdate:  mu: -0.041051962  nElectrons: 432.000000
	SubspaceRotationAdjust: set factor to 2.15
ElecMinimize: Iter:  29  F: -1632.202794067139166  |grad|_K:  8.943e-06  alpha:  2.527e-01  linmin:  2.457e-05  t[s]:    224.00
	Linear fluid (dielectric constant: 64) occupying 0.882292 of unit cell:	Completed after 22 iterations at t[s]:    224.99
	Linear fluid (dielectric constant: 64) occupying 0.882303 of unit cell:	Completed after 12 iterations at t[s]:    225.86
	FillingsUpdate:  mu: -0.041606759  nElectrons: 432.000000
	SubspaceRotationAdjust: set factor to 2.71
ElecMinimize: Iter:  30  F: -1632.203334083774280  |grad|_K:  8.179e-06  alpha:  1.894e-01  linmin: -2.213e-05  t[s]:    226.96
	Linear fluid (dielectric constant: 64) occupying 0.882321 of unit cell:	Completed after 29 iterations at t[s]:    228.03
	Linear fluid (dielectric constant: 64) occupying 0.882320 of unit cell:	Completed after 19 iterations at t[s]:    228.97
	FillingsUpdate:  mu: -0.041561598  nElectrons: 432.000000
	SubspaceRotationAdjust: set factor to 3.16
ElecMinimize: Iter:  31  F: -1632.203689654867958  |grad|_K:  7.093e-06  alpha:  1.486e-01  linmin: -2.779e-05  t[s]:    230.08
	Linear fluid (dielectric constant: 64) occupying 0.882370 of unit cell:	Completed after 26 iterations at t[s]:    231.12
	Linear fluid (dielectric constant: 64) occupying 0.882370 of unit cell:	Completed after 0 iterations at t[s]:    231.87
	FillingsUpdate:  mu: -0.041109031  nElectrons: 432.000000
	SubspaceRotationAdjust: set factor to 3.42
ElecMinimize: Iter:  32  F: -1632.203960339558080  |grad|_K:  6.567e-06  alpha:  1.497e-01  linmin: -5.540e-05  t[s]:    232.95
	Linear fluid (dielectric constant: 64) occupying 0.882375 of unit cell:	Completed after 15 iterations at t[s]:    233.86
	Linear fluid (dielectric constant: 64) occupying 0.882374 of unit cell:	Completed after 11 iterations at t[s]:    234.72
	FillingsUpdate:  mu: -0.041169859  nElectrons: 432.000000
	SubspaceRotationAdjust: set factor to 3.62
ElecMinimize: Iter:  33  F: -1632.204277416341938  |grad|_K:  7.896e-06  alpha:  2.011e-01  linmin: -1.790e-05  t[s]:    235.80
	Linear fluid (dielectric constant: 64) occupying 0.882358 of unit cell:	Completed after 26 iterations at t[s]:    236.82
	Linear fluid (dielectric constant: 64) occupying 0.882365 of unit cell:	Completed after 19 iterations at t[s]:    237.77
	FillingsUpdate:  mu: -0.041645364  nElectrons: 432.000000
	SubspaceRotationAdjust: set factor to 4.05
ElecMinimize: Iter:  34  F: -1632.204618583346019  |grad|_K:  7.576e-06  alpha:  1.511e-01  linmin:  1.767e-05  t[s]:    238.85
	Linear fluid (dielectric constant: 64) occupying 0.882472 of unit cell:	Completed after 24 iterations at t[s]:    239.85
	Linear fluid (dielectric constant: 64) occupying 0.882484 of unit cell:	Completed after 7 iterations at t[s]:    240.71
	FillingsUpdate:  mu: -0.041680165  nElectrons: 432.000000
	SubspaceRotationAdjust: set factor to 3.9
ElecMinimize: Iter:  35  F: -1632.204961308924794  |grad|_K:  8.915e-06  alpha:  1.699e-01  linmin:  4.413e-05  t[s]:    241.80
	Linear fluid (dielectric constant: 64) occupying 0.882705 of unit cell:	Completed after 25 iterations at t[s]:    242.79
	Linear fluid (dielectric constant: 64) occupying 0.882652 of unit cell:	Completed after 13 iterations at t[s]:    243.69
	FillingsUpdate:  mu: -0.041657369  nElectrons: 432.000000
	SubspaceRotationAdjust: set factor to 5.22
ElecMinimize: Iter:  36  F: -1632.205291435806657  |grad|_K:  8.105e-06  alpha:  1.153e-01  linmin:  1.270e-05  t[s]:    244.79
	Linear fluid (dielectric constant: 64) occupying 0.882750 of unit cell:	Completed after 24 iterations at t[s]:    245.78
	Linear fluid (dielectric constant: 64) occupying 0.882745 of unit cell:	Completed after 6 iterations at t[s]:    246.60
	FillingsUpdate:  mu: -0.041985398  nElectrons: 432.000000
	SubspaceRotationAdjust: set factor to 5.97
ElecMinimize: Iter:  37  F: -1632.205530778033108  |grad|_K:  8.519e-06  alpha:  1.021e-01  linmin:  7.356e-05  t[s]:    247.69
	Linear fluid (dielectric constant: 64) occupying 0.882743 of unit cell:	Completed after 24 iterations at t[s]:    248.68
	Linear fluid (dielectric constant: 64) occupying 0.882764 of unit cell:	Completed after 15 iterations at t[s]:    249.64
	FillingsUpdate:  mu: -0.042383245  nElectrons: 432.000000
	SubspaceRotationAdjust: set factor to 6.45
ElecMinimize: Iter:  38  F: -1632.205723923991172  |grad|_K:  8.715e-06  alpha:  7.579e-02  linmin:  4.764e-05  t[s]:    250.74
	Linear fluid (dielectric constant: 64) occupying 0.882712 of unit cell:	Completed after 23 iterations at t[s]:    251.73
	Linear fluid (dielectric constant: 64) occupying 0.882741 of unit cell:	Completed after 12 iterations at t[s]:    252.64
	FillingsUpdate:  mu: -0.042450196  nElectrons: 432.000000
	SubspaceRotationAdjust: set factor to 8.32
ElecMinimize: Iter:  39  F: -1632.205874048498345  |grad|_K:  8.341e-06  alpha:  5.599e-02  linmin:  2.692e-05  t[s]:    253.76
	Linear fluid (dielectric constant: 64) occupying 0.882693 of unit cell:	Completed after 17 iterations at t[s]:    254.69
	Linear fluid (dielectric constant: 64) occupying 0.882693 of unit cell:	Completed after 0 iterations at t[s]:    255.44
	FillingsUpdate:  mu: -0.042207806  nElectrons: 432.000000
	SubspaceRotationAdjust: set factor to 10.3
ElecMinimize: Iter:  40  F: -1632.206010409867758  |grad|_K:  8.558e-06  alpha:  5.579e-02  linmin:  2.462e-05  t[s]:    256.53
	Linear fluid (dielectric constant: 64) occupying 0.882593 of unit cell:	Completed after 15 iterations at t[s]:    257.50
	Linear fluid (dielectric constant: 64) occupying 0.882625 of unit cell:	Completed after 6 iterations at t[s]:    258.33
	FillingsUpdate:  mu: -0.041965250  nElectrons: 432.000000
	SubspaceRotationAdjust: set factor to 12.5
ElecMinimize: Iter:  41  F: -1632.206118048250119  |grad|_K:  7.760e-06  alpha:  4.178e-02  linmin:  4.561e-06  t[s]:    259.41
	Linear fluid (dielectric constant: 64) occupying 0.882537 of unit cell:	Completed after 17 iterations at t[s]:    261.24
	Linear fluid (dielectric constant: 64) occupying 0.882530 of unit cell:	Completed after 1 iterations at t[s]:    262.00
	FillingsUpdate:  mu: -0.041926212  nElectrons: 432.000000
	SubspaceRotationAdjust: set factor to 13.2
ElecMinimize: Iter:  42  F: -1632.206213063667974  |grad|_K:  8.683e-06  alpha:  4.453e-02  linmin: -1.246e-05  t[s]:    263.08
	Linear fluid (dielectric constant: 64) occupying 0.882400 of unit cell:	Completed after 22 iterations at t[s]:    264.07
	Linear fluid (dielectric constant: 64) occupying 0.882410 of unit cell:	Completed after 3 iterations at t[s]:    264.89
	FillingsUpdate:  mu: -0.041961258  nElectrons: 432.000000
	SubspaceRotationAdjust: set factor to 11.8
ElecMinimize: Iter:  43  F: -1632.206325762118922  |grad|_K:  9.078e-06  alpha:  4.168e-02  linmin:  3.051e-06  t[s]:    268.52
	Linear fluid (dielectric constant: 64) occupying 0.882329 of unit cell:	Completed after 22 iterations at t[s]:    269.50
	Linear fluid (dielectric constant: 64) occupying 0.882339 of unit cell:	Completed after 5 iterations at t[s]:    271.18
	FillingsUpdate:  mu: -0.041794954  nElectrons: 432.000000
	SubspaceRotationAdjust: set factor to 10.7
ElecMinimize: Iter:  44  F: -1632.206434176737275  |grad|_K:  8.945e-06  alpha:  3.700e-02  linmin:  2.447e-05  t[s]:    272.24
	Linear fluid (dielectric constant: 64) occupying 0.882315 of unit cell:	Completed after 20 iterations at t[s]:    273.21
	Linear fluid (dielectric constant: 64) occupying 0.882313 of unit cell:	Completed after 1 iterations at t[s]:    273.97
	FillingsUpdate:  mu: -0.041621776  nElectrons: 432.000000
	SubspaceRotationAdjust: set factor to 11.2
ElecMinimize: Iter:  45  F: -1632.206545112594767  |grad|_K:  8.573e-06  alpha:  3.953e-02  linmin:  8.522e-07  t[s]:    275.05
	Linear fluid (dielectric constant: 64) occupying 0.882307 of unit cell:	Completed after 19 iterations at t[s]:    279.93
	Linear fluid (dielectric constant: 64) occupying 0.882308 of unit cell:	Completed after 1 iterations at t[s]:    284.01
	FillingsUpdate:  mu: -0.041698534  nElectrons: 432.000000
	SubspaceRotationAdjust: set factor to 13.6
ElecMinimize: Iter:  46  F: -1632.206641504459640  |grad|_K:  8.277e-06  alpha:  3.692e-02  linmin:  5.311e-06  t[s]:    285.08
	Linear fluid (dielectric constant: 64) occupying 0.882320 of unit cell:	Completed after 15 iterations at t[s]:    285.99
	Linear fluid (dielectric constant: 64) occupying 0.882320 of unit cell:	Completed after 0 iterations at t[s]:    286.77
	FillingsUpdate:  mu: -0.041913866  nElectrons: 432.000000
	SubspaceRotationAdjust: set factor to 14.2
ElecMinimize: Iter:  47  F: -1632.206733436351897  |grad|_K:  8.539e-06  alpha:  3.795e-02  linmin: -5.728e-07  t[s]:    287.83
	Linear fluid (dielectric constant: 64) occupying 0.882365 of unit cell:	Completed after 19 iterations at t[s]:    288.78
	Linear fluid (dielectric constant: 64) occupying 0.882361 of unit cell:	Completed after 5 iterations at t[s]:    289.65
	FillingsUpdate:  mu: -0.042042403  nElectrons: 432.000000
	SubspaceRotationAdjust: set factor to 14.3
ElecMinimize: Iter:  48  F: -1632.206818329026419  |grad|_K:  8.156e-06  alpha:  3.288e-02  linmin: -6.071e-06  t[s]:    290.73
	Linear fluid (dielectric constant: 64) occupying 0.882428 of unit cell:	Completed after 19 iterations at t[s]:    291.70
	Linear fluid (dielectric constant: 64) occupying 0.882426 of unit cell:	Completed after 0 iterations at t[s]:    292.49
	FillingsUpdate:  mu: -0.041863805  nElectrons: 432.000000
	SubspaceRotationAdjust: set factor to 15.5
ElecMinimize: Iter:  49  F: -1632.206893913774138  |grad|_K:  7.419e-06  alpha:  3.185e-02  linmin: -1.334e-05  t[s]:    293.52
	Linear fluid (dielectric constant: 64) occupying 0.882461 of unit cell:	Completed after 19 iterations at t[s]:    294.48
	Linear fluid (dielectric constant: 64) occupying 0.882462 of unit cell:	Completed after 0 iterations at t[s]:    295.31
	FillingsUpdate:  mu: -0.041790331  nElectrons: 432.000000
	SubspaceRotationAdjust: set factor to 18.9
ElecMinimize: Iter:  50  F: -1632.206959752965304  |grad|_K:  6.645e-06  alpha:  3.338e-02  linmin: -4.622e-05  t[s]:    296.36
	Linear fluid (dielectric constant: 64) occupying 0.882450 of unit cell:	Completed after 19 iterations at t[s]:    297.32
	Linear fluid (dielectric constant: 64) occupying 0.882448 of unit cell:	Completed after 3 iterations at t[s]:    298.13
	FillingsUpdate:  mu: -0.041974823  nElectrons: 432.000000
	SubspaceRotationAdjust: set factor to 19.7
ElecMinimize: Iter:  51  F: -1632.207022100104723  |grad|_K:  7.233e-06  alpha:  3.856e-02  linmin: -3.525e-05  t[s]:    299.21
	Linear fluid (dielectric constant: 64) occupying 0.882431 of unit cell:	Completed after 19 iterations at t[s]:    300.15
	Linear fluid (dielectric constant: 64) occupying 0.882433 of unit cell:	Completed after 4 iterations at t[s]:    301.01
	FillingsUpdate:  mu: -0.042059943  nElectrons: 432.000000
	SubspaceRotationAdjust: set factor to 19.1
ElecMinimize: Iter:  52  F: -1632.207086494407804  |grad|_K:  7.647e-06  alpha:  3.360e-02  linmin:  1.703e-06  t[s]:    302.06
	Linear fluid (dielectric constant: 64) occupying 0.882455 of unit cell:	Completed after 15 iterations at t[s]:    302.98
	Linear fluid (dielectric constant: 64) occupying 0.882455 of unit cell:	Completed after 0 iterations at t[s]:    303.76
	FillingsUpdate:  mu: -0.041765938  nElectrons: 432.000000
	SubspaceRotationAdjust: set factor to 17.5
ElecMinimize: Iter:  53  F: -1632.207159143791387  |grad|_K:  7.647e-06  alpha:  3.502e-02  linmin: -1.413e-05  t[s]:    304.82
	Linear fluid (dielectric constant: 64) occupying 0.882455 of unit cell:	Completed after 16 iterations at t[s]:    305.74
	Linear fluid (dielectric constant: 64) occupying 0.882456 of unit cell:	Completed after 4 iterations at t[s]:    306.54
	FillingsUpdate:  mu: -0.041678825  nElectrons: 432.000000
	SubspaceRotationAdjust: set factor to 16.8
ElecMinimize: Iter:  54  F: -1632.207223687671330  |grad|_K:  7.197e-06  alpha:  3.080e-02  linmin:  1.399e-05  t[s]:    307.63
	Linear fluid (dielectric constant: 64) occupying 0.882414 of unit cell:	Completed after 18 iterations at t[s]:    308.56
	Linear fluid (dielectric constant: 64) occupying 0.882411 of unit cell:	Completed after 0 iterations at t[s]:    309.35
	FillingsUpdate:  mu: -0.041972414  nElectrons: 432.000000
	SubspaceRotationAdjust: set factor to 16.6
ElecMinimize: Iter:  55  F: -1632.207283913159017  |grad|_K:  6.904e-06  alpha:  3.304e-02  linmin:  2.572e-06  t[s]:    310.40
	Linear fluid (dielectric constant: 64) occupying 0.882376 of unit cell:	Completed after 19 iterations at t[s]:    311.31
	Linear fluid (dielectric constant: 64) occupying 0.882382 of unit cell:	Completed after 5 iterations at t[s]:    312.13
	FillingsUpdate:  mu: -0.042145343  nElectrons: 432.000000
	SubspaceRotationAdjust: set factor to 18.5
ElecMinimize: Iter:  56  F: -1632.207330506489825  |grad|_K:  6.404e-06  alpha:  2.762e-02  linmin:  3.741e-06  t[s]:    313.20
	Linear fluid (dielectric constant: 64) occupying 0.882390 of unit cell:	Completed after 19 iterations at t[s]:    314.14
	Linear fluid (dielectric constant: 64) occupying 0.882391 of unit cell:	Completed after 3 iterations at t[s]:    314.95
	FillingsUpdate:  mu: -0.041984876  nElectrons: 432.000000
	SubspaceRotationAdjust: set factor to 17.5
ElecMinimize: Iter:  57  F: -1632.207377427867641  |grad|_K:  6.870e-06  alpha:  3.225e-02  linmin: -2.194e-05  t[s]:    316.03
	Linear fluid (dielectric constant: 64) occupying 0.882386 of unit cell:	Completed after 19 iterations at t[s]:    317.00
	Linear fluid (dielectric constant: 64) occupying 0.882387 of unit cell:	Completed after 3 iterations at t[s]:    317.84
	FillingsUpdate:  mu: -0.041916089  nElectrons: 432.000000
	SubspaceRotationAdjust: set factor to 19.3
ElecMinimize: Iter:  58  F: -1632.207425984165411  |grad|_K:  6.532e-06  alpha:  2.856e-02  linmin: -3.615e-06  t[s]:    318.90
	Linear fluid (dielectric constant: 64) occupying 0.882344 of unit cell:	Completed after 14 iterations at t[s]:    319.81
	Linear fluid (dielectric constant: 64) occupying 0.882335 of unit cell:	Completed after 4 iterations at t[s]:    320.60
	FillingsUpdate:  mu: -0.042133467  nElectrons: 432.000000
	SubspaceRotationAdjust: set factor to 17.5
ElecMinimize: Iter:  59  F: -1632.207477651547379  |grad|_K:  7.263e-06  alpha:  3.403e-02  linmin: -8.539e-06  t[s]:    321.67
	Linear fluid (dielectric constant: 64) occupying 0.882268 of unit cell:	Completed after 17 iterations at t[s]:    322.60
	Linear fluid (dielectric constant: 64) occupying 0.882275 of unit cell:	Completed after 3 iterations at t[s]:    323.39
	FillingsUpdate:  mu: -0.042222221  nElectrons: 432.000000
	SubspaceRotationAdjust: set factor to 17.6
ElecMinimize: Iter:  60  F: -1632.207535330011524  |grad|_K:  6.998e-06  alpha:  3.069e-02  linmin: -5.303e-06  t[s]:    324.47
	Linear fluid (dielectric constant: 64) occupying 0.882260 of unit cell:	Completed after 13 iterations at t[s]:    325.37
	Linear fluid (dielectric constant: 64) occupying 0.882260 of unit cell:	Completed after 0 iterations at t[s]:    326.13
	FillingsUpdate:  mu: -0.041961371  nElectrons: 432.000000
	SubspaceRotationAdjust: set factor to 18.7
ElecMinimize: Iter:  61  F: -1632.207591274698643  |grad|_K:  6.828e-06  alpha:  3.199e-02  linmin: -1.243e-05  t[s]:    327.21
	Linear fluid (dielectric constant: 64) occupying 0.882247 of unit cell:	Completed after 17 iterations at t[s]:    328.13
	Linear fluid (dielectric constant: 64) occupying 0.882247 of unit cell:	Completed after 0 iterations at t[s]:    328.90
	FillingsUpdate:  mu: -0.041814494  nElectrons: 432.000000
	SubspaceRotationAdjust: set factor to 19.1
ElecMinimize: Iter:  62  F: -1632.207644859966422  |grad|_K:  6.754e-06  alpha:  3.201e-02  linmin: -2.016e-05  t[s]:    329.93
	Linear fluid (dielectric constant: 64) occupying 0.882211 of unit cell:	Completed after 19 iterations at t[s]:    330.87
	Linear fluid (dielectric constant: 64) occupying 0.882215 of unit cell:	Completed after 3 iterations at t[s]:    331.70
	FillingsUpdate:  mu: -0.042095092  nElectrons: 432.000000
	SubspaceRotationAdjust: set factor to 18.6
ElecMinimize: Iter:  63  F: -1632.207691850488800  |grad|_K:  6.609e-06  alpha:  2.856e-02  linmin:  2.720e-05  t[s]:    332.78
	Linear fluid (dielectric constant: 64) occupying 0.882228 of unit cell:	Completed after 19 iterations at t[s]:    333.70
	Linear fluid (dielectric constant: 64) occupying 0.882229 of unit cell:	Completed after 0 iterations at t[s]:    334.47
	FillingsUpdate:  mu: -0.042247918  nElectrons: 432.000000
	SubspaceRotationAdjust: set factor to 17.2
ElecMinimize: Iter:  64  F: -1632.207737273213070  |grad|_K:  6.646e-06  alpha:  2.983e-02  linmin: -7.566e-06  t[s]:    335.53
	Linear fluid (dielectric constant: 64) occupying 0.882305 of unit cell:	Completed after 19 iterations at t[s]:    336.45
	Linear fluid (dielectric constant: 64) occupying 0.882304 of unit cell:	Completed after 0 iterations at t[s]:    337.22
	FillingsUpdate:  mu: -0.042076625  nElectrons: 432.000000
	SubspaceRotationAdjust: set factor to 16.9
ElecMinimize: Iter:  65  F: -1632.207783522100954  |grad|_K:  6.542e-06  alpha:  2.931e-02  linmin: -1.450e-05  t[s]:    338.28
	Linear fluid (dielectric constant: 64) occupying 0.882370 of unit cell:	Completed after 18 iterations at t[s]:    339.23
	Linear fluid (dielectric constant: 64) occupying 0.882374 of unit cell:	Completed after 0 iterations at t[s]:    339.97
	FillingsUpdate:  mu: -0.042023159  nElectrons: 432.000000
	SubspaceRotationAdjust: set factor to 18
ElecMinimize: Iter:  66  F: -1632.207831638257403  |grad|_K:  6.470e-06  alpha:  3.122e-02  linmin: -3.392e-05  t[s]:    341.06
	Linear fluid (dielectric constant: 64) occupying 0.882387 of unit cell:	Completed after 17 iterations at t[s]:    342.00
	Linear fluid (dielectric constant: 64) occupying 0.882388 of unit cell:	Completed after 0 iterations at t[s]:    342.74
	FillingsUpdate:  mu: -0.042319935  nElectrons: 432.000000
	SubspaceRotationAdjust: set factor to 18.3
ElecMinimize: Iter:  67  F: -1632.207882609910484  |grad|_K:  6.695e-06  alpha:  3.346e-02  linmin: -3.710e-05  t[s]:    343.80
	Linear fluid (dielectric constant: 64) occupying 0.882382 of unit cell:	Completed after 15 iterations at t[s]:    344.68
	Linear fluid (dielectric constant: 64) occupying 0.882383 of unit cell:	Completed after 3 iterations at t[s]:    345.47
	FillingsUpdate:  mu: -0.042609220  nElectrons: 432.000000
	SubspaceRotationAdjust: set factor to 17.2
ElecMinimize: Iter:  68  F: -1632.207930294149264  |grad|_K:  7.044e-06  alpha:  2.923e-02  linmin:  4.852e-06  t[s]:    346.53
	Linear fluid (dielectric constant: 64) occupying 0.882414 of unit cell:	Completed after 15 iterations at t[s]:    347.47
	Linear fluid (dielectric constant: 64) occupying 0.882415 of unit cell:	Completed after 0 iterations at t[s]:    348.24
	FillingsUpdate:  mu: -0.042453375  nElectrons: 432.000000
	SubspaceRotationAdjust: set factor to 15.5
ElecMinimize: Iter:  69  F: -1632.207982474554683  |grad|_K:  7.056e-06  alpha:  2.970e-02  linmin: -1.286e-05  t[s]:    349.26
	Linear fluid (dielectric constant: 64) occupying 0.882451 of unit cell:	Completed after 19 iterations at t[s]:    350.20
	Linear fluid (dielectric constant: 64) occupying 0.882448 of unit cell:	Completed after 3 iterations at t[s]:    350.99
	FillingsUpdate:  mu: -0.042169307  nElectrons: 432.000000
	SubspaceRotationAdjust: set factor to 16.9
ElecMinimize: Iter:  70  F: -1632.208029411767484  |grad|_K:  6.245e-06  alpha:  2.633e-02  linmin:  1.563e-05  t[s]:    352.01
	Linear fluid (dielectric constant: 64) occupying 0.882432 of unit cell:	Completed after 19 iterations at t[s]:    352.96
	Linear fluid (dielectric constant: 64) occupying 0.882429 of unit cell:	Completed after 4 iterations at t[s]:    353.77
	FillingsUpdate:  mu: -0.042217296  nElectrons: 432.000000
	SubspaceRotationAdjust: set factor to 16.7
ElecMinimize: Iter:  71  F: -1632.208071924283331  |grad|_K:  6.552e-06  alpha:  3.095e-02  linmin: -7.201e-07  t[s]:    354.81
	Linear fluid (dielectric constant: 64) occupying 0.882374 of unit cell:	Completed after 19 iterations at t[s]:    355.77
	Linear fluid (dielectric constant: 64) occupying 0.882380 of unit cell:	Completed after 3 iterations at t[s]:    356.56
	FillingsUpdate:  mu: -0.042421308  nElectrons: 432.000000
	SubspaceRotationAdjust: set factor to 18.9
ElecMinimize: Iter:  72  F: -1632.208114438748908  |grad|_K:  6.327e-06  alpha:  2.787e-02  linmin:  1.312e-05  t[s]:    357.62
	Linear fluid (dielectric constant: 64) occupying 0.882356 of unit cell:	Completed after 17 iterations at t[s]:    358.54
	Linear fluid (dielectric constant: 64) occupying 0.882355 of unit cell:	Completed after 0 iterations at t[s]:    359.37
	FillingsUpdate:  mu: -0.042413315  nElectrons: 432.000000
	SubspaceRotationAdjust: set factor to 17.7
ElecMinimize: Iter:  73  F: -1632.208155574336843  |grad|_K:  7.092e-06  alpha:  2.921e-02  linmin: -1.320e-05  t[s]:    360.41
	Linear fluid (dielectric constant: 64) occupying 0.882349 of unit cell:	Completed after 18 iterations at t[s]:    361.34
	Linear fluid (dielectric constant: 64) occupying 0.882349 of unit cell:	Completed after 0 iterations at t[s]:    362.11
	FillingsUpdate:  mu: -0.042246353  nElectrons: 432.000000
	SubspaceRotationAdjust: set factor to 16.4
ElecMinimize: Iter:  74  F: -1632.208209884625603  |grad|_K:  7.381e-06  alpha:  3.008e-02  linmin: -3.857e-05  t[s]:    363.18
	Linear fluid (dielectric constant: 64) occupying 0.882308 of unit cell:	Completed after 17 iterations at t[s]:    364.08
	Linear fluid (dielectric constant: 64) occupying 0.882315 of unit cell:	Completed after 3 iterations at t[s]:    364.89
	FillingsUpdate:  mu: -0.042318531  nElectrons: 432.000000
	SubspaceRotationAdjust: set factor to 17.7
ElecMinimize: Iter:  75  F: -1632.208261136807550  |grad|_K:  6.978e-06  alpha:  2.589e-02  linmin:  1.109e-05  t[s]:    365.96
	Linear fluid (dielectric constant: 64) occupying 0.882258 of unit cell:	Completed after 13 iterations at t[s]:    366.83
	Linear fluid (dielectric constant: 64) occupying 0.882249 of unit cell:	Completed after 3 iterations at t[s]:    367.64
	FillingsUpdate:  mu: -0.042615781  nElectrons: 432.000000
	SubspaceRotationAdjust: set factor to 17.7
ElecMinimize: Iter:  76  F: -1632.208311756658759  |grad|_K:  7.182e-06  alpha:  2.954e-02  linmin:  1.389e-06  t[s]:    368.72
	Linear fluid (dielectric constant: 64) occupying 0.882203 of unit cell:	Completed after 19 iterations at t[s]:    369.70
	Linear fluid (dielectric constant: 64) occupying 0.882214 of unit cell:	Completed after 5 iterations at t[s]:    370.51
	FillingsUpdate:  mu: -0.042732684  nElectrons: 432.000000
	SubspaceRotationAdjust: set factor to 19.9
ElecMinimize: Iter:  77  F: -1632.208355029333234  |grad|_K:  6.523e-06  alpha:  2.372e-02  linmin: -6.339e-07  t[s]:    371.60
	Linear fluid (dielectric constant: 64) occupying 0.882238 of unit cell:	Completed after 17 iterations at t[s]:    372.53
	Linear fluid (dielectric constant: 64) occupying 0.882240 of unit cell:	Completed after 1 iterations at t[s]:    373.29
	FillingsUpdate:  mu: -0.042511831  nElectrons: 432.000000
	SubspaceRotationAdjust: set factor to 18.8
ElecMinimize: Iter:  78  F: -1632.208394676330954  |grad|_K:  6.820e-06  alpha:  2.617e-02  linmin: -4.573e-05  t[s]:    374.36
	Linear fluid (dielectric constant: 64) occupying 0.882278 of unit cell:	Completed after 19 iterations at t[s]:    375.30
	Linear fluid (dielectric constant: 64) occupying 0.882277 of unit cell:	Completed after 0 iterations at t[s]:    376.03
	FillingsUpdate:  mu: -0.042269748  nElectrons: 432.000000
	SubspaceRotationAdjust: set factor to 17.5
ElecMinimize: Iter:  79  F: -1632.208436771132483  |grad|_K:  6.781e-06  alpha:  2.482e-02  linmin:  3.182e-06  t[s]:    377.10
	Linear fluid (dielectric constant: 64) occupying 0.882261 of unit cell:	Completed after 19 iterations at t[s]:    378.04
	Linear fluid (dielectric constant: 64) occupying 0.882261 of unit cell:	Completed after 0 iterations at t[s]:    378.77
	FillingsUpdate:  mu: -0.042481806  nElectrons: 432.000000
	SubspaceRotationAdjust: set factor to 17.9
ElecMinimize: Iter:  80  F: -1632.208476360877057  |grad|_K:  6.650e-06  alpha:  2.424e-02  linmin:  3.372e-05  t[s]:    379.82
	Linear fluid (dielectric constant: 64) occupying 0.882241 of unit cell:	Completed after 18 iterations at t[s]:    380.79
	Linear fluid (dielectric constant: 64) occupying 0.882237 of unit cell:	Completed after 3 iterations at t[s]:    381.61
	FillingsUpdate:  mu: -0.042778060  nElectrons: 432.000000
	SubspaceRotationAdjust: set factor to 17.9
ElecMinimize: Iter:  81  F: -1632.208520521235414  |grad|_K:  7.034e-06  alpha:  2.876e-02  linmin:  1.564e-06  t[s]:    382.67
	Linear fluid (dielectric constant: 64) occupying 0.882274 of unit cell:	Completed after 17 iterations at t[s]:    383.64
	Linear fluid (dielectric constant: 64) occupying 0.882270 of unit cell:	Completed after 3 iterations at t[s]:    384.45
	FillingsUpdate:  mu: -0.042766053  nElectrons: 432.000000
	SubspaceRotationAdjust: set factor to 18.8
ElecMinimize: Iter:  82  F: -1632.208565147593845  |grad|_K:  7.160e-06  alpha:  2.548e-02  linmin:  2.871e-07  t[s]:    385.57
	Linear fluid (dielectric constant: 64) occupying 0.882346 of unit cell:	Completed after 13 iterations at t[s]:    386.45
	Linear fluid (dielectric constant: 64) occupying 0.882348 of unit cell:	Completed after 0 iterations at t[s]:    387.19
	FillingsUpdate:  mu: -0.042534882  nElectrons: 432.000000
	SubspaceRotationAdjust: set factor to 18.7
ElecMinimize: Iter:  83  F: -1632.208613163476457  |grad|_K:  7.349e-06  alpha:  2.635e-02  linmin: -1.572e-05  t[s]:    388.21
	Linear fluid (dielectric constant: 64) occupying 0.882397 of unit cell:	Completed after 15 iterations at t[s]:    389.17
	Linear fluid (dielectric constant: 64) occupying 0.882397 of unit cell:	Completed after 0 iterations at t[s]:    389.91
	FillingsUpdate:  mu: -0.042549416  nElectrons: 432.000000
	SubspaceRotationAdjust: set factor to 17.6
ElecMinimize: Iter:  84  F: -1632.208665224991364  |grad|_K:  7.437e-06  alpha:  2.683e-02  linmin: -6.925e-06  t[s]:    390.95
	Linear fluid (dielectric constant: 64) occupying 0.882380 of unit cell:	Completed after 19 iterations at t[s]:    391.92
	Linear fluid (dielectric constant: 64) occupying 0.882383 of unit cell:	Completed after 4 iterations at t[s]:    392.74
	FillingsUpdate:  mu: -0.042924422  nElectrons: 432.000000
	SubspaceRotationAdjust: set factor to 19.6
ElecMinimize: Iter:  85  F: -1632.208709973412624  |grad|_K:  6.655e-06  alpha:  2.258e-02  linmin:  2.042e-05  t[s]:    393.79
	Linear fluid (dielectric constant: 64) occupying 0.882372 of unit cell:	Completed after 17 iterations at t[s]:    394.72
	Linear fluid (dielectric constant: 64) occupying 0.882371 of unit cell:	Completed after 0 iterations at t[s]:    395.50
	FillingsUpdate:  mu: -0.043123972  nElectrons: 432.000000
	SubspaceRotationAdjust: set factor to 21.1
ElecMinimize: Iter:  86  F: -1632.208746595752928  |grad|_K:  6.611e-06  alpha:  2.363e-02  linmin: -8.755e-06  t[s]:    396.56
	Linear fluid (dielectric constant: 64) occupying 0.882396 of unit cell:	Completed after 19 iterations at t[s]:    397.52
	Linear fluid (dielectric constant: 64) occupying 0.882396 of unit cell:	Completed after 0 iterations at t[s]:    398.30
	FillingsUpdate:  mu: -0.042994336  nElectrons: 432.000000
	SubspaceRotationAdjust: set factor to 20.2
ElecMinimize: Iter:  87  F: -1632.208782942886273  |grad|_K:  6.885e-06  alpha:  2.327e-02  linmin: -1.069e-05  t[s]:    399.40
	Linear fluid (dielectric constant: 64) occupying 0.882423 of unit cell:	Completed after 19 iterations at t[s]:    400.34
	Linear fluid (dielectric constant: 64) occupying 0.882421 of unit cell:	Completed after 3 iterations at t[s]:    401.16
	FillingsUpdate:  mu: -0.042799232  nElectrons: 432.000000
	SubspaceRotationAdjust: set factor to 20.6
ElecMinimize: Iter:  88  F: -1632.208818640023310  |grad|_K:  6.690e-06  alpha:  2.103e-02  linmin:  3.247e-05  t[s]:    402.23
	Linear fluid (dielectric constant: 64) occupying 0.882397 of unit cell:	Completed after 17 iterations at t[s]:    403.15
	Linear fluid (dielectric constant: 64) occupying 0.882392 of unit cell:	Completed after 3 iterations at t[s]:    403.95
	FillingsUpdate:  mu: -0.042904119  nElectrons: 432.000000
	SubspaceRotationAdjust: set factor to 18.2
ElecMinimize: Iter:  89  F: -1632.208857130226079  |grad|_K:  7.371e-06  alpha:  2.466e-02  linmin: -1.122e-05  t[s]:    405.02
	Linear fluid (dielectric constant: 64) occupying 0.882322 of unit cell:	Completed after 19 iterations at t[s]:    405.94
	Linear fluid (dielectric constant: 64) occupying 0.882331 of unit cell:	Completed after 3 iterations at t[s]:    406.74
	FillingsUpdate:  mu: -0.043187167  nElectrons: 432.000000
	SubspaceRotationAdjust: set factor to 20.3
ElecMinimize: Iter:  90  F: -1632.208898936569540  |grad|_K:  6.905e-06  alpha:  2.153e-02  linmin:  4.967e-06  t[s]:    407.82
	Linear fluid (dielectric constant: 64) occupying 0.882308 of unit cell:	Completed after 9 iterations at t[s]:    408.64
	Linear fluid (dielectric constant: 64) occupying 0.882308 of unit cell:	Completed after 0 iterations at t[s]:    409.42
	FillingsUpdate:  mu: -0.043212245  nElectrons: 432.000000
	SubspaceRotationAdjust: set factor to 21.5
ElecMinimize: Iter:  91  F: -1632.208936643702145  |grad|_K:  7.116e-06  alpha:  2.234e-02  linmin: -1.295e-05  t[s]:    410.50
	Linear fluid (dielectric constant: 64) occupying 0.882323 of unit cell:	Completed after 13 iterations at t[s]:    411.38
	Linear fluid (dielectric constant: 64) occupying 0.882323 of unit cell:	Completed after 0 iterations at t[s]:    412.13
	FillingsUpdate:  mu: -0.043004072  nElectrons: 432.000000
	SubspaceRotationAdjust: set factor to 21.2
ElecMinimize: Iter:  92  F: -1632.208978988528543  |grad|_K:  7.353e-06  alpha:  2.330e-02  linmin: -4.115e-05  t[s]:    413.18
	Linear fluid (dielectric constant: 64) occupying 0.882321 of unit cell:	Completed after 16 iterations at t[s]:    414.12
	Linear fluid (dielectric constant: 64) occupying 0.882322 of unit cell:	Completed after 4 iterations at t[s]:    414.93
	FillingsUpdate:  mu: -0.042934976  nElectrons: 432.000000
	SubspaceRotationAdjust: set factor to 22
ElecMinimize: Iter:  93  F: -1632.209016889815757  |grad|_K:  6.894e-06  alpha:  1.937e-02  linmin: -4.599e-06  t[s]:    415.99
	Linear fluid (dielectric constant: 64) occupying 0.882277 of unit cell:	Completed after 15 iterations at t[s]:    416.95
	Linear fluid (dielectric constant: 64) occupying 0.882269 of unit cell:	Completed after 4 iterations at t[s]:    417.73
	FillingsUpdate:  mu: -0.043243863  nElectrons: 432.000000
	SubspaceRotationAdjust: set factor to 19.7
ElecMinimize: Iter:  94  F: -1632.209055153132795  |grad|_K:  7.202e-06  alpha:  2.266e-02  linmin: -7.977e-07  t[s]:    418.81
	Linear fluid (dielectric constant: 64) occupying 0.882217 of unit cell:	Completed after 19 iterations at t[s]:    419.74
	Linear fluid (dielectric constant: 64) occupying 0.882228 of unit cell:	Completed after 5 iterations at t[s]:    420.54
	FillingsUpdate:  mu: -0.043517288  nElectrons: 432.000000
	SubspaceRotationAdjust: set factor to 20.4
ElecMinimize: Iter:  95  F: -1632.209088477190562  |grad|_K:  6.342e-06  alpha:  1.822e-02  linmin:  4.715e-06  t[s]:    421.60
	Linear fluid (dielectric constant: 64) occupying 0.882246 of unit cell:	Completed after 17 iterations at t[s]:    422.51
	Linear fluid (dielectric constant: 64) occupying 0.882249 of unit cell:	Completed after 3 iterations at t[s]:    423.30
	FillingsUpdate:  mu: -0.043457328  nElectrons: 432.000000
	SubspaceRotationAdjust: set factor to 19.9
ElecMinimize: Iter:  96  F: -1632.209118654554914  |grad|_K:  6.466e-06  alpha:  2.120e-02  linmin: -1.603e-05  t[s]:    424.36
	Linear fluid (dielectric constant: 64) occupying 0.882308 of unit cell:	Completed after 19 iterations at t[s]:    425.32
	Linear fluid (dielectric constant: 64) occupying 0.882308 of unit cell:	Completed after 0 iterations at t[s]:    426.05
	FillingsUpdate:  mu: -0.043265526  nElectrons: 432.000000
	SubspaceRotationAdjust: set factor to 19.9
ElecMinimize: Iter:  97  F: -1632.209150591648040  |grad|_K:  6.405e-06  alpha:  2.126e-02  linmin: -3.753e-05  t[s]:    427.12
	Linear fluid (dielectric constant: 64) occupying 0.882337 of unit cell:	Completed after 19 iterations at t[s]:    428.08
	Linear fluid (dielectric constant: 64) occupying 0.882336 of unit cell:	Completed after 0 iterations at t[s]:    428.84
	FillingsUpdate:  mu: -0.043321542  nElectrons: 432.000000
	SubspaceRotationAdjust: set factor to 21
ElecMinimize: Iter:  98  F: -1632.209180530882122  |grad|_K:  6.442e-06  alpha:  2.002e-02  linmin:  4.832e-05  t[s]:    429.88
	Linear fluid (dielectric constant: 64) occupying 0.882327 of unit cell:	Completed after 14 iterations at t[s]:    430.81
	Linear fluid (dielectric constant: 64) occupying 0.882325 of unit cell:	Completed after 4 iterations at t[s]:    431.59
	FillingsUpdate:  mu: -0.043622481  nElectrons: 432.000000
	SubspaceRotationAdjust: set factor to 18.6
ElecMinimize: Iter:  99  F: -1632.209214042433359  |grad|_K:  7.124e-06  alpha:  2.376e-02  linmin:  3.479e-05  t[s]:    432.66
	Linear fluid (dielectric constant: 64) occupying 0.882327 of unit cell:	Completed after 16 iterations at t[s]:    433.57
	Linear fluid (dielectric constant: 64) occupying 0.882328 of unit cell:	Completed after 4 iterations at t[s]:    434.41
	FillingsUpdate:  mu: -0.043792667  nElectrons: 432.000000
	SubspaceRotationAdjust: set factor to 19.6
ElecMinimize: Iter: 100  F: -1632.209245728872929  |grad|_K:  6.636e-06  alpha:  1.809e-02  linmin:  8.468e-06  t[s]:    435.47
ElecMinimize: None of the convergence criteria satisfied after 100 iterations.
Setting wave functions to eigenvectors of Hamiltonian
Single-point solvation energy estimate, DeltaF = -1.959926665206694

# Ionic positions in cartesian coordinates:
ion Ti   0.000000174975000  -0.000000174975000   2.000000000000000 0
ion Ti   4.340445422775000   4.340445072825000   4.795024053800001 0
ion Ti   0.000000174975000   8.680909217924999   2.000000000000000 0
ion Ti   4.340445422775000  13.021354465725000   4.795024053800001 0
ion Ti   0.000000174975000  17.361818610825001   2.000000000000000 0
ion Ti   4.340445422775000  21.702263858624999   4.795024053800001 0
ion Ti   8.680909567874998  -0.000000174975000   2.000000000000000 0
ion Ti  13.021354815675002   4.340445072825000   4.795024053800001 0
ion Ti   8.680909567874998   8.680909217924999   2.000000000000000 0
ion Ti  13.021354815675002  13.021354465725000   4.795024053800001 0
ion Ti   8.680909567874998  17.361818610825001   2.000000000000000 0
ion Ti  13.021364264325003  21.702263858624999   4.795024053800001 0
ion Ti  17.361818960775000  -0.000000174975000   2.000000000000000 0
ion Ti  21.702264208574999   4.340445072825000   4.795024053800001 0
ion Ti  17.361818960775000   8.680909217924999   2.000000000000000 0
ion Ti  21.702264208574999  13.021363914375000   4.795024053800001 0
ion Ti  17.361818960775000  17.361818610825001   2.000000000000000 0
ion Ti  21.702264208574999  21.702263858624999   4.795024053800001 0
ion O   2.650289808075000   2.650289458125000   2.000000000000000 0
ion O   6.030619934775000   6.030619584825001   2.000000000000000 0
ion O   1.690174686975000   6.990734705924999   4.795024053800001 0
ion O   6.990735055874999   1.690174337025000   4.795024053800001 0
ion O   2.650289808075000  11.331198851025000   2.000000000000000 0
ion O   6.030619934775000  14.711528977725004   2.000000000000000 0
ion O   1.690174686975000  15.671644098825000   4.795024053800001 0
ion O   6.990735055874999  10.371083729925001   4.795024053800001 0
ion O   2.650289808075000  20.012108243924999   2.000000000000000 0
ion O   6.030619934775000  23.392438370625001   2.000000000000000 0
ion O   1.690174686975000  24.352553491725004   4.795024053800001 0
ion O   6.990735055874999  19.051993122824996   4.795024053800001 0
ion O  11.331199200975000   2.650289458125000   2.000000000000000 0
ion O  14.711529327675001   6.030619584825001   2.000000000000000 0
ion O  10.371084079875001   6.990734705924999   4.795024053800001 0
ion O  15.671644448774998   1.690174337025000   4.795024053800001 0
ion O  11.331199200975000  11.331198851025000   2.000000000000000 0
ion O  14.711529327675001  14.711528977725004   2.000000000000000 0
ion O  10.371084079875001  15.671644098825000   4.795024053800001 0
ion O  15.671644448774998  10.371083729925001   4.795024053800001 0
ion O  11.331199200975000  20.012108243924999   2.000000000000000 0
ion O  14.711529327675001  23.392438370625001   2.000000000000000 0
ion O  10.371084079875001  24.352553491725004   4.795024053800001 0
ion O  15.671644448774998  19.051993122824996   4.795024053800001 0
ion O  20.012108593874995   2.650289458125000   2.000000000000000 0
ion O  23.392438720575004   6.030619584825001   2.000000000000000 0
ion O  19.051993472774999   6.990734705924999   4.795024053800001 0
ion O  24.352553841675000   1.690174337025000   4.795024053800001 0
ion O  20.012108593874995  11.331198851025000   2.000000000000000 0
ion O  23.392438720575004  14.711528977725004   2.000000000000000 0
ion O  19.051993472774999  15.671644098825000   4.795024053800001 0
ion O  24.352553841675000  10.371083729925001   4.795024053800001 0
ion O  20.012108593874995  20.012108243924999   2.000000000000000 0
ion O  23.392438720575004  23.392438370625001   2.000000000000000 0
ion O  19.051993472774999  24.352553491725004   4.795024053800001 0
ion O  24.352553841675000  19.051993122824996   4.795024053800001 0

# Forces in Cartesian coordinates:
force Ti   0.000004641105945   0.000004641105945   0.049200752377750 0
force Ti  -0.000020337607632  -0.000020337607632  -0.049840384173092 0
force Ti   0.000031053790800  -0.000078412931470   0.049236760298341 0
force Ti  -0.000068636740590   0.000007379420271  -0.049898153107028 0
force Ti   0.000015953539054  -0.000155996666909   0.049347459074287 0
force Ti  -0.000032937048576  -0.000159628979048  -0.049910123135659 0
force Ti  -0.000078412931470   0.000031053790800   0.049236760298341 0
force Ti   0.000007379420271  -0.000068636740590  -0.049898153107028 0
force Ti  -0.000050756295766  -0.000050756295766   0.049313869142198 0
force Ti  -0.000040919342115  -0.000040919342115  -0.049936877739763 0
force Ti  -0.000085273143936  -0.000118588517423   0.049395475609216 0
force Ti  -0.000016385677280  -0.000186328138737  -0.049944369135508 0
force Ti  -0.000155996666909   0.000015953539054   0.049347459074287 0
force Ti  -0.000159628979048  -0.000032937048576  -0.049910123135659 0
force Ti  -0.000118588517423  -0.000085273143936   0.049395475609216 0
force Ti  -0.000186328138737  -0.000016385677280  -0.049944369135508 0
force Ti  -0.000136999101316  -0.000136999101316   0.049493980838479 0
force Ti  -0.000169746967279  -0.000169746967279  -0.049934830093306 0
force O  -0.013559808087173  -0.013559808087173  -0.002792564683080 0
force O   0.013725971053428   0.013725971053428  -0.002791244229457 0
force O   0.012854314336485  -0.012823282126554   0.001358636732796 0
force O  -0.012823282126554   0.012854314336485   0.001358636732796 0
force O  -0.013604059039503  -0.013632758132746  -0.002807785189769 0
force O   0.013729397903036   0.013720700660083  -0.002792646084800 0
force O   0.012842795643199  -0.012853757300282   0.001359681098196 0
force O  -0.012752336413209   0.012767346819101   0.001358960712261 0
force O  -0.013603698533177  -0.013653042689337  -0.002774239424905 0
force O   0.013684204051580   0.013607461025471  -0.002847817068208 0
force O   0.012928095541537  -0.012999187477848   0.001350499733255 0
force O  -0.012746109476526   0.012724107414123   0.001339252133498 0
force O  -0.013632758132746  -0.013604059039503  -0.002807785189769 0
force O   0.013720700660083   0.013729397903036  -0.002792646084800 0
force O   0.012767346819101  -0.012752336413209   0.001358960712261 0
force O  -0.012853757300282   0.012842795643199   0.001359681098196 0
force O  -0.013672768579062  -0.013672768579062  -0.002812929777037 0
force O   0.013721106570572   0.013721106570572  -0.002778859789935 0
force O   0.012752345790115  -0.012780039207320   0.001373216281333 0
force O  -0.012780039207320   0.012752345790115   0.001373216281333 0
force O  -0.013671719827609  -0.013689488541435  -0.002783839788768 0
force O   0.013677912110668   0.013611920938512  -0.002843601315881 0
force O   0.012842222712773  -0.012928179647312   0.001366243984237 0
force O  -0.012773499006133   0.012713371900717   0.001342016133111 0
force O  -0.013653042689337  -0.013603698533177  -0.002774239424905 0
force O   0.013607461025471   0.013684204051580  -0.002847817068208 0
force O   0.012724107414123  -0.012746109476526   0.001339252133498 0
force O  -0.012999187477848   0.012928095541537   0.001350499733255 0
force O  -0.013689488541435  -0.013671719827609  -0.002783839788768 0
force O   0.013611920938512   0.013677912110668  -0.002843601315881 0
force O   0.012713371900717  -0.012773499006133   0.001342016133111 0
force O  -0.012928179647312   0.012842222712773   0.001366243984237 0
force O  -0.013687542396728  -0.013687542396728  -0.002747645212311 0
force O   0.013560116499697   0.013560116499697  -0.002901417940649 0
force O   0.012796006119513  -0.012920268221506   0.001337306126598 0
force O  -0.012920268221506   0.012796006119513   0.001337306126598 0

# Energy components:
   A_diel =       -5.2246865936971316
   Eewald =     8354.2633265844815469
       EH =     9619.1965475941524346
     Eloc =   -19996.1411584284396667
      Enl =      176.4301259049303781
      Exc =     -289.9976147907771633
 Exc_core =       25.9114347426842002
       KE =      483.5248763712853020
-------------------------------------
     Etot =    -1632.0371486153826481
       TS =        0.1720971134902269
-------------------------------------
        F =    -1632.2092457288729292

IonicMinimize: Iter:   0  F: -1632.209245728872929  |grad|_K:  0.000e+00  alpha:  1.000e+00
IonicMinimize: Converged (|grad|_K<1.000000e-04).

#--- Lowdin population analysis ---
# oxidation-state Ti +2.208 +2.231 +2.209 +2.231 +2.209 +2.231 +2.209 +2.231 +2.210 +2.231 +2.210 +2.231 +2.209 +2.231 +2.210 +2.231 +2.210 +2.231
# oxidation-state O -0.950 -0.950 -0.948 -0.948 -0.950 -0.950 -0.948 -0.948 -0.950 -0.950 -0.948 -0.948 -0.950 -0.950 -0.948 -0.948 -0.950 -0.950 -0.948 -0.948 -0.950 -0.949 -0.948 -0.948 -0.950 -0.950 -0.948 -0.948 -0.950 -0.949 -0.948 -0.948 -0.950 -0.949 -0.948 -0.948


Dumping 'TiO2-PC.fillings' ... done
Dumping 'TiO2-PC.wfns' ... done
Dumping 'TiO2-PC.fluidState' ... done
Dumping 'TiO2-PC.ionpos' ... done
Dumping 'TiO2-PC.eigenvals' ... done
End date and time: Thu Sep 26 04:49:38 2024  (Duration: 0-0:07:18.29)
Done!
