
*************** JDFTx 1.7.0  ***************

Start date and time: Fri Sep 27 05:10:24 2024
Executable jdftx_gpu with command-line: -i /home/akim2/JDFTx/Na2S8@graphene-glyme/Na2S8@graphene-glyme.in -o /home/akim2/JDFTx/Na2S8@graphene-glyme/Na2S8@graphene-glyme.out
Running on hosts (process indices):  exp-2-60 (0)
Divided in process groups (process indices):  0 (0)
gpuInit: Found compatible cuda device 0 'Tesla V100-SXM2-32GB'
gpuInit: Selected device 0
Resource initialization completed at t[s]:      0.40
Run totals: 1 processes, 1 threads, 1 GPUs


Input parsed successfully to the following command list (including defaults):

basis kpoint-dependent
coords-type Cartesian
core-overlap-check vector
coulomb-interaction Slab 001
coulomb-truncation-embed 0 0 6
davidson-band-ratio 1.1
dump End State
dump Ionic State
dump-interval Ionic 5
dump-name Na2S8@graphene-glyme.$VAR
elec-cutoff 20 100
elec-eigen-algo Davidson
elec-ex-corr gga-PBE
elec-smearing Fermi 0.01
electronic-minimize  \
	dirUpdateScheme      FletcherReeves \
	linminMethod         DirUpdateRecommended \
	nIterations          100 \
	history              15 \
	knormThreshold       0 \
	energyDiffThreshold  1e-08 \
	nEnergyDiff          2 \
	alphaTstart          1 \
	alphaTmin            1e-10 \
	updateTestStepSize   yes \
	alphaTreduceFactor   0.1 \
	alphaTincreaseFactor 3 \
	nAlphaAdjustMax      3 \
	wolfeEnergy          0.0001 \
	wolfeGradient        0.9 \
	fdTest               no
electronic-scf  \
	nIterations	50 \
	energyDiffThreshold	1e-08 \
	residualThreshold	1e-07 \
	mixFraction	0.5 \
	qMetric	0.8 \
	history	10 \
	nEigSteps	2 \
	eigDiffThreshold	1e-08 \
	mixedVariable	Density \
	qKerker	0.8 \
	qKappa	-1 \
	verbose	no \
	mixFractionMag	1.5
exchange-regularization WignerSeitzTruncated
fluid LinearPCM 298.000000 1.013250
fluid-ex-corr lda-TF lda-PZ
fluid-gummel-loop 10 1.000000e-05
fluid-minimize  \
	dirUpdateScheme      PolakRibiere \
	linminMethod         DirUpdateRecommended \
	nIterations          400 \
	history              15 \
	knormThreshold       1e-11 \
	energyDiffThreshold  0 \
	nEnergyDiff          2 \
	alphaTstart          1 \
	alphaTmin            1e-10 \
	updateTestStepSize   yes \
	alphaTreduceFactor   0.1 \
	alphaTincreaseFactor 3 \
	nAlphaAdjustMax      6 \
	wolfeEnergy          0.0001 \
	wolfeGradient        0.9 \
	fdTest               no
fluid-solvent Glyme 9.62137 ScalarEOS \
	epsBulk 7.2 \
	pMol 0 \
	epsInf 1.9 \
	Pvap 0 \
	sigmaBulk 0 \
	Rvdw 0 \
	Res 0 \
	tauNuc 343133
forces-output-coords Positions
ion C  28.005798599999999   0.000000000000000   0.897300000000001 0
ion C  16.336715849999997  20.211437139299999   0.897300000000001 0
ion C   2.333816549999999   4.042283648400000   0.897300000000001 0
ion C  23.338165499999999   0.000000000000000   0.897300000000001 0
ion C   4.667633100000000   0.000000000000000   0.897300000000001 0
ion C  11.669082749999999  20.211437139299999   0.897300000000001 0
ion C  25.671982050000000   4.042283648400000   0.897300000000001 0
ion C  18.670532399999999  16.169153490900001   0.897300000000001 0
ion C   4.667633099999997   8.084586194100000   0.897300000000001 0
ion C  18.670532399999999   0.000000000000000   0.897300000000001 0
ion C   9.335266200000000   0.000000000000000   0.897300000000001 0
ion C   9.335266200000001  16.169153490900001   0.897300000000001 0
ion C  23.338165500000002   8.084586194100000   0.897300000000001 0
ion C  21.004348950000001  12.126869842500000   0.897300000000001 0
ion C   7.001449649999998  12.126869842500000   0.897300000000001 0
ion C  14.002899299999999   0.000000000000000   0.897300000000001 0
ion C  14.002899299999997  16.169153490900001   0.897300000000001 0
ion C   7.001449650000000   4.042283648400000   0.897300000000001 0
ion C  21.004348950000001   4.042283648400000   0.897300000000001 0
ion C  16.336715849999997  12.126869842500000   0.897300000000001 0
ion C   9.335266200000000   8.084586194100000   0.897300000000001 0
ion C  16.336715849999994   4.042283648400000   0.897300000000001 0
ion C  11.669082749999999   4.042283648400000   0.897300000000001 0
ion C  11.669082749999999  12.126869842500000   0.897300000000001 0
ion C  18.670532399999988   8.084586194100000   0.897300000000001 0
ion C   7.001449650000000  20.211437139299999   0.897300000000001 0
ion C  -7.001449650000000  20.211437139299999   0.897300000000001 0
ion C   0.000000000000000   8.084586194100000   0.897300000000001 0
ion C  14.002899299999999   8.084586194100000   0.897300000000001 0
ion C   2.333816550000000  20.211437139299999   0.897300000000001 0
ion C  -4.667633100000000  16.169153490900001   0.897300000000001 0
ion C   2.333816550000000  12.126869842500000   0.897300000000001 0
ion C  -2.333816549999999  12.126869842500000   0.897300000000001 0
ion C  -2.333816549999998  20.211437139299999   0.897300000000001 0
ion C   4.667633099999998  16.169153490900001   0.897300000000001 0
ion C   0.000000000000000  16.169153490900001   0.897300000000001 0
ion C  14.002880402700006  21.558890218500000   0.897300000000001 0
ion C   2.333816549999999   1.347415284600000   0.897300000000001 0
ion C  25.672000947299999   1.347434181900000   0.897300000000001 0
ion C  16.336696952700002  17.516587672800000   0.897300000000001 0
ion C   4.667633100000000   5.389698933000000   0.897300000000001 0
ion C  21.004367847299999   1.347434181900000   0.897300000000001 0
ion C   7.001430752700000   1.347434181900000   0.897300000000001 0
ion C  11.669101647299998  17.516587672800000   0.897300000000001 0
ion C  23.338165499999999   5.389698933000000   0.897300000000001 0
ion C  18.670513502700000  13.474304024400000   0.897300000000001 0
ion C   7.001449649999999   9.432001478699998   0.897300000000001 0
ion C  16.336734747299996   1.347434181900000   0.897300000000001 0
ion C  11.669063852700001   1.347434181900000   0.897300000000001 0
ion C   9.335285097299998  13.474304024400000   0.897300000000001 0
ion C  21.004348950000001   9.432001478699998   0.897300000000001 0
ion C   9.335247302699999  21.558890218500000   0.897300000000001 0
ion C  -9.335266200000000  21.558871321199998   0.897300000000001 0
ion C   0.000018897300000   5.389717830300000   0.897300000000001 0
ion C  14.002880402699990  13.474304024400000   0.897300000000001 0
ion C   9.335266200000000   5.389698933000000   0.897300000000001 0
ion C  18.670551297300001   5.389717830300000   0.897300000000001 0
ion C  16.336696952699999   9.432020376000001   0.897300000000001 0
ion C  11.669082750000001   9.432001478699998   0.897300000000001 0
ion C  14.002918197299991   5.389717830300000   0.897300000000001 0
ion C   4.667614202699999  21.558890218500000   0.897300000000001 0
ion C  -7.001449650000000  17.516568775499998   0.897300000000001 0
ion C   2.333835447300000   9.432020376000001   0.897300000000001 0
ion C  -2.333835447300000   9.432020376000001   0.897300000000001 0
ion C  -4.667614202700001  21.558890218500000   0.897300000000001 0
ion C   7.001449650000000  17.516568775499998   0.897300000000001 0
ion C  -0.000018897300000  21.558890218500000   0.897300000000001 0
ion C  -4.667633100000000  13.474285127100000   0.897300000000001 0
ion C   4.667651997299994  13.474304024400000   0.897300000000001 0
ion C   2.333797652700000  17.516587672800000   0.897300000000001 0
ion C  -2.333816549999999  17.516568775499998   0.897300000000001 0
ion C   0.000018897299999  13.474304024400000   0.897300000000001 0
ion S   4.449104293970800  11.462992905480981   8.674214740549475 1
ion S   4.967234593340783   8.145870437991139  11.463835063486414 1
ion S   6.223121967217237   9.607348830851933  14.625366516119843 1
ion S  11.321734681986751   5.890406970961506   8.996354369662413 1
ion S  14.996500152864940   6.831207125344372   8.551942688508746 1
ion S  16.311055088028333   9.045156214394455  11.280577488389619 1
ion S   6.583687050503215  14.239634229436117  10.182798887371305 1
ion S  10.319470191335972  13.795756203366127   9.279273454853577 1
ion Na  11.214039145585122   9.817404191830846  12.753743155532616 1
ion Na   9.080575753304295   9.786984084390392   6.207309018664454 1
ion-species GBRV/$ID_pbe.uspp
ion-width Ecut
ionic-minimize  \
	dirUpdateScheme      FletcherReeves \
	linminMethod         DirUpdateRecommended \
	nIterations          200 \
	history              15 \
	knormThreshold       0.0001 \
	energyDiffThreshold  1e-06 \
	nEnergyDiff          2 \
	alphaTstart          1 \
	alphaTmin            1e-10 \
	updateTestStepSize   yes \
	alphaTreduceFactor   0.1 \
	alphaTincreaseFactor 3 \
	nAlphaAdjustMax      3 \
	wolfeEnergy          0.0001 \
	wolfeGradient        0.9 \
	fdTest               no
kpoint   0.000000000000   0.000000000000   0.000000000000  1.00000000000000
kpoint-folding 1 1 1 
latt-move-scale 1 1 1
latt-scale 1 1 1 
lattice Triclinic 28.0058 28.0058 37.7946 90 90 120
lattice-minimize  \
	dirUpdateScheme      L-BFGS \
	linminMethod         DirUpdateRecommended \
	nIterations          0 \
	history              15 \
	knormThreshold       0 \
	energyDiffThreshold  1e-06 \
	nEnergyDiff          2 \
	alphaTstart          1 \
	alphaTmin            1e-10 \
	updateTestStepSize   yes \
	alphaTreduceFactor   0.1 \
	alphaTincreaseFactor 3 \
	nAlphaAdjustMax      3 \
	wolfeEnergy          0.0001 \
	wolfeGradient        0.9 \
	fdTest               no
lcao-params -1 1e-06 0.01
pcm-variant GLSSA13
spintype no-spin
subspace-rotation-factor 1 yes
symmetries automatic
symmetry-threshold 0.0001



---------- Setting up symmetries ----------

Found 24 point-group symmetries of the bravais lattice
Found 1 space-group symmetries with basis
Applied RMS atom displacement 0 bohrs to make symmetries exact.

---------- Initializing the Grid ----------
R = 
[      28.0058     -14.0029            0  ]
[            0      24.2537            0  ]
[            0            0      37.7946  ]
unit cell volume = 25671.8
G =
[   0.224353    0.12953         -0  ]
[          0   0.259061          0  ]
[          0         -0   0.166246  ]
Minimum fftbox size, Smin = [  128  128  172  ]
Chosen fftbox size, S = [  128  128  180  ]

---------- Initializing tighter grid for wavefunction operations ----------
R = 
[      28.0058     -14.0029            0  ]
[            0      24.2537            0  ]
[            0            0      37.7946  ]
unit cell volume = 25671.8
G =
[   0.224353    0.12953         -0  ]
[          0   0.259061          0  ]
[          0         -0   0.166246  ]
Minimum fftbox size, Smin = [  116  116  156  ]
Chosen fftbox size, S = [  120  120  160  ]

---------- Exchange Correlation functional ----------
Initalized PBE GGA exchange.
Initalized PBE GGA correlation.

---------- Setting up pseudopotentials ----------
Width of ionic core gaussian charges (only for fluid interactions / plotting) set to 0.397384

Reading pseudopotential file '/home/akim2/jdftx_install/build/pseudopotentials/GBRV/c_pbe.uspp':
  Title: C.  Created by USPP 7.3.6 on 3-2-2014
  Reference state energy: -5.406344.  4 valence electrons in orbitals:
    |200>  occupation: 2  eigenvalue: -0.504890
    |210>  occupation: 2  eigenvalue: -0.194356
  lMax: 1  lLocal: 2  QijEcut: 5
  4 projectors sampled on a log grid with 503 points:
    l: 0  eig: -0.504890  rCut: 1.3
    l: 0  eig: 0.000000  rCut: 1.3
    l: 1  eig: -0.194357  rCut: 1.3
    l: 1  eig: 0.000000  rCut: 1.3
  Partial core density with radius 1.1
  Transforming core density to a uniform radial grid of dG=0.02 with 1625 points.
  Transforming local potential to a uniform radial grid of dG=0.02 with 1625 points.
  Transforming nonlocal projectors to a uniform radial grid of dG=0.02 with 432 points.
  Transforming density augmentations to a uniform radial grid of dG=0.02 with 1625 points.
  Transforming atomic orbitals to a uniform radial grid of dG=0.02 with 432 points.
  Core radius for overlap checks: 1.30 bohrs.

Reading pseudopotential file '/home/akim2/jdftx_install/build/pseudopotentials/GBRV/s_pbe.uspp':
  Title: S.  Created by USPP 7.3.6 on 1-4-15
  Reference state energy: -11.898476.  6 valence electrons in orbitals:
    |300>  occupation: 2  eigenvalue: -0.634167
    |310>  occupation: 4  eigenvalue: -0.257568
  lMax: 2  lLocal: 3  QijEcut: 6
  6 projectors sampled on a log grid with 635 points:
    l: 0  eig: -0.634161  rCut: 1.5
    l: 0  eig: 1.500000  rCut: 1.5
    l: 1  eig: -0.257567  rCut: 1.5
    l: 1  eig: 1.500000  rCut: 1.5
    l: 2  eig: -1.000000  rCut: 1.5
    l: 2  eig: 1.500000  rCut: 1.5
  Partial core density with radius 1.15
  Transforming core density to a uniform radial grid of dG=0.02 with 1625 points.
  Transforming local potential to a uniform radial grid of dG=0.02 with 1625 points.
  Transforming nonlocal projectors to a uniform radial grid of dG=0.02 with 432 points.
  Transforming density augmentations to a uniform radial grid of dG=0.02 with 1625 points.
  Transforming atomic orbitals to a uniform radial grid of dG=0.02 with 432 points.
  Core radius for overlap checks: 1.50 bohrs.

Reading pseudopotential file '/home/akim2/jdftx_install/build/pseudopotentials/GBRV/na_pbe.uspp':
  Title: Na.  Created by USPP 7.3.6 on 23-9-15
  Reference state energy: -47.625620.  9 valence electrons in orbitals:
    |200>  occupation: 2  eigenvalue: -2.085638
    |210>  occupation: 6  eigenvalue: -1.053708
    |300>  occupation: 1  eigenvalue: -0.100838
  lMax: 2  lLocal: 0  QijEcut: 6
  5 projectors sampled on a log grid with 657 points:
    l: 0  eig: -2.085640  rCut: 1.37
    l: 0  eig: -0.100839  rCut: 1.37
    l: 1  eig: -1.053708  rCut: 1.47
    l: 1  eig: 0.500000  rCut: 1.47
    l: 2  eig: 0.750000  rCut: 2
  Transforming local potential to a uniform radial grid of dG=0.02 with 1625 points.
  Transforming nonlocal projectors to a uniform radial grid of dG=0.02 with 432 points.
  Transforming density augmentations to a uniform radial grid of dG=0.02 with 1625 points.
  Transforming atomic orbitals to a uniform radial grid of dG=0.02 with 432 points.
  Core radius for overlap checks: 2.00 bohrs.

Initialized 3 species with 82 total atoms.

Folded 1 k-points by 1x1x1 to 1 k-points.

---------- Setting up k-points, bands, fillings ----------
No reducable k-points. 
Computing the number of bands and number of electrons
Calculating initial fillings.
nElectrons: 354.000000   nBands: 330   nStates: 1

----- Setting up reduced wavefunction bases (one per k-point) -----
average nbasis = 109673.000 , ideal nbasis = 109671.883

---------- Setting up coulomb interaction ----------
Fluid mode embedding: using embedded box, but periodic Coulomb kernel.
(Fluid response is responsible for (approximate) separation between periodic images.)
Setting up double-sized grid for truncated Coulomb potentials:
R = 
[      28.0058     -14.0029            0  ]
[            0      24.2537            0  ]
[            0            0      75.5892  ]
unit cell volume = 51343.6
G =
[   0.224353    0.12953         -0  ]
[          0   0.259061          0  ]
[          0         -0  0.0831228  ]
Chosen fftbox size, S = [  128  128  360  ]
Integer grid location selected as the embedding center:
   Grid: [  0  0  29  ]
   Lattice: [  0  0  0.158753  ]
   Cartesian: [  0  0  6  ]
Constructing Wigner-Seitz cell: 8 faces (6 quadrilaterals, 2 hexagons)
Range-separation parameter for embedded mesh potentials due to point charges: 0.590105 bohrs.

---------- Setting up ewald sum ----------
Optimum gaussian width for ewald sums = 7.113825 bohr.
Real space sum over 405 unit cells with max indices [  4  4  2  ]
Reciprocal space sum over 8325 terms with max indices [  7  7  18  ]

---------- Allocating electronic variables ----------
Initializing wave functions:  linear combination of atomic orbitals
C pseudo-atom occupations:   s ( 2 )  p ( 2 )
S pseudo-atom occupations:   s ( 2 )  p ( 4 )
Na pseudo-atom occupations:   s ( 2 1 )  p ( 6 )
	FillingsUpdate:  mu: -0.103726710  nElectrons: 354.000000
LCAOMinimize: Iter:   0  F: -582.7594177717007824  |grad|_K:  1.148e-02  alpha:  1.000e+00
	FillingsUpdate:  mu: -0.242777567  nElectrons: 354.000000
LCAOMinimize: Iter:   1  F: -583.7374924462422996  |grad|_K:  5.454e-03  alpha:  1.505e-01  linmin:  7.225e-02  cgtest: -9.146e-01  t[s]:      8.52
LCAOMinimize: 	Bad step direction: g.d > 0.
LCAOMinimize: 	Undoing step.
LCAOMinimize: 	Step failed: resetting search direction.
	FillingsUpdate:  mu: -0.242777567  nElectrons: 354.000000
LCAOMinimize: Iter:   2  F: -583.7374924462422996  |grad|_K:  5.454e-03  alpha:  0.000e+00
	FillingsUpdate:  mu: -0.221035139  nElectrons: 354.000000
LCAOMinimize: Iter:   3  F: -584.0435377884205082  |grad|_K:  1.768e-03  alpha:  1.064e-01  linmin: -2.320e-02  cgtest: -5.938e-01  t[s]:     11.83
	FillingsUpdate:  mu: -0.221722466  nElectrons: 354.000000
LCAOMinimize: Iter:   4  F: -584.0477354265257190  |grad|_K:  1.801e-03  alpha:  1.987e-02  linmin: -2.164e-02  cgtest:  8.440e-01  t[s]:     13.73
LCAOMinimize: 	Predicted alpha/alphaT>3.000000, increasing alphaT to 5.961942e-02.
	FillingsUpdate:  mu: -0.220611160  nElectrons: 354.000000
LCAOMinimize: Iter:   5  F: -584.0662270059893899  |grad|_K:  1.179e-03  alpha:  1.474e-01  linmin:  1.511e-01  cgtest: -5.082e-01  t[s]:     16.17
LCAOMinimize: 	Bad step direction: g.d > 0.
LCAOMinimize: 	Undoing step.
LCAOMinimize: 	Step failed: resetting search direction.
	FillingsUpdate:  mu: -0.220611160  nElectrons: 354.000000
LCAOMinimize: Iter:   6  F: -584.0662270059893899  |grad|_K:  1.179e-03  alpha:  0.000e+00
	FillingsUpdate:  mu: -0.225255690  nElectrons: 354.000000
LCAOMinimize: Iter:   7  F: -584.0740552221585631  |grad|_K:  3.900e-04  alpha:  1.051e-01  linmin: -4.100e-03  cgtest: -2.169e-02  t[s]:     19.38
	FillingsUpdate:  mu: -0.223031923  nElectrons: 354.000000
LCAOMinimize: Iter:   8  F: -584.0764386386053957  |grad|_K:  5.040e-04  alpha:  2.803e-01  linmin: -2.385e-03  cgtest:  6.247e-03  t[s]:     21.40
	FillingsUpdate:  mu: -0.223752787  nElectrons: 354.000000
LCAOMinimize: Iter:   9  F: -584.0784015315051647  |grad|_K:  1.862e-04  alpha:  1.328e-01  linmin: -4.377e-03  cgtest: -2.943e-02  t[s]:     23.40
	FillingsUpdate:  mu: -0.224012276  nElectrons: 354.000000
LCAOMinimize: Iter:  10  F: -584.0787458846481286  |grad|_K:  1.047e-04  alpha:  1.782e-01  linmin:  9.216e-04  cgtest: -1.439e-02  t[s]:     25.37
	FillingsUpdate:  mu: -0.224101004  nElectrons: 354.000000
LCAOMinimize: Iter:  11  F: -584.0788721771865539  |grad|_K:  3.307e-05  alpha:  2.116e-01  linmin:  1.576e-03  cgtest:  4.767e-02  t[s]:     27.34
	FillingsUpdate:  mu: -0.224046255  nElectrons: 354.000000
LCAOMinimize: Iter:  12  F: -584.0788775071447390  |grad|_K:  1.701e-05  alpha:  8.943e-02  linmin:  3.799e-04  cgtest:  1.402e-03  t[s]:     29.27
	FillingsUpdate:  mu: -0.224081564  nElectrons: 354.000000
LCAOMinimize: Iter:  13  F: -584.0788815903295017  |grad|_K:  1.636e-05  alpha:  2.582e-01  linmin:  1.256e-04  cgtest: -3.426e-03  t[s]:     31.24
	FillingsUpdate:  mu: -0.224117268  nElectrons: 354.000000
LCAOMinimize: Iter:  14  F: -584.0788842775664307  |grad|_K:  7.992e-06  alpha:  1.836e-01  linmin: -1.115e-05  cgtest:  2.464e-03  t[s]:     33.29
	FillingsUpdate:  mu: -0.224124695  nElectrons: 354.000000
LCAOMinimize: Iter:  15  F: -584.0788850719379752  |grad|_K:  4.148e-06  alpha:  2.271e-01  linmin:  5.523e-05  cgtest:  2.516e-05  t[s]:     35.28
	FillingsUpdate:  mu: -0.224119740  nElectrons: 354.000000
LCAOMinimize: Iter:  16  F: -584.0788851611883956  |grad|_K:  2.060e-06  alpha:  9.471e-02  linmin:  4.438e-05  cgtest:  2.582e-04  t[s]:     37.26
LCAOMinimize: Converged (|Delta F|<1.000000e-06 for 2 iters).
----- createFluidSolver() ----- (Fluid-side solver setup)
   Initializing fluid molecule 'Glyme'
     Net charge: 0   dipole magnitude: 0
     Initializing spherical shell mfKernel with radius 0 Bohr
     deltaS corrections:

Correction to mu due to finite nuclear width = -0.00684095
   Cavity determined by nc: 8.36e-05 and sigma: 0.6
   Effective cavity tension: -8.03e-06 Eh/bohr^2 to account for cavitation and dispersion.


---- Citations for features of the code used in this run ----

   Software package:
      R. Sundararaman, K. Letchworth-Weaver, K.A. Schwarz, D. Gunceler, Y. Ozhabes and T.A. Arias, 'JDFTx: software for joint density-functional theory', SoftwareX 6, 278 (2017)

   gga-PBE exchange-correlation functional:
      J.P. Perdew, K. Burke and M. Ernzerhof, Phys. Rev. Lett. 77, 3865 (1996)

   Pseudopotentials:
      KF Garrity, JW Bennett, KM Rabe and D Vanderbilt, Comput. Mater. Sci. 81, 446 (2014)

   Truncated Coulomb potentials:
      R. Sundararaman and T.A. Arias, Phys. Rev. B 87, 165122 (2013)

   Linear/nonlinear dielectric/ionic fluid model with effective cavity tension:
      D. Gunceler, K. Letchworth-Weaver, R. Sundararaman, K.A. Schwarz and T.A. Arias, Modelling Simul. Mater. Sci. Eng. 21, 074005 (2013)

This list may not be complete. Please suggest additional citations or
report any other bugs at https://github.com/shankar1729/jdftx/issues

Initialization completed successfully at t[s]:     37.46

Fluid solver invoked on fresh (random / LCAO) wavefunctions
Running a vacuum solve first:

-------- Initial electronic minimization -----------
Will mix electronic density at each iteration.
	FillingsUpdate:  mu: -0.224119740  nElectrons: 354.000000
	FillingsUpdate:  mu: -0.232377657  nElectrons: 354.000000
SCF: Cycle:  0   F: -587.777034603018933   dF: -3.698e+00   |Residual|: 1.002e+00   |deigs|: 1.298e-01  t[s]:     42.74
	FillingsUpdate:  mu: -0.207687635  nElectrons: 354.000000
SCF: Cycle:  1   F: -588.390823358189778   dF: -6.138e-01   |Residual|: 5.075e-01   |deigs|: 3.363e-02  t[s]:     46.72
	FillingsUpdate:  mu: -0.177038394  nElectrons: 354.000000
SCF: Cycle:  2   F: -588.794208342060529   dF: -4.034e-01   |Residual|: 1.283e-01   |deigs|: 3.023e-02  t[s]:     50.64
	FillingsUpdate:  mu: -0.170290677  nElectrons: 354.000000
SCF: Cycle:  3   F: -588.796867020494574   dF: -2.659e-03   |Residual|: 8.005e-02   |deigs|: 8.385e-03  t[s]:     54.48
	FillingsUpdate:  mu: -0.162389491  nElectrons: 354.000000
SCF: Cycle:  4   F: -588.848873006821350   dF: -5.201e-02   |Residual|: 4.461e-02   |deigs|: 7.360e-03  t[s]:     58.49
	FillingsUpdate:  mu: -0.155050921  nElectrons: 354.000000
SCF: Cycle:  5   F: -588.865367222265718   dF: -1.649e-02   |Residual|: 3.188e-02   |deigs|: 7.298e-03  t[s]:     62.43
	FillingsUpdate:  mu: -0.150343555  nElectrons: 354.000000
SCF: Cycle:  6   F: -588.874827734824862   dF: -9.461e-03   |Residual|: 2.206e-02   |deigs|: 4.412e-03  t[s]:     66.23
	FillingsUpdate:  mu: -0.147057126  nElectrons: 354.000000
SCF: Cycle:  7   F: -588.880268234500249   dF: -5.440e-03   |Residual|: 1.668e-02   |deigs|: 3.091e-03  t[s]:     69.76
	FillingsUpdate:  mu: -0.143227545  nElectrons: 354.000000
SCF: Cycle:  8   F: -588.882863153141216   dF: -2.595e-03   |Residual|: 1.129e-02   |deigs|: 4.138e-03  t[s]:     73.47
	FillingsUpdate:  mu: -0.141187602  nElectrons: 354.000000
SCF: Cycle:  9   F: -588.883355593279589   dF: -4.924e-04   |Residual|: 9.736e-03   |deigs|: 2.296e-03  t[s]:     76.77
	FillingsUpdate:  mu: -0.139013976  nElectrons: 354.000000
SCF: Cycle: 10   F: -588.883713823965195   dF: -3.582e-04   |Residual|: 7.214e-03   |deigs|: 2.181e-03  t[s]:     80.25
	FillingsUpdate:  mu: -0.137621847  nElectrons: 354.000000
SCF: Cycle: 11   F: -588.883799951522178   dF: -8.613e-05   |Residual|: 5.641e-03   |deigs|: 1.203e-03  t[s]:     83.63
	FillingsUpdate:  mu: -0.135044486  nElectrons: 354.000000
SCF: Cycle: 12   F: -588.884008871336164   dF: -2.089e-04   |Residual|: 4.673e-03   |deigs|: 2.294e-03  t[s]:     86.98
	FillingsUpdate:  mu: -0.132217249  nElectrons: 354.000000
SCF: Cycle: 13   F: -588.884243788448885   dF: -2.349e-04   |Residual|: 3.749e-03   |deigs|: 2.859e-03  t[s]:     90.36
	FillingsUpdate:  mu: -0.130352743  nElectrons: 354.000000
SCF: Cycle: 14   F: -588.884382670512878   dF: -1.389e-04   |Residual|: 3.503e-03   |deigs|: 2.554e-03  t[s]:     93.78
	FillingsUpdate:  mu: -0.127284018  nElectrons: 354.000000
SCF: Cycle: 15   F: -588.884515325333609   dF: -1.327e-04   |Residual|: 2.799e-03   |deigs|: 3.074e-03  t[s]:     97.23
	FillingsUpdate:  mu: -0.125989243  nElectrons: 354.000000
SCF: Cycle: 16   F: -588.884563443412162   dF: -4.812e-05   |Residual|: 2.322e-03   |deigs|: 1.215e-03  t[s]:    100.54
	FillingsUpdate:  mu: -0.124264290  nElectrons: 354.000000
SCF: Cycle: 17   F: -588.884593660773476   dF: -3.022e-05   |Residual|: 1.707e-03   |deigs|: 1.795e-03  t[s]:    103.92
	FillingsUpdate:  mu: -0.123512155  nElectrons: 354.000000
SCF: Cycle: 18   F: -588.884605539863060   dF: -1.188e-05   |Residual|: 1.326e-03   |deigs|: 9.916e-04  t[s]:    107.31
	FillingsUpdate:  mu: -0.123092482  nElectrons: 354.000000
SCF: Cycle: 19   F: -588.884610219321758   dF: -4.679e-06   |Residual|: 9.195e-04   |deigs|: 7.186e-04  t[s]:    110.59
	FillingsUpdate:  mu: -0.123032824  nElectrons: 354.000000
SCF: Cycle: 20   F: -588.884613519388949   dF: -3.300e-06   |Residual|: 6.133e-04   |deigs|: 5.307e-04  t[s]:    114.02
	FillingsUpdate:  mu: -0.123050027  nElectrons: 354.000000
SCF: Cycle: 21   F: -588.884614769714176   dF: -1.250e-06   |Residual|: 4.671e-04   |deigs|: 3.132e-04  t[s]:    117.36
	FillingsUpdate:  mu: -0.122967216  nElectrons: 354.000000
SCF: Cycle: 22   F: -588.884614895406798   dF: -1.257e-07   |Residual|: 3.132e-04   |deigs|: 3.557e-04  t[s]:    120.81
	FillingsUpdate:  mu: -0.123002345  nElectrons: 354.000000
SCF: Cycle: 23   F: -588.884617674322953   dF: -2.779e-06   |Residual|: 2.422e-04   |deigs|: 2.805e-04  t[s]:    124.14
	FillingsUpdate:  mu: -0.122985249  nElectrons: 354.000000
SCF: Cycle: 24   F: -588.884619165755566   dF: -1.491e-06   |Residual|: 1.580e-04   |deigs|: 1.342e-04  t[s]:    127.47
	FillingsUpdate:  mu: -0.122979261  nElectrons: 354.000000
SCF: Cycle: 25   F: -588.884619758560120   dF: -5.928e-07   |Residual|: 1.255e-04   |deigs|: 1.568e-04  t[s]:    130.86
	FillingsUpdate:  mu: -0.122940579  nElectrons: 354.000000
SCF: Cycle: 26   F: -588.884619913732649   dF: -1.552e-07   |Residual|: 8.698e-05   |deigs|: 2.840e-04  t[s]:    134.19
	FillingsUpdate:  mu: -0.122956217  nElectrons: 354.000000
SCF: Cycle: 27   F: -588.884620005035686   dF: -9.130e-08   |Residual|: 6.661e-05   |deigs|: 1.308e-04  t[s]:    137.58
	FillingsUpdate:  mu: -0.122980346  nElectrons: 354.000000
SCF: Cycle: 28   F: -588.884620065577451   dF: -6.054e-08   |Residual|: 4.904e-05   |deigs|: 9.441e-05  t[s]:    140.93
	FillingsUpdate:  mu: -0.123008309  nElectrons: 354.000000
SCF: Cycle: 29   F: -588.884620099021276   dF: -3.344e-08   |Residual|: 3.713e-05   |deigs|: 1.116e-04  t[s]:    144.31
	FillingsUpdate:  mu: -0.123015523  nElectrons: 354.000000
SCF: Cycle: 30   F: -588.884620121508419   dF: -2.249e-08   |Residual|: 2.733e-05   |deigs|: 5.807e-05  t[s]:    147.68
	FillingsUpdate:  mu: -0.123012257  nElectrons: 354.000000
SCF: Cycle: 31   F: -588.884620136683907   dF: -1.518e-08   |Residual|: 1.936e-05   |deigs|: 6.460e-05  t[s]:    150.98
	FillingsUpdate:  mu: -0.123009562  nElectrons: 354.000000
SCF: Cycle: 32   F: -588.884620147398095   dF: -1.071e-08   |Residual|: 1.454e-05   |deigs|: 5.277e-05  t[s]:    154.46
	FillingsUpdate:  mu: -0.123007394  nElectrons: 354.000000
SCF: Cycle: 33   F: -588.884620153567539   dF: -6.169e-09   |Residual|: 1.186e-05   |deigs|: 3.952e-05  t[s]:    157.90
	FillingsUpdate:  mu: -0.123001906  nElectrons: 354.000000
SCF: Cycle: 34   F: -588.884620157165045   dF: -3.598e-09   |Residual|: 8.786e-06   |deigs|: 4.663e-05  t[s]:    161.27
SCF: Converged (|Delta E|<1.000000e-08 for 2 iters).

Setting wave functions to eigenvectors of Hamiltonian
Vacuum energy after initial minimize, F = -588.884620157165045


-------- Electronic minimization -----------
Will mix electronic density at each iteration.
	FillingsUpdate:  mu: -0.123001906  nElectrons: 354.000000
	Linear fluid (dielectric constant: 7.2) occupying 0.811297 of unit cell:	Completed after 14 iterations at t[s]:    162.24
	FillingsUpdate:  mu: -0.127765320  nElectrons: 354.000000
	Linear fluid (dielectric constant: 7.2) occupying 0.811129 of unit cell:	Completed after 11 iterations at t[s]:    167.02
SCF: Cycle:  0   F: -588.889139832854426   dF: +1.891e-02   |Residual|: 3.962e-02   |deigs|: 4.251e-04  t[s]:    167.20
	Linear fluid (dielectric constant: 7.2) occupying 0.811931 of unit cell:	Completed after 11 iterations at t[s]:    167.50
	FillingsUpdate:  mu: -0.126728886  nElectrons: 354.000000
	Linear fluid (dielectric constant: 7.2) occupying 0.811223 of unit cell:	Completed after 9 iterations at t[s]:    171.51
SCF: Cycle:  1   F: -588.909405044965069   dF: -2.027e-02   |Residual|: 1.580e-02   |deigs|: 1.965e-03  t[s]:    171.68
	Linear fluid (dielectric constant: 7.2) occupying 0.811982 of unit cell:	Completed after 9 iterations at t[s]:    171.90
	FillingsUpdate:  mu: -0.127033455  nElectrons: 354.000000
	Linear fluid (dielectric constant: 7.2) occupying 0.811350 of unit cell:	Completed after 10 iterations at t[s]:    175.47
SCF: Cycle:  2   F: -588.909353471333930   dF: +5.157e-05   |Residual|: 5.623e-03   |deigs|: 3.435e-04  t[s]:    175.65
	Linear fluid (dielectric constant: 7.2) occupying 0.812059 of unit cell:	Completed after 9 iterations at t[s]:    175.88
	FillingsUpdate:  mu: -0.127028646  nElectrons: 354.000000
	Linear fluid (dielectric constant: 7.2) occupying 0.811528 of unit cell:	Completed after 9 iterations at t[s]:    183.96
SCF: Cycle:  3   F: -588.910020076005821   dF: -6.666e-04   |Residual|: 3.612e-03   |deigs|: 5.362e-04  t[s]:    184.14
	Linear fluid (dielectric constant: 7.2) occupying 0.811900 of unit cell:	Completed after 8 iterations at t[s]:    188.80
	FillingsUpdate:  mu: -0.126989775  nElectrons: 354.000000
	Linear fluid (dielectric constant: 7.2) occupying 0.811669 of unit cell:	Completed after 8 iterations at t[s]:    192.92
SCF: Cycle:  4   F: -588.910321012346344   dF: -3.009e-04   |Residual|: 2.248e-03   |deigs|: 7.184e-04  t[s]:    193.09
	Linear fluid (dielectric constant: 7.2) occupying 0.811725 of unit cell:	Completed after 7 iterations at t[s]:    193.29
	FillingsUpdate:  mu: -0.126916080  nElectrons: 354.000000
	Linear fluid (dielectric constant: 7.2) occupying 0.811667 of unit cell:	Completed after 8 iterations at t[s]:    197.41
SCF: Cycle:  5   F: -588.910432027357274   dF: -1.110e-04   |Residual|: 1.895e-03   |deigs|: 5.491e-04  t[s]:    197.58
	Linear fluid (dielectric constant: 7.2) occupying 0.811547 of unit cell:	Completed after 7 iterations at t[s]:    197.79
	FillingsUpdate:  mu: -0.126813611  nElectrons: 354.000000
	Linear fluid (dielectric constant: 7.2) occupying 0.811600 of unit cell:	Completed after 8 iterations at t[s]:    201.88
SCF: Cycle:  6   F: -588.910521915420190   dF: -8.989e-05   |Residual|: 1.396e-03   |deigs|: 5.353e-04  t[s]:    202.06
	Linear fluid (dielectric constant: 7.2) occupying 0.811356 of unit cell:	Completed after 7 iterations at t[s]:    202.26
	FillingsUpdate:  mu: -0.126689175  nElectrons: 354.000000
	Linear fluid (dielectric constant: 7.2) occupying 0.811515 of unit cell:	Completed after 7 iterations at t[s]:    206.27
SCF: Cycle:  7   F: -588.910607340717547   dF: -8.543e-05   |Residual|: 1.052e-03   |deigs|: 3.633e-04  t[s]:    206.44
	Linear fluid (dielectric constant: 7.2) occupying 0.811122 of unit cell:	Completed after 7 iterations at t[s]:    206.65
	FillingsUpdate:  mu: -0.126630316  nElectrons: 354.000000
	Linear fluid (dielectric constant: 7.2) occupying 0.811468 of unit cell:	Completed after 6 iterations at t[s]:    210.73
SCF: Cycle:  8   F: -588.910664333974637   dF: -5.699e-05   |Residual|: 8.052e-04   |deigs|: 8.490e-04  t[s]:    210.89
	Linear fluid (dielectric constant: 7.2) occupying 0.811026 of unit cell:	Completed after 7 iterations at t[s]:    211.11
	FillingsUpdate:  mu: -0.126606557  nElectrons: 354.000000
	Linear fluid (dielectric constant: 7.2) occupying 0.811471 of unit cell:	Completed after 7 iterations at t[s]:    215.13
SCF: Cycle:  9   F: -588.910682760848658   dF: -1.843e-05   |Residual|: 7.289e-04   |deigs|: 6.526e-04  t[s]:    215.29
	Linear fluid (dielectric constant: 7.2) occupying 0.811089 of unit cell:	Completed after 7 iterations at t[s]:    215.51
	FillingsUpdate:  mu: -0.126637191  nElectrons: 354.000000
	Linear fluid (dielectric constant: 7.2) occupying 0.811483 of unit cell:	Completed after 6 iterations at t[s]:    218.96
SCF: Cycle: 10   F: -588.910683946242102   dF: -1.185e-06   |Residual|: 5.253e-04   |deigs|: 6.283e-04  t[s]:    219.14
	Linear fluid (dielectric constant: 7.2) occupying 0.811353 of unit cell:	Completed after 6 iterations at t[s]:    219.34
	FillingsUpdate:  mu: -0.126659346  nElectrons: 354.000000
	Linear fluid (dielectric constant: 7.2) occupying 0.811484 of unit cell:	Completed after 6 iterations at t[s]:    223.42
SCF: Cycle: 11   F: -588.910685904734919   dF: -1.958e-06   |Residual|: 3.964e-04   |deigs|: 2.271e-04  t[s]:    223.58
	Linear fluid (dielectric constant: 7.2) occupying 0.811530 of unit cell:	Completed after 5 iterations at t[s]:    223.77
	FillingsUpdate:  mu: -0.126675611  nElectrons: 354.000000
	Linear fluid (dielectric constant: 7.2) occupying 0.811487 of unit cell:	Completed after 5 iterations at t[s]:    227.21
SCF: Cycle: 12   F: -588.910688140701382   dF: -2.236e-06   |Residual|: 2.732e-04   |deigs|: 1.622e-04  t[s]:    227.37
	Linear fluid (dielectric constant: 7.2) occupying 0.811561 of unit cell:	Completed after 5 iterations at t[s]:    227.55
	FillingsUpdate:  mu: -0.126678461  nElectrons: 354.000000
	Linear fluid (dielectric constant: 7.2) occupying 0.811492 of unit cell:	Completed after 5 iterations at t[s]:    230.95
SCF: Cycle: 13   F: -588.910689654924909   dF: -1.514e-06   |Residual|: 1.854e-04   |deigs|: 1.801e-04  t[s]:    231.10
	Linear fluid (dielectric constant: 7.2) occupying 0.811544 of unit cell:	Completed after 4 iterations at t[s]:    231.26
	FillingsUpdate:  mu: -0.126680464  nElectrons: 354.000000
	Linear fluid (dielectric constant: 7.2) occupying 0.811496 of unit cell:	Completed after 4 iterations at t[s]:    234.74
SCF: Cycle: 14   F: -588.910690482873065   dF: -8.279e-07   |Residual|: 1.224e-04   |deigs|: 2.516e-04  t[s]:    234.89
	Linear fluid (dielectric constant: 7.2) occupying 0.811528 of unit cell:	Completed after 3 iterations at t[s]:    235.06
	FillingsUpdate:  mu: -0.126679967  nElectrons: 354.000000
	Linear fluid (dielectric constant: 7.2) occupying 0.811494 of unit cell:	Completed after 3 iterations at t[s]:    238.45
SCF: Cycle: 15   F: -588.910690730807687   dF: -2.479e-07   |Residual|: 9.481e-05   |deigs|: 1.463e-04  t[s]:    238.62
	Linear fluid (dielectric constant: 7.2) occupying 0.811501 of unit cell:	Completed after 2 iterations at t[s]:    238.77
	FillingsUpdate:  mu: -0.126680210  nElectrons: 354.000000
	Linear fluid (dielectric constant: 7.2) occupying 0.811492 of unit cell:	Completed after 2 iterations at t[s]:    242.15
SCF: Cycle: 16   F: -588.910690939352094   dF: -2.085e-07   |Residual|: 8.402e-05   |deigs|: 1.213e-04  t[s]:    242.29
	Linear fluid (dielectric constant: 7.2) occupying 0.811507 of unit cell:	Completed after 2 iterations at t[s]:    242.43
	FillingsUpdate:  mu: -0.126684462  nElectrons: 354.000000
	Linear fluid (dielectric constant: 7.2) occupying 0.811493 of unit cell:	Completed after 2 iterations at t[s]:    245.82
SCF: Cycle: 17   F: -588.910691076143166   dF: -1.368e-07   |Residual|: 7.705e-05   |deigs|: 7.071e-05  t[s]:    245.96
	Linear fluid (dielectric constant: 7.2) occupying 0.811493 of unit cell:	Completed after 2 iterations at t[s]:    246.11
	FillingsUpdate:  mu: -0.126684991  nElectrons: 354.000000
	Linear fluid (dielectric constant: 7.2) occupying 0.811493 of unit cell:	Completed after 2 iterations at t[s]:    249.48
SCF: Cycle: 18   F: -588.910691165172921   dF: -8.903e-08   |Residual|: 6.771e-05   |deigs|: 1.236e-04  t[s]:    249.63
	Linear fluid (dielectric constant: 7.2) occupying 0.811489 of unit cell:	Completed after 2 iterations at t[s]:    249.78
	FillingsUpdate:  mu: -0.126684607  nElectrons: 354.000000
	Linear fluid (dielectric constant: 7.2) occupying 0.811493 of unit cell:	Completed after 2 iterations at t[s]:    253.05
SCF: Cycle: 19   F: -588.910691200308520   dF: -3.514e-08   |Residual|: 5.139e-05   |deigs|: 5.558e-05  t[s]:    253.20
	Linear fluid (dielectric constant: 7.2) occupying 0.811486 of unit cell:	Completed after 2 iterations at t[s]:    253.36
	FillingsUpdate:  mu: -0.126683239  nElectrons: 354.000000
	Linear fluid (dielectric constant: 7.2) occupying 0.811493 of unit cell:	Completed after 2 iterations at t[s]:    256.74
SCF: Cycle: 20   F: -588.910691234557362   dF: -3.425e-08   |Residual|: 3.350e-05   |deigs|: 5.706e-05  t[s]:    256.89
	Linear fluid (dielectric constant: 7.2) occupying 0.811493 of unit cell:	Completed after 1 iterations at t[s]:    257.02
	FillingsUpdate:  mu: -0.126679818  nElectrons: 354.000000
	Linear fluid (dielectric constant: 7.2) occupying 0.811491 of unit cell:	Completed after 1 iterations at t[s]:    260.38
SCF: Cycle: 21   F: -588.910691258367365   dF: -2.381e-08   |Residual|: 3.446e-05   |deigs|: 3.441e-05  t[s]:    260.52
	Linear fluid (dielectric constant: 7.2) occupying 0.811497 of unit cell:	Completed after 1 iterations at t[s]:    260.65
	FillingsUpdate:  mu: -0.126682131  nElectrons: 354.000000
	Linear fluid (dielectric constant: 7.2) occupying 0.811492 of unit cell:	Completed after 2 iterations at t[s]:    264.03
SCF: Cycle: 22   F: -588.910691254003382   dF: +4.364e-09   |Residual|: 4.966e-05   |deigs|: 1.695e-05  t[s]:    264.18
	Linear fluid (dielectric constant: 7.2) occupying 0.811502 of unit cell:	Completed after 1 iterations at t[s]:    264.30
	FillingsUpdate:  mu: -0.126681999  nElectrons: 354.000000
	Linear fluid (dielectric constant: 7.2) occupying 0.811492 of unit cell:	Completed after 2 iterations at t[s]:    268.24
SCF: Cycle: 23   F: -588.910691257783583   dF: -3.780e-09   |Residual|: 6.134e-05   |deigs|: 3.652e-05  t[s]:    268.38
	Linear fluid (dielectric constant: 7.2) occupying 0.811503 of unit cell:	Completed after 2 iterations at t[s]:    268.54
	FillingsUpdate:  mu: -0.126685724  nElectrons: 354.000000
	Linear fluid (dielectric constant: 7.2) occupying 0.811491 of unit cell:	Completed after 1 iterations at t[s]:    271.93
SCF: Cycle: 24   F: -588.910691310621473   dF: -5.284e-08   |Residual|: 3.245e-05   |deigs|: 1.617e-05  t[s]:    272.08
	Linear fluid (dielectric constant: 7.2) occupying 0.811499 of unit cell:	Completed after 0 iterations at t[s]:    272.20
	FillingsUpdate:  mu: -0.126679698  nElectrons: 354.000000
	Linear fluid (dielectric constant: 7.2) occupying 0.811490 of unit cell:	Completed after 2 iterations at t[s]:    275.58
SCF: Cycle: 25   F: -588.910691254380936   dF: +5.624e-08   |Residual|: 6.544e-05   |deigs|: 5.454e-05  t[s]:    275.72
	Linear fluid (dielectric constant: 7.2) occupying 0.811498 of unit cell:	Completed after 1 iterations at t[s]:    275.87
	FillingsUpdate:  mu: -0.126683308  nElectrons: 354.000000
	Linear fluid (dielectric constant: 7.2) occupying 0.811491 of unit cell:	Completed after 1 iterations at t[s]:    279.28
SCF: Cycle: 26   F: -588.910691326790811   dF: -7.241e-08   |Residual|: 4.004e-05   |deigs|: 2.756e-05  t[s]:    279.43
	Linear fluid (dielectric constant: 7.2) occupying 0.811494 of unit cell:	Completed after 1 iterations at t[s]:    279.57
	FillingsUpdate:  mu: -0.126681829  nElectrons: 354.000000
	Linear fluid (dielectric constant: 7.2) occupying 0.811491 of unit cell:	Completed after 1 iterations at t[s]:    282.95
SCF: Cycle: 27   F: -588.910691335428623   dF: -8.638e-09   |Residual|: 2.617e-05   |deigs|: 4.047e-05  t[s]:    283.09
	Linear fluid (dielectric constant: 7.2) occupying 0.811492 of unit cell:	Completed after 1 iterations at t[s]:    283.23
	FillingsUpdate:  mu: -0.126682908  nElectrons: 354.000000
	Linear fluid (dielectric constant: 7.2) occupying 0.811491 of unit cell:	Completed after 1 iterations at t[s]:    286.60
SCF: Cycle: 28   F: -588.910691339124128   dF: -3.696e-09   |Residual|: 3.036e-05   |deigs|: 2.716e-05  t[s]:    286.74
SCF: Converged (|Delta E|<1.000000e-08 for 2 iters).

Setting wave functions to eigenvectors of Hamiltonian
Single-point solvation energy estimate, DeltaF = -0.026071181959082

# Ionic positions in cartesian coordinates:
ion C  28.005798599999999   0.000000000000000   0.897300000000001 0
ion C  16.336715849999997  20.211437139299999   0.897300000000001 0
ion C   2.333816549999999   4.042283648400000   0.897300000000001 0
ion C  23.338165499999999   0.000000000000000   0.897300000000001 0
ion C   4.667633100000000   0.000000000000000   0.897300000000001 0
ion C  11.669082749999999  20.211437139299999   0.897300000000001 0
ion C  25.671982050000000   4.042283648400000   0.897300000000001 0
ion C  18.670532399999999  16.169153490900001   0.897300000000001 0
ion C   4.667633099999997   8.084586194100000   0.897300000000001 0
ion C  18.670532399999999   0.000000000000000   0.897300000000001 0
ion C   9.335266200000000   0.000000000000000   0.897300000000001 0
ion C   9.335266200000001  16.169153490900001   0.897300000000001 0
ion C  23.338165500000002   8.084586194100000   0.897300000000001 0
ion C  21.004348950000001  12.126869842500000   0.897300000000001 0
ion C   7.001449649999998  12.126869842500000   0.897300000000001 0
ion C  14.002899299999999   0.000000000000000   0.897300000000001 0
ion C  14.002899299999997  16.169153490900001   0.897300000000001 0
ion C   7.001449650000000   4.042283648400000   0.897300000000001 0
ion C  21.004348950000001   4.042283648400000   0.897300000000001 0
ion C  16.336715849999997  12.126869842500000   0.897300000000001 0
ion C   9.335266200000000   8.084586194100000   0.897300000000001 0
ion C  16.336715849999994   4.042283648400000   0.897300000000001 0
ion C  11.669082749999999   4.042283648400000   0.897300000000001 0
ion C  11.669082749999999  12.126869842500000   0.897300000000001 0
ion C  18.670532399999988   8.084586194100000   0.897300000000001 0
ion C   7.001449650000000  20.211437139299999   0.897300000000001 0
ion C  -7.001449650000000  20.211437139299999   0.897300000000001 0
ion C   0.000000000000000   8.084586194100000   0.897300000000001 0
ion C  14.002899299999999   8.084586194100000   0.897300000000001 0
ion C   2.333816550000000  20.211437139299999   0.897300000000001 0
ion C  -4.667633100000000  16.169153490900001   0.897300000000001 0
ion C   2.333816550000000  12.126869842500000   0.897300000000001 0
ion C  -2.333816549999999  12.126869842500000   0.897300000000001 0
ion C  -2.333816549999998  20.211437139299999   0.897300000000001 0
ion C   4.667633099999998  16.169153490900001   0.897300000000001 0
ion C   0.000000000000000  16.169153490900001   0.897300000000001 0
ion C  14.002880402700006  21.558890218500000   0.897300000000001 0
ion C   2.333816549999999   1.347415284600000   0.897300000000001 0
ion C  25.672000947299999   1.347434181900000   0.897300000000001 0
ion C  16.336696952700002  17.516587672800000   0.897300000000001 0
ion C   4.667633100000000   5.389698933000000   0.897300000000001 0
ion C  21.004367847299999   1.347434181900000   0.897300000000001 0
ion C   7.001430752700000   1.347434181900000   0.897300000000001 0
ion C  11.669101647299998  17.516587672800000   0.897300000000001 0
ion C  23.338165499999999   5.389698933000000   0.897300000000001 0
ion C  18.670513502700000  13.474304024400000   0.897300000000001 0
ion C   7.001449649999999   9.432001478699998   0.897300000000001 0
ion C  16.336734747299996   1.347434181900000   0.897300000000001 0
ion C  11.669063852700001   1.347434181900000   0.897300000000001 0
ion C   9.335285097299998  13.474304024400000   0.897300000000001 0
ion C  21.004348950000001   9.432001478699998   0.897300000000001 0
ion C   9.335247302699999  21.558890218500000   0.897300000000001 0
ion C  -9.335266200000000  21.558871321199998   0.897300000000001 0
ion C   0.000018897300000   5.389717830300000   0.897300000000001 0
ion C  14.002880402699990  13.474304024400000   0.897300000000001 0
ion C   9.335266200000000   5.389698933000000   0.897300000000001 0
ion C  18.670551297300001   5.389717830300000   0.897300000000001 0
ion C  16.336696952699999   9.432020376000001   0.897300000000001 0
ion C  11.669082750000001   9.432001478699998   0.897300000000001 0
ion C  14.002918197299991   5.389717830300000   0.897300000000001 0
ion C   4.667614202699999  21.558890218500000   0.897300000000001 0
ion C  -7.001449650000000  17.516568775499998   0.897300000000001 0
ion C   2.333835447300000   9.432020376000001   0.897300000000001 0
ion C  -2.333835447300000   9.432020376000001   0.897300000000001 0
ion C  -4.667614202700001  21.558890218500000   0.897300000000001 0
ion C   7.001449650000000  17.516568775499998   0.897300000000001 0
ion C  -0.000018897300000  21.558890218500000   0.897300000000001 0
ion C  -4.667633100000000  13.474285127100000   0.897300000000001 0
ion C   4.667651997299994  13.474304024400000   0.897300000000001 0
ion C   2.333797652700000  17.516587672800000   0.897300000000001 0
ion C  -2.333816549999999  17.516568775499998   0.897300000000001 0
ion C   0.000018897299999  13.474304024400000   0.897300000000001 0
ion S   4.449104293970800  11.462992905480981   8.674214740549475 1
ion S   4.967234593340783   8.145870437991139  11.463835063486414 1
ion S   6.223121967217237   9.607348830851933  14.625366516119843 1
ion S  11.321734681986751   5.890406970961506   8.996354369662413 1
ion S  14.996500152864940   6.831207125344372   8.551942688508746 1
ion S  16.311055088028333   9.045156214394455  11.280577488389619 1
ion S   6.583687050503215  14.239634229436117  10.182798887371305 1
ion S  10.319470191335972  13.795756203366127   9.279273454853577 1
ion Na  11.214039145585122   9.817404191830846  12.753743155532616 1
ion Na   9.080575753304295   9.786984084390392   6.207309018664454 1

# Forces in Cartesian coordinates:
force C  -0.000092416654199   0.000057976083517  -0.000193474188394 0
force C  -0.000194136813548   0.000110548334256  -0.000185545743956 0
force C  -0.000201063291677   0.000017093513980   0.000159904203080 0
force C  -0.000003664711657   0.000038734864548  -0.000185015960718 0
force C  -0.000116598470999   0.000081384154992  -0.000203713443532 0
force C  -0.000143986154267  -0.000020017991854  -0.000363061393602 0
force C  -0.000024170011004  -0.000079435498728  -0.000185462473573 0
force C  -0.000075354232822  -0.000038782051326  -0.000183409279152 0
force C  -0.001716947241797  -0.000965380248649   0.000101516271279 0
force C   0.000049644291653   0.000072079856302  -0.000201778571267 0
force C   0.000068610876012   0.000134826647165  -0.000388485818269 0
force C  -0.000000153543021   0.000852285651387   0.000083077191779 0
force C  -0.000030066667541  -0.000129404490407  -0.000185853356606 0
force C  -0.000008024275889  -0.000178466364086  -0.000070735207227 0
force C  -0.000563668043206   0.001605990958834   0.000000783796485 0
force C   0.000116707097450   0.000136463654436  -0.000393129784542 0
force C  -0.000148364604744   0.000000663171049  -0.000075487735157 0
force C   0.000053566082039  -0.000231033769836  -0.000027386219233 0
force C   0.000007742993578  -0.000059062682739  -0.000266789644795 0
force C  -0.000007274629933   0.000033613866811  -0.000153205029224 0
force C   0.000330456643135  -0.001532247644776   0.000172259752604 0
force C   0.000074115132822   0.000051219387622   0.000099620585159 0
force C   0.000166705834107  -0.000212636429533  -0.000138511977248 0
force C   0.000662227935784   0.001191001330877   0.000031403888810 0
force C   0.000001055384676  -0.000213355883195  -0.000012149552786 0
force C   0.000124161516483   0.000003273116387  -0.000303273995923 0
force C  -0.000025171231524   0.000034178912751  -0.000182459269523 0
force C  -0.000024748465506  -0.000217428682790   0.000033103989134 0
force C   0.001399277205808  -0.000896021834127   0.000118774293815 0
force C   0.000126704904093   0.000104385147166  -0.000200233512737 0
force C  -0.000002912353258  -0.000029645665393  -0.000189007793573 0
force C   0.000009322476142   0.000140367115260   0.000033707471956 0
force C  -0.000003417645688  -0.000142445768238  -0.000280731133592 0
force C   0.000102753081057   0.000062004621995  -0.000188678081396 0
force C   0.000106762525834   0.000009594518813  -0.000002346083208 0
force C   0.000116868438488   0.000002115038889  -0.000414993843248 0
force C   0.000151120247719  -0.000126462853415  -0.000192102980869 0
force C   0.000109964256283  -0.000088710692607  -0.000190449640391 0
force C   0.000021073098150  -0.000030621408712  -0.000186967513706 0
force C   0.000093789420536  -0.000134829778109  -0.000222046515901 0
force C  -0.000215091034736  -0.000174546674560  -0.000239286641563 0
force C  -0.000023482175796  -0.000016850070350  -0.000186844118517 0
force C   0.000210090755437  -0.000195550166963  -0.000310478041380 0
force C  -0.000092877417051  -0.000123817142828  -0.000039978312994 0
force C  -0.000011257603950   0.000127454700354  -0.000189188798946 0
force C   0.000004289811792   0.000095289596459  -0.000055450912291 0
force C  -0.001624918921598   0.000175252564026   0.000165698145393 0
force C  -0.000169872671076  -0.000066484715638  -0.000409470331715 0
force C  -0.000161625639963   0.000014425920649  -0.000071856201114 0
force C   0.000105071840963   0.001198574445372  -0.000078530114616 0
force C  -0.000032516356714   0.000197630784450  -0.000092304951207 0
force C   0.000042944944141  -0.000116361257661  -0.000211538934146 0
force C   0.000087284801837  -0.000063643357754  -0.000198330923287 0
force C   0.000031010865647   0.000057887902150   0.000072896553640 0
force C   0.000903538090658   0.000504485199959   0.000076440143336 0
force C   0.000151903643596  -0.002360148995599   0.000166037786414 0
force C  -0.000094513334228   0.000135563302206   0.000066761937058 0
force C   0.000098672193868   0.000128778880434  -0.000137288573657 0
force C   0.001823841435141   0.000299596613202   0.000203122748201 0
force C   0.000005858615001  -0.000173381417269  -0.000141837708259 0
force C  -0.000140694527410  -0.000093961631457  -0.000217374234462 0
force C   0.000060398415998  -0.000029949401360  -0.000194012125873 0
force C  -0.000193456817197   0.000150012154551   0.000002014187062 0
force C  -0.000036576339629   0.000202009213230  -0.000252384927711 0
force C  -0.000020230177597  -0.000031352646428  -0.000198025848830 0
force C   0.000139047491020  -0.000108450092572  -0.000069775393062 0
force C  -0.000112464625818  -0.000042733215222  -0.000194197070865 0
force C  -0.000026457454434   0.000100520604699  -0.000194454052050 0
force C  -0.001047089420730   0.000623880876294   0.000123957743104 0
force C  -0.000130107033039  -0.000128793197811  -0.000366423073179 0
force C  -0.000091998461706  -0.000001692745168  -0.000200364286911 0
force C  -0.000027724312155   0.000099468478791  -0.000136483981711 0
force S  -0.000081469083550   0.000732472162081   0.000254405096718 1
force S  -0.000819745824027  -0.001081873496153  -0.001021028163159 1
force S  -0.001716672081657   0.000473732066207   0.001319669368916 1
force S  -0.000347194504897  -0.000219835501746   0.000106780972678 1
force S   0.000779112126949  -0.000654498447551  -0.001196303983737 1
force S   0.001509912476143   0.000219301431963  -0.000359787860992 1
force S  -0.000468987024252  -0.000052759885233   0.000037574562522 1
force S   0.000271637206160   0.000648502397564  -0.001028207363305 1
force Na   0.001176967423824   0.000355089360232   0.004084907713343 1
force Na  -0.000037106006572  -0.000323451129758  -0.000186934919633 1

# Energy components:
   A_diel =       -0.0298017317950069
   Eewald =     5157.7128068804231589
       EH =     5622.3346199218922266
     Eloc =   -11419.1023733587808238
      Enl =      -71.5520865363847918
      Exc =     -178.6038306288611466
 Exc_core =       16.5665103591864948
       KE =      283.8546354282641460
-------------------------------------
     Etot =     -588.8195196660552710
       TS =        0.0911716730688769
-------------------------------------
        F =     -588.9106913391241278

IonicMinimize: Iter:   0  F: -588.910691339124128  |grad|_K:  1.059e-03  alpha:  1.000e+00

#--- Lowdin population analysis ---
# oxidation-state C +0.046 +0.047 +0.045 +0.046 +0.047 +0.047 +0.046 +0.047 +0.036 +0.047 +0.047 +0.047 +0.047 +0.047 +0.023 +0.047 +0.047 +0.043 +0.046 +0.046 +0.004 +0.046 +0.047 +0.027 +0.047 +0.047 +0.047 +0.046 +0.040 +0.047 +0.047 +0.045 +0.047 +0.047 +0.046 +0.047 +0.047 +0.046 +0.047 +0.047 +0.042 +0.047 +0.046 +0.048 +0.047 +0.047 +0.008 +0.047 +0.048 +0.031 +0.047 +0.047 +0.046 +0.046 +0.044 +0.038 +0.047 +0.045 +0.015 +0.045 +0.047 +0.046 +0.044 +0.047 +0.047 +0.047 +0.047 +0.047 +0.043 +0.047 +0.046 +0.046
# oxidation-state S -0.067 +0.093 -0.258 -0.404 +0.309 -0.303 +0.203 -0.451
# oxidation-state Na +0.736 +0.725


-------- Electronic minimization -----------
Will mix electronic density at each iteration.
	FillingsUpdate:  mu: -0.126682908  nElectrons: 354.000000
	Linear fluid (dielectric constant: 7.2) occupying 0.811481 of unit cell:	Completed after 3 iterations at t[s]:    289.32
	FillingsUpdate:  mu: -0.126676241  nElectrons: 354.000000
	Linear fluid (dielectric constant: 7.2) occupying 0.811475 of unit cell:	Completed after 3 iterations at t[s]:    292.69
SCF: Cycle:  0   F: -588.910722521564480   dF: -5.713e-07   |Residual|: 6.420e-04   |deigs|: 1.642e-06  t[s]:    292.85
	Linear fluid (dielectric constant: 7.2) occupying 0.811493 of unit cell:	Completed after 3 iterations at t[s]:    293.01
	FillingsUpdate:  mu: -0.126683000  nElectrons: 354.000000
	Linear fluid (dielectric constant: 7.2) occupying 0.811475 of unit cell:	Completed after 1 iterations at t[s]:    295.63
SCF: Cycle:  1   F: -588.910724104766246   dF: -1.583e-06   |Residual|: 3.025e-04   |deigs|: 1.535e-05  t[s]:    295.78
	Linear fluid (dielectric constant: 7.2) occupying 0.811497 of unit cell:	Completed after 1 iterations at t[s]:    295.92
	FillingsUpdate:  mu: -0.126682684  nElectrons: 354.000000
	Linear fluid (dielectric constant: 7.2) occupying 0.811477 of unit cell:	Completed after 2 iterations at t[s]:    298.58
SCF: Cycle:  2   F: -588.910724157909613   dF: -5.314e-08   |Residual|: 1.182e-04   |deigs|: 1.164e-05  t[s]:    298.72
	Linear fluid (dielectric constant: 7.2) occupying 0.811497 of unit cell:	Completed after 1 iterations at t[s]:    298.84
	FillingsUpdate:  mu: -0.126684014  nElectrons: 354.000000
	Linear fluid (dielectric constant: 7.2) occupying 0.811477 of unit cell:	Completed after 1 iterations at t[s]:    301.55
SCF: Cycle:  3   F: -588.910724237663885   dF: -7.975e-08   |Residual|: 8.853e-05   |deigs|: 1.098e-05  t[s]:    301.70
	Linear fluid (dielectric constant: 7.2) occupying 0.811495 of unit cell:	Completed after 1 iterations at t[s]:    301.83
	FillingsUpdate:  mu: -0.126684671  nElectrons: 354.000000
	Linear fluid (dielectric constant: 7.2) occupying 0.811478 of unit cell:	Completed after 1 iterations at t[s]:    304.51
SCF: Cycle:  4   F: -588.910724235605471   dF: +2.058e-09   |Residual|: 6.080e-05   |deigs|: 1.072e-05  t[s]:    304.65
	Linear fluid (dielectric constant: 7.2) occupying 0.811492 of unit cell:	Completed after 1 iterations at t[s]:    304.77
	FillingsUpdate:  mu: -0.126686554  nElectrons: 354.000000
	Linear fluid (dielectric constant: 7.2) occupying 0.811478 of unit cell:	Completed after 1 iterations at t[s]:    308.11
SCF: Cycle:  5   F: -588.910724260727420   dF: -2.512e-08   |Residual|: 3.909e-05   |deigs|: 1.078e-05  t[s]:    308.25
	Linear fluid (dielectric constant: 7.2) occupying 0.811489 of unit cell:	Completed after 1 iterations at t[s]:    308.38
	FillingsUpdate:  mu: -0.126687029  nElectrons: 354.000000
	Linear fluid (dielectric constant: 7.2) occupying 0.811478 of unit cell:	Completed after 1 iterations at t[s]:    311.02
SCF: Cycle:  6   F: -588.910724272069729   dF: -1.134e-08   |Residual|: 2.589e-05   |deigs|: 1.085e-05  t[s]:    311.16
	Linear fluid (dielectric constant: 7.2) occupying 0.811484 of unit cell:	Completed after 0 iterations at t[s]:    311.27
	FillingsUpdate:  mu: -0.126689324  nElectrons: 354.000000
	Linear fluid (dielectric constant: 7.2) occupying 0.811479 of unit cell:	Completed after 1 iterations at t[s]:    313.94
SCF: Cycle:  7   F: -588.910724231052995   dF: +4.102e-08   |Residual|: 5.959e-05   |deigs|: 1.267e-05  t[s]:    314.08
	Linear fluid (dielectric constant: 7.2) occupying 0.811481 of unit cell:	Completed after 1 iterations at t[s]:    314.21
	FillingsUpdate:  mu: -0.126689059  nElectrons: 354.000000
	Linear fluid (dielectric constant: 7.2) occupying 0.811479 of unit cell:	Completed after 0 iterations at t[s]:    316.83
SCF: Cycle:  8   F: -588.910724279040096   dF: -4.799e-08   |Residual|: 1.413e-05   |deigs|: 7.228e-06  t[s]:    316.98
	Linear fluid (dielectric constant: 7.2) occupying 0.811478 of unit cell:	Completed after 0 iterations at t[s]:    317.11
	FillingsUpdate:  mu: -0.126690052  nElectrons: 354.000000
	Linear fluid (dielectric constant: 7.2) occupying 0.811479 of unit cell:	Completed after 1 iterations at t[s]:    319.80
SCF: Cycle:  9   F: -588.910724271676713   dF: +7.363e-09   |Residual|: 2.403e-05   |deigs|: 7.380e-06  t[s]:    319.94
	Linear fluid (dielectric constant: 7.2) occupying 0.811477 of unit cell:	Completed after 1 iterations at t[s]:    320.06
	FillingsUpdate:  mu: -0.126690017  nElectrons: 354.000000
	Linear fluid (dielectric constant: 7.2) occupying 0.811478 of unit cell:	Completed after 0 iterations at t[s]:    322.71
SCF: Cycle: 10   F: -588.910724280173554   dF: -8.497e-09   |Residual|: 1.418e-05   |deigs|: 2.488e-06  t[s]:    322.85
	Linear fluid (dielectric constant: 7.2) occupying 0.811476 of unit cell:	Completed after 0 iterations at t[s]:    322.97
	FillingsUpdate:  mu: -0.126689795  nElectrons: 354.000000
	Linear fluid (dielectric constant: 7.2) occupying 0.811478 of unit cell:	Completed after 0 iterations at t[s]:    325.64
SCF: Cycle: 11   F: -588.910724278961538   dF: +1.212e-09   |Residual|: 1.701e-05   |deigs|: 2.309e-06  t[s]:    325.78
	Linear fluid (dielectric constant: 7.2) occupying 0.811475 of unit cell:	Completed after 0 iterations at t[s]:    325.90
	FillingsUpdate:  mu: -0.126690601  nElectrons: 354.000000
	Linear fluid (dielectric constant: 7.2) occupying 0.811478 of unit cell:	Completed after 1 iterations at t[s]:    329.14
SCF: Cycle: 12   F: -588.910724259450490   dF: +1.951e-08   |Residual|: 4.915e-05   |deigs|: 3.416e-06  t[s]:    329.28
	Linear fluid (dielectric constant: 7.2) occupying 0.811475 of unit cell:	Completed after 1 iterations at t[s]:    329.41
	FillingsUpdate:  mu: -0.126690818  nElectrons: 354.000000
	Linear fluid (dielectric constant: 7.2) occupying 0.811478 of unit cell:	Completed after 0 iterations at t[s]:    331.87
SCF: Cycle: 13   F: -588.910724282082242   dF: -2.263e-08   |Residual|: 7.114e-06   |deigs|: 1.937e-06  t[s]:    332.00
	Linear fluid (dielectric constant: 7.2) occupying 0.811474 of unit cell:	Completed after 0 iterations at t[s]:    332.11
	FillingsUpdate:  mu: -0.126690801  nElectrons: 354.000000
	Linear fluid (dielectric constant: 7.2) occupying 0.811478 of unit cell:	Completed after 0 iterations at t[s]:    334.36
SCF: Cycle: 14   F: -588.910724282285514   dF: -2.033e-10   |Residual|: 6.863e-06   |deigs|: 2.493e-06  t[s]:    334.49
	Linear fluid (dielectric constant: 7.2) occupying 0.811474 of unit cell:	Completed after 0 iterations at t[s]:    334.60
	FillingsUpdate:  mu: -0.126690748  nElectrons: 354.000000
	Linear fluid (dielectric constant: 7.2) occupying 0.811478 of unit cell:	Completed after 0 iterations at t[s]:    337.92
SCF: Cycle: 15   F: -588.910724283094510   dF: -8.090e-10   |Residual|: 6.611e-06   |deigs|: 1.084e-05  t[s]:    338.06
SCF: Converged (|Delta E|<1.000000e-08 for 2 iters).

Setting wave functions to eigenvectors of Hamiltonian
IonicMinimize: 	Predicted alpha/alphaT>3.000000, increasing alphaT to 3.000000e+00.

-------- Electronic minimization -----------
Will mix electronic density at each iteration.
	FillingsUpdate:  mu: -0.126690748  nElectrons: 354.000000
	Linear fluid (dielectric constant: 7.2) occupying 0.811458 of unit cell:	Completed after 4 iterations at t[s]:    339.51
	FillingsUpdate:  mu: -0.126694739  nElectrons: 354.000000
	Linear fluid (dielectric constant: 7.2) occupying 0.811444 of unit cell:	Completed after 4 iterations at t[s]:    342.85
SCF: Cycle:  0   F: -588.910778443143727   dF: -5.363e-06   |Residual|: 1.287e-03   |deigs|: 4.851e-07  t[s]:    343.00
	Linear fluid (dielectric constant: 7.2) occupying 0.811483 of unit cell:	Completed after 3 iterations at t[s]:    343.15
	FillingsUpdate:  mu: -0.126700095  nElectrons: 354.000000
	Linear fluid (dielectric constant: 7.2) occupying 0.811447 of unit cell:	Completed after 2 iterations at t[s]:    345.82
SCF: Cycle:  1   F: -588.910781707088631   dF: -3.264e-06   |Residual|: 5.315e-04   |deigs|: 2.152e-05  t[s]:    345.97
	Linear fluid (dielectric constant: 7.2) occupying 0.811493 of unit cell:	Completed after 2 iterations at t[s]:    346.10
	FillingsUpdate:  mu: -0.126697807  nElectrons: 354.000000
	Linear fluid (dielectric constant: 7.2) occupying 0.811451 of unit cell:	Completed after 2 iterations at t[s]:    348.81
SCF: Cycle:  2   F: -588.910782202247901   dF: -4.952e-07   |Residual|: 1.492e-04   |deigs|: 2.851e-05  t[s]:    348.97
	Linear fluid (dielectric constant: 7.2) occupying 0.811491 of unit cell:	Completed after 2 iterations at t[s]:    349.12
	FillingsUpdate:  mu: -0.126700277  nElectrons: 354.000000
	Linear fluid (dielectric constant: 7.2) occupying 0.811451 of unit cell:	Completed after 2 iterations at t[s]:    351.81
SCF: Cycle:  3   F: -588.910782249609156   dF: -4.736e-08   |Residual|: 8.507e-05   |deigs|: 2.081e-05  t[s]:    351.96
	Linear fluid (dielectric constant: 7.2) occupying 0.811484 of unit cell:	Completed after 1 iterations at t[s]:    352.09
	FillingsUpdate:  mu: -0.126706018  nElectrons: 354.000000
	Linear fluid (dielectric constant: 7.2) occupying 0.811452 of unit cell:	Completed after 1 iterations at t[s]:    354.68
SCF: Cycle:  4   F: -588.910782273349810   dF: -2.374e-08   |Residual|: 4.485e-05   |deigs|: 2.983e-05  t[s]:    354.82
	Linear fluid (dielectric constant: 7.2) occupying 0.811478 of unit cell:	Completed after 1 iterations at t[s]:    354.94
	FillingsUpdate:  mu: -0.126708239  nElectrons: 354.000000
	Linear fluid (dielectric constant: 7.2) occupying 0.811453 of unit cell:	Completed after 1 iterations at t[s]:    357.60
SCF: Cycle:  5   F: -588.910782260383144   dF: +1.297e-08   |Residual|: 3.725e-05   |deigs|: 1.857e-05  t[s]:    357.75
	Linear fluid (dielectric constant: 7.2) occupying 0.811469 of unit cell:	Completed after 1 iterations at t[s]:    357.88
	FillingsUpdate:  mu: -0.126708594  nElectrons: 354.000000
	Linear fluid (dielectric constant: 7.2) occupying 0.811453 of unit cell:	Completed after 1 iterations at t[s]:    360.55
SCF: Cycle:  6   F: -588.910782279867135   dF: -1.948e-08   |Residual|: 2.182e-05   |deigs|: 2.304e-05  t[s]:    360.70
	Linear fluid (dielectric constant: 7.2) occupying 0.811461 of unit cell:	Completed after 0 iterations at t[s]:    360.82
	FillingsUpdate:  mu: -0.126710871  nElectrons: 354.000000
	Linear fluid (dielectric constant: 7.2) occupying 0.811453 of unit cell:	Completed after 1 iterations at t[s]:    363.43
SCF: Cycle:  7   F: -588.910782239316745   dF: +4.055e-08   |Residual|: 5.735e-05   |deigs|: 1.985e-05  t[s]:    363.58
	Linear fluid (dielectric constant: 7.2) occupying 0.811453 of unit cell:	Completed after 1 iterations at t[s]:    363.70
	FillingsUpdate:  mu: -0.126711852  nElectrons: 354.000000
	Linear fluid (dielectric constant: 7.2) occupying 0.811453 of unit cell:	Completed after 1 iterations at t[s]:    366.38
SCF: Cycle:  8   F: -588.910782274919370   dF: -3.560e-08   |Residual|: 2.646e-05   |deigs|: 1.622e-05  t[s]:    366.52
	Linear fluid (dielectric constant: 7.2) occupying 0.811449 of unit cell:	Completed after 1 iterations at t[s]:    366.65
	FillingsUpdate:  mu: -0.126712406  nElectrons: 354.000000
	Linear fluid (dielectric constant: 7.2) occupying 0.811453 of unit cell:	Completed after 0 iterations at t[s]:    369.27
SCF: Cycle:  9   F: -588.910782284222819   dF: -9.303e-09   |Residual|: 1.600e-05   |deigs|: 7.223e-06  t[s]:    369.42
	Linear fluid (dielectric constant: 7.2) occupying 0.811442 of unit cell:	Completed after 0 iterations at t[s]:    369.55
	FillingsUpdate:  mu: -0.126712851  nElectrons: 354.000000
	Linear fluid (dielectric constant: 7.2) occupying 0.811453 of unit cell:	Completed after 1 iterations at t[s]:    372.93
SCF: Cycle: 10   F: -588.910782280444664   dF: +3.778e-09   |Residual|: 3.048e-05   |deigs|: 1.054e-05  t[s]:    373.07
	Linear fluid (dielectric constant: 7.2) occupying 0.811440 of unit cell:	Completed after 0 iterations at t[s]:    373.19
	FillingsUpdate:  mu: -0.126715135  nElectrons: 354.000000
	Linear fluid (dielectric constant: 7.2) occupying 0.811453 of unit cell:	Completed after 1 iterations at t[s]:    376.53
SCF: Cycle: 11   F: -588.910782240489766   dF: +3.995e-08   |Residual|: 5.955e-05   |deigs|: 7.225e-06  t[s]:    376.68
	Linear fluid (dielectric constant: 7.2) occupying 0.811440 of unit cell:	Completed after 1 iterations at t[s]:    376.82
	FillingsUpdate:  mu: -0.126715455  nElectrons: 354.000000
	Linear fluid (dielectric constant: 7.2) occupying 0.811453 of unit cell:	Completed after 0 iterations at t[s]:    379.44
SCF: Cycle: 12   F: -588.910782285586038   dF: -4.510e-08   |Residual|: 2.530e-05   |deigs|: 9.026e-06  t[s]:    379.59
	Linear fluid (dielectric constant: 7.2) occupying 0.811441 of unit cell:	Completed after 0 iterations at t[s]:    379.70
	FillingsUpdate:  mu: -0.126716187  nElectrons: 354.000000
	Linear fluid (dielectric constant: 7.2) occupying 0.811453 of unit cell:	Completed after 1 iterations at t[s]:    382.41
SCF: Cycle: 13   F: -588.910782272022743   dF: +1.356e-08   |Residual|: 3.660e-05   |deigs|: 1.065e-05  t[s]:    382.56
	Linear fluid (dielectric constant: 7.2) occupying 0.811442 of unit cell:	Completed after 1 iterations at t[s]:    382.68
	FillingsUpdate:  mu: -0.126716447  nElectrons: 354.000000
	Linear fluid (dielectric constant: 7.2) occupying 0.811452 of unit cell:	Completed after 0 iterations at t[s]:    385.31
SCF: Cycle: 14   F: -588.910782286022823   dF: -1.400e-08   |Residual|: 2.784e-05   |deigs|: 1.023e-05  t[s]:    385.45
	Linear fluid (dielectric constant: 7.2) occupying 0.811443 of unit cell:	Completed after 0 iterations at t[s]:    385.57
	FillingsUpdate:  mu: -0.126716482  nElectrons: 354.000000
	Linear fluid (dielectric constant: 7.2) occupying 0.811452 of unit cell:	Completed after 1 iterations at t[s]:    388.22
SCF: Cycle: 15   F: -588.910782268334628   dF: +1.769e-08   |Residual|: 4.409e-05   |deigs|: 1.064e-05  t[s]:    388.37
	Linear fluid (dielectric constant: 7.2) occupying 0.811447 of unit cell:	Completed after 1 iterations at t[s]:    388.50
	FillingsUpdate:  mu: -0.126716698  nElectrons: 354.000000
	Linear fluid (dielectric constant: 7.2) occupying 0.811452 of unit cell:	Completed after 1 iterations at t[s]:    391.68
SCF: Cycle: 16   F: -588.910782279124760   dF: -1.079e-08   |Residual|: 3.947e-05   |deigs|: 2.258e-05  t[s]:    391.82
	Linear fluid (dielectric constant: 7.2) occupying 0.811451 of unit cell:	Completed after 1 iterations at t[s]:    391.95
	FillingsUpdate:  mu: -0.126716963  nElectrons: 354.000000
	Linear fluid (dielectric constant: 7.2) occupying 0.811452 of unit cell:	Completed after 0 iterations at t[s]:    395.11
SCF: Cycle: 17   F: -588.910782287096595   dF: -7.972e-09   |Residual|: 3.052e-05   |deigs|: 2.429e-05  t[s]:    395.25
	Linear fluid (dielectric constant: 7.2) occupying 0.811451 of unit cell:	Completed after 0 iterations at t[s]:    395.39
	FillingsUpdate:  mu: -0.126716046  nElectrons: 354.000000
	Linear fluid (dielectric constant: 7.2) occupying 0.811452 of unit cell:	Completed after 1 iterations at t[s]:    398.01
SCF: Cycle: 18   F: -588.910782270231607   dF: +1.686e-08   |Residual|: 4.237e-05   |deigs|: 4.926e-06  t[s]:    398.17
	Linear fluid (dielectric constant: 7.2) occupying 0.811453 of unit cell:	Completed after 1 iterations at t[s]:    398.31
	FillingsUpdate:  mu: -0.126716859  nElectrons: 354.000000
	Linear fluid (dielectric constant: 7.2) occupying 0.811452 of unit cell:	Completed after 1 iterations at t[s]:    401.68
SCF: Cycle: 19   F: -588.910782271623361   dF: -1.392e-09   |Residual|: 5.138e-05   |deigs|: 2.804e-05  t[s]:    401.82
	Linear fluid (dielectric constant: 7.2) occupying 0.811454 of unit cell:	Completed after 1 iterations at t[s]:    401.95
	FillingsUpdate:  mu: -0.126717227  nElectrons: 354.000000
	Linear fluid (dielectric constant: 7.2) occupying 0.811452 of unit cell:	Completed after 1 iterations at t[s]:    406.31
SCF: Cycle: 20   F: -588.910782283349818   dF: -1.173e-08   |Residual|: 3.615e-05   |deigs|: 1.330e-05  t[s]:    406.45
	Linear fluid (dielectric constant: 7.2) occupying 0.811453 of unit cell:	Completed after 1 iterations at t[s]:    406.59
	FillingsUpdate:  mu: -0.126717283  nElectrons: 354.000000
	Linear fluid (dielectric constant: 7.2) occupying 0.811452 of unit cell:	Completed after 1 iterations at t[s]:    413.33
SCF: Cycle: 21   F: -588.910782282675314   dF: +6.745e-10   |Residual|: 3.744e-05   |deigs|: 1.765e-05  t[s]:    413.49
	Linear fluid (dielectric constant: 7.2) occupying 0.811453 of unit cell:	Completed after 1 iterations at t[s]:    413.63
	FillingsUpdate:  mu: -0.126717449  nElectrons: 354.000000
	Linear fluid (dielectric constant: 7.2) occupying 0.811452 of unit cell:	Completed after 1 iterations at t[s]:    418.31
SCF: Cycle: 22   F: -588.910782283107892   dF: -4.326e-10   |Residual|: 3.654e-05   |deigs|: 1.601e-05  t[s]:    418.45
	Linear fluid (dielectric constant: 7.2) occupying 0.811452 of unit cell:	Completed after 1 iterations at t[s]:    418.59
	FillingsUpdate:  mu: -0.126717472  nElectrons: 354.000000
	Linear fluid (dielectric constant: 7.2) occupying 0.811452 of unit cell:	Completed after 1 iterations at t[s]:    421.67
SCF: Cycle: 23   F: -588.910782283496133   dF: -3.882e-10   |Residual|: 3.565e-05   |deigs|: 6.148e-06  t[s]:    421.81
SCF: Converged (|Delta E|<1.000000e-08 for 2 iters).

Setting wave functions to eigenvectors of Hamiltonian
IonicMinimize: 	Predicted alpha/alphaT>3.000000, increasing alphaT to 9.000000e+00.

-------- Electronic minimization -----------
Will mix electronic density at each iteration.
	FillingsUpdate:  mu: -0.126717472  nElectrons: 354.000000
	Linear fluid (dielectric constant: 7.2) occupying 0.811451 of unit cell:	Completed after 8 iterations at t[s]:    423.29
	FillingsUpdate:  mu: -0.125439417  nElectrons: 354.000000
	Linear fluid (dielectric constant: 7.2) occupying 0.811034 of unit cell:	Completed after 10 iterations at t[s]:    428.02
SCF: Cycle:  0   F: -588.901512710409520   dF: -4.759e-03   |Residual|: 5.747e-02   |deigs|: 2.382e-04  t[s]:    428.20
	Linear fluid (dielectric constant: 7.2) occupying 0.812166 of unit cell:	Completed after 11 iterations at t[s]:    428.45
	FillingsUpdate:  mu: -0.125940638  nElectrons: 354.000000
	Linear fluid (dielectric constant: 7.2) occupying 0.811185 of unit cell:	Completed after 9 iterations at t[s]:    432.51
SCF: Cycle:  1   F: -588.909722928657629   dF: -8.210e-03   |Residual|: 2.719e-02   |deigs|: 9.689e-04  t[s]:    432.68
	Linear fluid (dielectric constant: 7.2) occupying 0.812631 of unit cell:	Completed after 10 iterations at t[s]:    432.92
	FillingsUpdate:  mu: -0.125862122  nElectrons: 354.000000
	Linear fluid (dielectric constant: 7.2) occupying 0.811268 of unit cell:	Completed after 8 iterations at t[s]:    437.01
SCF: Cycle:  2   F: -588.910413737560702   dF: -6.908e-04   |Residual|: 8.544e-03   |deigs|: 5.552e-04  t[s]:    437.18
	Linear fluid (dielectric constant: 7.2) occupying 0.812636 of unit cell:	Completed after 9 iterations at t[s]:    437.41
	FillingsUpdate:  mu: -0.126052301  nElectrons: 354.000000
	Linear fluid (dielectric constant: 7.2) occupying 0.811315 of unit cell:	Completed after 8 iterations at t[s]:    441.55
SCF: Cycle:  3   F: -588.910749407626213   dF: -3.357e-04   |Residual|: 4.165e-03   |deigs|: 3.669e-04  t[s]:    441.73
	Linear fluid (dielectric constant: 7.2) occupying 0.812435 of unit cell:	Completed after 8 iterations at t[s]:    441.96
	FillingsUpdate:  mu: -0.126164418  nElectrons: 354.000000
	Linear fluid (dielectric constant: 7.2) occupying 0.811346 of unit cell:	Completed after 7 iterations at t[s]:    446.00
SCF: Cycle:  4   F: -588.910814537100578   dF: -6.513e-05   |Residual|: 1.980e-03   |deigs|: 3.018e-04  t[s]:    446.16
	Linear fluid (dielectric constant: 7.2) occupying 0.812179 of unit cell:	Completed after 6 iterations at t[s]:    446.35
	FillingsUpdate:  mu: -0.126295148  nElectrons: 354.000000
	Linear fluid (dielectric constant: 7.2) occupying 0.811378 of unit cell:	Completed after 7 iterations at t[s]:    450.41
SCF: Cycle:  5   F: -588.910854028368931   dF: -3.949e-05   |Residual|: 9.944e-04   |deigs|: 2.386e-04  t[s]:    450.58
	Linear fluid (dielectric constant: 7.2) occupying 0.811988 of unit cell:	Completed after 6 iterations at t[s]:    450.78
	FillingsUpdate:  mu: -0.126369226  nElectrons: 354.000000
	Linear fluid (dielectric constant: 7.2) occupying 0.811385 of unit cell:	Completed after 6 iterations at t[s]:    453.57
SCF: Cycle:  6   F: -588.910868346761845   dF: -1.432e-05   |Residual|: 6.489e-04   |deigs|: 1.061e-04  t[s]:    453.73
	Linear fluid (dielectric constant: 7.2) occupying 0.811690 of unit cell:	Completed after 5 iterations at t[s]:    453.91
	FillingsUpdate:  mu: -0.126474544  nElectrons: 354.000000
	Linear fluid (dielectric constant: 7.2) occupying 0.811392 of unit cell:	Completed after 5 iterations at t[s]:    458.04
SCF: Cycle:  7   F: -588.910882107664293   dF: -1.376e-05   |Residual|: 4.054e-04   |deigs|: 1.768e-04  t[s]:    458.20
	Linear fluid (dielectric constant: 7.2) occupying 0.811516 of unit cell:	Completed after 5 iterations at t[s]:    458.37
	FillingsUpdate:  mu: -0.126537976  nElectrons: 354.000000
	Linear fluid (dielectric constant: 7.2) occupying 0.811389 of unit cell:	Completed after 5 iterations at t[s]:    461.87
SCF: Cycle:  8   F: -588.910887159138497   dF: -5.051e-06   |Residual|: 3.219e-04   |deigs|: 1.480e-04  t[s]:    462.03
	Linear fluid (dielectric constant: 7.2) occupying 0.811259 of unit cell:	Completed after 5 iterations at t[s]:    462.23
	FillingsUpdate:  mu: -0.126633718  nElectrons: 354.000000
	Linear fluid (dielectric constant: 7.2) occupying 0.811380 of unit cell:	Completed after 5 iterations at t[s]:    466.25
SCF: Cycle:  9   F: -588.910891217651852   dF: -4.059e-06   |Residual|: 2.592e-04   |deigs|: 2.996e-04  t[s]:    466.41
	Linear fluid (dielectric constant: 7.2) occupying 0.811179 of unit cell:	Completed after 4 iterations at t[s]:    466.59
	FillingsUpdate:  mu: -0.126682064  nElectrons: 354.000000
	Linear fluid (dielectric constant: 7.2) occupying 0.811377 of unit cell:	Completed after 4 iterations at t[s]:    469.98
SCF: Cycle: 10   F: -588.910892039399300   dF: -8.217e-07   |Residual|: 2.240e-04   |deigs|: 2.035e-04  t[s]:    470.14
	Linear fluid (dielectric constant: 7.2) occupying 0.811174 of unit cell:	Completed after 4 iterations at t[s]:    470.30
	FillingsUpdate:  mu: -0.126719329  nElectrons: 354.000000
	Linear fluid (dielectric constant: 7.2) occupying 0.811372 of unit cell:	Completed after 3 iterations at t[s]:    474.34
SCF: Cycle: 11   F: -588.910892345265893   dF: -3.059e-07   |Residual|: 1.612e-04   |deigs|: 2.288e-04  t[s]:    474.49
	Linear fluid (dielectric constant: 7.2) occupying 0.811208 of unit cell:	Completed after 3 iterations at t[s]:    474.65
	FillingsUpdate:  mu: -0.126721444  nElectrons: 354.000000
	Linear fluid (dielectric constant: 7.2) occupying 0.811370 of unit cell:	Completed after 3 iterations at t[s]:    478.01
SCF: Cycle: 12   F: -588.910892478646133   dF: -1.334e-07   |Residual|: 1.405e-04   |deigs|: 4.302e-05  t[s]:    478.16
	Linear fluid (dielectric constant: 7.2) occupying 0.811294 of unit cell:	Completed after 3 iterations at t[s]:    478.31
	FillingsUpdate:  mu: -0.126737593  nElectrons: 354.000000
	Linear fluid (dielectric constant: 7.2) occupying 0.811367 of unit cell:	Completed after 3 iterations at t[s]:    481.78
SCF: Cycle: 13   F: -588.910892830358648   dF: -3.517e-07   |Residual|: 9.980e-05   |deigs|: 1.551e-04  t[s]:    481.93
	Linear fluid (dielectric constant: 7.2) occupying 0.811382 of unit cell:	Completed after 3 iterations at t[s]:    482.07
	FillingsUpdate:  mu: -0.126751821  nElectrons: 354.000000
	Linear fluid (dielectric constant: 7.2) occupying 0.811368 of unit cell:	Completed after 2 iterations at t[s]:    485.50
SCF: Cycle: 14   F: -588.910892999375164   dF: -1.690e-07   |Residual|: 9.786e-05   |deigs|: 2.268e-04  t[s]:    485.65
	Linear fluid (dielectric constant: 7.2) occupying 0.811410 of unit cell:	Completed after 2 iterations at t[s]:    485.80
	FillingsUpdate:  mu: -0.126753363  nElectrons: 354.000000
	Linear fluid (dielectric constant: 7.2) occupying 0.811370 of unit cell:	Completed after 2 iterations at t[s]:    489.28
SCF: Cycle: 15   F: -588.910893104305046   dF: -1.049e-07   |Residual|: 9.948e-05   |deigs|: 1.199e-04  t[s]:    489.43
	Linear fluid (dielectric constant: 7.2) occupying 0.811360 of unit cell:	Completed after 2 iterations at t[s]:    489.58
	FillingsUpdate:  mu: -0.126760648  nElectrons: 354.000000
	Linear fluid (dielectric constant: 7.2) occupying 0.811375 of unit cell:	Completed after 2 iterations at t[s]:    493.54
SCF: Cycle: 16   F: -588.910893180935545   dF: -7.663e-08   |Residual|: 9.748e-05   |deigs|: 1.273e-04  t[s]:    493.69
	Linear fluid (dielectric constant: 7.2) occupying 0.811341 of unit cell:	Completed after 2 iterations at t[s]:    493.83
	FillingsUpdate:  mu: -0.126770083  nElectrons: 354.000000
	Linear fluid (dielectric constant: 7.2) occupying 0.811376 of unit cell:	Completed after 2 iterations at t[s]:    497.72
SCF: Cycle: 17   F: -588.910893258159831   dF: -7.722e-08   |Residual|: 5.680e-05   |deigs|: 1.462e-04  t[s]:    497.87
	Linear fluid (dielectric constant: 7.2) occupying 0.811335 of unit cell:	Completed after 2 iterations at t[s]:    498.01
	FillingsUpdate:  mu: -0.126773553  nElectrons: 354.000000
	Linear fluid (dielectric constant: 7.2) occupying 0.811374 of unit cell:	Completed after 2 iterations at t[s]:    501.38
SCF: Cycle: 18   F: -588.910893284945587   dF: -2.679e-08   |Residual|: 4.796e-05   |deigs|: 4.123e-05  t[s]:    501.53
	Linear fluid (dielectric constant: 7.2) occupying 0.811346 of unit cell:	Completed after 1 iterations at t[s]:    501.67
	FillingsUpdate:  mu: -0.126782916  nElectrons: 354.000000
	Linear fluid (dielectric constant: 7.2) occupying 0.811374 of unit cell:	Completed after 1 iterations at t[s]:    504.98
SCF: Cycle: 19   F: -588.910893328434668   dF: -4.349e-08   |Residual|: 3.839e-05   |deigs|: 4.542e-05  t[s]:    505.13
	Linear fluid (dielectric constant: 7.2) occupying 0.811345 of unit cell:	Completed after 1 iterations at t[s]:    505.25
	FillingsUpdate:  mu: -0.126784378  nElectrons: 354.000000
	Linear fluid (dielectric constant: 7.2) occupying 0.811374 of unit cell:	Completed after 1 iterations at t[s]:    508.94
SCF: Cycle: 20   F: -588.910893355077292   dF: -2.664e-08   |Residual|: 3.236e-05   |deigs|: 5.085e-05  t[s]:    509.09
	Linear fluid (dielectric constant: 7.2) occupying 0.811354 of unit cell:	Completed after 1 iterations at t[s]:    509.21
	FillingsUpdate:  mu: -0.126787326  nElectrons: 354.000000
	Linear fluid (dielectric constant: 7.2) occupying 0.811374 of unit cell:	Completed after 1 iterations at t[s]:    512.53
[...]
	Linear fluid (dielectric constant: 7.2) occupying 0.810547 of unit cell:	Completed after 0 iterations at t[s]:  11014.94
	FillingsUpdate:  mu: -0.123982100  nElectrons: 354.000000
	Linear fluid (dielectric constant: 7.2) occupying 0.810548 of unit cell:	Completed after 0 iterations at t[s]:  11018.26
SCF: Cycle:  1   F: -588.912813665844283   dF: +1.717e-09   |Residual|: 1.706e-05   |deigs|: 4.177e-06  t[s]:  11018.40
	Linear fluid (dielectric constant: 7.2) occupying 0.810547 of unit cell:	Completed after 0 iterations at t[s]:  11018.52
	FillingsUpdate:  mu: -0.123982026  nElectrons: 354.000000
	Linear fluid (dielectric constant: 7.2) occupying 0.810548 of unit cell:	Completed after 1 iterations at t[s]:  11021.12
SCF: Cycle:  2   F: -588.912813654846445   dF: +1.100e-08   |Residual|: 3.223e-05   |deigs|: 2.374e-06  t[s]:  11021.27
	Linear fluid (dielectric constant: 7.2) occupying 0.810547 of unit cell:	Completed after 1 iterations at t[s]:  11021.41
	FillingsUpdate:  mu: -0.123981805  nElectrons: 354.000000
	Linear fluid (dielectric constant: 7.2) occupying 0.810548 of unit cell:	Completed after 0 iterations at t[s]:  11024.04
SCF: Cycle:  3   F: -588.912813663991415   dF: -9.145e-09   |Residual|: 2.204e-05   |deigs|: 9.794e-07  t[s]:  11024.19
	Linear fluid (dielectric constant: 7.2) occupying 0.810547 of unit cell:	Completed after 0 iterations at t[s]:  11024.31
	FillingsUpdate:  mu: -0.123979724  nElectrons: 354.000000
	Linear fluid (dielectric constant: 7.2) occupying 0.810547 of unit cell:	Completed after 0 iterations at t[s]:  11026.99
SCF: Cycle:  4   F: -588.912813662157305   dF: +1.834e-09   |Residual|: 1.678e-05   |deigs|: 2.172e-06  t[s]:  11027.13
	Linear fluid (dielectric constant: 7.2) occupying 0.810547 of unit cell:	Completed after 0 iterations at t[s]:  11027.24
	FillingsUpdate:  mu: -0.123982544  nElectrons: 354.000000
	Linear fluid (dielectric constant: 7.2) occupying 0.810548 of unit cell:	Completed after 1 iterations at t[s]:  11029.87
SCF: Cycle:  5   F: -588.912813640600916   dF: +2.156e-08   |Residual|: 4.680e-05   |deigs|: 3.522e-06  t[s]:  11030.01
	Linear fluid (dielectric constant: 7.2) occupying 0.810547 of unit cell:	Completed after 1 iterations at t[s]:  11030.14
	FillingsUpdate:  mu: -0.123982011  nElectrons: 354.000000
	Linear fluid (dielectric constant: 7.2) occupying 0.810548 of unit cell:	Completed after 0 iterations at t[s]:  11032.81
SCF: Cycle:  6   F: -588.912813664542796   dF: -2.394e-08   |Residual|: 2.137e-05   |deigs|: 1.769e-06  t[s]:  11032.95
	Linear fluid (dielectric constant: 7.2) occupying 0.810547 of unit cell:	Completed after 0 iterations at t[s]:  11033.06
	FillingsUpdate:  mu: -0.123980548  nElectrons: 354.000000
	Linear fluid (dielectric constant: 7.2) occupying 0.810547 of unit cell:	Completed after 0 iterations at t[s]:  11035.75
SCF: Cycle:  7   F: -588.912813668469653   dF: -3.927e-09   |Residual|: 1.050e-05   |deigs|: 1.486e-06  t[s]:  11035.89
	Linear fluid (dielectric constant: 7.2) occupying 0.810547 of unit cell:	Completed after 0 iterations at t[s]:  11036.00
	FillingsUpdate:  mu: -0.123980548  nElectrons: 354.000000
	Linear fluid (dielectric constant: 7.2) occupying 0.810547 of unit cell:	Completed after 0 iterations at t[s]:  11038.25
SCF: Cycle:  8   F: -588.912813668469425   dF: +2.274e-13   |Residual|: 1.062e-05   |deigs|: 5.274e-09  t[s]:  11038.38
	Linear fluid (dielectric constant: 7.2) occupying 0.810547 of unit cell:	Completed after 0 iterations at t[s]:  11038.49
	FillingsUpdate:  mu: -0.123980548  nElectrons: 354.000000
	Linear fluid (dielectric constant: 7.2) occupying 0.810547 of unit cell:	Completed after 0 iterations at t[s]:  11041.21
SCF: Cycle:  9   F: -588.912813668500576   dF: -3.115e-11   |Residual|: 1.086e-05   |deigs|: 1.560e-08  t[s]:  11041.35
	Linear fluid (dielectric constant: 7.2) occupying 0.810547 of unit cell:	Completed after 0 iterations at t[s]:  11041.45
	FillingsUpdate:  mu: -0.123980548  nElectrons: 354.000000
	Linear fluid (dielectric constant: 7.2) occupying 0.810547 of unit cell:	Completed after 0 iterations at t[s]:  11043.37
SCF: Cycle: 10   F: -588.912813668498643   dF: +1.933e-12   |Residual|: 1.087e-05   |deigs|: 1.309e-08  t[s]:  11043.50
	Linear fluid (dielectric constant: 7.2) occupying 0.810548 of unit cell:	Completed after 0 iterations at t[s]:  11043.61
	FillingsUpdate:  mu: -0.123980552  nElectrons: 354.000000
	Linear fluid (dielectric constant: 7.2) occupying 0.810547 of unit cell:	Completed after 0 iterations at t[s]:  11046.53
SCF: Cycle: 11   F: -588.912813668507169   dF: -8.527e-12   |Residual|: 1.080e-05   |deigs|: 1.012e-07  t[s]:  11046.67
	Linear fluid (dielectric constant: 7.2) occupying 0.810548 of unit cell:	Completed after 0 iterations at t[s]:  11046.78
	FillingsUpdate:  mu: -0.123980561  nElectrons: 354.000000
	Linear fluid (dielectric constant: 7.2) occupying 0.810547 of unit cell:	Completed after 0 iterations at t[s]:  11049.73
SCF: Cycle: 12   F: -588.912813666133502   dF: +2.374e-09   |Residual|: 1.028e-05   |deigs|: 1.172e-07  t[s]:  11049.90
	Linear fluid (dielectric constant: 7.2) occupying 0.810547 of unit cell:	Completed after 0 iterations at t[s]:  11050.00
	FillingsUpdate:  mu: -0.123981182  nElectrons: 354.000000
	Linear fluid (dielectric constant: 7.2) occupying 0.810548 of unit cell:	Completed after 1 iterations at t[s]:  11052.68
SCF: Cycle: 13   F: -588.912813646184304   dF: +1.995e-08   |Residual|: 5.012e-05   |deigs|: 1.657e-06  t[s]:  11052.82
	Linear fluid (dielectric constant: 7.2) occupying 0.810547 of unit cell:	Completed after 1 iterations at t[s]:  11052.95
	FillingsUpdate:  mu: -0.123981510  nElectrons: 354.000000
	Linear fluid (dielectric constant: 7.2) occupying 0.810548 of unit cell:	Completed after 1 iterations at t[s]:  11055.44
SCF: Cycle: 14   F: -588.912813656243316   dF: -1.006e-08   |Residual|: 3.066e-05   |deigs|: 2.176e-06  t[s]:  11055.59
	Linear fluid (dielectric constant: 7.2) occupying 0.810547 of unit cell:	Completed after 1 iterations at t[s]:  11055.72
	FillingsUpdate:  mu: -0.123981608  nElectrons: 354.000000
	Linear fluid (dielectric constant: 7.2) occupying 0.810548 of unit cell:	Completed after 0 iterations at t[s]:  11058.24
SCF: Cycle: 15   F: -588.912813664059286   dF: -7.816e-09   |Residual|: 2.257e-05   |deigs|: 1.110e-06  t[s]:  11058.38
	Linear fluid (dielectric constant: 7.2) occupying 0.810547 of unit cell:	Completed after 0 iterations at t[s]:  11058.51
	FillingsUpdate:  mu: -0.123979847  nElectrons: 354.000000
	Linear fluid (dielectric constant: 7.2) occupying 0.810547 of unit cell:	Completed after 0 iterations at t[s]:  11061.28
SCF: Cycle: 16   F: -588.912813664611690   dF: -5.524e-10   |Residual|: 1.462e-05   |deigs|: 1.791e-06  t[s]:  11061.43
SCF: Converged (|Delta E|<1.000000e-08 for 2 iters).

Setting wave functions to eigenvectors of Hamiltonian

# Ionic positions in cartesian coordinates:
ion C  28.005798599999999   0.000000000000000   0.897300000000001 0
ion C  16.336715849999997  20.211437139299999   0.897300000000001 0
ion C   2.333816549999999   4.042283648400000   0.897300000000001 0
ion C  23.338165499999999   0.000000000000000   0.897300000000001 0
ion C   4.667633100000000   0.000000000000000   0.897300000000001 0
ion C  11.669082749999999  20.211437139299999   0.897300000000001 0
ion C  25.671982050000000   4.042283648400000   0.897300000000001 0
ion C  18.670532399999999  16.169153490900001   0.897300000000001 0
ion C   4.667633099999997   8.084586194100000   0.897300000000001 0
ion C  18.670532399999999   0.000000000000000   0.897300000000001 0
ion C   9.335266200000000   0.000000000000000   0.897300000000001 0
ion C   9.335266200000001  16.169153490900001   0.897300000000001 0
ion C  23.338165500000002   8.084586194100000   0.897300000000001 0
ion C  21.004348950000001  12.126869842500000   0.897300000000001 0
ion C   7.001449649999998  12.126869842500000   0.897300000000001 0
ion C  14.002899299999999   0.000000000000000   0.897300000000001 0
ion C  14.002899299999997  16.169153490900001   0.897300000000001 0
ion C   7.001449650000000   4.042283648400000   0.897300000000001 0
ion C  21.004348950000001   4.042283648400000   0.897300000000001 0
ion C  16.336715849999997  12.126869842500000   0.897300000000001 0
ion C   9.335266200000000   8.084586194100000   0.897300000000001 0
ion C  16.336715849999994   4.042283648400000   0.897300000000001 0
ion C  11.669082749999999   4.042283648400000   0.897300000000001 0
ion C  11.669082749999999  12.126869842500000   0.897300000000001 0
ion C  18.670532399999988   8.084586194100000   0.897300000000001 0
ion C   7.001449650000000  20.211437139299999   0.897300000000001 0
ion C  -7.001449650000000  20.211437139299999   0.897300000000001 0
ion C   0.000000000000000   8.084586194100000   0.897300000000001 0
ion C  14.002899299999999   8.084586194100000   0.897300000000001 0
ion C   2.333816550000000  20.211437139299999   0.897300000000001 0
ion C  -4.667633100000000  16.169153490900001   0.897300000000001 0
ion C   2.333816550000000  12.126869842500000   0.897300000000001 0
ion C  -2.333816549999999  12.126869842500000   0.897300000000001 0
ion C  -2.333816549999998  20.211437139299999   0.897300000000001 0
ion C   4.667633099999998  16.169153490900001   0.897300000000001 0
ion C   0.000000000000000  16.169153490900001   0.897300000000001 0
ion C  14.002880402700006  21.558890218500000   0.897300000000001 0
ion C   2.333816549999999   1.347415284600000   0.897300000000001 0
ion C  25.672000947299999   1.347434181900000   0.897300000000001 0
ion C  16.336696952700002  17.516587672800000   0.897300000000001 0
ion C   4.667633100000000   5.389698933000000   0.897300000000001 0
ion C  21.004367847299999   1.347434181900000   0.897300000000001 0
ion C   7.001430752700000   1.347434181900000   0.897300000000001 0
ion C  11.669101647299998  17.516587672800000   0.897300000000001 0
ion C  23.338165499999999   5.389698933000000   0.897300000000001 0
ion C  18.670513502700000  13.474304024400000   0.897300000000001 0
ion C   7.001449649999999   9.432001478699998   0.897300000000001 0
ion C  16.336734747299996   1.347434181900000   0.897300000000001 0
ion C  11.669063852700001   1.347434181900000   0.897300000000001 0
ion C   9.335285097299998  13.474304024400000   0.897300000000001 0
ion C  21.004348950000001   9.432001478699998   0.897300000000001 0
ion C   9.335247302699999  21.558890218500000   0.897300000000001 0
ion C  -9.335266200000000  21.558871321199998   0.897300000000001 0
ion C   0.000018897300000   5.389717830300000   0.897300000000001 0
ion C  14.002880402699990  13.474304024400000   0.897300000000001 0
ion C   9.335266200000000   5.389698933000000   0.897300000000001 0
ion C  18.670551297300001   5.389717830300000   0.897300000000001 0
ion C  16.336696952699999   9.432020376000001   0.897300000000001 0
ion C  11.669082750000001   9.432001478699998   0.897300000000001 0
ion C  14.002918197299991   5.389717830300000   0.897300000000001 0
ion C   4.667614202699999  21.558890218500000   0.897300000000001 0
ion C  -7.001449650000000  17.516568775499998   0.897300000000001 0
ion C   2.333835447300000   9.432020376000001   0.897300000000001 0
ion C  -2.333835447300000   9.432020376000001   0.897300000000001 0
ion C  -4.667614202700001  21.558890218500000   0.897300000000001 0
ion C   7.001449650000000  17.516568775499998   0.897300000000001 0
ion C  -0.000018897300000  21.558890218500000   0.897300000000001 0
ion C  -4.667633100000000  13.474285127100000   0.897300000000001 0
ion C   4.667651997299994  13.474304024400000   0.897300000000001 0
ion C   2.333797652700000  17.516587672800000   0.897300000000001 0
ion C  -2.333816549999999  17.516568775499998   0.897300000000001 0
ion C   0.000018897299999  13.474304024400000   0.897300000000001 0
ion S   4.389423715942011  11.845595493825323   8.692357297000175 1
ion S   4.724456140373766   8.270734639271994  11.179675726373816 1
ion S   6.069809345845921   9.323337260355984  14.470707009592051 1
ion S  11.460499522552984   5.824103652502999   9.680259194945373 1
ion S  14.992117988940615   6.816598321045544   8.629455343025217 1
ion S  16.492309579332105   9.469107535284264  10.832488319847338 1
ion S   6.781557731721664  14.330363966651392  10.318917415179852 1
ion S  10.452273818219236  13.585736849787040   9.373382625889766 1
ion Na  11.583107689502359  10.026403220219377  13.457136326041603 1
ion Na   8.883653679825841   9.357324693816482   6.715598807007077 1

# Forces in Cartesian coordinates:
force C  -0.000079099407355   0.000040249140642  -0.000200490433274 0
force C  -0.000164323032269   0.000079126970640  -0.000191258406973 0
force C  -0.000189823559666  -0.000036896124671   0.000156362106644 0
force C  -0.000012474729691   0.000013181248731  -0.000192308226455 0
force C  -0.000095852918628   0.000059456309816  -0.000209152765852 0
force C  -0.000110112262474  -0.000033989640020  -0.000318016704535 0
force C  -0.000014734246865  -0.000075844178195  -0.000190912789809 0
force C  -0.000059744520153  -0.000037057293297  -0.000192691102682 0
force C  -0.001414525401535  -0.000725702605034  -0.000005800099935 0
force C   0.000033847317756   0.000050348006598  -0.000201520296333 0
force C   0.000074774719607   0.000080366707842  -0.000373564092254 0
force C  -0.000010489892323   0.000460134879909   0.000042301374309 0
force C  -0.000044791976259  -0.000107541902774  -0.000212424897419 0
force C  -0.000030809005679  -0.000133314507668  -0.000163450898184 0
force C  -0.000275777094369   0.001519655426773  -0.000000075386995 0
force C   0.000093134123864   0.000101561726516  -0.000379008562717 0
force C  -0.000162090859317  -0.000005189758250  -0.000059957366472 0
force C  -0.000147883204249  -0.000348462270332  -0.000131354524577 0
force C  -0.000014940691158  -0.000057129759063  -0.000301242949107 0
force C  -0.000025412162296   0.000004050462937  -0.000081198141288 0
force C   0.000425313558198  -0.000871939742950   0.000869894735539 0
force C   0.000072742984790  -0.000011736918469   0.000039091006284 0
force C   0.000364185050672  -0.000298588955473  -0.000075183351038 0
force C   0.000369644188976   0.000980718703930  -0.000111315596766 0
force C  -0.000011085410460  -0.000146723021031  -0.000002616286655 0
force C   0.000078385886003  -0.000016231094081  -0.000270039848540 0
force C  -0.000013913306252   0.000029596967558  -0.000191735405080 0
force C  -0.000034858137749  -0.000171156466912   0.000047536083167 0
force C   0.001025879424838  -0.000574866724823   0.000008942234860 0
force C   0.000097892196636   0.000073786378077  -0.000206306009505 0
force C   0.000000780278376  -0.000021949019362  -0.000193107305509 0
force C   0.000021972377103   0.000150964326652   0.000031828861462 0
force C   0.000012180337975  -0.000084381164050  -0.000278982980557 0
force C   0.000104544743943   0.000059896813633  -0.000195434896845 0
force C   0.000133303340057   0.000013441132894   0.000001834738206 0
force C   0.000103579848496   0.000022767925311  -0.000478170495665 0
force C   0.000115734491908  -0.000109557604360  -0.000196577348949 0
force C   0.000075955642260  -0.000061081508290  -0.000197208662626 0
force C   0.000014577260501  -0.000012778603426  -0.000195612329111 0
force C   0.000063452004291  -0.000125637820053  -0.000232730015084 0
force C  -0.000245575080929  -0.000238377404976  -0.000408014153761 0
force C  -0.000013982769335   0.000000218164814  -0.000203818047569 0
force C   0.000150416857676  -0.000215964818751  -0.000310508220609 0
force C  -0.000047563368700  -0.000137369198908  -0.000037885342242 0
force C  -0.000007754002306   0.000136376235207  -0.000196509269304 0
force C   0.000010071282806   0.000034939981579  -0.000105505921440 0
force C  -0.001360178531387   0.000545759291602   0.000560174256960 0
force C  -0.000127253952959  -0.000014940104607  -0.000425321030240 0
force C  -0.000114445623742  -0.000102017349100  -0.000025671562022 0
force C   0.000131869322964   0.000755107728352  -0.000161303887217 0
force C  -0.000034957465488   0.000162952342000  -0.000093461544383 0
force C   0.000047149164961  -0.000085303257687  -0.000212059658076 0
force C   0.000071809291947  -0.000059951525693  -0.000206810504579 0
force C  -0.000000581432036   0.000061240664686   0.000037203075618 0
force C   0.000528417823049   0.000260089043682   0.000019015711142 0
force C   0.000099262890037  -0.002010222629827   0.000179668036859 0
force C  -0.000082758908394   0.000133936649978   0.000058513845068 0
force C   0.000125149661360   0.000173944152530  -0.000118338644466 0
force C   0.001611246326132   0.000648731855597   0.000294702895309 0
force C   0.000117294916146  -0.000146651186239  -0.000164228471467 0
force C  -0.000101870771353  -0.000073497479965  -0.000219774158905 0
force C   0.000039776283543  -0.000049404304113  -0.000201071796630 0
force C  -0.000270051418929   0.000226054179800   0.000021884463487 0
force C  -0.000037178724144   0.000159661836673  -0.000230397994384 0
force C  -0.000021569637830  -0.000031447611496  -0.000204013109038 0
force C   0.000098403972579  -0.000116044570689  -0.000056318625935 0
force C  -0.000101776836286  -0.000044658340347  -0.000201048918466 0
force C  -0.000030523384380   0.000060236521773  -0.000203098551621 0
force C  -0.000672966778574   0.000367293353369   0.000048225934060 0
force C  -0.000097041853135  -0.000114920468668  -0.000349950385513 0
force C  -0.000080024034525  -0.000024839010345  -0.000209604188486 0
force C  -0.000033276455045   0.000035978489850  -0.000121477662945 0
force S  -0.000276453279954   0.000006681140465   0.000214552861888 1
force S   0.000189906891742  -0.000252684892584  -0.000092991621175 1
force S  -0.000091510697028   0.000452769107004  -0.000194715388158 1
force S   0.000149786041971  -0.000006877299042  -0.000192969585954 1
force S   0.000175962104661   0.001242083194669   0.000992354047137 1
force S  -0.000343449943195  -0.001028234979068  -0.000709596930325 1
force S   0.000165320158920  -0.000053724119659   0.000282218886252 1
force S  -0.000025518919953  -0.000072737468939  -0.000026715541360 1
force Na  -0.000041798391873  -0.000014871007660  -0.000360059704253 1
force Na   0.000140419027562  -0.000233880966148   0.000343741764379 1

# Energy components:
   A_diel =       -0.0372946453447371
   Eewald =     5131.1536227586375389
       EH =     5597.5669870408355564
     Eloc =   -11367.7498751336261194
      Enl =      -71.5537282195923439
      Exc =     -178.5888254790401106
 Exc_core =       16.5665092201145647
       KE =      283.8212271046307933
-------------------------------------
     Etot =     -588.8213773533846052
       TS =        0.0914363112270958
-------------------------------------
        F =     -588.9128136646116900

IonicMinimize: Iter:  62  F: -588.912813664611690  |grad|_K:  4.171e-04  alpha: -2.724e-01  linmin: -3.469e-02  t[s]:  11062.74
IonicMinimize: Converged (|Delta F|<1.000000e-06 for 2 iters).

#--- Lowdin population analysis ---
# oxidation-state C +0.045 +0.046 +0.044 +0.045 +0.045 +0.046 +0.045 +0.046 +0.035 +0.046 +0.046 +0.047 +0.046 +0.047 +0.030 +0.046 +0.047 +0.041 +0.046 +0.046 +0.008 +0.045 +0.043 +0.034 +0.046 +0.046 +0.046 +0.045 +0.041 +0.046 +0.046 +0.044 +0.046 +0.046 +0.046 +0.046 +0.046 +0.045 +0.046 +0.046 +0.041 +0.046 +0.045 +0.048 +0.046 +0.046 +0.013 +0.046 +0.046 +0.037 +0.046 +0.046 +0.046 +0.045 +0.045 +0.034 +0.046 +0.045 +0.022 +0.044 +0.046 +0.046 +0.043 +0.046 +0.046 +0.047 +0.046 +0.046 +0.043 +0.046 +0.046 +0.045
# oxidation-state S -0.069 +0.079 -0.267 -0.399 +0.307 -0.308 +0.200 -0.442
# oxidation-state Na +0.775 +0.729


Dumping 'Na2S8@graphene-glyme.fillings' ... done
Dumping 'Na2S8@graphene-glyme.wfns' ... done
Dumping 'Na2S8@graphene-glyme.fluidState' ... done
Dumping 'Na2S8@graphene-glyme.ionpos' ... done
Dumping 'Na2S8@graphene-glyme.eigenvals' ... done
End date and time: Fri Sep 27 08:14:48 2024  (Duration: 0-3:04:24.66)
Done!
