
*************** JDFTx 1.7.0  ***************

Start date and time: Sun Apr 30 15:56:50 2023
Executable jdftx with command-line: -i Na2S@graphene_6x6x1-glyme.in -o Na2S@graphene_6x6x1-glyme.out
Running on hosts (process indices):  Andrew-Kim-Laptop1 (0)
Divided in process groups (process indices):  0 (0)
Resource initialization completed at t[s]:      0.00
Run totals: 1 processes, 2 threads, 0 GPUs


Input parsed successfully to the following command list (including defaults):

basis kpoint-dependent
coords-type Cartesian
core-overlap-check vector
coulomb-interaction Slab 001
coulomb-truncation-embed 0 0 23.6216
davidson-band-ratio 1.1
dump End State
dump-name Na2S@graphene_6x6x1-glyme.$VAR
elec-cutoff 20 100
elec-eigen-algo Davidson
elec-ex-corr gga-PBE
elec-smearing Fermi 0.01
electronic-minimize  \
	dirUpdateScheme      FletcherReeves \
	linminMethod         DirUpdateRecommended \
	nIterations          100 \
	history              15 \
	knormThreshold       0 \
	energyDiffThreshold  1e-08 \
	nEnergyDiff          2 \
	alphaTstart          1 \
	alphaTmin            1e-10 \
	updateTestStepSize   yes \
	alphaTreduceFactor   0.1 \
	alphaTincreaseFactor 3 \
	nAlphaAdjustMax      3 \
	wolfeEnergy          0.0001 \
	wolfeGradient        0.9 \
	fdTest               no
electronic-scf  \
	nIterations	50 \
	energyDiffThreshold	1e-08 \
	residualThreshold	1e-07 \
	mixFraction	0.5 \
	qMetric	0.8 \
	history	10 \
	nEigSteps	2 \
	eigDiffThreshold	1e-08 \
	mixedVariable	Density \
	qKerker	0.8 \
	qKappa	-1 \
	verbose	no \
	mixFractionMag	1.5
exchange-regularization WignerSeitzTruncated
fluid LinearPCM 298.000000 1.013250
fluid-ex-corr lda-TF lda-PZ
fluid-gummel-loop 10 1.000000e-05
fluid-minimize  \
	dirUpdateScheme      PolakRibiere \
	linminMethod         DirUpdateRecommended \
	nIterations          400 \
	history              15 \
	knormThreshold       1e-11 \
	energyDiffThreshold  0 \
	nEnergyDiff          2 \
	alphaTstart          1 \
	alphaTmin            1e-10 \
	updateTestStepSize   yes \
	alphaTreduceFactor   0.1 \
	alphaTincreaseFactor 3 \
	nAlphaAdjustMax      6 \
	wolfeEnergy          0.0001 \
	wolfeGradient        0.9 \
	fdTest               no
fluid-solvent Glyme 9.62137 ScalarEOS \
	epsBulk 7.2 \
	pMol 0 \
	epsInf 1.9 \
	Pvap 0 \
	sigmaBulk 0 \
	Rvdw 0 \
	Res 0 \
	tauNuc 343133
forces-output-coords Positions
ion C  28.014162925916441   0.004453384674690  23.488700336250716 1
ion C  16.346425888740537  20.217875004139898  23.494441368511783 1
ion C   2.341491267388133   4.043706087769919  23.494288650092468 1
ion C  23.346676486641854   0.004384458899791  23.483901318126694 1
ion C   4.676245474304146   0.003825684533332  23.487138916511071 1
ion C  11.677668704867260  20.219126759791724  23.483004299183591 1
ion C  25.678811057378855   4.044276294935732  23.499408675705300 1
ion C  18.680488284317882  16.174907144025568  23.511821298159187 1
ion C   4.677492135958810   8.082325094833877  23.480434218273459 1
ion C  18.679382389646399   0.004419539788082  23.483426455373358 1
ion C   9.343823638707175   0.003953947274407  23.485047852861264 1
ion C   9.343132606087327  16.180035273305720  23.462238808629923 1
ion C  23.345124811792473   8.086659640014878  23.516110558754391 1
ion C  21.013103120380649  12.130537488137513  23.522228736787792 1
ion C   7.010396563482270  12.130147336608232  23.448669631144288 1
ion C  14.011721669833374   0.004487328277764  23.486992976749193 1
ion C  14.013558296018106  16.179574426149870  23.498757826101649 1
ion C   7.009818515150769   4.042499155409574  23.483844483499080 1
ion C  21.013258005010439   4.045063281439558  23.499911963395391 1
ion C  16.350423015839485  12.130599170600259  23.518035179028320 1
ion C   9.342281602294870   8.081813368171400  23.475546112810431 1
ion C  16.347062351595820   4.043993563439029  23.499817348777334 1
ion C  11.678225160842871   4.043864528802732  23.491257888877005 1
ion C  11.678772579836281  12.132656534902800  23.479943835860723 1
ion C  18.681222676379658   8.086169753017820  23.517364251816780 1
ion C   7.009916898374378  20.219343866477669  23.472579061328812 1
ion C  -6.992609659547584  20.216547172333016  23.496399385793953 1
ion C   0.003266530903848   8.083516107494180  23.512278174675206 1
ion C  14.015955885954099   8.083119896903865  23.508223950230427 1
ion C   2.342093071666019  20.219019570074142  23.480326146245698 1
ion C  -4.659880863172910  16.174560757149859  23.510300320021678 1
ion C   2.339186588937720  12.132995157544903  23.489299233363806 1
ion C  -2.329954496254302  12.131009916067642  23.516589949079659 1
ion C  -2.326304055174534  20.217696998809750  23.491504033873877 1
ion C   4.676726791076918  16.180841540819191  23.466168264274856 1
ion C   0.006137637165399  16.178703673620589  23.495659639727563 1
ion C  14.012348709644570  21.564438777735628  23.489604884116638 1
ion C   2.342824768057115   1.350062948308334  23.489941598843274 1
ion C  25.680516519737949   1.350702761820675  23.488903069804863 1
ion C  16.348003904104942  17.524448264432507  23.502678071625702 1
ion C   4.676210764116784   5.387823892778022  23.487264968155824 1
ion C  21.013008310099927   1.350663380772684  23.487704732809103 1
ion C   7.009950811972321   1.349259225414340  23.484223002515041 1
ion C  11.677762640953041  17.525450596518706  23.480362871851007 1
ion C  23.346324894239519   5.392231680162620  23.505102574666331 1
ion C  18.681997813576384  13.480334719088798  23.519483950082130 1
ion C   7.010361707405791   9.432882251512829  23.458902066493309 1
ion C  16.345682566415046   1.350653197918856  23.488395943382983 1
ion C  11.677343100946770   1.350076750284254  23.487853421160832 1
ion C   9.341532935239169  13.484022034967618  23.456042416622726 1
ion C  21.013053215586027   9.435742751134141  23.521852547273895 1
ion C   9.343921412688335  21.564967661889821  23.477772535012715 1
ion C  -9.325533050580072  21.563719294268758  23.490997739711112 1
ion C   0.006621766066881   5.389878389931321  23.504040826675343 1
ion C  14.017461384638807  13.483496515252021  23.507386649611831 1
ion C   9.343663251770447   5.388443811910577  23.484361305393769 1
ion C  18.680116870408927   5.391612106124537  23.506293009054612 1
ion C  16.349307086552550   9.434553397568573  23.516260415420753 1
ion C  11.678730991940606   9.429609444088063  23.492142348590626 1
ion C  14.013221041087661   5.389351834858124  23.501819267339133 1
ion C   4.676087364948579  21.564740743826302  23.475841543189748 1
ion C  -6.992581671971104  17.522334606507364  23.508981806064543 1
ion C   2.340099012219734   9.430388049872771  23.500315667712528 1
ion C  -2.329065275086099   9.435064464295710  23.516027596967280 1
ion C  -4.659725635779632  21.563781912962209  23.489331157040134 1
ion C   7.009941513485121  17.526875139515802  23.463681891904692 1
ion C   0.007471279885106  21.564584663929224  23.486805220524936 1
ion C  -4.661048587855587  13.480345295815439  23.517705640484358 1
ion C   4.678420581440577  13.483969691801144  23.461191111877959 1
ion C   2.341877433067657  17.525550844977925  23.479816581548118 1
ion C  -2.327622151484986  17.523857084604192  23.499038527601275 1
ion C   0.001623704991355  13.483660458022491  23.506902314285373 1
ion S   7.340965348298487  11.786218808348673  31.474376075483118 1
ion Na   3.511478615926023  11.652908876786041  28.565832651122516 1
ion Na  11.216418298394242  11.742143755213936  28.618760848083024 1
ion-species GBRV/$ID_pbe.uspp
ion-width Ecut
ionic-minimize  \
	dirUpdateScheme      FletcherReeves \
	linminMethod         DirUpdateRecommended \
	nIterations          200 \
	history              15 \
	knormThreshold       0.0001 \
	energyDiffThreshold  1e-06 \
	nEnergyDiff          2 \
	alphaTstart          1 \
	alphaTmin            1e-10 \
	updateTestStepSize   yes \
	alphaTreduceFactor   0.1 \
	alphaTincreaseFactor 3 \
	nAlphaAdjustMax      3 \
	wolfeEnergy          0.0001 \
	wolfeGradient        0.9 \
	fdTest               no
kpoint   0.000000000000   0.000000000000   0.000000000000  1.00000000000000
kpoint-folding 1 1 1 
latt-move-scale 1 1 1
latt-scale 1 1 1 
lattice Triclinic 28.0058 28.0058 37.7946 90 90 120
lattice-minimize  \
	dirUpdateScheme      L-BFGS \
	linminMethod         DirUpdateRecommended \
	nIterations          0 \
	history              15 \
	knormThreshold       0 \
	energyDiffThreshold  1e-06 \
	nEnergyDiff          2 \
	alphaTstart          1 \
	alphaTmin            1e-10 \
	updateTestStepSize   yes \
	alphaTreduceFactor   0.1 \
	alphaTincreaseFactor 3 \
	nAlphaAdjustMax      3 \
	wolfeEnergy          0.0001 \
	wolfeGradient        0.9 \
	fdTest               no
lcao-params -1 1e-06 0.01
pcm-variant GLSSA13
spintype no-spin
subspace-rotation-factor 1 yes
symmetries automatic
symmetry-threshold 0.0001



---------- Setting up symmetries ----------

Found 24 point-group symmetries of the bravais lattice
Found 1 space-group symmetries with basis
Applied RMS atom displacement 0 bohrs to make symmetries exact.

---------- Initializing the Grid ----------
R = 
[      28.0058     -14.0029            0  ]
[            0      24.2537            0  ]
[            0            0      37.7946  ]
unit cell volume = 25671.8
G =
[   0.224353    0.12953         -0  ]
[          0   0.259061          0  ]
[          0         -0   0.166246  ]
Minimum fftbox size, Smin = [  128  128  172  ]
Chosen fftbox size, S = [  128  128  180  ]

---------- Initializing tighter grid for wavefunction operations ----------
R = 
[      28.0058     -14.0029            0  ]
[            0      24.2537            0  ]
[            0            0      37.7946  ]
unit cell volume = 25671.8
G =
[   0.224353    0.12953         -0  ]
[          0   0.259061          0  ]
[          0         -0   0.166246  ]
Minimum fftbox size, Smin = [  116  116  156  ]
Chosen fftbox size, S = [  120  120  160  ]

---------- Exchange Correlation functional ----------
Initalized PBE GGA exchange.
Initalized PBE GGA correlation.

---------- Setting up pseudopotentials ----------
Width of ionic core gaussian charges (only for fluid interactions / plotting) set to 0.397384

Reading pseudopotential file '/home/akakimmykim/jdftx-1.7.0/build/pseudopotentials/GBRV/c_pbe.uspp':
  Title: C.  Created by USPP 7.3.6 on 3-2-2014
  Reference state energy: -5.406344.  4 valence electrons in orbitals:
    |200>  occupation: 2  eigenvalue: -0.504890
    |210>  occupation: 2  eigenvalue: -0.194356
  lMax: 1  lLocal: 2  QijEcut: 5
  4 projectors sampled on a log grid with 503 points:
    l: 0  eig: -0.504890  rCut: 1.3
    l: 0  eig: 0.000000  rCut: 1.3
    l: 1  eig: -0.194357  rCut: 1.3
    l: 1  eig: 0.000000  rCut: 1.3
  Partial core density with radius 1.1
  Transforming core density to a uniform radial grid of dG=0.02 with 1625 points.
  Transforming local potential to a uniform radial grid of dG=0.02 with 1625 points.
  Transforming nonlocal projectors to a uniform radial grid of dG=0.02 with 432 points.
  Transforming density augmentations to a uniform radial grid of dG=0.02 with 1625 points.
  Transforming atomic orbitals to a uniform radial grid of dG=0.02 with 432 points.
  Core radius for overlap checks: 1.30 bohrs.

Reading pseudopotential file '/home/akakimmykim/jdftx-1.7.0/build/pseudopotentials/GBRV/s_pbe.uspp':
  Title: S.  Created by USPP 7.3.6 on 1-4-15
  Reference state energy: -11.898476.  6 valence electrons in orbitals:
    |300>  occupation: 2  eigenvalue: -0.634167
    |310>  occupation: 4  eigenvalue: -0.257568
  lMax: 2  lLocal: 3  QijEcut: 6
  6 projectors sampled on a log grid with 635 points:
    l: 0  eig: -0.634161  rCut: 1.5
    l: 0  eig: 1.500000  rCut: 1.5
    l: 1  eig: -0.257567  rCut: 1.5
    l: 1  eig: 1.500000  rCut: 1.5
    l: 2  eig: -1.000000  rCut: 1.5
    l: 2  eig: 1.500000  rCut: 1.5
  Partial core density with radius 1.15
  Transforming core density to a uniform radial grid of dG=0.02 with 1625 points.
  Transforming local potential to a uniform radial grid of dG=0.02 with 1625 points.
  Transforming nonlocal projectors to a uniform radial grid of dG=0.02 with 432 points.
  Transforming density augmentations to a uniform radial grid of dG=0.02 with 1625 points.
  Transforming atomic orbitals to a uniform radial grid of dG=0.02 with 432 points.
  Core radius for overlap checks: 1.50 bohrs.

Reading pseudopotential file '/home/akakimmykim/jdftx-1.7.0/build/pseudopotentials/GBRV/na_pbe.uspp':
  Title: Na.  Created by USPP 7.3.6 on 23-9-15
  Reference state energy: -47.625620.  9 valence electrons in orbitals:
    |200>  occupation: 2  eigenvalue: -2.085638
    |210>  occupation: 6  eigenvalue: -1.053708
    |300>  occupation: 1  eigenvalue: -0.100838
  lMax: 2  lLocal: 0  QijEcut: 6
  5 projectors sampled on a log grid with 657 points:
    l: 0  eig: -2.085640  rCut: 1.37
    l: 0  eig: -0.100839  rCut: 1.37
    l: 1  eig: -1.053708  rCut: 1.47
    l: 1  eig: 0.500000  rCut: 1.47
    l: 2  eig: 0.750000  rCut: 2
  Transforming local potential to a uniform radial grid of dG=0.02 with 1625 points.
  Transforming nonlocal projectors to a uniform radial grid of dG=0.02 with 432 points.
  Transforming density augmentations to a uniform radial grid of dG=0.02 with 1625 points.
  Transforming atomic orbitals to a uniform radial grid of dG=0.02 with 432 points.
  Core radius for overlap checks: 2.00 bohrs.

Initialized 3 species with 75 total atoms.

Folded 1 k-points by 1x1x1 to 1 k-points.

---------- Setting up k-points, bands, fillings ----------
No reducable k-points. 
Computing the number of bands and number of electrons
Calculating initial fillings.
nElectrons: 312.000000   nBands: 302   nStates: 1

----- Setting up reduced wavefunction bases (one per k-point) -----
average nbasis = 109673.000 , ideal nbasis = 109671.883

---------- Setting up coulomb interaction ----------
Fluid mode embedding: using embedded box, but periodic Coulomb kernel.
(Fluid response is responsible for (approximate) separation between periodic images.)
Setting up double-sized grid for truncated Coulomb potentials:
R = 
[      28.0058     -14.0029            0  ]
[            0      24.2537            0  ]
[            0            0      75.5892  ]
unit cell volume = 51343.6
G =
[   0.224353    0.12953         -0  ]
[          0   0.259061          0  ]
[          0         -0  0.0831228  ]
Chosen fftbox size, S = [  128  128  360  ]
Integer grid location selected as the embedding center:
   Grid: [  0  0  113  ]
   Lattice: [  0  0  0.625  ]
   Cartesian: [  0  0  23.6216  ]
Constructing Wigner-Seitz cell: 8 faces (6 quadrilaterals, 2 hexagons)
Range-separation parameter for embedded mesh potentials due to point charges: 0.590105 bohrs.

---------- Setting up ewald sum ----------
Optimum gaussian width for ewald sums = 7.220412 bohr.
Real space sum over 405 unit cells with max indices [  4  4  2  ]
Reciprocal space sum over 7875 terms with max indices [  7  7  17  ]

---------- Allocating electronic variables ----------
Initializing wave functions:  linear combination of atomic orbitals
C pseudo-atom occupations:   s ( 2 )  p ( 2 )
S pseudo-atom occupations:   s ( 2 )  p ( 4 )
Na pseudo-atom occupations:   s ( 2 1 )  p ( 6 )
	FillingsUpdate:  mu: -0.220575203  nElectrons: 312.000000
LCAOMinimize: Iter:   0  F: -512.5520647197282642  |grad|_K:  4.801e-03  alpha:  1.000e+00
LCAOMinimize: 	Step increased F by 3.636207e-01, reducing alpha to 4.021304e-02.
	FillingsUpdate:  mu: -0.233542294  nElectrons: 312.000000
LCAOMinimize: Iter:   1  F: -512.5924127415013345  |grad|_K:  7.601e-04  alpha:  4.021e-02  linmin:  5.656e-02  cgtest: -2.048e-01  t[s]:    529.31
LCAOMinimize: 	Predicted alpha/alphaT>3.000000, increasing alphaT to 1.206391e-01.
	FillingsUpdate:  mu: -0.233747038  nElectrons: 312.000000
LCAOMinimize: Iter:   2  F: -512.6006409449726107  |grad|_K:  4.947e-04  alpha:  3.349e-01  linmin:  3.640e-03  cgtest:  9.634e-02  t[s]:    730.04
	FillingsUpdate:  mu: -0.238179815  nElectrons: 312.000000
LCAOMinimize: Iter:   3  F: -512.6021383329110677  |grad|_K:  6.362e-04  alpha:  1.318e-01  linmin: -9.046e-04  cgtest:  3.084e-02  t[s]:    885.54
	FillingsUpdate:  mu: -0.236657630  nElectrons: 312.000000
LCAOMinimize: Iter:   4  F: -512.6044461922683695  |grad|_K:  8.877e-05  alpha:  1.221e-01  linmin:  8.355e-04  cgtest: -1.741e-01  t[s]:   1044.07
LCAOMinimize: 	Predicted alpha/alphaT>3.000000, increasing alphaT to 3.662476e-01.
	FillingsUpdate:  mu: -0.236894191  nElectrons: 312.000000
LCAOMinimize: Iter:   5  F: -512.6046071246504425  |grad|_K:  3.780e-05  alpha:  4.482e-01  linmin:  3.269e-03  cgtest:  5.303e-02  t[s]:   1244.97
	FillingsUpdate:  mu: -0.237477150  nElectrons: 312.000000
LCAOMinimize: Iter:   6  F: -512.6046221751419125  |grad|_K:  6.085e-05  alpha:  2.320e-01  linmin: -3.233e-05  cgtest:  1.241e-02  t[s]:   1401.89
	FillingsUpdate:  mu: -0.237112902  nElectrons: 312.000000
LCAOMinimize: Iter:   7  F: -512.6046370198702107  |grad|_K:  1.380e-05  alpha:  8.783e-02  linmin:  1.687e-03  cgtest: -7.241e-02  t[s]:   1558.00
LCAOMinimize: 	Predicted alpha/alphaT>3.000000, increasing alphaT to 2.634961e-01.
	FillingsUpdate:  mu: -0.237170587  nElectrons: 312.000000
LCAOMinimize: Iter:   8  F: -512.6046397345546666  |grad|_K:  6.488e-06  alpha:  3.121e-01  linmin: -1.869e-04  cgtest:  1.875e-02  t[s]:   1758.53
	FillingsUpdate:  mu: -0.237100712  nElectrons: 312.000000
LCAOMinimize: Iter:   9  F: -512.6046398934270201  |grad|_K:  6.025e-06  alpha:  8.245e-02  linmin:  4.053e-05  cgtest: -1.233e-03  t[s]:   1915.64
LCAOMinimize: 	Predicted alpha/alphaT>3.000000, increasing alphaT to 2.473632e-01.
	FillingsUpdate:  mu: -0.237128194  nElectrons: 312.000000
LCAOMinimize: Iter:  10  F: -512.6046403167763401  |grad|_K:  1.970e-06  alpha:  2.542e-01  linmin: -1.608e-04  cgtest:  1.733e-03  t[s]:   2119.69
LCAOMinimize: Converged (|Delta F|<1.000000e-06 for 2 iters).
----- createFluidSolver() ----- (Fluid-side solver setup)
   Initializing fluid molecule 'Glyme'
     Net charge: 0   dipole magnitude: 0
     Initializing spherical shell mfKernel with radius 0 Bohr
     deltaS corrections:

Correction to mu due to finite nuclear width = -0.00602931
   Cavity determined by nc: 8.36e-05 and sigma: 0.6
   Effective cavity tension: -8.03e-06 Eh/bohr^2 to account for cavitation and dispersion.


---- Citations for features of the code used in this run ----

   Software package:
      R. Sundararaman, K. Letchworth-Weaver, K.A. Schwarz, D. Gunceler, Y. Ozhabes and T.A. Arias, 'JDFTx: software for joint density-functional theory', SoftwareX 6, 278 (2017)

   gga-PBE exchange-correlation functional:
      J.P. Perdew, K. Burke and M. Ernzerhof, Phys. Rev. Lett. 77, 3865 (1996)

   Pseudopotentials:
      KF Garrity, JW Bennett, KM Rabe and D Vanderbilt, Comput. Mater. Sci. 81, 446 (2014)

   Truncated Coulomb potentials:
      R. Sundararaman and T.A. Arias, Phys. Rev. B 87, 165122 (2013)

   Linear/nonlinear dielectric/ionic fluid model with effective cavity tension:
      D. Gunceler, K. Letchworth-Weaver, R. Sundararaman, K.A. Schwarz and T.A. Arias, Modelling Simul. Mater. Sci. Eng. 21, 074005 (2013)

This list may not be complete. Please suggest additional citations or
report any other bugs at https://github.com/shankar1729/jdftx/issues

Initialization completed successfully at t[s]:   2163.91

Fluid solver invoked on fresh (random / LCAO) wavefunctions
Running a vacuum solve first:

-------- Initial electronic minimization -----------
Will mix electronic density at each iteration.
	FillingsUpdate:  mu: -0.237128194  nElectrons: 312.000000
	FillingsUpdate:  mu: -0.244727602  nElectrons: 312.000000
SCF: Cycle:  0   F: -516.016636655405932   dF: -3.412e+00   |Residual|: 9.413e-01   |deigs|: 1.236e-01  t[s]:   2598.77
	FillingsUpdate:  mu: -0.218209071  nElectrons: 312.000000
SCF: Cycle:  1   F: -516.453238722596211   dF: -4.366e-01   |Residual|: 4.935e-01   |deigs|: 3.666e-02  t[s]:   2958.08
	FillingsUpdate:  mu: -0.182713815  nElectrons: 312.000000
SCF: Cycle:  2   F: -516.633028473209151   dF: -1.798e-01   |Residual|: 2.016e-01   |deigs|: 2.981e-02  t[s]:   3317.83
	FillingsUpdate:  mu: -0.177890602  nElectrons: 312.000000
SCF: Cycle:  3   F: -516.763104268022857   dF: -1.301e-01   |Residual|: 1.031e-01   |deigs|: 1.177e-02  t[s]:   3676.59
	FillingsUpdate:  mu: -0.168834391  nElectrons: 312.000000
SCF: Cycle:  4   F: -516.839032011084441   dF: -7.593e-02   |Residual|: 6.831e-02   |deigs|: 6.763e-03  t[s]:   4039.93
	FillingsUpdate:  mu: -0.159770974  nElectrons: 312.000000
SCF: Cycle:  5   F: -516.848889037116351   dF: -9.857e-03   |Residual|: 3.142e-02   |deigs|: 9.822e-03  t[s]:   4398.81
	FillingsUpdate:  mu: -0.150640944  nElectrons: 312.000000
SCF: Cycle:  6   F: -516.856836606300249   dF: -7.948e-03   |Residual|: 1.943e-02   |deigs|: 8.097e-03  t[s]:   4740.44
	FillingsUpdate:  mu: -0.145211521  nElectrons: 312.000000
SCF: Cycle:  7   F: -516.859835933903241   dF: -2.999e-03   |Residual|: 1.932e-02   |deigs|: 4.965e-03  t[s]:   5077.35
	FillingsUpdate:  mu: -0.142226059  nElectrons: 312.000000
SCF: Cycle:  8   F: -516.857187787961266   dF: +2.648e-03   |Residual|: 1.693e-02   |deigs|: 3.766e-03  t[s]:   5418.47
	FillingsUpdate:  mu: -0.138645720  nElectrons: 312.000000
SCF: Cycle:  9   F: -516.860952725637844   dF: -3.765e-03   |Residual|: 1.661e-02   |deigs|: 2.566e-03  t[s]:   5762.47
	FillingsUpdate:  mu: -0.136898148  nElectrons: 312.000000
SCF: Cycle: 10   F: -516.862581980782011   dF: -1.629e-03   |Residual|: 6.997e-03   |deigs|: 1.879e-03  t[s]:   6103.63
	FillingsUpdate:  mu: -0.134228159  nElectrons: 312.000000
SCF: Cycle: 11   F: -516.862789940585913   dF: -2.080e-04   |Residual|: 6.829e-03   |deigs|: 2.198e-03  t[s]:   6420.98
	FillingsUpdate:  mu: -0.132788369  nElectrons: 312.000000
SCF: Cycle: 12   F: -516.862921054519688   dF: -1.311e-04   |Residual|: 6.794e-03   |deigs|: 1.273e-03  t[s]:   6737.60
	FillingsUpdate:  mu: -0.130199838  nElectrons: 312.000000
SCF: Cycle: 13   F: -516.863054926771156   dF: -1.339e-04   |Residual|: 4.708e-03   |deigs|: 2.409e-03  t[s]:   7051.94
	FillingsUpdate:  mu: -0.127448903  nElectrons: 312.000000
SCF: Cycle: 14   F: -516.863152848960112   dF: -9.792e-05   |Residual|: 2.913e-03   |deigs|: 3.162e-03  t[s]:   7366.95
	FillingsUpdate:  mu: -0.126144994  nElectrons: 312.000000
SCF: Cycle: 15   F: -516.863143500267711   dF: +9.349e-06   |Residual|: 2.312e-03   |deigs|: 1.570e-03  t[s]:   7680.84
	FillingsUpdate:  mu: -0.124661474  nElectrons: 312.000000
SCF: Cycle: 16   F: -516.863166481965436   dF: -2.298e-05   |Residual|: 1.444e-03   |deigs|: 1.678e-03  t[s]:   7992.60
	FillingsUpdate:  mu: -0.123699470  nElectrons: 312.000000
SCF: Cycle: 17   F: -516.863168237870809   dF: -1.756e-06   |Residual|: 1.185e-03   |deigs|: 1.114e-03  t[s]:   8307.41
	FillingsUpdate:  mu: -0.123381427  nElectrons: 312.000000
SCF: Cycle: 18   F: -516.863188840196131   dF: -2.060e-05   |Residual|: 1.002e-03   |deigs|: 5.312e-04  t[s]:   8622.86
	FillingsUpdate:  mu: -0.123193680  nElectrons: 312.000000
SCF: Cycle: 19   F: -516.863201507153462   dF: -1.267e-05   |Residual|: 9.329e-04   |deigs|: 6.932e-04  t[s]:   8935.24
	FillingsUpdate:  mu: -0.122720441  nElectrons: 312.000000
SCF: Cycle: 20   F: -516.863213847724637   dF: -1.234e-05   |Residual|: 6.475e-04   |deigs|: 8.690e-04  t[s]:   9248.78
	FillingsUpdate:  mu: -0.122501418  nElectrons: 312.000000
SCF: Cycle: 21   F: -516.863214287698156   dF: -4.400e-07   |Residual|: 5.594e-04   |deigs|: 4.119e-04  t[s]:   9589.35
	FillingsUpdate:  mu: -0.122146616  nElectrons: 312.000000
SCF: Cycle: 22   F: -516.863216241729447   dF: -1.954e-06   |Residual|: 4.342e-04   |deigs|: 9.278e-04  t[s]:   9905.35
	FillingsUpdate:  mu: -0.121926157  nElectrons: 312.000000
SCF: Cycle: 23   F: -516.863216474197657   dF: -2.325e-07   |Residual|: 3.042e-04   |deigs|: 7.495e-04  t[s]:  10219.85
	FillingsUpdate:  mu: -0.121663522  nElectrons: 312.000000
SCF: Cycle: 24   F: -516.863217306283332   dF: -8.321e-07   |Residual|: 2.188e-04   |deigs|: 8.751e-04  t[s]:  10539.54
	FillingsUpdate:  mu: -0.121568937  nElectrons: 312.000000
SCF: Cycle: 25   F: -516.863217554019570   dF: -2.477e-07   |Residual|: 1.750e-04   |deigs|: 4.779e-04  t[s]:  10853.63
	FillingsUpdate:  mu: -0.121538824  nElectrons: 312.000000
SCF: Cycle: 26   F: -516.863218035045179   dF: -4.810e-07   |Residual|: 1.336e-04   |deigs|: 2.848e-04  t[s]:  11169.47
	FillingsUpdate:  mu: -0.121577296  nElectrons: 312.000000
SCF: Cycle: 27   F: -516.863218257518838   dF: -2.225e-07   |Residual|: 1.043e-04   |deigs|: 3.409e-04  t[s]:  11481.75
	FillingsUpdate:  mu: -0.121565614  nElectrons: 312.000000
SCF: Cycle: 28   F: -516.863218311165951   dF: -5.365e-08   |Residual|: 5.278e-05   |deigs|: 3.964e-04  t[s]:  11796.82
	FillingsUpdate:  mu: -0.121557230  nElectrons: 312.000000
SCF: Cycle: 29   F: -516.863218320284432   dF: -9.118e-09   |Residual|: 3.993e-05   |deigs|: 1.893e-04  t[s]:  12110.87
	FillingsUpdate:  mu: -0.121537478  nElectrons: 312.000000
SCF: Cycle: 30   F: -516.863218325416597   dF: -5.132e-09   |Residual|: 2.715e-05   |deigs|: 2.853e-04  t[s]:  12427.22
SCF: Converged (|Delta E|<1.000000e-08 for 2 iters).

Setting wave functions to eigenvectors of Hamiltonian
Vacuum energy after initial minimize, F = -516.863218325416597


-------- Electronic minimization -----------
Will mix electronic density at each iteration.
	FillingsUpdate:  mu: -0.121537478  nElectrons: 312.000000
	Linear fluid (dielectric constant: 7.2) occupying 0.850930 of unit cell:	Completed after 13 iterations at t[s]:  12518.71
	FillingsUpdate:  mu: -0.122544883  nElectrons: 312.000000
	Linear fluid (dielectric constant: 7.2) occupying 0.851879 of unit cell:	Completed after 10 iterations at t[s]:  12916.66
SCF: Cycle:  0   F: -516.881118914152353   dF: +1.147e-02   |Residual|: 4.204e-02   |deigs|: 3.560e-03  t[s]:  12918.26
	Linear fluid (dielectric constant: 7.2) occupying 0.851514 of unit cell:	Completed after 10 iterations at t[s]:  12926.17
	FillingsUpdate:  mu: -0.119951287  nElectrons: 312.000000
	Linear fluid (dielectric constant: 7.2) occupying 0.851929 of unit cell:	Completed after 11 iterations at t[s]:  13274.41
SCF: Cycle:  1   F: -516.879911340794820   dF: +1.208e-03   |Residual|: 4.830e-02   |deigs|: 2.116e-03  t[s]:  13275.92
	Linear fluid (dielectric constant: 7.2) occupying 0.851370 of unit cell:	Completed after 11 iterations at t[s]:  13283.84
	FillingsUpdate:  mu: -0.121532715  nElectrons: 312.000000
	Linear fluid (dielectric constant: 7.2) occupying 0.852032 of unit cell:	Completed after 10 iterations at t[s]:  13629.62
SCF: Cycle:  2   F: -516.899030985938566   dF: -1.912e-02   |Residual|: 8.528e-03   |deigs|: 1.035e-03  t[s]:  13631.83
	Linear fluid (dielectric constant: 7.2) occupying 0.851646 of unit cell:	Completed after 9 iterations at t[s]:  13639.69
	FillingsUpdate:  mu: -0.120983281  nElectrons: 312.000000
	Linear fluid (dielectric constant: 7.2) occupying 0.852308 of unit cell:	Completed after 10 iterations at t[s]:  14005.31
SCF: Cycle:  3   F: -516.900321997006245   dF: -1.291e-03   |Residual|: 5.933e-03   |deigs|: 6.701e-04  t[s]:  14007.43
	Linear fluid (dielectric constant: 7.2) occupying 0.851743 of unit cell:	Completed after 9 iterations at t[s]:  14015.28
	FillingsUpdate:  mu: -0.120683750  nElectrons: 312.000000
	Linear fluid (dielectric constant: 7.2) occupying 0.852516 of unit cell:	Completed after 10 iterations at t[s]:  14382.69
SCF: Cycle:  4   F: -516.900901108188236   dF: -5.791e-04   |Residual|: 3.516e-03   |deigs|: 5.134e-04  t[s]:  14384.47
	Linear fluid (dielectric constant: 7.2) occupying 0.851965 of unit cell:	Completed after 8 iterations at t[s]:  14392.25
	FillingsUpdate:  mu: -0.119796329  nElectrons: 312.000000
	Linear fluid (dielectric constant: 7.2) occupying 0.852707 of unit cell:	Completed after 10 iterations at t[s]:  14763.05
SCF: Cycle:  5   F: -516.901159698711581   dF: -2.586e-04   |Residual|: 6.563e-03   |deigs|: 9.403e-04  t[s]:  14765.30
	Linear fluid (dielectric constant: 7.2) occupying 0.852004 of unit cell:	Completed after 9 iterations at t[s]:  14772.87
	FillingsUpdate:  mu: -0.119681355  nElectrons: 312.000000
	Linear fluid (dielectric constant: 7.2) occupying 0.852709 of unit cell:	Completed after 10 iterations at t[s]:  15138.99
SCF: Cycle:  6   F: -516.901405086911950   dF: -2.454e-04   |Residual|: 5.830e-03   |deigs|: 1.773e-04  t[s]:  15140.66
	Linear fluid (dielectric constant: 7.2) occupying 0.852084 of unit cell:	Completed after 9 iterations at t[s]:  15149.31
	FillingsUpdate:  mu: -0.119166568  nElectrons: 312.000000
	Linear fluid (dielectric constant: 7.2) occupying 0.852648 of unit cell:	Completed after 9 iterations at t[s]:  15516.10
SCF: Cycle:  7   F: -516.902102927802957   dF: -6.978e-04   |Residual|: 3.860e-03   |deigs|: 7.882e-04  t[s]:  15517.71
	Linear fluid (dielectric constant: 7.2) occupying 0.852014 of unit cell:	Completed after 8 iterations at t[s]:  15525.41
	FillingsUpdate:  mu: -0.118948047  nElectrons: 312.000000
	Linear fluid (dielectric constant: 7.2) occupying 0.852624 of unit cell:	Completed after 8 iterations at t[s]:  15893.04
SCF: Cycle:  8   F: -516.902391488510830   dF: -2.886e-04   |Residual|: 2.710e-03   |deigs|: 4.764e-04  t[s]:  15895.01
	Linear fluid (dielectric constant: 7.2) occupying 0.851892 of unit cell:	Completed after 8 iterations at t[s]:  15902.65
	FillingsUpdate:  mu: -0.118790728  nElectrons: 312.000000
	Linear fluid (dielectric constant: 7.2) occupying 0.852611 of unit cell:	Completed after 8 iterations at t[s]:  16274.39
SCF: Cycle:  9   F: -516.902575392977496   dF: -1.839e-04   |Residual|: 1.114e-03   |deigs|: 5.262e-04  t[s]:  16276.43
	Linear fluid (dielectric constant: 7.2) occupying 0.852127 of unit cell:	Completed after 7 iterations at t[s]:  16283.51
	FillingsUpdate:  mu: -0.118852832  nElectrons: 312.000000
	Linear fluid (dielectric constant: 7.2) occupying 0.852548 of unit cell:	Completed after 7 iterations at t[s]:  16607.49
SCF: Cycle: 10   F: -516.902607418489879   dF: -3.203e-05   |Residual|: 5.664e-04   |deigs|: 4.978e-04  t[s]:  16609.20
	Linear fluid (dielectric constant: 7.2) occupying 0.852316 of unit cell:	Completed after 7 iterations at t[s]:  16616.57
	FillingsUpdate:  mu: -0.118735182  nElectrons: 312.000000
	Linear fluid (dielectric constant: 7.2) occupying 0.852520 of unit cell:	Completed after 7 iterations at t[s]:  16941.79
SCF: Cycle: 11   F: -516.902603770145788   dF: +3.648e-06   |Residual|: 1.210e-03   |deigs|: 2.604e-04  t[s]:  16943.55
	Linear fluid (dielectric constant: 7.2) occupying 0.852396 of unit cell:	Completed after 7 iterations at t[s]:  16950.86
	FillingsUpdate:  mu: -0.118735994  nElectrons: 312.000000
	Linear fluid (dielectric constant: 7.2) occupying 0.852516 of unit cell:	Completed after 7 iterations at t[s]:  17274.81
SCF: Cycle: 12   F: -516.902626592094066   dF: -2.282e-05   |Residual|: 4.682e-04   |deigs|: 4.123e-04  t[s]:  17277.09
	Linear fluid (dielectric constant: 7.2) occupying 0.852447 of unit cell:	Completed after 6 iterations at t[s]:  17283.63
	FillingsUpdate:  mu: -0.118773784  nElectrons: 312.000000
	Linear fluid (dielectric constant: 7.2) occupying 0.852541 of unit cell:	Completed after 6 iterations at t[s]:  17602.39
SCF: Cycle: 13   F: -516.902630186908482   dF: -3.595e-06   |Residual|: 4.066e-04   |deigs|: 4.173e-04  t[s]:  17604.10
	Linear fluid (dielectric constant: 7.2) occupying 0.852424 of unit cell:	Completed after 6 iterations at t[s]:  17610.95
	FillingsUpdate:  mu: -0.118839776  nElectrons: 312.000000
	Linear fluid (dielectric constant: 7.2) occupying 0.852560 of unit cell:	Completed after 7 iterations at t[s]:  17931.41
SCF: Cycle: 14   F: -516.902630715582632   dF: -5.287e-07   |Residual|: 2.875e-04   |deigs|: 3.289e-04  t[s]:  17933.22
	Linear fluid (dielectric constant: 7.2) occupying 0.852420 of unit cell:	Completed after 7 iterations at t[s]:  17940.60
	FillingsUpdate:  mu: -0.118888004  nElectrons: 312.000000
	Linear fluid (dielectric constant: 7.2) occupying 0.852572 of unit cell:	Completed after 6 iterations at t[s]:  18307.84
SCF: Cycle: 15   F: -516.902629630580805   dF: +1.085e-06   |Residual|: 2.988e-04   |deigs|: 2.258e-04  t[s]:  18309.65
	Linear fluid (dielectric constant: 7.2) occupying 0.852468 of unit cell:	Completed after 5 iterations at t[s]:  18315.30
	FillingsUpdate:  mu: -0.118862327  nElectrons: 312.000000
	Linear fluid (dielectric constant: 7.2) occupying 0.852559 of unit cell:	Completed after 5 iterations at t[s]:  18679.58
SCF: Cycle: 16   F: -516.902632706714144   dF: -3.076e-06   |Residual|: 2.276e-04   |deigs|: 3.716e-04  t[s]:  18681.73
	Linear fluid (dielectric constant: 7.2) occupying 0.852509 of unit cell:	Completed after 5 iterations at t[s]:  18686.79
	FillingsUpdate:  mu: -0.118877714  nElectrons: 312.000000
	Linear fluid (dielectric constant: 7.2) occupying 0.852557 of unit cell:	Completed after 5 iterations at t[s]:  19007.22
SCF: Cycle: 17   F: -516.902633262579002   dF: -5.559e-07   |Residual|: 2.387e-04   |deigs|: 2.242e-04  t[s]:  19008.77
	Linear fluid (dielectric constant: 7.2) occupying 0.852552 of unit cell:	Completed after 4 iterations at t[s]:  19014.05
	FillingsUpdate:  mu: -0.118885523  nElectrons: 312.000000
	Linear fluid (dielectric constant: 7.2) occupying 0.852551 of unit cell:	Completed after 4 iterations at t[s]:  19332.03
SCF: Cycle: 18   F: -516.902634174245236   dF: -9.117e-07   |Residual|: 2.035e-04   |deigs|: 3.853e-04  t[s]:  19333.79
	Linear fluid (dielectric constant: 7.2) occupying 0.852568 of unit cell:	Completed after 4 iterations at t[s]:  19339.18
	FillingsUpdate:  mu: -0.118902428  nElectrons: 312.000000
	Linear fluid (dielectric constant: 7.2) occupying 0.852554 of unit cell:	Completed after 4 iterations at t[s]:  19655.99
SCF: Cycle: 19   F: -516.902634175799221   dF: -1.554e-09   |Residual|: 1.692e-04   |deigs|: 1.102e-04  t[s]:  19657.65
	Linear fluid (dielectric constant: 7.2) occupying 0.852565 of unit cell:	Completed after 3 iterations at t[s]:  19662.23
	FillingsUpdate:  mu: -0.118914021  nElectrons: 312.000000
	Linear fluid (dielectric constant: 7.2) occupying 0.852554 of unit cell:	Completed after 3 iterations at t[s]:  20024.38
SCF: Cycle: 20   F: -516.902634720776405   dF: -5.450e-07   |Residual|: 9.177e-05   |deigs|: 8.937e-05  t[s]:  20025.98
	Linear fluid (dielectric constant: 7.2) occupying 0.852561 of unit cell:	Completed after 2 iterations at t[s]:  20029.77
	FillingsUpdate:  mu: -0.118908950  nElectrons: 312.000000
	Linear fluid (dielectric constant: 7.2) occupying 0.852552 of unit cell:	Completed after 2 iterations at t[s]:  20346.29
SCF: Cycle: 21   F: -516.902635020567345   dF: -2.998e-07   |Residual|: 6.098e-05   |deigs|: 1.434e-04  t[s]:  20348.23
	Linear fluid (dielectric constant: 7.2) occupying 0.852543 of unit cell:	Completed after 3 iterations at t[s]:  20353.03
	FillingsUpdate:  mu: -0.118909694  nElectrons: 312.000000
	Linear fluid (dielectric constant: 7.2) occupying 0.852553 of unit cell:	Completed after 2 iterations at t[s]:  20668.97
SCF: Cycle: 22   F: -516.902635074780164   dF: -5.421e-08   |Residual|: 7.117e-05   |deigs|: 1.848e-04  t[s]:  20670.93
	Linear fluid (dielectric constant: 7.2) occupying 0.852539 of unit cell:	Completed after 2 iterations at t[s]:  20674.84
	FillingsUpdate:  mu: -0.118909620  nElectrons: 312.000000
	Linear fluid (dielectric constant: 7.2) occupying 0.852553 of unit cell:	Completed after 2 iterations at t[s]:  20992.77
SCF: Cycle: 23   F: -516.902635101104352   dF: -2.632e-08   |Residual|: 5.114e-05   |deigs|: 1.359e-04  t[s]:  20994.52
	Linear fluid (dielectric constant: 7.2) occupying 0.852529 of unit cell:	Completed after 1 iterations at t[s]:  20997.85
	FillingsUpdate:  mu: -0.118916612  nElectrons: 312.000000
	Linear fluid (dielectric constant: 7.2) occupying 0.852553 of unit cell:	Completed after 1 iterations at t[s]:  21320.96
SCF: Cycle: 24   F: -516.902635126085670   dF: -2.498e-08   |Residual|: 3.635e-05   |deigs|: 2.759e-04  t[s]:  21322.95
	Linear fluid (dielectric constant: 7.2) occupying 0.852529 of unit cell:	Completed after 1 iterations at t[s]:  21326.54
	FillingsUpdate:  mu: -0.118921611  nElectrons: 312.000000
	Linear fluid (dielectric constant: 7.2) occupying 0.852553 of unit cell:	Completed after 1 iterations at t[s]:  21641.37
SCF: Cycle: 25   F: -516.902635118826538   dF: +7.259e-09   |Residual|: 5.783e-05   |deigs|: 9.180e-05  t[s]:  21644.03
	Linear fluid (dielectric constant: 7.2) occupying 0.852531 of unit cell:	Completed after 1 iterations at t[s]:  21647.46
	FillingsUpdate:  mu: -0.118921316  nElectrons: 312.000000
	Linear fluid (dielectric constant: 7.2) occupying 0.852553 of unit cell:	Completed after 1 iterations at t[s]:  21965.73
SCF: Cycle: 26   F: -516.902635144274768   dF: -2.545e-08   |Residual|: 2.747e-05   |deigs|: 2.709e-05  t[s]:  21967.40
	Linear fluid (dielectric constant: 7.2) occupying 0.852535 of unit cell:	Completed after 1 iterations at t[s]:  21970.41
	FillingsUpdate:  mu: -0.118926762  nElectrons: 312.000000
	Linear fluid (dielectric constant: 7.2) occupying 0.852552 of unit cell:	Completed after 2 iterations at t[s]:  22286.76
SCF: Cycle: 27   F: -516.902634995414928   dF: +1.489e-07   |Residual|: 1.244e-04   |deigs|: 1.159e-04  t[s]:  22288.65
	Linear fluid (dielectric constant: 7.2) occupying 0.852540 of unit cell:	Completed after 2 iterations at t[s]:  22292.33
	FillingsUpdate:  mu: -0.118924054  nElectrons: 312.000000
	Linear fluid (dielectric constant: 7.2) occupying 0.852552 of unit cell:	Completed after 2 iterations at t[s]:  22608.30
SCF: Cycle: 28   F: -516.902635133129252   dF: -1.377e-07   |Residual|: 6.004e-05   |deigs|: 6.781e-05  t[s]:  22610.08
	Linear fluid (dielectric constant: 7.2) occupying 0.852542 of unit cell:	Completed after 2 iterations at t[s]:  22613.58
	FillingsUpdate:  mu: -0.118925327  nElectrons: 312.000000
	Linear fluid (dielectric constant: 7.2) occupying 0.852551 of unit cell:	Completed after 2 iterations at t[s]:  22931.25
SCF: Cycle: 29   F: -516.902635152716243   dF: -1.959e-08   |Residual|: 4.212e-05   |deigs|: 2.476e-05  t[s]:  22932.81
	Linear fluid (dielectric constant: 7.2) occupying 0.852544 of unit cell:	Completed after 1 iterations at t[s]:  22936.09
	FillingsUpdate:  mu: -0.118927107  nElectrons: 312.000000
	Linear fluid (dielectric constant: 7.2) occupying 0.852552 of unit cell:	Completed after 1 iterations at t[s]:  23250.86
SCF: Cycle: 30   F: -516.902635157309874   dF: -4.594e-09   |Residual|: 4.395e-05   |deigs|: 4.257e-05  t[s]:  23252.47
	Linear fluid (dielectric constant: 7.2) occupying 0.852544 of unit cell:	Completed after 1 iterations at t[s]:  23255.62
	FillingsUpdate:  mu: -0.118928878  nElectrons: 312.000000
	Linear fluid (dielectric constant: 7.2) occupying 0.852552 of unit cell:	Completed after 2 iterations at t[s]:  23574.10
SCF: Cycle: 31   F: -516.902635070656743   dF: +8.665e-08   |Residual|: 9.523e-05   |deigs|: 8.077e-05  t[s]:  23576.07
	Linear fluid (dielectric constant: 7.2) occupying 0.852546 of unit cell:	Completed after 2 iterations at t[s]:  23580.15
	FillingsUpdate:  mu: -0.118924716  nElectrons: 312.000000
	Linear fluid (dielectric constant: 7.2) occupying 0.852552 of unit cell:	Completed after 1 iterations at t[s]:  23895.71
SCF: Cycle: 32   F: -516.902635156102519   dF: -8.545e-08   |Residual|: 5.514e-05   |deigs|: 6.357e-05  t[s]:  23897.31
	Linear fluid (dielectric constant: 7.2) occupying 0.852548 of unit cell:	Completed after 2 iterations at t[s]:  23900.99
	FillingsUpdate:  mu: -0.118925022  nElectrons: 312.000000
	Linear fluid (dielectric constant: 7.2) occupying 0.852552 of unit cell:	Completed after 1 iterations at t[s]:  24216.07
SCF: Cycle: 33   F: -516.902635157566920   dF: -1.464e-09   |Residual|: 5.128e-05   |deigs|: 8.444e-05  t[s]:  24217.92
	Linear fluid (dielectric constant: 7.2) occupying 0.852549 of unit cell:	Completed after 1 iterations at t[s]:  24221.31
	FillingsUpdate:  mu: -0.118926686  nElectrons: 312.000000
	Linear fluid (dielectric constant: 7.2) occupying 0.852552 of unit cell:	Completed after 1 iterations at t[s]:  24535.18
SCF: Cycle: 34   F: -516.902635180729021   dF: -2.316e-08   |Residual|: 2.344e-05   |deigs|: 2.913e-05  t[s]:  24537.06
	Linear fluid (dielectric constant: 7.2) occupying 0.852549 of unit cell:	Completed after 0 iterations at t[s]:  24539.90
	FillingsUpdate:  mu: -0.118928356  nElectrons: 312.000000
	Linear fluid (dielectric constant: 7.2) occupying 0.852552 of unit cell:	Completed after 2 iterations at t[s]:  24855.06
SCF: Cycle: 35   F: -516.902634881200242   dF: +2.995e-07   |Residual|: 1.583e-04   |deigs|: 2.907e-05  t[s]:  24857.07
	Linear fluid (dielectric constant: 7.2) occupying 0.852550 of unit cell:	Completed after 2 iterations at t[s]:  24861.87
	FillingsUpdate:  mu: -0.118925383  nElectrons: 312.000000
	Linear fluid (dielectric constant: 7.2) occupying 0.852553 of unit cell:	Completed after 1 iterations at t[s]:  25097.27
SCF: Cycle: 36   F: -516.902635179424578   dF: -2.982e-07   |Residual|: 3.546e-05   |deigs|: 2.836e-05  t[s]:  25099.23
	Linear fluid (dielectric constant: 7.2) occupying 0.852550 of unit cell:	Completed after 1 iterations at t[s]:  25102.49
	FillingsUpdate:  mu: -0.118929743  nElectrons: 312.000000
	Linear fluid (dielectric constant: 7.2) occupying 0.852552 of unit cell:	Completed after 1 iterations at t[s]:  25417.77
SCF: Cycle: 37   F: -516.902635159400234   dF: +2.002e-08   |Residual|: 5.471e-05   |deigs|: 3.940e-05  t[s]:  25419.70
	Linear fluid (dielectric constant: 7.2) occupying 0.852551 of unit cell:	Completed after 1 iterations at t[s]:  25423.04
	FillingsUpdate:  mu: -0.118930653  nElectrons: 312.000000
	Linear fluid (dielectric constant: 7.2) occupying 0.852552 of unit cell:	Completed after 1 iterations at t[s]:  25737.41
SCF: Cycle: 38   F: -516.902635173428735   dF: -1.403e-08   |Residual|: 4.134e-05   |deigs|: 3.860e-05  t[s]:  25739.31
	Linear fluid (dielectric constant: 7.2) occupying 0.852551 of unit cell:	Completed after 1 iterations at t[s]:  25742.57
	FillingsUpdate:  mu: -0.118930818  nElectrons: 312.000000
	Linear fluid (dielectric constant: 7.2) occupying 0.852552 of unit cell:	Completed after 0 iterations at t[s]:  26053.45
SCF: Cycle: 39   F: -516.902635185641770   dF: -1.221e-08   |Residual|: 2.772e-05   |deigs|: 1.301e-05  t[s]:  26055.45
	Linear fluid (dielectric constant: 7.2) occupying 0.852552 of unit cell:	Completed after 0 iterations at t[s]:  26057.94
	FillingsUpdate:  mu: -0.118927308  nElectrons: 312.000000
	Linear fluid (dielectric constant: 7.2) occupying 0.852551 of unit cell:	Completed after 1 iterations at t[s]:  26372.19
SCF: Cycle: 40   F: -516.902635129879286   dF: +5.576e-08   |Residual|: 6.659e-05   |deigs|: 3.489e-05  t[s]:  26374.15
	Linear fluid (dielectric constant: 7.2) occupying 0.852552 of unit cell:	Completed after 1 iterations at t[s]:  26377.66
	FillingsUpdate:  mu: -0.118931190  nElectrons: 312.000000
	Linear fluid (dielectric constant: 7.2) occupying 0.852551 of unit cell:	Completed after 1 iterations at t[s]:  26696.27
SCF: Cycle: 41   F: -516.902635132047976   dF: -2.169e-09   |Residual|: 6.986e-05   |deigs|: 1.514e-05  t[s]:  26698.39
	Linear fluid (dielectric constant: 7.2) occupying 0.852552 of unit cell:	Completed after 1 iterations at t[s]:  26701.21
	FillingsUpdate:  mu: -0.118931738  nElectrons: 312.000000
	Linear fluid (dielectric constant: 7.2) occupying 0.852552 of unit cell:	Completed after 1 iterations at t[s]:  26926.71
SCF: Cycle: 42   F: -516.902635181922506   dF: -4.987e-08   |Residual|: 3.098e-05   |deigs|: 1.152e-05  t[s]:  26928.66
	Linear fluid (dielectric constant: 7.2) occupying 0.852552 of unit cell:	Completed after 1 iterations at t[s]:  26931.95
	FillingsUpdate:  mu: -0.118932352  nElectrons: 312.000000
	Linear fluid (dielectric constant: 7.2) occupying 0.852552 of unit cell:	Completed after 1 iterations at t[s]:  27152.53
SCF: Cycle: 43   F: -516.902635171192060   dF: +1.073e-08   |Residual|: 4.346e-05   |deigs|: 8.707e-06  t[s]:  27154.46
	Linear fluid (dielectric constant: 7.2) occupying 0.852552 of unit cell:	Completed after 1 iterations at t[s]:  27158.09
	FillingsUpdate:  mu: -0.118932501  nElectrons: 312.000000
	Linear fluid (dielectric constant: 7.2) occupying 0.852552 of unit cell:	Completed after 1 iterations at t[s]:  27448.86
SCF: Cycle: 44   F: -516.902635172314831   dF: -1.123e-09   |Residual|: 4.203e-05   |deigs|: 1.125e-05  t[s]:  27450.74
	Linear fluid (dielectric constant: 7.2) occupying 0.852552 of unit cell:	Completed after 1 iterations at t[s]:  27453.74
	FillingsUpdate:  mu: -0.118932569  nElectrons: 312.000000
	Linear fluid (dielectric constant: 7.2) occupying 0.852552 of unit cell:	Completed after 1 iterations at t[s]:  27742.67
SCF: Cycle: 45   F: -516.902635173831641   dF: -1.517e-09   |Residual|: 4.062e-05   |deigs|: 8.691e-06  t[s]:  27745.09
SCF: Converged (|Delta E|<1.000000e-08 for 2 iters).

Setting wave functions to eigenvectors of Hamiltonian
Single-point solvation energy estimate, DeltaF = -0.039416848415044

# Ionic positions in cartesian coordinates:
ion C  28.014162925916441   0.004453384674690  23.488700336250716 1
ion C  16.346425888740537  20.217875004139898  23.494441368511783 1
ion C   2.341491267388133   4.043706087769919  23.494288650092468 1
ion C  23.346676486641854   0.004384458899791  23.483901318126694 1
ion C   4.676245474304146   0.003825684533332  23.487138916511071 1
ion C  11.677668704867260  20.219126759791724  23.483004299183591 1
ion C  25.678811057378855   4.044276294935732  23.499408675705300 1
ion C  18.680488284317882  16.174907144025568  23.511821298159187 1
ion C   4.677492135958810   8.082325094833877  23.480434218273459 1
ion C  18.679382389646399   0.004419539788082  23.483426455373358 1
ion C   9.343823638707175   0.003953947274407  23.485047852861264 1
ion C   9.343132606087327  16.180035273305720  23.462238808629923 1
ion C  23.345124811792473   8.086659640014878  23.516110558754391 1
ion C  21.013103120380649  12.130537488137513  23.522228736787792 1
ion C   7.010396563482270  12.130147336608232  23.448669631144288 1
ion C  14.011721669833374   0.004487328277764  23.486992976749193 1
ion C  14.013558296018106  16.179574426149870  23.498757826101649 1
ion C   7.009818515150769   4.042499155409574  23.483844483499080 1
ion C  21.013258005010439   4.045063281439558  23.499911963395391 1
ion C  16.350423015839485  12.130599170600259  23.518035179028320 1
ion C   9.342281602294870   8.081813368171400  23.475546112810431 1
ion C  16.347062351595820   4.043993563439029  23.499817348777334 1
ion C  11.678225160842871   4.043864528802732  23.491257888877005 1
ion C  11.678772579836281  12.132656534902800  23.479943835860723 1
ion C  18.681222676379658   8.086169753017820  23.517364251816780 1
ion C   7.009916898374378  20.219343866477669  23.472579061328812 1
ion C  -6.992609659547584  20.216547172333016  23.496399385793953 1
ion C   0.003266530903848   8.083516107494180  23.512278174675206 1
ion C  14.015955885954099   8.083119896903865  23.508223950230427 1
ion C   2.342093071666019  20.219019570074142  23.480326146245698 1
ion C  -4.659880863172910  16.174560757149859  23.510300320021678 1
ion C   2.339186588937720  12.132995157544903  23.489299233363806 1
ion C  -2.329954496254302  12.131009916067642  23.516589949079659 1
ion C  -2.326304055174534  20.217696998809750  23.491504033873877 1
ion C   4.676726791076918  16.180841540819191  23.466168264274856 1
ion C   0.006137637165399  16.178703673620589  23.495659639727563 1
ion C  14.012348709644570  21.564438777735628  23.489604884116638 1
ion C   2.342824768057115   1.350062948308334  23.489941598843274 1
ion C  25.680516519737949   1.350702761820675  23.488903069804863 1
ion C  16.348003904104942  17.524448264432507  23.502678071625702 1
ion C   4.676210764116784   5.387823892778022  23.487264968155824 1
ion C  21.013008310099927   1.350663380772684  23.487704732809103 1
ion C   7.009950811972321   1.349259225414340  23.484223002515041 1
ion C  11.677762640953041  17.525450596518706  23.480362871851007 1
ion C  23.346324894239519   5.392231680162620  23.505102574666331 1
ion C  18.681997813576384  13.480334719088798  23.519483950082130 1
ion C   7.010361707405791   9.432882251512829  23.458902066493309 1
ion C  16.345682566415046   1.350653197918856  23.488395943382983 1
ion C  11.677343100946770   1.350076750284254  23.487853421160832 1
ion C   9.341532935239169  13.484022034967618  23.456042416622726 1
ion C  21.013053215586027   9.435742751134141  23.521852547273895 1
ion C   9.343921412688335  21.564967661889821  23.477772535012715 1
ion C  -9.325533050580072  21.563719294268758  23.490997739711112 1
ion C   0.006621766066881   5.389878389931321  23.504040826675343 1
ion C  14.017461384638807  13.483496515252021  23.507386649611831 1
ion C   9.343663251770447   5.388443811910577  23.484361305393769 1
ion C  18.680116870408927   5.391612106124537  23.506293009054612 1
ion C  16.349307086552550   9.434553397568573  23.516260415420753 1
ion C  11.678730991940606   9.429609444088063  23.492142348590626 1
ion C  14.013221041087661   5.389351834858124  23.501819267339133 1
ion C   4.676087364948579  21.564740743826302  23.475841543189748 1
ion C  -6.992581671971104  17.522334606507364  23.508981806064543 1
ion C   2.340099012219734   9.430388049872771  23.500315667712528 1
ion C  -2.329065275086099   9.435064464295710  23.516027596967280 1
ion C  -4.659725635779632  21.563781912962209  23.489331157040134 1
ion C   7.009941513485121  17.526875139515802  23.463681891904692 1
ion C   0.007471279885106  21.564584663929224  23.486805220524936 1
ion C  -4.661048587855587  13.480345295815439  23.517705640484358 1
ion C   4.678420581440577  13.483969691801144  23.461191111877959 1
ion C   2.341877433067657  17.525550844977925  23.479816581548118 1
ion C  -2.327622151484986  17.523857084604192  23.499038527601275 1
ion C   0.001623704991355  13.483660458022491  23.506902314285373 1
ion S   7.340965348298487  11.786218808348673  31.474376075483118 1
ion Na   3.511478615926023  11.652908876786041  28.565832651122516 1
ion Na  11.216418298394242  11.742143755213936  28.618760848083024 1

# Forces in Cartesian coordinates:
force C   0.000022278954038  -0.000088793368346   0.000240914939819 1
force C  -0.000001183552076   0.000163809049582   0.000089552914199 1
force C   0.000112746397217  -0.000061450643790   0.000089378320544 1
force C   0.000048963740392   0.000154376530311   0.000177664761452 1
force C   0.000047345652844  -0.000099419457946   0.000126867819142 1
force C   0.000058215482555  -0.000115485725486   0.000139004092958 1
force C   0.000158556869156   0.000051513195714   0.000069832160756 1
force C  -0.000002638825321   0.000080343454447   0.000077304338309 1
force C  -0.000418743451616   0.000316172241718  -0.000015505771535 1
force C   0.000009441790205   0.000111972925445   0.000150374489104 1
force C   0.000009704187502  -0.000182085831048   0.000229130339863 1
force C   0.000107249577275  -0.000135993730495   0.000165199437736 1
force C   0.000001597699062   0.000157231965060   0.000025364975910 1
force C   0.000070080294254   0.000051068171572  -0.000037068535811 1
force C   0.000010459962054   0.000224519342885   0.000086902376131 1
force C  -0.000036601676246  -0.000071470907328   0.000222021983697 1
force C   0.000010230700312  -0.000573002352946  -0.000332488726566 1
force C   0.000054297703120   0.000030012084284  -0.000109922173782 1
force C  -0.000046915841286  -0.000056527103945   0.000050296999157 1
force C  -0.000366015435028   0.000228992287870  -0.000266662074873 1
force C   0.000432346698416   0.000436497034560   0.000127851593093 1
force C  -0.000008241771513   0.000050184321957   0.000026842557449 1
force C  -0.000008389820011  -0.000120923168250   0.000140177884067 1
force C   0.000664275905116  -0.000069063690565  -0.000485687137595 1
force C  -0.000052276581552   0.000216656567913  -0.000011928391553 1
force C   0.000048712414353   0.000056731157537   0.000000177904810 1
force C  -0.000028767810115   0.000099947011862   0.000028819231341 1
force C   0.000325040738411   0.000473951338494  -0.000417252867818 1
force C  -0.000124527630701   0.000494821169853  -0.000540131856691 1
force C   0.000002372399335  -0.000067982092655   0.000192776107597 1
force C  -0.000018526682857   0.000103688362680  -0.000004598418230 1
force C  -0.000415317899478  -0.000135887824868  -0.001017302060244 1
force C   0.000452508984689   0.000184558386066  -0.000134315617707 1
force C   0.000083419478597   0.000127854072634   0.000101934058104 1
force C  -0.000080477133450  -0.000065704686230  -0.000088340255413 1
force C   0.000030498868894  -0.000438962437029  -0.000129472131508 1
force C  -0.000053670354823  -0.000021377266265   0.000036481666713 1
force C  -0.000151702596137   0.000096227215516   0.000168805587153 1
force C  -0.000133485036292  -0.000119892384142   0.000291466596742 1
force C  -0.000233623841008  -0.000249684747297   0.000179210294725 1
force C  -0.000006963206688   0.000308826678671  -0.000209113788347 1
force C   0.000031507873052   0.000136168104587   0.000205386190167 1
force C   0.000032623672393   0.000168150961336   0.000294894509084 1
force C   0.000158683165984  -0.000126933090735  -0.000229819978639 1
force C  -0.000101512230558  -0.000003424408604   0.000157154685028 1
force C  -0.000278065687013  -0.000205289478450   0.000073428668387 1
force C  -0.000094460180208  -0.000157382450418   0.000286539162463 1
force C  -0.000009996486678  -0.000137013779174   0.000309079322302 1
force C   0.000086909321471   0.000133086942483   0.000156710044959 1
force C   0.000227138528598   0.000009423093254   0.000135828324563 1
force C  -0.000025575875918   0.000004772942243  -0.000192777846640 1
force C   0.000050491883807  -0.000008197351912   0.000249287965514 1
force C  -0.000276461716591  -0.000038986719801   0.000320395891576 1
force C   0.000061550868757   0.000162631449798  -0.000065499765679 1
force C  -0.000071337926455  -0.000287345487381  -0.001554321891597 1
force C  -0.000064078944707   0.000126852637882  -0.000339851957281 1
force C  -0.000054026073719   0.000130819305811   0.000080975604617 1
force C  -0.000398425835079  -0.000018139826798  -0.000181028440072 1
force C   0.000211959698137   0.000110509409280  -0.000935507223317 1
force C  -0.000105151698627   0.000242632423629  -0.000016709787022 1
force C  -0.000103823977831   0.000061734076322   0.000387415825866 1
force C  -0.000014398798912  -0.000108498487181  -0.000198606820949 1
force C  -0.000117916592259   0.000309231688395  -0.001395843430012 1
force C   0.000407945254564  -0.000019634571899   0.000035345119734 1
force C   0.000171556200230  -0.000019698971498   0.000317162448729 1
force C  -0.000021644775923  -0.000298204916581   0.000018802137377 1
force C   0.000049310052509  -0.000087507992515   0.000043355638483 1
force C  -0.000024873704059  -0.000238055511947   0.000094347767598 1
force C  -0.000548152278722  -0.000111317631948   0.000013864621400 1
force C  -0.000143675955701  -0.000236629036828  -0.000060934160645 1
force C   0.000135279451890  -0.000048955295579   0.000242549091580 1
force C   0.000319776706116  -0.000388328122200  -0.000899060992770 1
force S   0.000137694194402  -0.000004100782398   0.004751926061336 1
force Na  -0.005086891121189  -0.000356113812338   0.001656870926222 1
force Na   0.005080785042036  -0.000092158112606   0.002238409769319 1

# Energy components:
   A_diel =       -0.0510040605029436
   Eewald =     4609.6091015687889012
       EH =     5013.4422030626374180
     Eloc =   -10168.2505527357898245
      Enl =      -83.8649589497587584
      Exc =     -149.3433489064466642
 Exc_core =        4.1923995665803035
       KE =      257.4402973326637039
-------------------------------------
     Etot =     -516.8258631218288883
       TS =        0.0767720520026988
-------------------------------------
        F =     -516.9026351738316407

IonicMinimize: Iter:   0  F: -516.902635173831641  |grad|_K:  6.571e-04  alpha:  1.000e+00

#--- Lowdin population analysis ---
# oxidation-state C +0.038 +0.038 +0.037 +0.038 +0.038 +0.038 +0.037 +0.037 +0.023 +0.038 +0.039 +0.033 +0.037 +0.037 +0.021 +0.038 +0.032 +0.039 +0.038 +0.031 +0.028 +0.037 +0.037 -0.015 +0.036 +0.039 +0.038 +0.031 +0.029 +0.038 +0.037 -0.012 +0.033 +0.038 +0.032 +0.034 +0.038 +0.038 +0.038 +0.036 +0.037 +0.039 +0.039 +0.034 +0.038 +0.036 +0.025 +0.038 +0.038 +0.014 +0.037 +0.039 +0.038 +0.036 +0.018 +0.037 +0.037 +0.032 +0.006 +0.036 +0.039 +0.037 +0.006 +0.034 +0.038 +0.038 +0.038 +0.036 +0.006 +0.035 +0.037 +0.025
# oxidation-state S -0.971
# oxidation-state Na +0.852 +0.853


-------- Electronic minimization -----------
Will mix electronic density at each iteration.
	FillingsUpdate:  mu: -0.118932569  nElectrons: 312.000000
	Linear fluid (dielectric constant: 7.2) occupying 0.852538 of unit cell:	Completed after 4 iterations at t[s]:  28033.80
	FillingsUpdate:  mu: -0.118851676  nElectrons: 312.000000
	Linear fluid (dielectric constant: 7.2) occupying 0.852545 of unit cell:	Completed after 6 iterations at t[s]:  28303.07
SCF: Cycle:  0   F: -516.902689790098520   dF: +3.572e-05   |Residual|: 1.870e-03   |deigs|: 5.865e-07  t[s]:  28304.77
	Linear fluid (dielectric constant: 7.2) occupying 0.852518 of unit cell:	Completed after 7 iterations at t[s]:  28310.91
	FillingsUpdate:  mu: -0.118979268  nElectrons: 312.000000
	Linear fluid (dielectric constant: 7.2) occupying 0.852545 of unit cell:	Completed after 6 iterations at t[s]:  28548.75
SCF: Cycle:  1   F: -516.902679639322741   dF: +1.015e-05   |Residual|: 2.389e-03   |deigs|: 8.825e-05  t[s]:  28550.81
	Linear fluid (dielectric constant: 7.2) occupying 0.852529 of unit cell:	Completed after 6 iterations at t[s]:  28557.06
	FillingsUpdate:  mu: -0.118900261  nElectrons: 312.000000
	Linear fluid (dielectric constant: 7.2) occupying 0.852543 of unit cell:	Completed after 4 iterations at t[s]:  28793.07
SCF: Cycle:  2   F: -516.902728340808494   dF: -4.870e-05   |Residual|: 2.684e-04   |deigs|: 5.017e-05  t[s]:  28794.84
	Linear fluid (dielectric constant: 7.2) occupying 0.852527 of unit cell:	Completed after 4 iterations at t[s]:  28799.30
	FillingsUpdate:  mu: -0.118902289  nElectrons: 312.000000
	Linear fluid (dielectric constant: 7.2) occupying 0.852540 of unit cell:	Completed after 3 iterations at t[s]:  29037.07
SCF: Cycle:  3   F: -516.902728740269367   dF: -3.995e-07   |Residual|: 1.216e-04   |deigs|: 1.801e-05  t[s]:  29038.77
	Linear fluid (dielectric constant: 7.2) occupying 0.852526 of unit cell:	Completed after 3 iterations at t[s]:  29042.81
	FillingsUpdate:  mu: -0.118902008  nElectrons: 312.000000
	Linear fluid (dielectric constant: 7.2) occupying 0.852539 of unit cell:	Completed after 3 iterations at t[s]:  29279.71
SCF: Cycle:  4   F: -516.902728874846844   dF: -1.346e-07   |Residual|: 7.981e-05   |deigs|: 2.056e-05  t[s]:  29281.82
	Linear fluid (dielectric constant: 7.2) occupying 0.852527 of unit cell:	Completed after 3 iterations at t[s]:  29286.89
	FillingsUpdate:  mu: -0.118906364  nElectrons: 312.000000
	Linear fluid (dielectric constant: 7.2) occupying 0.852538 of unit cell:	Completed after 2 iterations at t[s]:  29598.72
SCF: Cycle:  5   F: -516.902729024864584   dF: -1.500e-07   |Residual|: 4.946e-05   |deigs|: 3.792e-05  t[s]:  29600.43
	Linear fluid (dielectric constant: 7.2) occupying 0.852529 of unit cell:	Completed after 2 iterations at t[s]:  29603.88
	FillingsUpdate:  mu: -0.118909062  nElectrons: 312.000000
	Linear fluid (dielectric constant: 7.2) occupying 0.852537 of unit cell:	Completed after 2 iterations at t[s]:  29919.25
SCF: Cycle:  6   F: -516.902729033962714   dF: -9.098e-09   |Residual|: 2.615e-05   |deigs|: 3.438e-05  t[s]:  29921.16
	Linear fluid (dielectric constant: 7.2) occupying 0.852532 of unit cell:	Completed after 1 iterations at t[s]:  29924.41
	FillingsUpdate:  mu: -0.118901171  nElectrons: 312.000000
	Linear fluid (dielectric constant: 7.2) occupying 0.852537 of unit cell:	Completed after 2 iterations at t[s]:  30242.25
SCF: Cycle:  7   F: -516.902728970541375   dF: +6.342e-08   |Residual|: 7.989e-05   |deigs|: 3.201e-05  t[s]:  30244.14
	Linear fluid (dielectric constant: 7.2) occupying 0.852534 of unit cell:	Completed after 2 iterations at t[s]:  30248.41
	FillingsUpdate:  mu: -0.118907243  nElectrons: 312.000000
	Linear fluid (dielectric constant: 7.2) occupying 0.852536 of unit cell:	Completed after 1 iterations at t[s]:  30561.56
SCF: Cycle:  8   F: -516.902729053663393   dF: -8.312e-08   |Residual|: 2.489e-05   |deigs|: 4.076e-05  t[s]:  30563.57
	Linear fluid (dielectric constant: 7.2) occupying 0.852537 of unit cell:	Completed after 0 iterations at t[s]:  30566.37
	FillingsUpdate:  mu: -0.118902516  nElectrons: 312.000000
	Linear fluid (dielectric constant: 7.2) occupying 0.852537 of unit cell:	Completed after 1 iterations at t[s]:  30882.66
SCF: Cycle:  9   F: -516.902729030276419   dF: +2.339e-08   |Residual|: 5.081e-05   |deigs|: 3.533e-05  t[s]:  30884.54
	Linear fluid (dielectric constant: 7.2) occupying 0.852539 of unit cell:	Completed after 1 iterations at t[s]:  30887.83
	FillingsUpdate:  mu: -0.118902967  nElectrons: 312.000000
	Linear fluid (dielectric constant: 7.2) occupying 0.852537 of unit cell:	Completed after 1 iterations at t[s]:  31202.45
SCF: Cycle: 10   F: -516.902729029465718   dF: +8.107e-10   |Residual|: 6.407e-05   |deigs|: 3.630e-05  t[s]:  31204.12
	Linear fluid (dielectric constant: 7.2) occupying 0.852541 of unit cell:	Completed after 1 iterations at t[s]:  31207.57
	FillingsUpdate:  mu: -0.118899688  nElectrons: 312.000000
	Linear fluid (dielectric constant: 7.2) occupying 0.852538 of unit cell:	Completed after 1 iterations at t[s]:  31556.19
SCF: Cycle: 11   F: -516.902729046924492   dF: -1.746e-08   |Residual|: 4.685e-05   |deigs|: 3.185e-05  t[s]:  31558.11
	Linear fluid (dielectric constant: 7.2) occupying 0.852541 of unit cell:	Completed after 1 iterations at t[s]:  31561.73
	FillingsUpdate:  mu: -0.118899880  nElectrons: 312.000000
	Linear fluid (dielectric constant: 7.2) occupying 0.852537 of unit cell:	Completed after 0 iterations at t[s]:  31878.13
SCF: Cycle: 12   F: -516.902729072935699   dF: -2.601e-08   |Residual|: 1.893e-05   |deigs|: 8.189e-06  t[s]:  31879.78
	Linear fluid (dielectric constant: 7.2) occupying 0.852541 of unit cell:	Completed after 0 iterations at t[s]:  31882.33
	FillingsUpdate:  mu: -0.118898578  nElectrons: 312.000000
	Linear fluid (dielectric constant: 7.2) occupying 0.852538 of unit cell:	Completed after 1 iterations at t[s]:  32197.14
SCF: Cycle: 13   F: -516.902729013110502   dF: +5.983e-08   |Residual|: 7.230e-05   |deigs|: 1.840e-05  t[s]:  32198.97
	Linear fluid (dielectric constant: 7.2) occupying 0.852542 of unit cell:	Completed after 1 iterations at t[s]:  32202.11
	FillingsUpdate:  mu: -0.118896175  nElectrons: 312.000000
	Linear fluid (dielectric constant: 7.2) occupying 0.852538 of unit cell:	Completed after 1 iterations at t[s]:  32517.80
SCF: Cycle: 14   F: -516.902729038245639   dF: -2.514e-08   |Residual|: 5.837e-05   |deigs|: 2.054e-05  t[s]:  32519.44
	Linear fluid (dielectric constant: 7.2) occupying 0.852541 of unit cell:	Completed after 1 iterations at t[s]:  32522.97
	FillingsUpdate:  mu: -0.118895194  nElectrons: 312.000000
	Linear fluid (dielectric constant: 7.2) occupying 0.852538 of unit cell:	Completed after 1 iterations at t[s]:  32841.69
SCF: Cycle: 15   F: -516.902729003357990   dF: +3.489e-08   |Residual|: 7.835e-05   |deigs|: 4.084e-05  t[s]:  32843.20
	Linear fluid (dielectric constant: 7.2) occupying 0.852541 of unit cell:	Completed after 1 iterations at t[s]:  32846.02
	FillingsUpdate:  mu: -0.118895271  nElectrons: 312.000000
	Linear fluid (dielectric constant: 7.2) occupying 0.852538 of unit cell:	Completed after 1 iterations at t[s]:  33156.66
SCF: Cycle: 16   F: -516.902729036400615   dF: -3.304e-08   |Residual|: 5.893e-05   |deigs|: 4.378e-05  t[s]:  33158.62
	Linear fluid (dielectric constant: 7.2) occupying 0.852540 of unit cell:	Completed after 1 iterations at t[s]:  33162.00
	FillingsUpdate:  mu: -0.118895928  nElectrons: 312.000000
	Linear fluid (dielectric constant: 7.2) occupying 0.852538 of unit cell:	Completed after 1 iterations at t[s]:  33470.53
SCF: Cycle: 17   F: -516.902729061555533   dF: -2.515e-08   |Residual|: 3.882e-05   |deigs|: 3.678e-05  t[s]:  33472.50
	Linear fluid (dielectric constant: 7.2) occupying 0.852539 of unit cell:	Completed after 1 iterations at t[s]:  33475.92
	FillingsUpdate:  mu: -0.118896542  nElectrons: 312.000000
	Linear fluid (dielectric constant: 7.2) occupying 0.852538 of unit cell:	Completed after 0 iterations at t[s]:  33787.71
SCF: Cycle: 18   F: -516.902729076713740   dF: -1.516e-08   |Residual|: 2.105e-05   |deigs|: 5.426e-05  t[s]:  33789.50
	Linear fluid (dielectric constant: 7.2) occupying 0.852538 of unit cell:	Completed after 0 iterations at t[s]:  33792.51
	FillingsUpdate:  mu: -0.118899150  nElectrons: 312.000000
	Linear fluid (dielectric constant: 7.2) occupying 0.852538 of unit cell:	Completed after 1 iterations at t[s]:  34108.41
SCF: Cycle: 19   F: -516.902729051132042   dF: +2.558e-08   |Residual|: 4.664e-05   |deigs|: 3.581e-05  t[s]:  34110.31
	Linear fluid (dielectric constant: 7.2) occupying 0.852538 of unit cell:	Completed after 1 iterations at t[s]:  34113.74
	FillingsUpdate:  mu: -0.118897474  nElectrons: 312.000000
	Linear fluid (dielectric constant: 7.2) occupying 0.852538 of unit cell:	Completed after 1 iterations at t[s]:  34430.89
SCF: Cycle: 20   F: -516.902729058871728   dF: -7.740e-09   |Residual|: 4.117e-05   |deigs|: 1.177e-05  t[s]:  34432.84
	Linear fluid (dielectric constant: 7.2) occupying 0.852538 of unit cell:	Completed after 1 iterations at t[s]:  34436.23
	FillingsUpdate:  mu: -0.118898398  nElectrons: 312.000000
	Linear fluid (dielectric constant: 7.2) occupying 0.852537 of unit cell:	Completed after 0 iterations at t[s]:  34742.90
SCF: Cycle: 21   F: -516.902729077673030   dF: -1.880e-08   |Residual|: 1.568e-05   |deigs|: 1.866e-05  t[s]:  34744.57
	Linear fluid (dielectric constant: 7.2) occupying 0.852537 of unit cell:	Completed after 0 iterations at t[s]:  34747.43
	FillingsUpdate:  mu: -0.118895889  nElectrons: 312.000000
	Linear fluid (dielectric constant: 7.2) occupying 0.852537 of unit cell:	Completed after 1 iterations at t[s]:  34981.43
SCF: Cycle: 22   F: -516.902729036555115   dF: +4.112e-08   |Residual|: 5.799e-05   |deigs|: 1.075e-05  t[s]:  34983.00
	Linear fluid (dielectric constant: 7.2) occupying 0.852538 of unit cell:	Completed after 1 iterations at t[s]:  34986.69
	FillingsUpdate:  mu: -0.118897889  nElectrons: 312.000000
	Linear fluid (dielectric constant: 7.2) occupying 0.852537 of unit cell:	Completed after 0 iterations at t[s]:  35221.08
SCF: Cycle: 23   F: -516.902729077130175   dF: -4.058e-08   |Residual|: 1.805e-05   |deigs|: 4.369e-06  t[s]:  35222.72
	Linear fluid (dielectric constant: 7.2) occupying 0.852538 of unit cell:	Completed after 0 iterations at t[s]:  35225.52
	FillingsUpdate:  mu: -0.118895266  nElectrons: 312.000000
	Linear fluid (dielectric constant: 7.2) occupying 0.852537 of unit cell:	Completed after 1 iterations at t[s]:  35460.00
SCF: Cycle: 24   F: -516.902729016133435   dF: +6.100e-08   |Residual|: 6.982e-05   |deigs|: 6.548e-06  t[s]:  35461.88
	Linear fluid (dielectric constant: 7.2) occupying 0.852538 of unit cell:	Completed after 1 iterations at t[s]:  35465.50
	FillingsUpdate:  mu: -0.118898009  nElectrons: 312.000000
	Linear fluid (dielectric constant: 7.2) occupying 0.852537 of unit cell:	Completed after 1 iterations at t[s]:  35699.86
SCF: Cycle: 25   F: -516.902729071188901   dF: -5.506e-08   |Residual|: 2.700e-05   |deigs|: 1.063e-05  t[s]:  35701.81
	Linear fluid (dielectric constant: 7.2) occupying 0.852538 of unit cell:	Completed after 1 iterations at t[s]:  35704.97
	FillingsUpdate:  mu: -0.118898647  nElectrons: 312.000000
	Linear fluid (dielectric constant: 7.2) occupying 0.852538 of unit cell:	Completed after 0 iterations at t[s]:  35913.39
SCF: Cycle: 26   F: -516.902729080423228   dF: -9.234e-09   |Residual|: 8.968e-06   |deigs|: 6.979e-06  t[s]:  35915.14
	Linear fluid (dielectric constant: 7.2) occupying 0.852538 of unit cell:	Completed after 0 iterations at t[s]:  35917.10
	FillingsUpdate:  mu: -0.118898635  nElectrons: 312.000000
	Linear fluid (dielectric constant: 7.2) occupying 0.852538 of unit cell:	Completed after 0 iterations at t[s]:  36124.32
SCF: Cycle: 27   F: -516.902729080912650   dF: -4.894e-10   |Residual|: 9.205e-06   |deigs|: 4.244e-06  t[s]:  36126.20
SCF: Converged (|Delta E|<1.000000e-08 for 2 iters).

Setting wave functions to eigenvectors of Hamiltonian
IonicMinimize: 	Predicted alpha/alphaT>3.000000, increasing alphaT to 3.000000e+00.

-------- Electronic minimization -----------
Will mix electronic density at each iteration.
	FillingsUpdate:  mu: -0.118898635  nElectrons: 312.000000
	Linear fluid (dielectric constant: 7.2) occupying 0.852510 of unit cell:	Completed after 5 iterations at t[s]:  36290.63
	FillingsUpdate:  mu: -0.118761907  nElectrons: 312.000000
	Linear fluid (dielectric constant: 7.2) occupying 0.852522 of unit cell:	Completed after 7 iterations at t[s]:  36561.69
SCF: Cycle:  0   F: -516.902812048243277   dF: +7.167e-05   |Residual|: 2.862e-03   |deigs|: 5.361e-07  t[s]:  36563.31
	Linear fluid (dielectric constant: 7.2) occupying 0.852483 of unit cell:	Completed after 7 iterations at t[s]:  36569.59
	FillingsUpdate:  mu: -0.118945567  nElectrons: 312.000000
	Linear fluid (dielectric constant: 7.2) occupying 0.852520 of unit cell:	Completed after 6 iterations at t[s]:  36807.88
SCF: Cycle:  1   F: -516.902798905892951   dF: +1.314e-05   |Residual|: 3.423e-03   |deigs|: 1.254e-04  t[s]:  36809.53
	Linear fluid (dielectric constant: 7.2) occupying 0.852500 of unit cell:	Completed after 6 iterations at t[s]:  36815.10
	FillingsUpdate:  mu: -0.118830640  nElectrons: 312.000000
	Linear fluid (dielectric constant: 7.2) occupying 0.852517 of unit cell:	Completed after 5 iterations at t[s]:  37050.98
SCF: Cycle:  2   F: -516.902894957489934   dF: -9.605e-05   |Residual|: 5.239e-04   |deigs|: 7.340e-05  t[s]:  37052.79
	Linear fluid (dielectric constant: 7.2) occupying 0.852497 of unit cell:	Completed after 5 iterations at t[s]:  37058.02
	FillingsUpdate:  mu: -0.118836872  nElectrons: 312.000000
	Linear fluid (dielectric constant: 7.2) occupying 0.852513 of unit cell:	Completed after 4 iterations at t[s]:  37296.91
SCF: Cycle:  3   F: -516.902896733736839   dF: -1.776e-06   |Residual|: 2.087e-04   |deigs|: 2.726e-05  t[s]:  37298.66
	Linear fluid (dielectric constant: 7.2) occupying 0.852495 of unit cell:	Completed after 4 iterations at t[s]:  37303.64
	FillingsUpdate:  mu: -0.118840289  nElectrons: 312.000000
	Linear fluid (dielectric constant: 7.2) occupying 0.852513 of unit cell:	Completed after 4 iterations at t[s]:  37540.04
SCF: Cycle:  4   F: -516.902897194346906   dF: -4.606e-07   |Residual|: 1.117e-04   |deigs|: 3.087e-05  t[s]:  37542.20
	Linear fluid (dielectric constant: 7.2) occupying 0.852495 of unit cell:	Completed after 4 iterations at t[s]:  37547.26
	FillingsUpdate:  mu: -0.118843934  nElectrons: 312.000000
	Linear fluid (dielectric constant: 7.2) occupying 0.852510 of unit cell:	Completed after 3 iterations at t[s]:  37863.81
SCF: Cycle:  5   F: -516.902897429948780   dF: -2.356e-07   |Residual|: 6.279e-05   |deigs|: 4.489e-05  t[s]:  37866.09
	Linear fluid (dielectric constant: 7.2) occupying 0.852497 of unit cell:	Completed after 3 iterations at t[s]:  37870.60
	FillingsUpdate:  mu: -0.118843290  nElectrons: 312.000000
	Linear fluid (dielectric constant: 7.2) occupying 0.852509 of unit cell:	Completed after 3 iterations at t[s]:  38186.79
SCF: Cycle:  6   F: -516.902897461436510   dF: -3.149e-08   |Residual|: 5.696e-05   |deigs|: 5.810e-05  t[s]:  38188.92
	Linear fluid (dielectric constant: 7.2) occupying 0.852500 of unit cell:	Completed after 2 iterations at t[s]:  38193.00
	FillingsUpdate:  mu: -0.118849748  nElectrons: 312.000000
	Linear fluid (dielectric constant: 7.2) occupying 0.852508 of unit cell:	Completed after 2 iterations at t[s]:  38508.59
SCF: Cycle:  7   F: -516.902897529713300   dF: -6.828e-08   |Residual|: 4.532e-05   |deigs|: 5.852e-05  t[s]:  38510.16
	Linear fluid (dielectric constant: 7.2) occupying 0.852504 of unit cell:	Completed after 2 iterations at t[s]:  38514.22
	FillingsUpdate:  mu: -0.118846175  nElectrons: 312.000000
	Linear fluid (dielectric constant: 7.2) occupying 0.852508 of unit cell:	Completed after 2 iterations at t[s]:  38830.27
SCF: Cycle:  8   F: -516.902897568996536   dF: -3.928e-08   |Residual|: 2.726e-05   |deigs|: 5.847e-05  t[s]:  38832.09
	Linear fluid (dielectric constant: 7.2) occupying 0.852508 of unit cell:	Completed after 1 iterations at t[s]:  38835.65
	FillingsUpdate:  mu: -0.118837520  nElectrons: 312.000000
	Linear fluid (dielectric constant: 7.2) occupying 0.852508 of unit cell:	Completed after 2 iterations at t[s]:  39151.42
SCF: Cycle:  9   F: -516.902897545982910   dF: +2.301e-08   |Residual|: 6.852e-05   |deigs|: 5.638e-05  t[s]:  39152.96
	Linear fluid (dielectric constant: 7.2) occupying 0.852511 of unit cell:	Completed after 1 iterations at t[s]:  39156.38
	FillingsUpdate:  mu: -0.118839924  nElectrons: 312.000000
	Linear fluid (dielectric constant: 7.2) occupying 0.852508 of unit cell:	Completed after 1 iterations at t[s]:  39470.85
SCF: Cycle: 10   F: -516.902897591008127   dF: -4.503e-08   |Residual|: 4.504e-05   |deigs|: 4.246e-05  t[s]:  39472.84
	Linear fluid (dielectric constant: 7.2) occupying 0.852514 of unit cell:	Completed after 1 iterations at t[s]:  39476.09
	FillingsUpdate:  mu: -0.118837621  nElectrons: 312.000000
	Linear fluid (dielectric constant: 7.2) occupying 0.852509 of unit cell:	Completed after 1 iterations at t[s]:  39789.61
SCF: Cycle: 11   F: -516.902897612579181   dF: -2.157e-08   |Residual|: 1.687e-05   |deigs|: 4.980e-05  t[s]:  39791.45
	Linear fluid (dielectric constant: 7.2) occupying 0.852515 of unit cell:	Completed after 0 iterations at t[s]:  39794.21
	FillingsUpdate:  mu: -0.118841157  nElectrons: 312.000000
	Linear fluid (dielectric constant: 7.2) occupying 0.852509 of unit cell:	Completed after 1 iterations at t[s]:  40110.89
SCF: Cycle: 12   F: -516.902897465697038   dF: +1.469e-07   |Residual|: 1.202e-04   |deigs|: 2.189e-05  t[s]:  40112.84
	Linear fluid (dielectric constant: 7.2) occupying 0.852515 of unit cell:	Completed after 1 iterations at t[s]:  40116.36
	FillingsUpdate:  mu: -0.118837018  nElectrons: 312.000000
	Linear fluid (dielectric constant: 7.2) occupying 0.852510 of unit cell:	Completed after 1 iterations at t[s]:  40432.31
SCF: Cycle: 13   F: -516.902897607112777   dF: -1.414e-07   |Residual|: 2.325e-05   |deigs|: 2.359e-05  t[s]:  40434.21
	Linear fluid (dielectric constant: 7.2) occupying 0.852514 of unit cell:	Completed after 1 iterations at t[s]:  40437.64
	FillingsUpdate:  mu: -0.118836332  nElectrons: 312.000000
	Linear fluid (dielectric constant: 7.2) occupying 0.852510 of unit cell:	Completed after 1 iterations at t[s]:  40792.52
SCF: Cycle: 14   F: -516.902897554295578   dF: +5.282e-08   |Residual|: 7.517e-05   |deigs|: 4.035e-05  t[s]:  40794.09
	Linear fluid (dielectric constant: 7.2) occupying 0.852514 of unit cell:	Completed after 1 iterations at t[s]:  40797.46
	FillingsUpdate:  mu: -0.118832060  nElectrons: 312.000000
	Linear fluid (dielectric constant: 7.2) occupying 0.852510 of unit cell:	Completed after 2 iterations at t[s]:  41114.00
SCF: Cycle: 15   F: -516.902897543936547   dF: +1.036e-08   |Residual|: 7.606e-05   |deigs|: 2.507e-05  t[s]:  41116.17
	Linear fluid (dielectric constant: 7.2) occupying 0.852513 of unit cell:	Completed after 1 iterations at t[s]:  41119.63
	FillingsUpdate:  mu: -0.118831832  nElectrons: 312.000000
	Linear fluid (dielectric constant: 7.2) occupying 0.852510 of unit cell:	Completed after 2 iterations at t[s]:  41435.70
SCF: Cycle: 16   F: -516.902897556032030   dF: -1.210e-08   |Residual|: 7.367e-05   |deigs|: 7.469e-05  t[s]:  41437.61
	Linear fluid (dielectric constant: 7.2) occupying 0.852512 of unit cell:	Completed after 1 iterations at t[s]:  41440.95
	FillingsUpdate:  mu: -0.118834731  nElectrons: 312.000000
	Linear fluid (dielectric constant: 7.2) occupying 0.852510 of unit cell:	Completed after 0 iterations at t[s]:  41756.77
SCF: Cycle: 17   F: -516.902897622140472   dF: -6.611e-08   |Residual|: 1.082e-05   |deigs|: 9.072e-05  t[s]:  41758.76
	Linear fluid (dielectric constant: 7.2) occupying 0.852512 of unit cell:	Completed after 0 iterations at t[s]:  41761.39
	FillingsUpdate:  mu: -0.118833906  nElectrons: 312.000000
	Linear fluid (dielectric constant: 7.2) occupying 0.852510 of unit cell:	Completed after 0 iterations at t[s]:  42076.64
SCF: Cycle: 18   F: -516.902897614347808   dF: +7.793e-09   |Residual|: 3.197e-05   |deigs|: 2.763e-05  t[s]:  42078.62
	Linear fluid (dielectric constant: 7.2) occupying 0.852512 of unit cell:	Completed after 0 iterations at t[s]:  42081.44
	FillingsUpdate:  mu: -0.118827371  nElectrons: 312.000000
	Linear fluid (dielectric constant: 7.2) occupying 0.852509 of unit cell:	Completed after 2 iterations at t[s]:  42397.06
SCF: Cycle: 19   F: -516.902897411919298   dF: +2.024e-07   |Residual|: 1.296e-04   |deigs|: 3.160e-05  t[s]:  42398.97
	Linear fluid (dielectric constant: 7.2) occupying 0.852512 of unit cell:	Completed after 2 iterations at t[s]:  42402.95
	FillingsUpdate:  mu: -0.118834764  nElectrons: 312.000000
	Linear fluid (dielectric constant: 7.2) occupying 0.852509 of unit cell:	Completed after 1 iterations at t[s]:  42639.06
SCF: Cycle: 20   F: -516.902897591911142   dF: -1.800e-07   |Residual|: 4.853e-05   |deigs|: 2.212e-05  t[s]:  42640.64
	Linear fluid (dielectric constant: 7.2) occupying 0.852511 of unit cell:	Completed after 1 iterations at t[s]:  42643.83
	FillingsUpdate:  mu: -0.118833159  nElectrons: 312.000000
	Linear fluid (dielectric constant: 7.2) occupying 0.852509 of unit cell:	Completed after 0 iterations at t[s]:  42879.70
SCF: Cycle: 21   F: -516.902897621900934   dF: -2.999e-08   |Residual|: 1.785e-05   |deigs|: 3.004e-05  t[s]:  42881.63
	Linear fluid (dielectric constant: 7.2) occupying 0.852511 of unit cell:	Completed after 0 iterations at t[s]:  42884.09
	FillingsUpdate:  mu: -0.118835749  nElectrons: 312.000000
	Linear fluid (dielectric constant: 7.2) occupying 0.852509 of unit cell:	Completed after 1 iterations at t[s]:  43198.42
SCF: Cycle: 22   F: -516.902897577102635   dF: +4.480e-08   |Residual|: 6.100e-05   |deigs|: 2.028e-05  t[s]:  43200.36
	Linear fluid (dielectric constant: 7.2) occupying 0.852510 of unit cell:	Completed after 1 iterations at t[s]:  43203.95
	FillingsUpdate:  mu: -0.118833108  nElectrons: 312.000000
	Linear fluid (dielectric constant: 7.2) occupying 0.852509 of unit cell:	Completed after 1 iterations at t[s]:  43441.16
SCF: Cycle: 23   F: -516.902897610220407   dF: -3.312e-08   |Residual|: 3.556e-05   |deigs|: 2.102e-05  t[s]:  43442.77
	Linear fluid (dielectric constant: 7.2) occupying 0.852510 of unit cell:	Completed after 1 iterations at t[s]:  43445.98
	FillingsUpdate:  mu: -0.118832751  nElectrons: 312.000000
	Linear fluid (dielectric constant: 7.2) occupying 0.852509 of unit cell:	Completed after 0 iterations at t[s]:  43738.82
SCF: Cycle: 24   F: -516.902897626246954   dF: -1.603e-08   |Residual|: 6.061e-06   |deigs|: 9.963e-06  t[s]:  43740.53
	Linear fluid (dielectric constant: 7.2) occupying 0.852510 of unit cell:	Completed after 0 iterations at t[s]:  43742.89
	FillingsUpdate:  mu: -0.118832782  nElectrons: 312.000000
	Linear fluid (dielectric constant: 7.2) occupying 0.852509 of unit cell:	Completed after 0 iterations at t[s]:  44046.04
[...]
	FillingsUpdate:  mu: -0.118958673  nElectrons: 312.000000
	Linear fluid (dielectric constant: 7.2) occupying 0.852551 of unit cell:	Completed after 5 iterations at t[s]:  50280.12
SCF: Cycle:  0   F: -516.902621319901414   dF: +1.407e-05   |Residual|: 1.096e-03   |deigs|: 7.156e-08  t[s]:  50281.69
	Linear fluid (dielectric constant: 7.2) occupying 0.852567 of unit cell:	Completed after 5 iterations at t[s]:  50286.27
	FillingsUpdate:  mu: -0.118877584  nElectrons: 312.000000
	Linear fluid (dielectric constant: 7.2) occupying 0.852548 of unit cell:	Completed after 5 iterations at t[s]:  50519.55
SCF: Cycle:  1   F: -516.902615467910664   dF: +5.852e-06   |Residual|: 1.485e-03   |deigs|: 5.544e-05  t[s]:  50521.09
	Linear fluid (dielectric constant: 7.2) occupying 0.852560 of unit cell:	Completed after 5 iterations at t[s]:  50526.20
	FillingsUpdate:  mu: -0.118924772  nElectrons: 312.000000
	Linear fluid (dielectric constant: 7.2) occupying 0.852549 of unit cell:	Completed after 3 iterations at t[s]:  50756.96
SCF: Cycle:  2   F: -516.902635357959184   dF: -1.989e-05   |Residual|: 6.672e-05   |deigs|: 3.088e-05  t[s]:  50758.45
	Linear fluid (dielectric constant: 7.2) occupying 0.852562 of unit cell:	Completed after 2 iterations at t[s]:  50761.26
	FillingsUpdate:  mu: -0.118921923  nElectrons: 312.000000
	Linear fluid (dielectric constant: 7.2) occupying 0.852551 of unit cell:	Completed after 2 iterations at t[s]:  50981.99
SCF: Cycle:  3   F: -516.902635442176802   dF: -8.422e-08   |Residual|: 3.142e-05   |deigs|: 1.465e-05  t[s]:  50983.49
	Linear fluid (dielectric constant: 7.2) occupying 0.852562 of unit cell:	Completed after 2 iterations at t[s]:  50986.86
	FillingsUpdate:  mu: -0.118922604  nElectrons: 312.000000
	Linear fluid (dielectric constant: 7.2) occupying 0.852551 of unit cell:	Completed after 1 iterations at t[s]:  51216.92
SCF: Cycle:  4   F: -516.902635460498232   dF: -1.832e-08   |Residual|: 2.793e-05   |deigs|: 1.359e-05  t[s]:  51218.47
	Linear fluid (dielectric constant: 7.2) occupying 0.852558 of unit cell:	Completed after 0 iterations at t[s]:  51220.87
	FillingsUpdate:  mu: -0.118925639  nElectrons: 312.000000
	Linear fluid (dielectric constant: 7.2) occupying 0.852552 of unit cell:	Completed after 1 iterations at t[s]:  51530.19
SCF: Cycle:  5   F: -516.902635455621976   dF: +4.876e-09   |Residual|: 2.569e-05   |deigs|: 2.742e-05  t[s]:  51531.83
	Linear fluid (dielectric constant: 7.2) occupying 0.852556 of unit cell:	Completed after 0 iterations at t[s]:  51534.05
	FillingsUpdate:  mu: -0.118922578  nElectrons: 312.000000
	Linear fluid (dielectric constant: 7.2) occupying 0.852552 of unit cell:	Completed after 1 iterations at t[s]:  51842.64
SCF: Cycle:  6   F: -516.902635379980325   dF: +7.564e-08   |Residual|: 8.370e-05   |deigs|: 2.173e-05  t[s]:  51844.20
	Linear fluid (dielectric constant: 7.2) occupying 0.852555 of unit cell:	Completed after 1 iterations at t[s]:  51847.30
	FillingsUpdate:  mu: -0.118928265  nElectrons: 312.000000
	Linear fluid (dielectric constant: 7.2) occupying 0.852552 of unit cell:	Completed after 2 iterations at t[s]:  52079.39
SCF: Cycle:  7   F: -516.902635230733267   dF: +1.492e-07   |Residual|: 1.381e-04   |deigs|: 1.244e-05  t[s]:  52081.24
	Linear fluid (dielectric constant: 7.2) occupying 0.852555 of unit cell:	Completed after 2 iterations at t[s]:  52085.23
	FillingsUpdate:  mu: -0.118928036  nElectrons: 312.000000
	Linear fluid (dielectric constant: 7.2) occupying 0.852553 of unit cell:	Completed after 2 iterations at t[s]:  52315.83
SCF: Cycle:  8   F: -516.902635247845637   dF: -1.711e-08   |Residual|: 1.419e-04   |deigs|: 1.072e-05  t[s]:  52317.46
	Linear fluid (dielectric constant: 7.2) occupying 0.852556 of unit cell:	Completed after 2 iterations at t[s]:  52320.85
	FillingsUpdate:  mu: -0.118929862  nElectrons: 312.000000
	Linear fluid (dielectric constant: 7.2) occupying 0.852553 of unit cell:	Completed after 3 iterations at t[s]:  52632.42
SCF: Cycle:  9   F: -516.902634873974989   dF: +3.739e-07   |Residual|: 2.242e-04   |deigs|: 2.331e-05  t[s]:  52634.38
	Linear fluid (dielectric constant: 7.2) occupying 0.852558 of unit cell:	Completed after 3 iterations at t[s]:  52638.82
	FillingsUpdate:  mu: -0.118935760  nElectrons: 312.000000
	Linear fluid (dielectric constant: 7.2) occupying 0.852552 of unit cell:	Completed after 4 iterations at t[s]:  52873.53
SCF: Cycle: 10   F: -516.902633499719855   dF: +1.374e-06   |Residual|: 3.918e-04   |deigs|: 6.628e-05  t[s]:  52875.75
	Linear fluid (dielectric constant: 7.2) occupying 0.852555 of unit cell:	Completed after 4 iterations at t[s]:  52880.56
	FillingsUpdate:  mu: -0.118934962  nElectrons: 312.000000
	Linear fluid (dielectric constant: 7.2) occupying 0.852551 of unit cell:	Completed after 3 iterations at t[s]:  53110.36
SCF: Cycle: 11   F: -516.902634066969654   dF: -5.672e-07   |Residual|: 3.373e-04   |deigs|: 5.054e-05  t[s]:  53111.98
	Linear fluid (dielectric constant: 7.2) occupying 0.852556 of unit cell:	Completed after 3 iterations at t[s]:  53116.50
	FillingsUpdate:  mu: -0.118934300  nElectrons: 312.000000
	Linear fluid (dielectric constant: 7.2) occupying 0.852552 of unit cell:	Completed after 3 iterations at t[s]:  53347.89
SCF: Cycle: 12   F: -516.902634322975359   dF: -2.560e-07   |Residual|: 3.017e-04   |deigs|: 1.543e-05  t[s]:  53349.78
	Linear fluid (dielectric constant: 7.2) occupying 0.852556 of unit cell:	Completed after 3 iterations at t[s]:  53353.95
	FillingsUpdate:  mu: -0.118931087  nElectrons: 312.000000
	Linear fluid (dielectric constant: 7.2) occupying 0.852552 of unit cell:	Completed after 3 iterations at t[s]:  53584.13
SCF: Cycle: 13   F: -516.902634904380534   dF: -5.814e-07   |Residual|: 2.061e-04   |deigs|: 1.322e-05  t[s]:  53586.05
	Linear fluid (dielectric constant: 7.2) occupying 0.852562 of unit cell:	Completed after 3 iterations at t[s]:  53590.71
	FillingsUpdate:  mu: -0.118929583  nElectrons: 312.000000
	Linear fluid (dielectric constant: 7.2) occupying 0.852551 of unit cell:	Completed after 4 iterations at t[s]:  53823.89
SCF: Cycle: 14   F: -516.902634303670425   dF: +6.007e-07   |Residual|: 2.812e-04   |deigs|: 8.200e-05  t[s]:  53825.57
	Linear fluid (dielectric constant: 7.2) occupying 0.852561 of unit cell:	Completed after 4 iterations at t[s]:  53830.47
	FillingsUpdate:  mu: -0.118926947  nElectrons: 312.000000
	Linear fluid (dielectric constant: 7.2) occupying 0.852550 of unit cell:	Completed after 3 iterations at t[s]:  54062.29
SCF: Cycle: 15   F: -516.902634741599286   dF: -4.379e-07   |Residual|: 2.177e-04   |deigs|: 1.522e-05  t[s]:  54064.15
	Linear fluid (dielectric constant: 7.2) occupying 0.852563 of unit cell:	Completed after 3 iterations at t[s]:  54068.48
	FillingsUpdate:  mu: -0.118928568  nElectrons: 312.000000
	Linear fluid (dielectric constant: 7.2) occupying 0.852551 of unit cell:	Completed after 3 iterations at t[s]:  54299.79
SCF: Cycle: 16   F: -516.902634561374612   dF: +1.802e-07   |Residual|: 2.446e-04   |deigs|: 2.088e-05  t[s]:  54301.59
	Linear fluid (dielectric constant: 7.2) occupying 0.852559 of unit cell:	Completed after 3 iterations at t[s]:  54306.17
	FillingsUpdate:  mu: -0.118932831  nElectrons: 312.000000
	Linear fluid (dielectric constant: 7.2) occupying 0.852551 of unit cell:	Completed after 4 iterations at t[s]:  54537.96
SCF: Cycle: 17   F: -516.902633788950311   dF: +7.724e-07   |Residual|: 3.470e-04   |deigs|: 1.699e-05  t[s]:  54539.50
	Linear fluid (dielectric constant: 7.2) occupying 0.852550 of unit cell:	Completed after 3 iterations at t[s]:  54543.85
	FillingsUpdate:  mu: -0.118931427  nElectrons: 312.000000
	Linear fluid (dielectric constant: 7.2) occupying 0.852552 of unit cell:	Completed after 1 iterations at t[s]:  54854.40
SCF: Cycle: 18   F: -516.902635345933163   dF: -1.557e-06   |Residual|: 9.955e-05   |deigs|: 1.439e-04  t[s]:  54856.30
	Linear fluid (dielectric constant: 7.2) occupying 0.852549 of unit cell:	Completed after 1 iterations at t[s]:  54859.68
	FillingsUpdate:  mu: -0.118930476  nElectrons: 312.000000
	Linear fluid (dielectric constant: 7.2) occupying 0.852553 of unit cell:	Completed after 0 iterations at t[s]:  55081.25
SCF: Cycle: 19   F: -516.902635467664709   dF: -1.217e-07   |Residual|: 2.348e-05   |deigs|: 1.834e-05  t[s]:  55083.11
	Linear fluid (dielectric constant: 7.2) occupying 0.852548 of unit cell:	Completed after 0 iterations at t[s]:  55085.75
	FillingsUpdate:  mu: -0.118923955  nElectrons: 312.000000
	Linear fluid (dielectric constant: 7.2) occupying 0.852552 of unit cell:	Completed after 1 iterations at t[s]:  55315.45
SCF: Cycle: 20   F: -516.902635389755687   dF: +7.791e-08   |Residual|: 8.034e-05   |deigs|: 8.347e-06  t[s]:  55317.23
	Linear fluid (dielectric constant: 7.2) occupying 0.852548 of unit cell:	Completed after 1 iterations at t[s]:  55320.70
	FillingsUpdate:  mu: -0.118929874  nElectrons: 312.000000
	Linear fluid (dielectric constant: 7.2) occupying 0.852552 of unit cell:	Completed after 2 iterations at t[s]:  55551.99
SCF: Cycle: 21   F: -516.902635358357088   dF: +3.140e-08   |Residual|: 9.562e-05   |deigs|: 6.054e-06  t[s]:  55553.54
	Linear fluid (dielectric constant: 7.2) occupying 0.852548 of unit cell:	Completed after 1 iterations at t[s]:  55556.88
	FillingsUpdate:  mu: -0.118933030  nElectrons: 312.000000
	Linear fluid (dielectric constant: 7.2) occupying 0.852552 of unit cell:	Completed after 0 iterations at t[s]:  55787.37
SCF: Cycle: 22   F: -516.902635471756753   dF: -1.134e-07   |Residual|: 1.854e-05   |deigs|: 6.860e-06  t[s]:  55789.18
	Linear fluid (dielectric constant: 7.2) occupying 0.852548 of unit cell:	Completed after 0 iterations at t[s]:  55791.88
	FillingsUpdate:  mu: -0.118930213  nElectrons: 312.000000
	Linear fluid (dielectric constant: 7.2) occupying 0.852551 of unit cell:	Completed after 1 iterations at t[s]:  56098.10
SCF: Cycle: 23   F: -516.902635456633675   dF: +1.512e-08   |Residual|: 4.267e-05   |deigs|: 2.991e-05  t[s]:  56099.91
	Linear fluid (dielectric constant: 7.2) occupying 0.852549 of unit cell:	Completed after 1 iterations at t[s]:  56103.16
	FillingsUpdate:  mu: -0.118934321  nElectrons: 312.000000
	Linear fluid (dielectric constant: 7.2) occupying 0.852552 of unit cell:	Completed after 2 iterations at t[s]:  56413.49
SCF: Cycle: 24   F: -516.902635256526423   dF: +2.001e-07   |Residual|: 1.358e-04   |deigs|: 1.418e-05  t[s]:  56415.05
	Linear fluid (dielectric constant: 7.2) occupying 0.852549 of unit cell:	Completed after 2 iterations at t[s]:  56418.61
	FillingsUpdate:  mu: -0.118931227  nElectrons: 312.000000
	Linear fluid (dielectric constant: 7.2) occupying 0.852552 of unit cell:	Completed after 1 iterations at t[s]:  56645.24
SCF: Cycle: 25   F: -516.902635366818458   dF: -1.103e-07   |Residual|: 9.865e-05   |deigs|: 5.698e-06  t[s]:  56647.05
	Linear fluid (dielectric constant: 7.2) occupying 0.852550 of unit cell:	Completed after 1 iterations at t[s]:  56650.47
	FillingsUpdate:  mu: -0.118933411  nElectrons: 312.000000
	Linear fluid (dielectric constant: 7.2) occupying 0.852552 of unit cell:	Completed after 1 iterations at t[s]:  56871.15
SCF: Cycle: 26   F: -516.902635380725428   dF: -1.391e-08   |Residual|: 8.877e-05   |deigs|: 1.509e-05  t[s]:  56873.22
	Linear fluid (dielectric constant: 7.2) occupying 0.852551 of unit cell:	Completed after 1 iterations at t[s]:  56876.53
	FillingsUpdate:  mu: -0.118932737  nElectrons: 312.000000
	Linear fluid (dielectric constant: 7.2) occupying 0.852552 of unit cell:	Completed after 1 iterations at t[s]:  57178.88
SCF: Cycle: 27   F: -516.902635450670005   dF: -6.994e-08   |Residual|: 4.429e-05   |deigs|: 1.506e-05  t[s]:  57180.40
	Linear fluid (dielectric constant: 7.2) occupying 0.852552 of unit cell:	Completed after 1 iterations at t[s]:  57183.66
	FillingsUpdate:  mu: -0.118931489  nElectrons: 312.000000
	Linear fluid (dielectric constant: 7.2) occupying 0.852552 of unit cell:	Completed after 0 iterations at t[s]:  57405.48
SCF: Cycle: 28   F: -516.902635473753435   dF: -2.308e-08   |Residual|: 1.075e-05   |deigs|: 1.133e-05  t[s]:  57407.08
	Linear fluid (dielectric constant: 7.2) occupying 0.852552 of unit cell:	Completed after 0 iterations at t[s]:  57409.66
	FillingsUpdate:  mu: -0.118929131  nElectrons: 312.000000
	Linear fluid (dielectric constant: 7.2) occupying 0.852552 of unit cell:	Completed after 0 iterations at t[s]:  57641.50
SCF: Cycle: 29   F: -516.902635467340019   dF: +6.413e-09   |Residual|: 2.570e-05   |deigs|: 1.500e-06  t[s]:  57643.05
	Linear fluid (dielectric constant: 7.2) occupying 0.852552 of unit cell:	Completed after 0 iterations at t[s]:  57645.56
	FillingsUpdate:  mu: -0.118935905  nElectrons: 312.000000
	Linear fluid (dielectric constant: 7.2) occupying 0.852552 of unit cell:	Completed after 1 iterations at t[s]:  57877.46
SCF: Cycle: 30   F: -516.902635257062684   dF: +2.103e-07   |Residual|: 1.304e-04   |deigs|: 4.056e-06  t[s]:  57879.24
	Linear fluid (dielectric constant: 7.2) occupying 0.852552 of unit cell:	Completed after 1 iterations at t[s]:  57882.35
	FillingsUpdate:  mu: -0.118931805  nElectrons: 312.000000
	Linear fluid (dielectric constant: 7.2) occupying 0.852552 of unit cell:	Completed after 1 iterations at t[s]:  58114.63
SCF: Cycle: 31   F: -516.902635467716891   dF: -2.107e-07   |Residual|: 2.272e-05   |deigs|: 4.674e-06  t[s]:  58116.62
	Linear fluid (dielectric constant: 7.2) occupying 0.852552 of unit cell:	Completed after 0 iterations at t[s]:  58119.20
	FillingsUpdate:  mu: -0.118932416  nElectrons: 312.000000
	Linear fluid (dielectric constant: 7.2) occupying 0.852552 of unit cell:	Completed after 1 iterations at t[s]:  58350.19
SCF: Cycle: 32   F: -516.902635358459634   dF: +1.093e-07   |Residual|: 9.556e-05   |deigs|: 4.560e-06  t[s]:  58351.88
	Linear fluid (dielectric constant: 7.2) occupying 0.852552 of unit cell:	Completed after 1 iterations at t[s]:  58355.11
	FillingsUpdate:  mu: -0.118931001  nElectrons: 312.000000
	Linear fluid (dielectric constant: 7.2) occupying 0.852552 of unit cell:	Completed after 0 iterations at t[s]:  58585.13
SCF: Cycle: 33   F: -516.902635473608598   dF: -1.151e-07   |Residual|: 1.335e-05   |deigs|: 3.580e-06  t[s]:  58587.01
	Linear fluid (dielectric constant: 7.2) occupying 0.852551 of unit cell:	Completed after 0 iterations at t[s]:  58589.34
	FillingsUpdate:  mu: -0.118932699  nElectrons: 312.000000
	Linear fluid (dielectric constant: 7.2) occupying 0.852552 of unit cell:	Completed after 1 iterations at t[s]:  58812.73
SCF: Cycle: 34   F: -516.902635437220056   dF: +3.639e-08   |Residual|: 5.525e-05   |deigs|: 2.189e-06  t[s]:  58814.57
	Linear fluid (dielectric constant: 7.2) occupying 0.852552 of unit cell:	Completed after 1 iterations at t[s]:  58817.86
	FillingsUpdate:  mu: -0.118931351  nElectrons: 312.000000
	Linear fluid (dielectric constant: 7.2) occupying 0.852552 of unit cell:	Completed after 0 iterations at t[s]:  59041.65
SCF: Cycle: 35   F: -516.902635475261263   dF: -3.804e-08   |Residual|: 2.955e-06   |deigs|: 7.584e-06  t[s]:  59043.23
	Linear fluid (dielectric constant: 7.2) occupying 0.852551 of unit cell:	Completed after 0 iterations at t[s]:  59045.43
	FillingsUpdate:  mu: -0.118931330  nElectrons: 312.000000
	Linear fluid (dielectric constant: 7.2) occupying 0.852552 of unit cell:	Completed after 0 iterations at t[s]:  59247.74
SCF: Cycle: 36   F: -516.902635476022624   dF: -7.614e-10   |Residual|: 2.801e-06   |deigs|: 3.073e-06  t[s]:  59249.47
	Linear fluid (dielectric constant: 7.2) occupying 0.852551 of unit cell:	Completed after 0 iterations at t[s]:  59251.25
	FillingsUpdate:  mu: -0.118931326  nElectrons: 312.000000
	Linear fluid (dielectric constant: 7.2) occupying 0.852552 of unit cell:	Completed after 0 iterations at t[s]:  59449.10
SCF: Cycle: 37   F: -516.902635475836632   dF: +1.860e-10   |Residual|: 2.847e-06   |deigs|: 1.020e-06  t[s]:  59450.81
	Linear fluid (dielectric constant: 7.2) occupying 0.852551 of unit cell:	Completed after 0 iterations at t[s]:  59452.61
	FillingsUpdate:  mu: -0.118931327  nElectrons: 312.000000
	Linear fluid (dielectric constant: 7.2) occupying 0.852552 of unit cell:	Completed after 0 iterations at t[s]:  59643.81
SCF: Cycle: 38   F: -516.902635475961461   dF: -1.248e-10   |Residual|: 2.812e-06   |deigs|: 2.722e-07  t[s]:  59645.37
	Linear fluid (dielectric constant: 7.2) occupying 0.852551 of unit cell:	Completed after 0 iterations at t[s]:  59647.04
	FillingsUpdate:  mu: -0.118931327  nElectrons: 312.000000
	Linear fluid (dielectric constant: 7.2) occupying 0.852552 of unit cell:	Completed after 0 iterations at t[s]:  59836.64
SCF: Cycle: 39   F: -516.902635475902116   dF: +5.934e-11   |Residual|: 2.813e-06   |deigs|: 8.214e-08  t[s]:  59838.29
	Linear fluid (dielectric constant: 7.2) occupying 0.852551 of unit cell:	Completed after 0 iterations at t[s]:  59840.32
	FillingsUpdate:  mu: -0.118931338  nElectrons: 312.000000
	Linear fluid (dielectric constant: 7.2) occupying 0.852552 of unit cell:	Completed after 0 iterations at t[s]:  60150.76
SCF: Cycle: 40   F: -516.902635475538204   dF: +3.639e-10   |Residual|: 2.863e-06   |deigs|: 3.920e-06  t[s]:  60152.68
	Linear fluid (dielectric constant: 7.2) occupying 0.852551 of unit cell:	Completed after 0 iterations at t[s]:  60154.84
	FillingsUpdate:  mu: -0.118931396  nElectrons: 312.000000
	Linear fluid (dielectric constant: 7.2) occupying 0.852552 of unit cell:	Completed after 0 iterations at t[s]:  60436.07
SCF: Cycle: 41   F: -516.902635475716579   dF: -1.784e-10   |Residual|: 3.270e-06   |deigs|: 3.596e-06  t[s]:  60437.83
	Linear fluid (dielectric constant: 7.2) occupying 0.852551 of unit cell:	Completed after 0 iterations at t[s]:  60440.00
	FillingsUpdate:  mu: -0.118931238  nElectrons: 312.000000
	Linear fluid (dielectric constant: 7.2) occupying 0.852552 of unit cell:	Completed after 0 iterations at t[s]:  60755.21
SCF: Cycle: 42   F: -516.902635476123578   dF: -4.070e-10   |Residual|: 2.262e-06   |deigs|: 5.148e-06  t[s]:  60756.82
SCF: Converged (|Delta E|<1.000000e-08 for 2 iters).

Setting wave functions to eigenvectors of Hamiltonian
IonicMinimize: 	Step increased F by 1.658114e-04, reducing alpha to 2.895547e-04.
IonicMinimize: 	Step failed to reduce F after 3 attempts. Quitting step.
IonicMinimize: 	Undoing step.

-------- Electronic minimization -----------
Will mix electronic density at each iteration.
	FillingsUpdate:  mu: -0.118931238  nElectrons: 312.000000
	Linear fluid (dielectric constant: 7.2) occupying 0.852552 of unit cell:	Completed after 0 iterations at t[s]:  61038.03
	FillingsUpdate:  mu: -0.118931235  nElectrons: 312.000000
	Linear fluid (dielectric constant: 7.2) occupying 0.852552 of unit cell:	Completed after 0 iterations at t[s]:  61264.76
SCF: Cycle:  0   F: -516.902635448171281   dF: -9.137e-10   |Residual|: 2.474e-06   |deigs|: 1.070e-07  t[s]:  61266.26
	Linear fluid (dielectric constant: 7.2) occupying 0.852552 of unit cell:	Completed after 0 iterations at t[s]:  61267.81
	FillingsUpdate:  mu: -0.118931238  nElectrons: 312.000000
	Linear fluid (dielectric constant: 7.2) occupying 0.852552 of unit cell:	Completed after 0 iterations at t[s]:  61470.02
SCF: Cycle:  1   F: -516.902635448623528   dF: -4.522e-10   |Residual|: 2.029e-06   |deigs|: 1.392e-07  t[s]:  61471.50
SCF: Converged (|Delta E|<1.000000e-08 for 2 iters).

Setting wave functions to eigenvectors of Hamiltonian
IonicMinimize: 	Step failed along negative gradient direction.
IonicMinimize: Probably at roundoff error limit. (Stopping)

Dumping 'Na2S@graphene_6x6x1-glyme.fillings' ... done
Dumping 'Na2S@graphene_6x6x1-glyme.wfns' ... done
Dumping 'Na2S@graphene_6x6x1-glyme.fluidState' ... done
Dumping 'Na2S@graphene_6x6x1-glyme.ionpos' ... done
Dumping 'Na2S@graphene_6x6x1-glyme.eigenvals' ... done
End date and time: Mon May  8 15:58:45 2023  (Duration: 0-17:07:48.41)
Done!
