
*************** JDFTx 1.7.0  ***************

Start date and time: Fri Nov 17 14:22:31 2023
Executable jdftx with command-line: -i NaS4@graphene_6x6x1-PC.in -o NaS4@graphene_6x6x1-PC.out
Running on hosts (process indices):  Topper2 (0)
Divided in process groups (process indices):  0 (0)
Resource initialization completed at t[s]:      0.00
Run totals: 1 processes, 4 threads, 0 GPUs


Input parsed successfully to the following command list (including defaults):

basis kpoint-dependent
coords-type Cartesian
core-overlap-check vector
coulomb-interaction Slab 001
coulomb-truncation-embed 0 0 24.4487
davidson-band-ratio 1.1
dump End State
dump-name NaS4@graphene_6x6x1-PC.$VAR
elec-cutoff 20 100
elec-eigen-algo Davidson
elec-ex-corr gga-PBE
elec-smearing Fermi 0.01
electronic-minimize  \
	dirUpdateScheme      FletcherReeves \
	linminMethod         DirUpdateRecommended \
	nIterations          100 \
	history              15 \
	knormThreshold       0 \
	energyDiffThreshold  1e-08 \
	nEnergyDiff          2 \
	alphaTstart          1 \
	alphaTmin            1e-10 \
	updateTestStepSize   yes \
	alphaTreduceFactor   0.1 \
	alphaTincreaseFactor 3 \
	nAlphaAdjustMax      3 \
	wolfeEnergy          0.0001 \
	wolfeGradient        0.9 \
	fdTest               no
electronic-scf  \
	nIterations	50 \
	energyDiffThreshold	1e-08 \
	residualThreshold	1e-07 \
	mixFraction	0.5 \
	qMetric	0.8 \
	history	10 \
	nEigSteps	2 \
	eigDiffThreshold	1e-08 \
	mixedVariable	Density \
	qKerker	0.8 \
	qKappa	-1 \
	verbose	no \
	mixFractionMag	1.5
exchange-regularization WignerSeitzTruncated
fluid LinearPCM 298.000000 1.013250
fluid-ex-corr lda-TF lda-PZ
fluid-gummel-loop 10 1.000000e-05
fluid-minimize  \
	dirUpdateScheme      PolakRibiere \
	linminMethod         DirUpdateRecommended \
	nIterations          400 \
	history              15 \
	knormThreshold       1e-11 \
	energyDiffThreshold  0 \
	nEnergyDiff          2 \
	alphaTstart          1 \
	alphaTmin            1e-10 \
	updateTestStepSize   yes \
	alphaTreduceFactor   0.1 \
	alphaTincreaseFactor 3 \
	nAlphaAdjustMax      6 \
	wolfeEnergy          0.0001 \
	wolfeGradient        0.9 \
	fdTest               no
fluid-solvent PC 11.6429 ScalarEOS \
	epsBulk 64 \
	pMol 2.95 \
	epsInf 2.02 \
	Pvap 1.53277e-13 \
	sigmaBulk 2.88e-05 \
	Rvdw 0 \
	Res 0 \
	tauNuc 343133
forces-output-coords Positions
ion C  28.002057516628216  -0.005722649619084  14.125572907406507 1
ion C  16.334623944425658  20.206947381335961  14.125849451998425 1
ion C   2.328740818670489   4.032969531203549  14.108410432765508 1
ion C  23.334014359169608  -0.004647920741924  14.111915294920832 1
ion C   4.665150795915989  -0.006509983178095  14.107937831541490 1
ion C  11.666208447654714  20.210018561335868  14.115468160861314 1
ion C  25.666741096219159   4.035642695863701  14.121168644782287 1
ion C  18.669771488772753  16.163167120791364  14.114077791967309 1
ion C   4.663640995475212   8.076701240836226  14.057051348816803 1
ion C  18.666516872743664  -0.004875230599450  14.080104707387772 1
ion C   9.333805698147581  -0.007131935264356  14.072865037995530 1
ion C   9.330116346977805  16.168704077989325  14.064815494770889 1
ion C  23.332993014546467   8.078410012046064  14.104827704572688 1
ion C  21.002344821730411  12.120224341109976  14.097370463745602 1
ion C   6.994684581684726  12.122461423942614  14.002738713265160 1
ion C  14.000391553542810  -0.006051769990949  14.059994342948011 1
ion C  14.003140812517284  16.164977687836579  14.106954152519123 1
ion C   7.001154553606262   4.032353711244041  14.057956076074570 1
ion C  21.000361953521949   4.036109881762552  14.100941129924477 1
ion C  16.338049518223208  12.118617114485081  14.082179733943633 1
ion C   9.337246695156361   8.074502122080007  13.999349246519181 1
ion C  16.334392044621726   4.035304023992807  14.058667429364412 1
ion C  11.668327446178514   4.034343836716413  14.030468357448250 1
ion C  11.669870508537640  12.117211183337959  14.036914946776241 1
ion C  18.668201881741815   8.077504112670402  14.078919521869663 1
ion C   6.996227994495102  20.208298663521507  14.074640942416679 1
ion C  -7.003227206481912  20.205422386201320  14.107842536847089 1
ion C  -0.008118877747957   8.078058234272479  14.098254102159752 1
ion C  14.002944748628416   8.075444674087954  14.030373959212431 1
ion C   2.329777354551588  20.206655922288263  14.055165717137957 1
ion C  -4.669907104227726  16.163526383913887  14.091598980896734 1
ion C   2.326878470090191  12.125440834271858  14.038246200099080 1
ion C  -2.338376007393585  12.122155645486902  14.081089284709758 1
ion C  -2.336446436339378  20.205741878704373  14.074155355593199 1
ion C   4.661623023393108  16.166880779474276  14.024432543994271 1
ion C  -0.004728346815888  16.165162230401570  14.049622012667047 1
ion C  14.000794686174142  21.554346363628792  14.126090481367862 1
ion C   2.330686055643949   1.339215208173965  14.117520223866457 1
ion C  25.668379959901909   1.340855977850737  14.123467906118144 1
ion C  16.337240873227749  17.512113104708082  14.121719720257696 1
ion C   4.665090651397689   5.376617341292031  14.081047334886993 1
ion C  21.000243681028138   1.342047400401869  14.100016924184883 1
ion C   7.000095049416369   1.338878995488026  14.081266036352449 1
ion C  11.668300124478513  17.515059507650587  14.102616995153159 1
ion C  23.333328327013366   5.383733494813576  14.113305565809876 1
ion C  18.669799685349012  13.468010393609555  14.101090851424434 1
ion C   7.002278124928797   9.425570856524796  14.007880881342027 1
ion C  16.333520215661952   1.341389332486424  14.065408886778787 1
ion C  11.667099928580640   1.340312073831057  14.053133552330841 1
ion C   9.331982105445778  13.468802797608117  14.027398202757082 1
ion C  21.000624019347928   9.426352589678764  14.095398037325806 1
ion C   9.331397859269648  21.554753775542114  14.102594110065084 1
ion C  -9.336852889922143  21.552637423345026  14.117692399735303 1
ion C  -0.005206423753924   5.382335420501895  14.113774777479906 1
ion C  14.004876307176421  13.467730968704620  14.078648013712566 1
ion C   9.335172920424938   5.380498548234536  14.020480712424856 1
ion C  18.667389978421660   5.383186027778242  14.078946140927037 1
ion C  16.335859476737220   9.424432725853952  14.061458149248388 1
ion C  11.670206221685403   9.420616391779388  14.010535344696885 1
ion C  14.001590001096426   5.381787727426751  14.033760772813745 1
ion C   4.662894831469739  21.554419406838207  14.069091419725190 1
ion C  -7.002952745102620  17.511074653500366  14.109201162636221 1
ion C   2.325242995128289   9.428828683775372  14.070455583932269 1
ion C  -2.340273299440340   9.427404915620897  14.097510428523318 1
ion C  -4.669800707757622  21.552390184335248  14.088468137270356 1
ion C   6.994040945988978  17.515268034059421  14.051470303183439 1
ion C  -0.003481225296390  21.553392986802404  14.063489341010653 1
ion C  -4.671117857324910  13.469391985673436  14.091899679675610 1
ion C   4.661289958094796  13.472146843389497  14.009609581800264 1
ion C   2.328439391185750  17.512868396025567  14.038754279517928 1
ion C  -2.337319351973965  17.511638159881187  14.072865794239513 1
ion C  -0.006683860672300  13.471846454842579  14.054547304766126 1
ion S   5.091970501871192  14.050985077365141  20.960415788838993 1
ion S   7.085763358365026  13.330850691324308  24.218518721987664 1
ion S   8.301157960236354   9.542429961599444  24.208687880127844 1
ion S  10.287593396578215   8.838620943050008  20.942526694903759 1
ion Na   5.324951030105860   9.069637847644460  19.419954189715916 1
ion Na  10.060140479120445  13.838430842148849  19.445934273045371 1
ion-species GBRV/$ID_pbe.uspp
ion-width Ecut
ionic-minimize  \
	dirUpdateScheme      FletcherReeves \
	linminMethod         DirUpdateRecommended \
	nIterations          200 \
	history              15 \
	knormThreshold       0.0001 \
	energyDiffThreshold  1e-06 \
	nEnergyDiff          2 \
	alphaTstart          1 \
	alphaTmin            1e-10 \
	updateTestStepSize   yes \
	alphaTreduceFactor   0.1 \
	alphaTincreaseFactor 3 \
	nAlphaAdjustMax      3 \
	wolfeEnergy          0.0001 \
	wolfeGradient        0.9 \
	fdTest               no
kpoint   0.000000000000   0.000000000000   0.000000000000  1.00000000000000
kpoint-folding 1 1 1 
latt-move-scale 1 1 1
latt-scale 1 1 1 
lattice Triclinic 28.0058 28.0058 37.7946 90 90 120
lattice-minimize  \
	dirUpdateScheme      L-BFGS \
	linminMethod         DirUpdateRecommended \
	nIterations          0 \
	history              15 \
	knormThreshold       0 \
	energyDiffThreshold  1e-06 \
	nEnergyDiff          2 \
	alphaTstart          1 \
	alphaTmin            1e-10 \
	updateTestStepSize   yes \
	alphaTreduceFactor   0.1 \
	alphaTincreaseFactor 3 \
	nAlphaAdjustMax      3 \
	wolfeEnergy          0.0001 \
	wolfeGradient        0.9 \
	fdTest               no
lcao-params -1 1e-06 0.01
pcm-variant GLSSA13
spintype no-spin
subspace-rotation-factor 1 yes
symmetries automatic
symmetry-threshold 0.0001



---------- Setting up symmetries ----------

Found 24 point-group symmetries of the bravais lattice
Found 1 space-group symmetries with basis
Applied RMS atom displacement 0 bohrs to make symmetries exact.

---------- Initializing the Grid ----------
R = 
[      28.0058     -14.0029            0  ]
[            0      24.2537            0  ]
[            0            0      37.7946  ]
unit cell volume = 25671.8
G =
[   0.224353    0.12953         -0  ]
[          0   0.259061          0  ]
[          0         -0   0.166246  ]
Minimum fftbox size, Smin = [  128  128  172  ]
Chosen fftbox size, S = [  128  128  180  ]

---------- Initializing tighter grid for wavefunction operations ----------
R = 
[      28.0058     -14.0029            0  ]
[            0      24.2537            0  ]
[            0            0      37.7946  ]
unit cell volume = 25671.8
G =
[   0.224353    0.12953         -0  ]
[          0   0.259061          0  ]
[          0         -0   0.166246  ]
Minimum fftbox size, Smin = [  116  116  156  ]
Chosen fftbox size, S = [  120  120  160  ]

---------- Exchange Correlation functional ----------
Initalized PBE GGA exchange.
Initalized PBE GGA correlation.

---------- Setting up pseudopotentials ----------
Width of ionic core gaussian charges (only for fluid interactions / plotting) set to 0.397384

Reading pseudopotential file '/home/topper2/jdftx_install/build/pseudopotentials/GBRV/c_pbe.uspp':
  Title: C.  Created by USPP 7.3.6 on 3-2-2014
  Reference state energy: -5.406344.  4 valence electrons in orbitals:
    |200>  occupation: 2  eigenvalue: -0.504890
    |210>  occupation: 2  eigenvalue: -0.194356
  lMax: 1  lLocal: 2  QijEcut: 5
  4 projectors sampled on a log grid with 503 points:
    l: 0  eig: -0.504890  rCut: 1.3
    l: 0  eig: 0.000000  rCut: 1.3
    l: 1  eig: -0.194357  rCut: 1.3
    l: 1  eig: 0.000000  rCut: 1.3
  Partial core density with radius 1.1
  Transforming core density to a uniform radial grid of dG=0.02 with 1625 points.
  Transforming local potential to a uniform radial grid of dG=0.02 with 1625 points.
  Transforming nonlocal projectors to a uniform radial grid of dG=0.02 with 432 points.
  Transforming density augmentations to a uniform radial grid of dG=0.02 with 1625 points.
  Transforming atomic orbitals to a uniform radial grid of dG=0.02 with 432 points.
  Core radius for overlap checks: 1.30 bohrs.

Reading pseudopotential file '/home/topper2/jdftx_install/build/pseudopotentials/GBRV/s_pbe.uspp':
  Title: S.  Created by USPP 7.3.6 on 1-4-15
  Reference state energy: -11.898476.  6 valence electrons in orbitals:
    |300>  occupation: 2  eigenvalue: -0.634167
    |310>  occupation: 4  eigenvalue: -0.257568
  lMax: 2  lLocal: 3  QijEcut: 6
  6 projectors sampled on a log grid with 635 points:
    l: 0  eig: -0.634161  rCut: 1.5
    l: 0  eig: 1.500000  rCut: 1.5
    l: 1  eig: -0.257567  rCut: 1.5
    l: 1  eig: 1.500000  rCut: 1.5
    l: 2  eig: -1.000000  rCut: 1.5
    l: 2  eig: 1.500000  rCut: 1.5
  Partial core density with radius 1.15
  Transforming core density to a uniform radial grid of dG=0.02 with 1625 points.
  Transforming local potential to a uniform radial grid of dG=0.02 with 1625 points.
  Transforming nonlocal projectors to a uniform radial grid of dG=0.02 with 432 points.
  Transforming density augmentations to a uniform radial grid of dG=0.02 with 1625 points.
  Transforming atomic orbitals to a uniform radial grid of dG=0.02 with 432 points.
  Core radius for overlap checks: 1.50 bohrs.

Reading pseudopotential file '/home/topper2/jdftx_install/build/pseudopotentials/GBRV/na_pbe.uspp':
  Title: Na.  Created by USPP 7.3.6 on 23-9-15
  Reference state energy: -47.625620.  9 valence electrons in orbitals:
    |200>  occupation: 2  eigenvalue: -2.085638
    |210>  occupation: 6  eigenvalue: -1.053708
    |300>  occupation: 1  eigenvalue: -0.100838
  lMax: 2  lLocal: 0  QijEcut: 6
  5 projectors sampled on a log grid with 657 points:
    l: 0  eig: -2.085640  rCut: 1.37
    l: 0  eig: -0.100839  rCut: 1.37
    l: 1  eig: -1.053708  rCut: 1.47
    l: 1  eig: 0.500000  rCut: 1.47
    l: 2  eig: 0.750000  rCut: 2
  Transforming local potential to a uniform radial grid of dG=0.02 with 1625 points.
  Transforming nonlocal projectors to a uniform radial grid of dG=0.02 with 432 points.
  Transforming density augmentations to a uniform radial grid of dG=0.02 with 1625 points.
  Transforming atomic orbitals to a uniform radial grid of dG=0.02 with 432 points.
  Core radius for overlap checks: 2.00 bohrs.

Initialized 3 species with 78 total atoms.

Folded 1 k-points by 1x1x1 to 1 k-points.

---------- Setting up k-points, bands, fillings ----------
No reducable k-points. 
Computing the number of bands and number of electrons
Calculating initial fillings.
nElectrons: 330.000000   nBands: 314   nStates: 1

----- Setting up reduced wavefunction bases (one per k-point) -----
average nbasis = 109673.000 , ideal nbasis = 109671.883

---------- Setting up coulomb interaction ----------
Fluid mode embedding: using embedded box, but periodic Coulomb kernel.
(Fluid response is responsible for (approximate) separation between periodic images.)
Setting up double-sized grid for truncated Coulomb potentials:
R = 
[      28.0058     -14.0029            0  ]
[            0      24.2537            0  ]
[            0            0      75.5892  ]
unit cell volume = 51343.6
G =
[   0.224353    0.12953         -0  ]
[          0   0.259061          0  ]
[          0         -0  0.0831228  ]
Chosen fftbox size, S = [  128  128  360  ]
Integer grid location selected as the embedding center:
   Grid: [  0  0  116  ]
   Lattice: [  0  0  0.646884  ]
   Cartesian: [  0  0  24.4487  ]
Constructing Wigner-Seitz cell: 8 faces (6 quadrilaterals, 2 hexagons)
Range-separation parameter for embedded mesh potentials due to point charges: 0.590105 bohrs.

---------- Setting up ewald sum ----------
Optimum gaussian width for ewald sums = 7.173367 bohr.
Real space sum over 405 unit cells with max indices [  4  4  2  ]
Reciprocal space sum over 7875 terms with max indices [  7  7  17  ]

---------- Allocating electronic variables ----------
Initializing wave functions:  linear combination of atomic orbitals
C pseudo-atom occupations:   s ( 2 )  p ( 2 )
S pseudo-atom occupations:   s ( 2 )  p ( 4 )
Na pseudo-atom occupations:   s ( 2 1 )  p ( 6 )
	FillingsUpdate:  mu: -0.144454644  nElectrons: 330.000000
LCAOMinimize: Iter:   0  F: -542.2078506154291517  |grad|_K:  1.175e-02  alpha:  1.000e+00
LCAOMinimize: 	Step increased F by 1.503712e-01, reducing alpha to 2.545271e-02.
	FillingsUpdate:  mu: -0.177845558  nElectrons: 330.000000
LCAOMinimize: Iter:   1  F: -542.5853983691371241  |grad|_K:  1.119e-02  alpha:  2.545e-02  linmin: -1.184e-01  cgtest:  8.349e-01  t[s]:    563.23
LCAOMinimize: 	Predicted alpha/alphaT>3.000000, increasing alphaT to 7.635813e-02.
	FillingsUpdate:  mu: -0.203521767  nElectrons: 330.000000
LCAOMinimize: Iter:   2  F: -543.1890642927760382  |grad|_K:  3.198e-03  alpha:  9.608e-02  linmin:  1.077e-01  cgtest: -9.433e-01  t[s]:    745.44
LCAOMinimize: 	Bad step direction: g.d > 0.
LCAOMinimize: 	Undoing step.
LCAOMinimize: 	Step failed: resetting search direction.
	FillingsUpdate:  mu: -0.203521767  nElectrons: 330.000000
LCAOMinimize: Iter:   3  F: -543.1890642927778572  |grad|_K:  3.198e-03  alpha:  0.000e+00
	FillingsUpdate:  mu: -0.225485329  nElectrons: 330.000000
LCAOMinimize: Iter:   4  F: -543.2118755901836948  |grad|_K:  3.760e-03  alpha:  1.573e-01  linmin:  2.718e-01  cgtest: -6.761e-01  t[s]:    982.98
LCAOMinimize: 	Bad step direction: g.d > 0.
LCAOMinimize: 	Undoing step.
LCAOMinimize: 	Step failed: resetting search direction.
	FillingsUpdate:  mu: -0.225485329  nElectrons: 330.000000
LCAOMinimize: Iter:   5  F: -543.2118755901836948  |grad|_K:  3.760e-03  alpha:  0.000e+00
	FillingsUpdate:  mu: -0.233164917  nElectrons: 330.000000
LCAOMinimize: Iter:   6  F: -543.2619836177851766  |grad|_K:  6.019e-04  alpha:  8.140e-02  linmin:  1.186e-01  cgtest: -6.059e-01  t[s]:   1221.58
LCAOMinimize: 	Predicted alpha/alphaT>3.000000, increasing alphaT to 2.442100e-01.
	FillingsUpdate:  mu: -0.234833523  nElectrons: 330.000000
LCAOMinimize: Iter:   7  F: -543.2660138497648177  |grad|_K:  5.746e-04  alpha:  3.845e-01  linmin:  3.430e-03  cgtest:  5.932e-01  t[s]:   1404.15
	FillingsUpdate:  mu: -0.236713871  nElectrons: 330.000000
LCAOMinimize: Iter:   8  F: -543.2676082235382182  |grad|_K:  2.501e-04  alpha:  9.011e-02  linmin: -4.131e-02  cgtest:  1.699e-01  t[s]:   1549.89
	FillingsUpdate:  mu: -0.235120675  nElectrons: 330.000000
LCAOMinimize: Iter:   9  F: -543.2684659189332024  |grad|_K:  9.440e-05  alpha:  2.620e-01  linmin: -9.350e-03  cgtest: -4.355e-02  t[s]:   1695.49
	FillingsUpdate:  mu: -0.235188883  nElectrons: 330.000000
LCAOMinimize: Iter:  10  F: -543.2687084966242992  |grad|_K:  4.519e-05  alpha:  5.434e-01  linmin:  3.024e-03  cgtest: -4.689e-02  t[s]:   1841.48
	FillingsUpdate:  mu: -0.235262020  nElectrons: 330.000000
LCAOMinimize: Iter:  11  F: -543.2687236819052714  |grad|_K:  2.706e-05  alpha:  1.519e-01  linmin: -6.540e-04  cgtest:  5.091e-02  t[s]:   1987.20
	FillingsUpdate:  mu: -0.235195012  nElectrons: 330.000000
LCAOMinimize: Iter:  12  F: -543.2687284738880180  |grad|_K:  8.417e-06  alpha:  1.314e-01  linmin: -7.384e-05  cgtest: -3.316e-02  t[s]:   2134.40
	FillingsUpdate:  mu: -0.235217519  nElectrons: 330.000000
LCAOMinimize: Iter:  13  F: -543.2687296281890212  |grad|_K:  8.872e-06  alpha:  3.289e-01  linmin:  2.093e-04  cgtest: -1.015e-03  t[s]:   2280.44
	FillingsUpdate:  mu: -0.235227222  nElectrons: 330.000000
LCAOMinimize: Iter:  14  F: -543.2687304917594702  |grad|_K:  2.823e-06  alpha:  2.217e-01  linmin: -1.527e-05  cgtest:  1.080e-02  t[s]:   2426.47
	FillingsUpdate:  mu: -0.235238379  nElectrons: 330.000000
LCAOMinimize: Iter:  15  F: -543.2687305435575809  |grad|_K:  1.549e-06  alpha:  1.319e-01  linmin: -8.417e-04  cgtest:  5.690e-03  t[s]:   2572.78
LCAOMinimize: Converged (|Delta F|<1.000000e-06 for 2 iters).
----- createFluidSolver() ----- (Fluid-side solver setup)
   Initializing fluid molecule 'PC'
     Net charge: 0   dipole magnitude: 0
     Initializing spherical shell mfKernel with radius 0 Bohr
     deltaS corrections:

Correction to mu due to finite nuclear width = -0.00637716
   Cavity determined by nc: 0.00098 and sigma: 0.6
   Effective cavity tension: 9.53e-06 Eh/bohr^2 to account for cavitation and dispersion.


---- Citations for features of the code used in this run ----

   Software package:
      R. Sundararaman, K. Letchworth-Weaver, K.A. Schwarz, D. Gunceler, Y. Ozhabes and T.A. Arias, 'JDFTx: software for joint density-functional theory', SoftwareX 6, 278 (2017)

   gga-PBE exchange-correlation functional:
      J.P. Perdew, K. Burke and M. Ernzerhof, Phys. Rev. Lett. 77, 3865 (1996)

   Pseudopotentials:
      KF Garrity, JW Bennett, KM Rabe and D Vanderbilt, Comput. Mater. Sci. 81, 446 (2014)

   Truncated Coulomb potentials:
      R. Sundararaman and T.A. Arias, Phys. Rev. B 87, 165122 (2013)

   Linear/nonlinear dielectric/ionic fluid model with effective cavity tension:
      D. Gunceler, K. Letchworth-Weaver, R. Sundararaman, K.A. Schwarz and T.A. Arias, Modelling Simul. Mater. Sci. Eng. 21, 074005 (2013)

This list may not be complete. Please suggest additional citations or
report any other bugs at https://github.com/shankar1729/jdftx/issues

Initialization completed successfully at t[s]:   2663.29

Fluid solver invoked on fresh (random / LCAO) wavefunctions
Running a vacuum solve first:

-------- Initial electronic minimization -----------
Will mix electronic density at each iteration.
	FillingsUpdate:  mu: -0.235238379  nElectrons: 330.000000
	FillingsUpdate:  mu: -0.244687634  nElectrons: 330.000000
SCF: Cycle:  0   F: -546.831805317821932   dF: -3.563e+00   |Residual|: 9.648e-01   |deigs|: 1.262e-01  t[s]:   3423.78
	FillingsUpdate:  mu: -0.217194452  nElectrons: 330.000000
SCF: Cycle:  1   F: -547.419244557458114   dF: -5.874e-01   |Residual|: 4.929e-01   |deigs|: 3.395e-02  t[s]:   4109.01
	FillingsUpdate:  mu: -0.186362676  nElectrons: 330.000000
SCF: Cycle:  2   F: -547.706687447139871   dF: -2.874e-01   |Residual|: 1.118e-01   |deigs|: 3.224e-02  t[s]:   4795.04
	FillingsUpdate:  mu: -0.183219846  nElectrons: 330.000000
SCF: Cycle:  3   F: -547.727757902172129   dF: -2.107e-02   |Residual|: 7.037e-02   |deigs|: 4.591e-03  t[s]:   5481.27
	FillingsUpdate:  mu: -0.176848259  nElectrons: 330.000000
SCF: Cycle:  4   F: -547.748580300578851   dF: -2.082e-02   |Residual|: 3.753e-02   |deigs|: 6.748e-03  t[s]:   6167.51
	FillingsUpdate:  mu: -0.172291560  nElectrons: 330.000000
SCF: Cycle:  5   F: -547.755117418968894   dF: -6.537e-03   |Residual|: 2.855e-02   |deigs|: 5.036e-03  t[s]:   6851.35
	FillingsUpdate:  mu: -0.171023233  nElectrons: 330.000000
SCF: Cycle:  6   F: -547.752388097195990   dF: +2.729e-03   |Residual|: 2.475e-02   |deigs|: 2.386e-03  t[s]:   7516.98
	FillingsUpdate:  mu: -0.166443526  nElectrons: 330.000000
SCF: Cycle:  7   F: -547.754208095515764   dF: -1.820e-03   |Residual|: 1.602e-02   |deigs|: 5.950e-03  t[s]:   8151.22
	FillingsUpdate:  mu: -0.158460070  nElectrons: 330.000000
SCF: Cycle:  8   F: -547.757107597664231   dF: -2.900e-03   |Residual|: 1.726e-02   |deigs|: 7.764e-03  t[s]:   8781.34
	FillingsUpdate:  mu: -0.151755914  nElectrons: 330.000000
SCF: Cycle:  9   F: -547.757747463490546   dF: -6.399e-04   |Residual|: 8.929e-03   |deigs|: 5.708e-03  t[s]:   9414.35
	FillingsUpdate:  mu: -0.141248740  nElectrons: 330.000000
SCF: Cycle: 10   F: -547.758168281420012   dF: -4.208e-04   |Residual|: 6.538e-03   |deigs|: 9.104e-03  t[s]:  10024.43
	FillingsUpdate:  mu: -0.135048050  nElectrons: 330.000000
SCF: Cycle: 11   F: -547.758186976252546   dF: -1.869e-05   |Residual|: 5.276e-03   |deigs|: 5.167e-03  t[s]:  10621.66
	FillingsUpdate:  mu: -0.128016106  nElectrons: 330.000000
SCF: Cycle: 12   F: -547.758324732194183   dF: -1.378e-04   |Residual|: 4.794e-03   |deigs|: 6.118e-03  t[s]:  11211.45
	FillingsUpdate:  mu: -0.125170342  nElectrons: 330.000000
SCF: Cycle: 13   F: -547.758427963013787   dF: -1.032e-04   |Residual|: 4.948e-03   |deigs|: 2.514e-03  t[s]:  11797.84
	FillingsUpdate:  mu: -0.123637194  nElectrons: 330.000000
SCF: Cycle: 14   F: -547.758498805726390   dF: -7.084e-05   |Residual|: 3.397e-03   |deigs|: 1.370e-03  t[s]:  12396.27
	FillingsUpdate:  mu: -0.121161524  nElectrons: 330.000000
SCF: Cycle: 15   F: -547.758530672228176   dF: -3.187e-05   |Residual|: 2.381e-03   |deigs|: 2.295e-03  t[s]:  12986.29
	FillingsUpdate:  mu: -0.120599066  nElectrons: 330.000000
SCF: Cycle: 16   F: -547.758540776240011   dF: -1.010e-05   |Residual|: 1.451e-03   |deigs|: 1.101e-03  t[s]:  13577.51
	FillingsUpdate:  mu: -0.119777894  nElectrons: 330.000000
SCF: Cycle: 17   F: -547.758542328070007   dF: -1.552e-06   |Residual|: 1.122e-03   |deigs|: 9.435e-04  t[s]:  14158.32
	FillingsUpdate:  mu: -0.119827851  nElectrons: 330.000000
SCF: Cycle: 18   F: -547.758543017299303   dF: -6.892e-07   |Residual|: 7.410e-04   |deigs|: 2.995e-04  t[s]:  14751.15
	FillingsUpdate:  mu: -0.119258359  nElectrons: 330.000000
SCF: Cycle: 19   F: -547.758542447745981   dF: +5.696e-07   |Residual|: 5.601e-04   |deigs|: 6.264e-04  t[s]:  15340.94
	FillingsUpdate:  mu: -0.118888312  nElectrons: 330.000000
SCF: Cycle: 20   F: -547.758541896919724   dF: +5.508e-07   |Residual|: 4.245e-04   |deigs|: 9.724e-04  t[s]:  15932.05
	FillingsUpdate:  mu: -0.118778043  nElectrons: 330.000000
SCF: Cycle: 21   F: -547.758542333896571   dF: -4.370e-07   |Residual|: 3.893e-04   |deigs|: 5.113e-04  t[s]:  16521.11
	FillingsUpdate:  mu: -0.118918336  nElectrons: 330.000000
SCF: Cycle: 22   F: -547.758544994943691   dF: -2.661e-06   |Residual|: 2.943e-04   |deigs|: 4.297e-04  t[s]:  17112.53
	FillingsUpdate:  mu: -0.119117613  nElectrons: 330.000000
SCF: Cycle: 23   F: -547.758546007413202   dF: -1.012e-06   |Residual|: 2.230e-04   |deigs|: 4.922e-04  t[s]:  17694.67
	FillingsUpdate:  mu: -0.119200508  nElectrons: 330.000000
SCF: Cycle: 24   F: -547.758546868066901   dF: -8.607e-07   |Residual|: 1.837e-04   |deigs|: 2.021e-04  t[s]:  18278.57
	FillingsUpdate:  mu: -0.119100954  nElectrons: 330.000000
SCF: Cycle: 25   F: -547.758547285045324   dF: -4.170e-07   |Residual|: 1.382e-04   |deigs|: 4.893e-04  t[s]:  18861.56
	FillingsUpdate:  mu: -0.119069391  nElectrons: 330.000000
SCF: Cycle: 26   F: -547.758547464295589   dF: -1.793e-07   |Residual|: 1.123e-04   |deigs|: 2.464e-04  t[s]:  19445.37
	FillingsUpdate:  mu: -0.119050099  nElectrons: 330.000000
SCF: Cycle: 27   F: -547.758547628483257   dF: -1.642e-07   |Residual|: 6.719e-05   |deigs|: 2.499e-04  t[s]:  20036.83
	FillingsUpdate:  mu: -0.119068448  nElectrons: 330.000000
SCF: Cycle: 28   F: -547.758547710716243   dF: -8.223e-08   |Residual|: 3.913e-05   |deigs|: 1.999e-04  t[s]:  20628.09
	FillingsUpdate:  mu: -0.119092941  nElectrons: 330.000000
SCF: Cycle: 29   F: -547.758547730163059   dF: -1.945e-08   |Residual|: 3.073e-05   |deigs|: 7.746e-05  t[s]:  21209.96
	FillingsUpdate:  mu: -0.119101557  nElectrons: 330.000000
SCF: Cycle: 30   F: -547.758547741942607   dF: -1.178e-08   |Residual|: 1.920e-05   |deigs|: 6.886e-05  t[s]:  21801.93
	FillingsUpdate:  mu: -0.119100042  nElectrons: 330.000000
SCF: Cycle: 31   F: -547.758547747518037   dF: -5.575e-09   |Residual|: 1.222e-05   |deigs|: 7.882e-05  t[s]:  22392.29
	FillingsUpdate:  mu: -0.119099198  nElectrons: 330.000000
SCF: Cycle: 32   F: -547.758547750534490   dF: -3.016e-09   |Residual|: 8.516e-06   |deigs|: 5.732e-05  t[s]:  22982.83
SCF: Converged (|Delta E|<1.000000e-08 for 2 iters).

Setting wave functions to eigenvectors of Hamiltonian
Vacuum energy after initial minimize, F = -547.758547750534490


-------- Electronic minimization -----------
Will mix electronic density at each iteration.
	FillingsUpdate:  mu: -0.119099198  nElectrons: 330.000000
	Linear fluid (dielectric constant: 64) occupying 0.884334 of unit cell:	Completed after 43 iterations at t[s]:  23051.85
	FillingsUpdate:  mu: -0.106479206  nElectrons: 330.000000
	Linear fluid (dielectric constant: 64) occupying 0.883912 of unit cell:	Completed after 32 iterations at t[s]:  23801.95
SCF: Cycle:  0   F: -547.872919184820262   dF: -2.968e-02   |Residual|: 5.594e-02   |deigs|: 2.479e-03  t[s]:  23803.33
	Linear fluid (dielectric constant: 64) occupying 0.884379 of unit cell:	Completed after 30 iterations at t[s]:  23817.73
	FillingsUpdate:  mu: -0.106370963  nElectrons: 330.000000
	Linear fluid (dielectric constant: 64) occupying 0.883905 of unit cell:	Completed after 31 iterations at t[s]:  24514.61
SCF: Cycle:  1   F: -547.879383017966575   dF: -6.464e-03   |Residual|: 3.159e-02   |deigs|: 1.990e-03  t[s]:  24515.94
	Linear fluid (dielectric constant: 64) occupying 0.884282 of unit cell:	Completed after 29 iterations at t[s]:  24529.92
	FillingsUpdate:  mu: -0.106291954  nElectrons: 330.000000
	Linear fluid (dielectric constant: 64) occupying 0.883931 of unit cell:	Completed after 28 iterations at t[s]:  25227.26
SCF: Cycle:  2   F: -547.882277197336862   dF: -2.894e-03   |Residual|: 1.827e-02   |deigs|: 1.482e-03  t[s]:  25228.67
	Linear fluid (dielectric constant: 64) occupying 0.884033 of unit cell:	Completed after 24 iterations at t[s]:  25241.08
	FillingsUpdate:  mu: -0.106204231  nElectrons: 330.000000
	Linear fluid (dielectric constant: 64) occupying 0.883919 of unit cell:	Completed after 25 iterations at t[s]:  25948.23
SCF: Cycle:  3   F: -547.883202984013337   dF: -9.258e-04   |Residual|: 1.098e-02   |deigs|: 1.186e-03  t[s]:  25949.66
	Linear fluid (dielectric constant: 64) occupying 0.883846 of unit cell:	Completed after 21 iterations at t[s]:  25960.79
	FillingsUpdate:  mu: -0.106116928  nElectrons: 330.000000
	Linear fluid (dielectric constant: 64) occupying 0.883881 of unit cell:	Completed after 21 iterations at t[s]:  26659.47
SCF: Cycle:  4   F: -547.883654675246021   dF: -4.517e-04   |Residual|: 8.621e-03   |deigs|: 1.058e-03  t[s]:  26660.86
	Linear fluid (dielectric constant: 64) occupying 0.883604 of unit cell:	Completed after 20 iterations at t[s]:  26671.60
	FillingsUpdate:  mu: -0.106241409  nElectrons: 330.000000
	Linear fluid (dielectric constant: 64) occupying 0.883831 of unit cell:	Completed after 19 iterations at t[s]:  27366.47
SCF: Cycle:  5   F: -547.883947940266580   dF: -2.933e-04   |Residual|: 5.273e-03   |deigs|: 8.865e-04  t[s]:  27367.89
	Linear fluid (dielectric constant: 64) occupying 0.883571 of unit cell:	Completed after 17 iterations at t[s]:  27377.37
	FillingsUpdate:  mu: -0.106327773  nElectrons: 330.000000
	Linear fluid (dielectric constant: 64) occupying 0.883822 of unit cell:	Completed after 19 iterations at t[s]:  27974.06
SCF: Cycle:  6   F: -547.883998397988080   dF: -5.046e-05   |Residual|: 3.738e-03   |deigs|: 3.960e-04  t[s]:  27975.50
	Linear fluid (dielectric constant: 64) occupying 0.883498 of unit cell:	Completed after 16 iterations at t[s]:  27984.47
	FillingsUpdate:  mu: -0.106500776  nElectrons: 330.000000
	Linear fluid (dielectric constant: 64) occupying 0.883819 of unit cell:	Completed after 16 iterations at t[s]:  28584.60
SCF: Cycle:  7   F: -547.884041454911767   dF: -4.306e-05   |Residual|: 2.919e-03   |deigs|: 6.461e-04  t[s]:  28586.14
	Linear fluid (dielectric constant: 64) occupying 0.883590 of unit cell:	Completed after 14 iterations at t[s]:  28594.10
	FillingsUpdate:  mu: -0.106703552  nElectrons: 330.000000
	Linear fluid (dielectric constant: 64) occupying 0.883839 of unit cell:	Completed after 14 iterations at t[s]:  29192.50
SCF: Cycle:  8   F: -547.884061929005838   dF: -2.047e-05   |Residual|: 2.054e-03   |deigs|: 9.515e-04  t[s]:  29194.12
	Linear fluid (dielectric constant: 64) occupying 0.883667 of unit cell:	Completed after 14 iterations at t[s]:  29202.10
	FillingsUpdate:  mu: -0.106744094  nElectrons: 330.000000
	Linear fluid (dielectric constant: 64) occupying 0.883844 of unit cell:	Completed after 14 iterations at t[s]:  29796.39
SCF: Cycle:  9   F: -547.884070606720115   dF: -8.678e-06   |Residual|: 1.658e-03   |deigs|: 4.847e-04  t[s]:  29797.91
	Linear fluid (dielectric constant: 64) occupying 0.883760 of unit cell:	Completed after 14 iterations at t[s]:  29806.16
	FillingsUpdate:  mu: -0.106740368  nElectrons: 330.000000
	Linear fluid (dielectric constant: 64) occupying 0.883849 of unit cell:	Completed after 13 iterations at t[s]:  30404.80
SCF: Cycle: 10   F: -547.884074296253971   dF: -3.690e-06   |Residual|: 1.267e-03   |deigs|: 5.882e-04  t[s]:  30406.21
	Linear fluid (dielectric constant: 64) occupying 0.883811 of unit cell:	Completed after 13 iterations at t[s]:  30414.00
	FillingsUpdate:  mu: -0.106761120  nElectrons: 330.000000
	Linear fluid (dielectric constant: 64) occupying 0.883855 of unit cell:	Completed after 12 iterations at t[s]:  31008.83
SCF: Cycle: 11   F: -547.884076033201723   dF: -1.737e-06   |Residual|: 1.092e-03   |deigs|: 5.815e-04  t[s]:  31010.29
	Linear fluid (dielectric constant: 64) occupying 0.883822 of unit cell:	Completed after 10 iterations at t[s]:  31016.80
	FillingsUpdate:  mu: -0.106798819  nElectrons: 330.000000
	Linear fluid (dielectric constant: 64) occupying 0.883863 of unit cell:	Completed after 7 iterations at t[s]:  31609.36
SCF: Cycle: 12   F: -547.884075027633116   dF: +1.006e-06   |Residual|: 1.001e-03   |deigs|: 3.834e-04  t[s]:  31610.80
	Linear fluid (dielectric constant: 64) occupying 0.883824 of unit cell:	Completed after 6 iterations at t[s]:  31615.40
	FillingsUpdate:  mu: -0.106805166  nElectrons: 330.000000
	Linear fluid (dielectric constant: 64) occupying 0.883867 of unit cell:	Completed after 5 iterations at t[s]:  32215.46
SCF: Cycle: 13   F: -547.884074521306388   dF: +5.063e-07   |Residual|: 8.444e-04   |deigs|: 4.322e-04  t[s]:  32216.89
	Linear fluid (dielectric constant: 64) occupying 0.883833 of unit cell:	Completed after 5 iterations at t[s]:  32221.16
	FillingsUpdate:  mu: -0.106817306  nElectrons: 330.000000
	Linear fluid (dielectric constant: 64) occupying 0.883867 of unit cell:	Completed after 4 iterations at t[s]:  32811.51
SCF: Cycle: 14   F: -547.884076204460825   dF: -1.683e-06   |Residual|: 6.980e-04   |deigs|: 2.540e-04  t[s]:  32812.94
	Linear fluid (dielectric constant: 64) occupying 0.883851 of unit cell:	Completed after 4 iterations at t[s]:  32816.62
	FillingsUpdate:  mu: -0.106831540  nElectrons: 330.000000
	Linear fluid (dielectric constant: 64) occupying 0.883868 of unit cell:	Completed after 4 iterations at t[s]:  33409.94
SCF: Cycle: 15   F: -547.884077767719418   dF: -1.563e-06   |Residual|: 5.393e-04   |deigs|: 2.459e-04  t[s]:  33411.28
	Linear fluid (dielectric constant: 64) occupying 0.883865 of unit cell:	Completed after 3 iterations at t[s]:  33414.68
	FillingsUpdate:  mu: -0.106837376  nElectrons: 330.000000
	Linear fluid (dielectric constant: 64) occupying 0.883869 of unit cell:	Completed after 3 iterations at t[s]:  34008.46
SCF: Cycle: 16   F: -547.884078454098017   dF: -6.864e-07   |Residual|: 3.962e-04   |deigs|: 2.755e-04  t[s]:  34009.97
	Linear fluid (dielectric constant: 64) occupying 0.883869 of unit cell:	Completed after 4 iterations at t[s]:  34013.70
	FillingsUpdate:  mu: -0.106846736  nElectrons: 330.000000
	Linear fluid (dielectric constant: 64) occupying 0.883869 of unit cell:	Completed after 3 iterations at t[s]:  34603.62
SCF: Cycle: 17   F: -547.884079216856094   dF: -7.628e-07   |Residual|: 3.273e-04   |deigs|: 3.585e-04  t[s]:  34604.96
	Linear fluid (dielectric constant: 64) occupying 0.883869 of unit cell:	Completed after 2 iterations at t[s]:  34607.84
	FillingsUpdate:  mu: -0.106855510  nElectrons: 330.000000
	Linear fluid (dielectric constant: 64) occupying 0.883870 of unit cell:	Completed after 1 iterations at t[s]:  35200.32
SCF: Cycle: 18   F: -547.884079596912898   dF: -3.801e-07   |Residual|: 2.570e-04   |deigs|: 1.605e-04  t[s]:  35201.84
	Linear fluid (dielectric constant: 64) occupying 0.883866 of unit cell:	Completed after 0 iterations at t[s]:  35203.84
	FillingsUpdate:  mu: -0.106857606  nElectrons: 330.000000
	Linear fluid (dielectric constant: 64) occupying 0.883870 of unit cell:	Completed after 0 iterations at t[s]:  35795.16
SCF: Cycle: 19   F: -547.884079954863864   dF: -3.580e-07   |Residual|: 1.853e-04   |deigs|: 2.184e-04  t[s]:  35796.53
	Linear fluid (dielectric constant: 64) occupying 0.883862 of unit cell:	Completed after 0 iterations at t[s]:  35798.51
	FillingsUpdate:  mu: -0.106856516  nElectrons: 330.000000
	Linear fluid (dielectric constant: 64) occupying 0.883870 of unit cell:	Completed after 2 iterations at t[s]:  36392.36
SCF: Cycle: 20   F: -547.884080160792905   dF: -2.059e-07   |Residual|: 1.657e-04   |deigs|: 1.591e-04  t[s]:  36393.77
	Linear fluid (dielectric constant: 64) occupying 0.883863 of unit cell:	Completed after 0 iterations at t[s]:  36395.76
	FillingsUpdate:  mu: -0.106862760  nElectrons: 330.000000
	Linear fluid (dielectric constant: 64) occupying 0.883870 of unit cell:	Completed after 0 iterations at t[s]:  36985.57
SCF: Cycle: 21   F: -547.884080224884656   dF: -6.409e-08   |Residual|: 2.045e-04   |deigs|: 6.396e-05  t[s]:  36987.14
	Linear fluid (dielectric constant: 64) occupying 0.883864 of unit cell:	Completed after 0 iterations at t[s]:  36988.71
	FillingsUpdate:  mu: -0.106868238  nElectrons: 330.000000
	Linear fluid (dielectric constant: 64) occupying 0.883871 of unit cell:	Completed after 0 iterations at t[s]:  37583.62
SCF: Cycle: 22   F: -547.884080250317652   dF: -2.543e-08   |Residual|: 1.446e-04   |deigs|: 4.946e-05  t[s]:  37585.15
	Linear fluid (dielectric constant: 64) occupying 0.883869 of unit cell:	Completed after 0 iterations at t[s]:  37587.12
	FillingsUpdate:  mu: -0.106859828  nElectrons: 330.000000
	Linear fluid (dielectric constant: 64) occupying 0.883871 of unit cell:	Completed after 0 iterations at t[s]:  38178.90
SCF: Cycle: 23   F: -547.884080282546620   dF: -3.223e-08   |Residual|: 9.585e-05   |deigs|: 1.726e-04  t[s]:  38180.42
	Linear fluid (dielectric constant: 64) occupying 0.883871 of unit cell:	Completed after 0 iterations at t[s]:  38182.02
	FillingsUpdate:  mu: -0.106867948  nElectrons: 330.000000
	Linear fluid (dielectric constant: 64) occupying 0.883871 of unit cell:	Completed after 0 iterations at t[s]:  38773.70
SCF: Cycle: 24   F: -547.884080320868293   dF: -3.832e-08   |Residual|: 8.330e-05   |deigs|: 9.619e-05  t[s]:  38775.13
	Linear fluid (dielectric constant: 64) occupying 0.883872 of unit cell:	Completed after 0 iterations at t[s]:  38776.64
	FillingsUpdate:  mu: -0.106867827  nElectrons: 330.000000
	Linear fluid (dielectric constant: 64) occupying 0.883871 of unit cell:	Completed after 0 iterations at t[s]:  39366.97
SCF: Cycle: 25   F: -547.884080363011776   dF: -4.214e-08   |Residual|: 4.260e-05   |deigs|: 1.960e-04  t[s]:  39368.35
	Linear fluid (dielectric constant: 64) occupying 0.883871 of unit cell:	Completed after 0 iterations at t[s]:  39369.88
	FillingsUpdate:  mu: -0.106867834  nElectrons: 330.000000
	Linear fluid (dielectric constant: 64) occupying 0.883871 of unit cell:	Completed after 0 iterations at t[s]:  39962.50
SCF: Cycle: 26   F: -547.884080383504397   dF: -2.049e-08   |Residual|: 3.853e-05   |deigs|: 2.153e-04  t[s]:  39963.96
	Linear fluid (dielectric constant: 64) occupying 0.883870 of unit cell:	Completed after 0 iterations at t[s]:  39965.53
	FillingsUpdate:  mu: -0.106867813  nElectrons: 330.000000
	Linear fluid (dielectric constant: 64) occupying 0.883870 of unit cell:	Completed after 0 iterations at t[s]:  40556.77
SCF: Cycle: 27   F: -547.884080390394388   dF: -6.890e-09   |Residual|: 3.034e-05   |deigs|: 1.908e-04  t[s]:  40558.18
	Linear fluid (dielectric constant: 64) occupying 0.883869 of unit cell:	Completed after 0 iterations at t[s]:  40559.75
	FillingsUpdate:  mu: -0.106867798  nElectrons: 330.000000
	Linear fluid (dielectric constant: 64) occupying 0.883870 of unit cell:	Completed after 0 iterations at t[s]:  41151.56
SCF: Cycle: 28   F: -547.884080398463198   dF: -8.069e-09   |Residual|: 2.280e-05   |deigs|: 6.071e-05  t[s]:  41152.96
SCF: Converged (|Delta E|<1.000000e-08 for 2 iters).

Setting wave functions to eigenvectors of Hamiltonian
Single-point solvation energy estimate, DeltaF = -0.125532647928708

# Ionic positions in cartesian coordinates:
ion C  28.002057516628216  -0.005722649619084  14.125572907406507 1
ion C  16.334623944425658  20.206947381335961  14.125849451998425 1
ion C   2.328740818670489   4.032969531203549  14.108410432765508 1
ion C  23.334014359169608  -0.004647920741924  14.111915294920832 1
ion C   4.665150795915989  -0.006509983178095  14.107937831541490 1
ion C  11.666208447654714  20.210018561335868  14.115468160861314 1
ion C  25.666741096219159   4.035642695863701  14.121168644782287 1
ion C  18.669771488772753  16.163167120791364  14.114077791967309 1
ion C   4.663640995475212   8.076701240836226  14.057051348816803 1
ion C  18.666516872743664  -0.004875230599450  14.080104707387772 1
ion C   9.333805698147581  -0.007131935264356  14.072865037995530 1
ion C   9.330116346977805  16.168704077989325  14.064815494770889 1
ion C  23.332993014546467   8.078410012046064  14.104827704572688 1
ion C  21.002344821730411  12.120224341109976  14.097370463745602 1
ion C   6.994684581684726  12.122461423942614  14.002738713265160 1
ion C  14.000391553542810  -0.006051769990949  14.059994342948011 1
ion C  14.003140812517284  16.164977687836579  14.106954152519123 1
ion C   7.001154553606262   4.032353711244041  14.057956076074570 1
ion C  21.000361953521949   4.036109881762552  14.100941129924477 1
ion C  16.338049518223208  12.118617114485081  14.082179733943633 1
ion C   9.337246695156361   8.074502122080007  13.999349246519181 1
ion C  16.334392044621726   4.035304023992807  14.058667429364412 1
ion C  11.668327446178514   4.034343836716413  14.030468357448250 1
ion C  11.669870508537640  12.117211183337959  14.036914946776241 1
ion C  18.668201881741815   8.077504112670402  14.078919521869663 1
ion C   6.996227994495102  20.208298663521507  14.074640942416679 1
ion C  -7.003227206481912  20.205422386201320  14.107842536847089 1
ion C  -0.008118877747957   8.078058234272479  14.098254102159752 1
ion C  14.002944748628416   8.075444674087954  14.030373959212431 1
ion C   2.329777354551588  20.206655922288263  14.055165717137957 1
ion C  -4.669907104227726  16.163526383913887  14.091598980896734 1
ion C   2.326878470090191  12.125440834271858  14.038246200099080 1
ion C  -2.338376007393585  12.122155645486902  14.081089284709758 1
ion C  -2.336446436339378  20.205741878704373  14.074155355593199 1
ion C   4.661623023393108  16.166880779474276  14.024432543994271 1
ion C  -0.004728346815888  16.165162230401570  14.049622012667047 1
ion C  14.000794686174142  21.554346363628792  14.126090481367862 1
ion C   2.330686055643949   1.339215208173965  14.117520223866457 1
ion C  25.668379959901909   1.340855977850737  14.123467906118144 1
ion C  16.337240873227749  17.512113104708082  14.121719720257696 1
ion C   4.665090651397689   5.376617341292031  14.081047334886993 1
ion C  21.000243681028138   1.342047400401869  14.100016924184883 1
ion C   7.000095049416369   1.338878995488026  14.081266036352449 1
ion C  11.668300124478513  17.515059507650587  14.102616995153159 1
ion C  23.333328327013366   5.383733494813576  14.113305565809876 1
ion C  18.669799685349012  13.468010393609555  14.101090851424434 1
ion C   7.002278124928797   9.425570856524796  14.007880881342027 1
ion C  16.333520215661952   1.341389332486424  14.065408886778787 1
ion C  11.667099928580640   1.340312073831057  14.053133552330841 1
ion C   9.331982105445778  13.468802797608117  14.027398202757082 1
ion C  21.000624019347928   9.426352589678764  14.095398037325806 1
ion C   9.331397859269648  21.554753775542114  14.102594110065084 1
ion C  -9.336852889922143  21.552637423345026  14.117692399735303 1
ion C  -0.005206423753924   5.382335420501895  14.113774777479906 1
ion C  14.004876307176421  13.467730968704620  14.078648013712566 1
ion C   9.335172920424938   5.380498548234536  14.020480712424856 1
ion C  18.667389978421660   5.383186027778242  14.078946140927037 1
ion C  16.335859476737220   9.424432725853952  14.061458149248388 1
ion C  11.670206221685403   9.420616391779388  14.010535344696885 1
ion C  14.001590001096426   5.381787727426751  14.033760772813745 1
ion C   4.662894831469739  21.554419406838207  14.069091419725190 1
ion C  -7.002952745102620  17.511074653500366  14.109201162636221 1
ion C   2.325242995128289   9.428828683775372  14.070455583932269 1
ion C  -2.340273299440340   9.427404915620897  14.097510428523318 1
ion C  -4.669800707757622  21.552390184335248  14.088468137270356 1
ion C   6.994040945988978  17.515268034059421  14.051470303183439 1
ion C  -0.003481225296390  21.553392986802404  14.063489341010653 1
ion C  -4.671117857324910  13.469391985673436  14.091899679675610 1
ion C   4.661289958094796  13.472146843389497  14.009609581800264 1
ion C   2.328439391185750  17.512868396025567  14.038754279517928 1
ion C  -2.337319351973965  17.511638159881187  14.072865794239513 1
ion C  -0.006683860672300  13.471846454842579  14.054547304766126 1
ion S   5.091970501871192  14.050985077365141  20.960415788838993 1
ion S   7.085763358365026  13.330850691324308  24.218518721987664 1
ion S   8.301157960236354   9.542429961599444  24.208687880127844 1
ion S  10.287593396578215   8.838620943050008  20.942526694903759 1
ion Na   5.324951030105860   9.069637847644460  19.419954189715916 1
ion Na  10.060140479120445  13.838430842148849  19.445934273045371 1

# Forces in Cartesian coordinates:
force C   0.000263545735475  -0.000166934525023   0.000073364426542 1
force C   0.000227612490916  -0.000243379212438   0.000108151436014 1
force C   0.000538745550639   0.000553090319666   0.000075679300870 1
force C   0.000043565999342  -0.000275110998290   0.000072103243981 1
force C   0.000166010654744  -0.000256549621710   0.000098107176626 1
force C   0.000075497257754  -0.000940790195551  -0.000033624165801 1
force C   0.000264718109880   0.000054677286584   0.000015015801540 1
force C  -0.000027804545875   0.000041653464677   0.000045400231152 1
force C  -0.000364998727192  -0.000188956074969  -0.004965569842239 1
force C   0.000154988167313  -0.000222245459072  -0.000004341026107 1
force C  -0.000080309225368  -0.000146786565460   0.000060417010545 1
force C   0.000960928528421  -0.001053997035925  -0.002851452649691 1
force C   0.000174719551423   0.000182889523768   0.000059862210997 1
force C  -0.000120917827966   0.000417552963713   0.000090453357454 1
force C   0.001748098637625  -0.000133859492607  -0.001461672225051 1
force C  -0.000073050539088  -0.000113821522381   0.000024527127630 1
force C  -0.000511531504583  -0.000472467220502  -0.000307269678922 1
force C  -0.000444818529479   0.000453084760166   0.000037460024582 1
force C   0.000010732554715   0.000078302041716   0.000000323841240 1
force C  -0.000729628688325   0.000637708269300  -0.000067813647045 1
force C  -0.001155392434254   0.000547033326672  -0.000227002012025 1
force C   0.000024418354759   0.000107475411753   0.000038961171503 1
force C  -0.000128602032507  -0.000015415958409   0.000041464656965 1
force C  -0.000627510733645   0.001192286326899  -0.002785262975819 1
force C  -0.000014185329753   0.000084779050747   0.000084944879613 1
force C   0.000343006078052   0.000166192064042   0.000134874228131 1
force C  -0.000096521488070  -0.000004885974751   0.000000496340514 1
force C   0.001146721004037   0.000439854668613  -0.000007021556029 1
force C   0.000251684346623   0.000196182669325   0.000151833128760 1
force C  -0.000052563180871   0.000151995749292   0.000046124118409 1
force C  -0.000240049314111   0.000153160638477   0.000059426078295 1
force C   0.000084520044388  -0.000993914414464  -0.000533200489253 1
force C  -0.000141663930872   0.000030649522577   0.000108902355176 1
force C  -0.000155340622992   0.000078394880365   0.000026253893935 1
force C   0.000046012227758  -0.000232210428948  -0.000010137041214 1
force C  -0.000092888217862   0.000166894532750   0.000142051556797 1
force C  -0.000118166492606   0.000058865170828   0.000047750717052 1
force C  -0.000156193701867   0.000245421693576  -0.000031751961759 1
force C  -0.000237152448475   0.000358691402695  -0.000012019553993 1
force C  -0.000621720467023  -0.000218162998318  -0.000114046932274 1
force C  -0.000293282005565   0.002683343450494  -0.001123116276935 1
force C   0.000032516909929  -0.000039473016258  -0.000111522737664 1
force C  -0.000113879580968   0.000111892522781  -0.000066923932509 1
force C  -0.001075183858286  -0.000999927159211  -0.000790337297917 1
force C   0.000205771341256  -0.000060609309188  -0.000141031724334 1
force C   0.000013393973747   0.000030510644728   0.000002750024318 1
force C  -0.001951884346913  -0.001127888234827  -0.002935042046591 1
force C   0.000004233780396  -0.000003500512271  -0.000052807810505 1
force C   0.000008404634327   0.000026065166403  -0.000015272297714 1
force C   0.000703702390136   0.000701416712745  -0.004257547836735 1
force C   0.000105598402391  -0.000343831935701  -0.000021514710157 1
force C  -0.000239491045731   0.000089513356862   0.000054660317839 1
force C  -0.000173277938291   0.000225651035855  -0.000001368732028 1
force C   0.000102217899508   0.000219738990997   0.000066203330899 1
force C  -0.001148034834169  -0.000051881399752  -0.000707157436411 1
force C  -0.000416391691018   0.000033431555702   0.000087221602127 1
force C   0.000049126954361  -0.000057875628167  -0.000016392084890 1
force C  -0.000135286989854  -0.000141598121816   0.000038576504934 1
force C  -0.000110090742187   0.001437145499116  -0.000249903436776 1
force C   0.000066874575693  -0.000097498281043   0.000060687449870 1
force C   0.000042977754258   0.000185394052452  -0.000054314286618 1
force C  -0.000072723451651  -0.000144302929529  -0.000114780278950 1
force C   0.001703807095430  -0.001360370641646  -0.002208396701224 1
force C   0.000180316475930  -0.000404730658897  -0.000044783541007 1
force C   0.000060776511169   0.000090507603948  -0.000148012171334 1
force C   0.001344884745970  -0.000798881906646  -0.000238934543603 1
force C   0.000091256007596   0.000027320895514  -0.000067576138744 1
force C   0.000103218497797  -0.000249205571363  -0.000005145460149 1
force C  -0.000319073802550  -0.000266830778235  -0.000031959653148 1
force C   0.000121406679981  -0.000174424596002   0.000106908441082 1
force C   0.000022352416755  -0.000004810213774  -0.000055925294027 1
force C   0.000431286166320  -0.000482773218933   0.000017423772105 1
force S  -0.006466129803519   0.007908771595914   0.010963443652133 1
force S  -0.004110020069616   0.001254483239986   0.001255088169481 1
force S   0.004045542939988  -0.001230329188588   0.001150563489633 1
force S   0.006530934651205  -0.007860205417254   0.010763354655625 1
force Na  -0.013419120592793  -0.012016149431920   0.001211933787203 1
force Na   0.013746606838293   0.012220563489647   0.000983984040900 1

# Energy components:
   A_diel =       -0.1844880568979033
   Eewald =     4916.0254690796837167
       EH =     5342.7397335335826938
     Eloc =   -10843.9542486648151680
      Enl =      -78.8609705989037764
      Exc =     -161.9830128921359460
 Exc_core =        9.4955885573614154
       KE =      268.9074579644887990
-------------------------------------
     Etot =     -547.8144710776361990
       TS =        0.0696093208269700
-------------------------------------
        F =     -547.8840803984631975

IonicMinimize: Iter:   0  F: -547.884080398463198  |grad|_K:  2.331e-03  alpha:  1.000e+00

#--- Lowdin population analysis ---
# oxidation-state C +0.037 +0.037 +0.035 +0.038 +0.037 +0.036 +0.037 +0.037 +0.031 +0.038 +0.038 +0.034 +0.037 +0.037 +0.024 +0.038 +0.034 +0.035 +0.038 +0.037 +0.034 +0.038 +0.038 +0.031 +0.038 +0.037 +0.037 +0.035 +0.037 +0.038 +0.037 +0.034 +0.037 +0.038 +0.037 +0.038 +0.037 +0.037 +0.037 +0.037 +0.035 +0.037 +0.037 +0.034 +0.037 +0.037 +0.024 +0.038 +0.038 +0.024 +0.037 +0.037 +0.037 +0.035 +0.034 +0.036 +0.038 +0.037 +0.035 +0.038 +0.038 +0.037 +0.034 +0.037 +0.038 +0.036 +0.038 +0.038 +0.032 +0.038 +0.038 +0.037
# oxidation-state S -0.532 +0.032 +0.032 -0.531
# oxidation-state Na +0.858 +0.858


-------- Electronic minimization -----------
Will mix electronic density at each iteration.
	FillingsUpdate:  mu: -0.106867798  nElectrons: 330.000000
	Linear fluid (dielectric constant: 64) occupying 0.883836 of unit cell:	Completed after 18 iterations at t[s]:  41490.67
	FillingsUpdate:  mu: -0.106760220  nElectrons: 330.000000
	Linear fluid (dielectric constant: 64) occupying 0.883829 of unit cell:	Completed after 12 iterations at t[s]:  42216.59
SCF: Cycle:  0   F: -547.885291845632423   dF: -3.510e-05   |Residual|: 3.309e-03   |deigs|: 6.361e-06  t[s]:  42217.92
	Linear fluid (dielectric constant: 64) occupying 0.883835 of unit cell:	Completed after 12 iterations at t[s]:  42224.23
	FillingsUpdate:  mu: -0.106788424  nElectrons: 330.000000
	Linear fluid (dielectric constant: 64) occupying 0.883833 of unit cell:	Completed after 5 iterations at t[s]:  42619.16
SCF: Cycle:  1   F: -547.885316555333588   dF: -2.471e-05   |Residual|: 1.303e-03   |deigs|: 7.211e-05  t[s]:  42620.39
	Linear fluid (dielectric constant: 64) occupying 0.883835 of unit cell:	Completed after 5 iterations at t[s]:  42624.26
	FillingsUpdate:  mu: -0.106797551  nElectrons: 330.000000
	Linear fluid (dielectric constant: 64) occupying 0.883834 of unit cell:	Completed after 3 iterations at t[s]:  43021.12
SCF: Cycle:  2   F: -547.885318493235900   dF: -1.938e-06   |Residual|: 5.046e-04   |deigs|: 3.126e-05  t[s]:  43022.37
	Linear fluid (dielectric constant: 64) occupying 0.883834 of unit cell:	Completed after 2 iterations at t[s]:  43024.90
	FillingsUpdate:  mu: -0.106796094  nElectrons: 330.000000
	Linear fluid (dielectric constant: 64) occupying 0.883835 of unit cell:	Completed after 2 iterations at t[s]:  43419.79
SCF: Cycle:  3   F: -547.885318770127128   dF: -2.769e-07   |Residual|: 2.620e-04   |deigs|: 3.111e-05  t[s]:  43421.01
	Linear fluid (dielectric constant: 64) occupying 0.883833 of unit cell:	Completed after 1 iterations at t[s]:  43423.20
	FillingsUpdate:  mu: -0.106795353  nElectrons: 330.000000
	Linear fluid (dielectric constant: 64) occupying 0.883834 of unit cell:	Completed after 1 iterations at t[s]:  44008.87
SCF: Cycle:  4   F: -547.885318843313371   dF: -7.319e-08   |Residual|: 1.733e-04   |deigs|: 2.887e-05  t[s]:  44010.18
	Linear fluid (dielectric constant: 64) occupying 0.883832 of unit cell:	Completed after 0 iterations at t[s]:  44012.02
	FillingsUpdate:  mu: -0.106798464  nElectrons: 330.000000
	Linear fluid (dielectric constant: 64) occupying 0.883834 of unit cell:	Completed after 0 iterations at t[s]:  44600.95
SCF: Cycle:  5   F: -547.885318953146339   dF: -1.098e-07   |Residual|: 1.277e-04   |deigs|: 3.601e-05  t[s]:  44602.39
	Linear fluid (dielectric constant: 64) occupying 0.883832 of unit cell:	Completed after 0 iterations at t[s]:  44604.27
	FillingsUpdate:  mu: -0.106800284  nElectrons: 330.000000
	Linear fluid (dielectric constant: 64) occupying 0.883834 of unit cell:	Completed after 2 iterations at t[s]:  45188.42
SCF: Cycle:  6   F: -547.885318911104036   dF: +4.204e-08   |Residual|: 1.159e-04   |deigs|: 2.734e-05  t[s]:  45189.83
	Linear fluid (dielectric constant: 64) occupying 0.883832 of unit cell:	Completed after 0 iterations at t[s]:  45191.74
	FillingsUpdate:  mu: -0.106798022  nElectrons: 330.000000
	Linear fluid (dielectric constant: 64) occupying 0.883834 of unit cell:	Completed after 0 iterations at t[s]:  45776.14
SCF: Cycle:  7   F: -547.885318923674504   dF: -1.257e-08   |Residual|: 1.185e-04   |deigs|: 2.912e-05  t[s]:  45777.56
	Linear fluid (dielectric constant: 64) occupying 0.883832 of unit cell:	Completed after 0 iterations at t[s]:  45779.06
	FillingsUpdate:  mu: -0.106794769  nElectrons: 330.000000
	Linear fluid (dielectric constant: 64) occupying 0.883834 of unit cell:	Completed after 0 iterations at t[s]:  46362.96
SCF: Cycle:  8   F: -547.885318942994900   dF: -1.932e-08   |Residual|: 7.547e-05   |deigs|: 2.533e-05  t[s]:  46364.42
	Linear fluid (dielectric constant: 64) occupying 0.883833 of unit cell:	Completed after 0 iterations at t[s]:  46365.99
	FillingsUpdate:  mu: -0.106794135  nElectrons: 330.000000
	Linear fluid (dielectric constant: 64) occupying 0.883835 of unit cell:	Completed after 0 iterations at t[s]:  47055.13
SCF: Cycle:  9   F: -547.885318995809030   dF: -5.281e-08   |Residual|: 7.417e-05   |deigs|: 8.509e-05  t[s]:  47056.64
	Linear fluid (dielectric constant: 64) occupying 0.883834 of unit cell:	Completed after 0 iterations at t[s]:  47058.28
	FillingsUpdate:  mu: -0.106796978  nElectrons: 330.000000
	Linear fluid (dielectric constant: 64) occupying 0.883835 of unit cell:	Completed after 0 iterations at t[s]:  47643.00
SCF: Cycle: 10   F: -547.885319010038188   dF: -1.423e-08   |Residual|: 7.377e-05   |deigs|: 3.525e-05  t[s]:  47644.46
	Linear fluid (dielectric constant: 64) occupying 0.883834 of unit cell:	Completed after 0 iterations at t[s]:  47646.18
	FillingsUpdate:  mu: -0.106796859  nElectrons: 330.000000
	Linear fluid (dielectric constant: 64) occupying 0.883835 of unit cell:	Completed after 0 iterations at t[s]:  48041.72
SCF: Cycle: 11   F: -547.885319015458663   dF: -5.420e-09   |Residual|: 6.784e-05   |deigs|: 9.283e-06  t[s]:  48043.17
	Linear fluid (dielectric constant: 64) occupying 0.883834 of unit cell:	Completed after 1 iterations at t[s]:  48045.63
	FillingsUpdate:  mu: -0.106796706  nElectrons: 330.000000
	Linear fluid (dielectric constant: 64) occupying 0.883835 of unit cell:	Completed after 0 iterations at t[s]:  48738.57
SCF: Cycle: 12   F: -547.885318958096263   dF: +5.736e-08   |Residual|: 1.823e-04   |deigs|: 6.613e-05  t[s]:  48740.06
	Linear fluid (dielectric constant: 64) occupying 0.883835 of unit cell:	Completed after 0 iterations at t[s]:  48742.09
	FillingsUpdate:  mu: -0.106792891  nElectrons: 330.000000
	Linear fluid (dielectric constant: 64) occupying 0.883835 of unit cell:	Completed after 0 iterations at t[s]:  49322.62
SCF: Cycle: 13   F: -547.885318927552589   dF: +3.054e-08   |Residual|: 1.857e-04   |deigs|: 2.985e-05  t[s]:  49324.12
	Linear fluid (dielectric constant: 64) occupying 0.883835 of unit cell:	Completed after 0 iterations at t[s]:  49325.74
	FillingsUpdate:  mu: -0.106793072  nElectrons: 330.000000
	Linear fluid (dielectric constant: 64) occupying 0.883835 of unit cell:	Completed after 0 iterations at t[s]:  49718.92
SCF: Cycle: 14   F: -547.885318941856212   dF: -1.430e-08   |Residual|: 1.846e-04   |deigs|: 7.899e-06  t[s]:  49720.43
	Linear fluid (dielectric constant: 64) occupying 0.883835 of unit cell:	Completed after 0 iterations at t[s]:  49722.06
	FillingsUpdate:  mu: -0.106793487  nElectrons: 330.000000
	Linear fluid (dielectric constant: 64) occupying 0.883835 of unit cell:	Completed after 0 iterations at t[s]:  50307.85
SCF: Cycle: 15   F: -547.885318967565240   dF: -2.571e-08   |Residual|: 1.488e-04   |deigs|: 2.074e-05  t[s]:  50309.21
	Linear fluid (dielectric constant: 64) occupying 0.883835 of unit cell:	Completed after 1 iterations at t[s]:  50311.64
	FillingsUpdate:  mu: -0.106794101  nElectrons: 330.000000
	Linear fluid (dielectric constant: 64) occupying 0.883835 of unit cell:	Completed after 0 iterations at t[s]:  50898.94
SCF: Cycle: 16   F: -547.885318945094014   dF: +2.247e-08   |Residual|: 1.929e-04   |deigs|: 4.203e-05  t[s]:  50900.44
	Linear fluid (dielectric constant: 64) occupying 0.883835 of unit cell:	Completed after 0 iterations at t[s]:  50902.01
	FillingsUpdate:  mu: -0.106794539  nElectrons: 330.000000
	Linear fluid (dielectric constant: 64) occupying 0.883835 of unit cell:	Completed after 0 iterations at t[s]:  51487.24
SCF: Cycle: 17   F: -547.885318964872795   dF: -1.978e-08   |Residual|: 7.725e-05   |deigs|: 3.010e-05  t[s]:  51488.63
	Linear fluid (dielectric constant: 64) occupying 0.883834 of unit cell:	Completed after 0 iterations at t[s]:  51490.27
	FillingsUpdate:  mu: -0.106794666  nElectrons: 330.000000
	Linear fluid (dielectric constant: 64) occupying 0.883835 of unit cell:	Completed after 0 iterations at t[s]:  51886.88
SCF: Cycle: 18   F: -547.885318981110572   dF: -1.624e-08   |Residual|: 6.298e-05   |deigs|: 9.320e-06  t[s]:  51888.39
	Linear fluid (dielectric constant: 64) occupying 0.883834 of unit cell:	Completed after 0 iterations at t[s]:  51890.42
	FillingsUpdate:  mu: -0.106796888  nElectrons: 330.000000
	Linear fluid (dielectric constant: 64) occupying 0.883834 of unit cell:	Completed after 0 iterations at t[s]:  52580.51
SCF: Cycle: 19   F: -547.885318994988438   dF: -1.388e-08   |Residual|: 9.989e-05   |deigs|: 1.741e-05  t[s]:  52582.03
	Linear fluid (dielectric constant: 64) occupying 0.883834 of unit cell:	Completed after 0 iterations at t[s]:  52583.63
	FillingsUpdate:  mu: -0.106796809  nElectrons: 330.000000
	Linear fluid (dielectric constant: 64) occupying 0.883834 of unit cell:	Completed after 0 iterations at t[s]:  53174.03
SCF: Cycle: 20   F: -547.885318969590230   dF: +2.540e-08   |Residual|: 9.864e-05   |deigs|: 2.201e-05  t[s]:  53175.60
	Linear fluid (dielectric constant: 64) occupying 0.883834 of unit cell:	Completed after 0 iterations at t[s]:  53177.25
	FillingsUpdate:  mu: -0.106794181  nElectrons: 330.000000
	Linear fluid (dielectric constant: 64) occupying 0.883834 of unit cell:	Completed after 0 iterations at t[s]:  53764.55
SCF: Cycle: 21   F: -547.885318973651124   dF: -4.061e-09   |Residual|: 5.191e-05   |deigs|: 3.123e-05  t[s]:  53766.01
	Linear fluid (dielectric constant: 64) occupying 0.883834 of unit cell:	Completed after 0 iterations at t[s]:  53768.08
	FillingsUpdate:  mu: -0.106798695  nElectrons: 330.000000
	Linear fluid (dielectric constant: 64) occupying 0.883834 of unit cell:	Completed after 0 iterations at t[s]:  54359.21
SCF: Cycle: 22   F: -547.885318961872372   dF: +1.178e-08   |Residual|: 6.776e-05   |deigs|: 2.860e-05  t[s]:  54360.67
	Linear fluid (dielectric constant: 64) occupying 0.883833 of unit cell:	Completed after 1 iterations at t[s]:  54363.31
	FillingsUpdate:  mu: -0.106796041  nElectrons: 330.000000
	Linear fluid (dielectric constant: 64) occupying 0.883835 of unit cell:	Completed after 1 iterations at t[s]:  54947.83
SCF: Cycle: 23   F: -547.885318938929686   dF: +2.294e-08   |Residual|: 2.631e-04   |deigs|: 3.372e-05  t[s]:  54949.30
	Linear fluid (dielectric constant: 64) occupying 0.883833 of unit cell:	Completed after 0 iterations at t[s]:  54951.38
	FillingsUpdate:  mu: -0.106798638  nElectrons: 330.000000
	Linear fluid (dielectric constant: 64) occupying 0.883834 of unit cell:	Completed after 0 iterations at t[s]:  55346.91
SCF: Cycle: 24   F: -547.885318939649551   dF: -7.199e-10   |Residual|: 1.954e-04   |deigs|: 9.193e-06  t[s]:  55348.51
	Linear fluid (dielectric constant: 64) occupying 0.883833 of unit cell:	Completed after 0 iterations at t[s]:  55350.13
	FillingsUpdate:  mu: -0.106798497  nElectrons: 330.000000
	Linear fluid (dielectric constant: 64) occupying 0.883835 of unit cell:	Completed after 0 iterations at t[s]:  56020.81
SCF: Cycle: 25   F: -547.885318940812454   dF: -1.163e-09   |Residual|: 1.912e-04   |deigs|: 6.012e-06  t[s]:  56022.36
SCF: Converged (|Delta E|<1.000000e-08 for 2 iters).

Setting wave functions to eigenvectors of Hamiltonian
IonicMinimize: 	Predicted alpha/alphaT>3.000000, increasing alphaT to 3.000000e+00.

-------- Electronic minimization -----------
Will mix electronic density at each iteration.
	FillingsUpdate:  mu: -0.106798497  nElectrons: 330.000000
	Linear fluid (dielectric constant: 64) occupying 0.883830 of unit cell:	Completed after 24 iterations at t[s]:  56218.25
	FillingsUpdate:  mu: -0.105377287  nElectrons: 330.000000
	Linear fluid (dielectric constant: 64) occupying 0.883609 of unit cell:	Completed after 27 iterations at t[s]:  56977.95
SCF: Cycle:  0   F: -547.876390485679394   dF: -4.476e-02   |Residual|: 1.101e-01   |deigs|: 6.640e-04  t[s]:  56979.22
	Linear fluid (dielectric constant: 64) occupying 0.883990 of unit cell:	Completed after 27 iterations at t[s]:  56992.19
	FillingsUpdate:  mu: -0.105838560  nElectrons: 330.000000
	Linear fluid (dielectric constant: 64) occupying 0.883673 of unit cell:	Completed after 27 iterations at t[s]:  57692.26
SCF: Cycle:  1   F: -547.885025949658939   dF: -8.635e-03   |Residual|: 5.218e-02   |deigs|: 1.140e-03  t[s]:  57693.62
	Linear fluid (dielectric constant: 64) occupying 0.884071 of unit cell:	Completed after 25 iterations at t[s]:  57706.56
	FillingsUpdate:  mu: -0.106148800  nElectrons: 330.000000
	Linear fluid (dielectric constant: 64) occupying 0.883723 of unit cell:	Completed after 24 iterations at t[s]:  58403.07
SCF: Cycle:  2   F: -547.887192205054362   dF: -2.166e-03   |Residual|: 1.216e-02   |deigs|: 1.264e-03  t[s]:  58404.58
	Linear fluid (dielectric constant: 64) occupying 0.883989 of unit cell:	Completed after 22 iterations at t[s]:  58416.21
	FillingsUpdate:  mu: -0.106272670  nElectrons: 330.000000
	Linear fluid (dielectric constant: 64) occupying 0.883736 of unit cell:	Completed after 21 iterations at t[s]:  59114.91
SCF: Cycle:  3   F: -547.887351735166817   dF: -1.595e-04   |Residual|: 6.895e-03   |deigs|: 6.636e-04  t[s]:  59116.49
	Linear fluid (dielectric constant: 64) occupying 0.883850 of unit cell:	Completed after 17 iterations at t[s]:  59125.51
	FillingsUpdate:  mu: -0.106423511  nElectrons: 330.000000
	Linear fluid (dielectric constant: 64) occupying 0.883754 of unit cell:	Completed after 17 iterations at t[s]:  59820.34
SCF: Cycle:  4   F: -547.887492950913838   dF: -1.412e-04   |Residual|: 3.270e-03   |deigs|: 5.425e-04  t[s]:  59821.73
	Linear fluid (dielectric constant: 64) occupying 0.883759 of unit cell:	Completed after 14 iterations at t[s]:  59829.73
	FillingsUpdate:  mu: -0.106488247  nElectrons: 330.000000
	Linear fluid (dielectric constant: 64) occupying 0.883758 of unit cell:	Completed after 13 iterations at t[s]:  60524.49
SCF: Cycle:  5   F: -547.887554534171841   dF: -6.158e-05   |Residual|: 1.936e-03   |deigs|: 1.187e-04  t[s]:  60525.97
	Linear fluid (dielectric constant: 64) occupying 0.883680 of unit cell:	Completed after 12 iterations at t[s]:  60533.42
	FillingsUpdate:  mu: -0.106528590  nElectrons: 330.000000
	Linear fluid (dielectric constant: 64) occupying 0.883757 of unit cell:	Completed after 12 iterations at t[s]:  61233.55
SCF: Cycle:  6   F: -547.887580268167881   dF: -2.573e-05   |Residual|: 1.197e-03   |deigs|: 1.789e-04  t[s]:  61235.08
	Linear fluid (dielectric constant: 64) occupying 0.883669 of unit cell:	Completed after 11 iterations at t[s]:  61241.86
	FillingsUpdate:  mu: -0.106558324  nElectrons: 330.000000
	Linear fluid (dielectric constant: 64) occupying 0.883757 of unit cell:	Completed after 11 iterations at t[s]:  61833.39
SCF: Cycle:  7   F: -547.887586329410851   dF: -6.061e-06   |Residual|: 9.281e-04   |deigs|: 2.839e-04  t[s]:  61834.93
	Linear fluid (dielectric constant: 64) occupying 0.883695 of unit cell:	Completed after 8 iterations at t[s]:  61840.58
	FillingsUpdate:  mu: -0.106582166  nElectrons: 330.000000
	Linear fluid (dielectric constant: 64) occupying 0.883755 of unit cell:	Completed after 5 iterations at t[s]:  62430.34
SCF: Cycle:  8   F: -547.887590641985753   dF: -4.313e-06   |Residual|: 6.347e-04   |deigs|: 4.052e-04  t[s]:  62431.90
	Linear fluid (dielectric constant: 64) occupying 0.883709 of unit cell:	Completed after 5 iterations at t[s]:  62436.21
	FillingsUpdate:  mu: -0.106589284  nElectrons: 330.000000
	Linear fluid (dielectric constant: 64) occupying 0.883754 of unit cell:	Completed after 3 iterations at t[s]:  63022.06
SCF: Cycle:  9   F: -547.887591744128486   dF: -1.102e-06   |Residual|: 4.973e-04   |deigs|: 2.610e-04  t[s]:  63023.62
	Linear fluid (dielectric constant: 64) occupying 0.883719 of unit cell:	Completed after 5 iterations at t[s]:  63027.92
	FillingsUpdate:  mu: -0.106607560  nElectrons: 330.000000
	Linear fluid (dielectric constant: 64) occupying 0.883755 of unit cell:	Completed after 3 iterations at t[s]:  63621.44
SCF: Cycle: 10   F: -547.887592049714613   dF: -3.056e-07   |Residual|: 4.093e-04   |deigs|: 4.041e-04  t[s]:  63622.92
	Linear fluid (dielectric constant: 64) occupying 0.883726 of unit cell:	Completed after 3 iterations at t[s]:  63626.22
	FillingsUpdate:  mu: -0.106624058  nElectrons: 330.000000
	Linear fluid (dielectric constant: 64) occupying 0.883757 of unit cell:	Completed after 4 iterations at t[s]:  64223.81
SCF: Cycle: 11   F: -547.887592331621477   dF: -2.819e-07   |Residual|: 3.606e-04   |deigs|: 3.009e-04  t[s]:  64225.29
	Linear fluid (dielectric constant: 64) occupying 0.883729 of unit cell:	Completed after 3 iterations at t[s]:  64228.50
	FillingsUpdate:  mu: -0.106634548  nElectrons: 330.000000
	Linear fluid (dielectric constant: 64) occupying 0.883758 of unit cell:	Completed after 3 iterations at t[s]:  64829.36
SCF: Cycle: 12   F: -547.887592452810622   dF: -1.212e-07   |Residual|: 2.905e-04   |deigs|: 4.695e-04  t[s]:  64830.77
	Linear fluid (dielectric constant: 64) occupying 0.883733 of unit cell:	Completed after 3 iterations at t[s]:  64834.08
	FillingsUpdate:  mu: -0.106637169  nElectrons: 330.000000
	Linear fluid (dielectric constant: 64) occupying 0.883759 of unit cell:	Completed after 2 iterations at t[s]:  65427.03
SCF: Cycle: 13   F: -547.887592520883913   dF: -6.807e-08   |Residual|: 2.610e-04   |deigs|: 1.988e-04  t[s]:  65428.49
	Linear fluid (dielectric constant: 64) occupying 0.883748 of unit cell:	Completed after 1 iterations at t[s]:  65430.96
	FillingsUpdate:  mu: -0.106652996  nElectrons: 330.000000
	Linear fluid (dielectric constant: 64) occupying 0.883762 of unit cell:	Completed after 1 iterations at t[s]:  66027.56
SCF: Cycle: 14   F: -547.887592562104146   dF: -4.122e-08   |Residual|: 2.149e-04   |deigs|: 3.654e-04  t[s]:  66028.98
	Linear fluid (dielectric constant: 64) occupying 0.883757 of unit cell:	Completed after 3 iterations at t[s]:  66032.39
	FillingsUpdate:  mu: -0.106643941  nElectrons: 330.000000
	Linear fluid (dielectric constant: 64) occupying 0.883762 of unit cell:	Completed after 2 iterations at t[s]:  66632.07
SCF: Cycle: 15   F: -547.887592536790407   dF: +2.531e-08   |Residual|: 2.106e-04   |deigs|: 2.006e-04  t[s]:  66633.43
	Linear fluid (dielectric constant: 64) occupying 0.883761 of unit cell:	Completed after 1 iterations at t[s]:  66635.93
	FillingsUpdate:  mu: -0.106653194  nElectrons: 330.000000
	Linear fluid (dielectric constant: 64) occupying 0.883764 of unit cell:	Completed after 0 iterations at t[s]:  67323.47
SCF: Cycle: 16   F: -547.887592675111591   dF: -1.383e-07   |Residual|: 1.832e-04   |deigs|: 1.125e-04  t[s]:  67324.96
	Linear fluid (dielectric constant: 64) occupying 0.883767 of unit cell:	Completed after 2 iterations at t[s]:  67327.87
	FillingsUpdate:  mu: -0.106653229  nElectrons: 330.000000
	Linear fluid (dielectric constant: 64) occupying 0.883764 of unit cell:	Completed after 1 iterations at t[s]:  67919.79
SCF: Cycle: 17   F: -547.887592688874406   dF: -1.376e-08   |Residual|: 1.580e-04   |deigs|: 1.621e-04  t[s]:  67921.35
	Linear fluid (dielectric constant: 64) occupying 0.883767 of unit cell:	Completed after 0 iterations at t[s]:  67923.45
	FillingsUpdate:  mu: -0.106652419  nElectrons: 330.000000
	Linear fluid (dielectric constant: 64) occupying 0.883764 of unit cell:	Completed after 0 iterations at t[s]:  68520.62
SCF: Cycle: 18   F: -547.887592711457955   dF: -2.258e-08   |Residual|: 1.127e-04   |deigs|: 4.216e-05  t[s]:  68522.14
	Linear fluid (dielectric constant: 64) occupying 0.883767 of unit cell:	Completed after 0 iterations at t[s]:  68524.22
	FillingsUpdate:  mu: -0.106651682  nElectrons: 330.000000
	Linear fluid (dielectric constant: 64) occupying 0.883764 of unit cell:	Completed after 0 iterations at t[s]:  69216.70
SCF: Cycle: 19   F: -547.887592777394957   dF: -6.594e-08   |Residual|: 8.615e-05   |deigs|: 1.332e-04  t[s]:  69218.14
	Linear fluid (dielectric constant: 64) occupying 0.883765 of unit cell:	Completed after 1 iterations at t[s]:  69220.59
	FillingsUpdate:  mu: -0.106659709  nElectrons: 330.000000
	Linear fluid (dielectric constant: 64) occupying 0.883764 of unit cell:	Completed after 0 iterations at t[s]:  69818.99
SCF: Cycle: 20   F: -547.887592817593713   dF: -4.020e-08   |Residual|: 1.757e-04   |deigs|: 1.469e-04  t[s]:  69820.44
	Linear fluid (dielectric constant: 64) occupying 0.883764 of unit cell:	Completed after 0 iterations at t[s]:  69822.45
	FillingsUpdate:  mu: -0.106657377  nElectrons: 330.000000
	Linear fluid (dielectric constant: 64) occupying 0.883764 of unit cell:	Completed after 0 iterations at t[s]:  70406.84
SCF: Cycle: 21   F: -547.887592823248610   dF: -5.655e-09   |Residual|: 1.148e-04   |deigs|: 1.987e-05  t[s]:  70408.24
	Linear fluid (dielectric constant: 64) occupying 0.883763 of unit cell:	Completed after 0 iterations at t[s]:  70409.78
	FillingsUpdate:  mu: -0.106657554  nElectrons: 330.000000
	Linear fluid (dielectric constant: 64) occupying 0.883764 of unit cell:	Completed after 0 iterations at t[s]:  71105.63
SCF: Cycle: 22   F: -547.887592887396181   dF: -6.415e-08   |Residual|: 1.171e-04   |deigs|: 1.078e-04  t[s]:  71107.02
	Linear fluid (dielectric constant: 64) occupying 0.883762 of unit cell:	Completed after 1 iterations at t[s]:  71109.44
	FillingsUpdate:  mu: -0.106655781  nElectrons: 330.000000
	Linear fluid (dielectric constant: 64) occupying 0.883764 of unit cell:	Completed after 0 iterations at t[s]:  71695.55
SCF: Cycle: 23   F: -547.887592839483546   dF: +4.791e-08   |Residual|: 7.765e-05   |deigs|: 5.367e-05  t[s]:  71696.95
	Linear fluid (dielectric constant: 64) occupying 0.883761 of unit cell:	Completed after 0 iterations at t[s]:  71698.58
	FillingsUpdate:  mu: -0.106660671  nElectrons: 330.000000
	Linear fluid (dielectric constant: 64) occupying 0.883764 of unit cell:	Completed after 0 iterations at t[s]:  72283.96
SCF: Cycle: 24   F: -547.887592849294720   dF: -9.811e-09   |Residual|: 6.818e-05   |deigs|: 1.045e-04  t[s]:  72285.34
	Linear fluid (dielectric constant: 64) occupying 0.883762 of unit cell:	Completed after 0 iterations at t[s]:  72286.96
	FillingsUpdate:  mu: -0.106660709  nElectrons: 330.000000
	Linear fluid (dielectric constant: 64) occupying 0.883763 of unit cell:	Completed after 0 iterations at t[s]:  72879.83
SCF: Cycle: 25   F: -547.887592869297237   dF: -2.000e-08   |Residual|: 6.679e-05   |deigs|: 3.920e-05  t[s]:  72881.25
	Linear fluid (dielectric constant: 64) occupying 0.883762 of unit cell:	Completed after 0 iterations at t[s]:  72883.31
	FillingsUpdate:  mu: -0.106657045  nElectrons: 330.000000
	Linear fluid (dielectric constant: 64) occupying 0.883763 of unit cell:	Completed after 0 iterations at t[s]:  73476.16
SCF: Cycle: 26   F: -547.887592839172271   dF: +3.012e-08   |Residual|: 5.781e-05   |deigs|: 2.479e-05  t[s]:  73477.61
	Linear fluid (dielectric constant: 64) occupying 0.883762 of unit cell:	Completed after 0 iterations at t[s]:  73479.20
	FillingsUpdate:  mu: -0.106660780  nElectrons: 330.000000
	Linear fluid (dielectric constant: 64) occupying 0.883763 of unit cell:	Completed after 0 iterations at t[s]:  74065.48
SCF: Cycle: 27   F: -547.887592850185229   dF: -1.101e-08   |Residual|: 3.981e-05   |deigs|: 8.359e-05  t[s]:  74067.01
	Linear fluid (dielectric constant: 64) occupying 0.883762 of unit cell:	Completed after 2 iterations at t[s]:  74070.00
	FillingsUpdate:  mu: -0.106659399  nElectrons: 330.000000
	Linear fluid (dielectric constant: 64) occupying 0.883764 of unit cell:	Completed after 0 iterations at t[s]:  74761.37
SCF: Cycle: 28   F: -547.887592869257332   dF: -1.907e-08   |Residual|: 2.223e-04   |deigs|: 1.897e-04  t[s]:  74762.86
	Linear fluid (dielectric constant: 64) occupying 0.883762 of unit cell:	Completed after 0 iterations at t[s]:  74764.90
	FillingsUpdate:  mu: -0.106659965  nElectrons: 330.000000
	Linear fluid (dielectric constant: 64) occupying 0.883764 of unit cell:	Completed after 0 iterations at t[s]:  75348.93
SCF: Cycle: 29   F: -547.887592871293464   dF: -2.036e-09   |Residual|: 1.812e-04   |deigs|: 2.382e-05  t[s]:  75350.39
	Linear fluid (dielectric constant: 64) occupying 0.883762 of unit cell:	Completed after 0 iterations at t[s]:  75351.95
	FillingsUpdate:  mu: -0.106659942  nElectrons: 330.000000
	Linear fluid (dielectric constant: 64) occupying 0.883764 of unit cell:	Completed after 0 iterations at t[s]:  75935.20
SCF: Cycle: 30   F: -547.887592875638916   dF: -4.345e-09   |Residual|: 1.792e-04   |deigs|: 5.306e-05  t[s]:  75936.61
SCF: Converged (|Delta E|<1.000000e-08 for 2 iters).

Setting wave functions to eigenvectors of Hamiltonian
IonicMinimize: 	Predicted alpha/alphaT>3.000000, increasing alphaT to 9.000000e+00.

-------- Electronic minimization -----------
Will mix electronic density at each iteration.
	FillingsUpdate:  mu: -0.106659942  nElectrons: 330.000000
	Linear fluid (dielectric constant: 64) occupying 0.883743 of unit cell:	Completed after 31 iterations at t[s]:  76140.73
	FillingsUpdate:  mu: -0.101773516  nElectrons: 330.000000
	Linear fluid (dielectric constant: 64) occupying 0.883271 of unit cell:	Completed after 31 iterations at t[s]:  76900.46
SCF: Cycle:  0   F: -547.789093029280025   dF: -4.066e-01   |Residual|: 3.516e-01   |deigs|: 5.176e-03  t[s]:  76901.85
	Linear fluid (dielectric constant: 64) occupying 0.884216 of unit cell:	Completed after 35 iterations at t[s]:  76919.30
	FillingsUpdate:  mu: -0.103441043  nElectrons: 330.000000
	Linear fluid (dielectric constant: 64) occupying 0.883324 of unit cell:	Completed after 33 iterations at t[s]:  77624.13
SCF: Cycle:  1   F: -547.868939821251047   dF: -7.985e-02   |Residual|: 1.607e-01   |deigs|: 4.795e-03  t[s]:  77625.64
	Linear fluid (dielectric constant: 64) occupying 0.884436 of unit cell:	Completed after 35 iterations at t[s]:  77643.66
	FillingsUpdate:  mu: -0.104201415  nElectrons: 330.000000
	Linear fluid (dielectric constant: 64) occupying 0.883403 of unit cell:	Completed after 31 iterations at t[s]:  78348.60
SCF: Cycle:  2   F: -547.888880769104162   dF: -1.994e-02   |Residual|: 4.320e-02   |deigs|: 1.878e-03  t[s]:  78350.08
	Linear fluid (dielectric constant: 64) occupying 0.884232 of unit cell:	Completed after 31 iterations at t[s]:  78365.83
	FillingsUpdate:  mu: -0.104751939  nElectrons: 330.000000
	Linear fluid (dielectric constant: 64) occupying 0.883459 of unit cell:	Completed after 29 iterations at t[s]:  79075.19
SCF: Cycle:  3   F: -547.890899007381904   dF: -2.018e-03   |Residual|: 2.220e-02   |deigs|: 2.560e-03  t[s]:  79076.71
	Linear fluid (dielectric constant: 64) occupying 0.883896 of unit cell:	Completed after 26 iterations at t[s]:  79090.42
	FillingsUpdate:  mu: -0.105280600  nElectrons: 330.000000
	Linear fluid (dielectric constant: 64) occupying 0.883507 of unit cell:	Completed after 25 iterations at t[s]:  79793.24
SCF: Cycle:  4   F: -547.891981178280275   dF: -1.082e-03   |Residual|: 1.124e-02   |deigs|: 1.808e-03  t[s]:  79794.85
	Linear fluid (dielectric constant: 64) occupying 0.883553 of unit cell:	Completed after 22 iterations at t[s]:  79806.72
	FillingsUpdate:  mu: -0.105643206  nElectrons: 330.000000
	Linear fluid (dielectric constant: 64) occupying 0.883530 of unit cell:	Completed after 22 iterations at t[s]:  80505.70
SCF: Cycle:  5   F: -547.892603378867420   dF: -6.222e-04   |Residual|: 6.015e-03   |deigs|: 5.919e-04  t[s]:  80507.26
	Linear fluid (dielectric constant: 64) occupying 0.883298 of unit cell:	Completed after 19 iterations at t[s]:  80517.94
	FillingsUpdate:  mu: -0.105847091  nElectrons: 330.000000
	Linear fluid (dielectric constant: 64) occupying 0.883531 of unit cell:	Completed after 18 iterations at t[s]:  81220.56
SCF: Cycle:  6   F: -547.892824104481861   dF: -2.207e-04   |Residual|: 3.715e-03   |deigs|: 5.131e-04  t[s]:  81222.04
	Linear fluid (dielectric constant: 64) occupying 0.883250 of unit cell:	Completed after 16 iterations at t[s]:  81231.27
	FillingsUpdate:  mu: -0.105927215  nElectrons: 330.000000
	Linear fluid (dielectric constant: 64) occupying 0.883526 of unit cell:	Completed after 16 iterations at t[s]:  81928.30
SCF: Cycle:  7   F: -547.892863540619146   dF: -3.944e-05   |Residual|: 2.796e-03   |deigs|: 6.616e-04  t[s]:  81929.77
	Linear fluid (dielectric constant: 64) occupying 0.883321 of unit cell:	Completed after 13 iterations at t[s]:  81937.69
	FillingsUpdate:  mu: -0.105980479  nElectrons: 330.000000
[...]
	FillingsUpdate:  mu: -0.105720468  nElectrons: 330.000000
	Linear fluid (dielectric constant: 64) occupying 0.881302 of unit cell:	Completed after 2 iterations at t[s]: 2075277.24
SCF: Cycle:  0   F: -547.939738779890604   dF: -1.833e-07   |Residual|: 2.481e-04   |deigs|: 2.747e-09  t[s]: 2075278.80
	Linear fluid (dielectric constant: 64) occupying 0.881301 of unit cell:	Completed after 0 iterations at t[s]: 2075280.66
	FillingsUpdate:  mu: -0.105722234  nElectrons: 330.000000
	Linear fluid (dielectric constant: 64) occupying 0.881302 of unit cell:	Completed after 2 iterations at t[s]: 2075684.37
SCF: Cycle:  1   F: -547.939738740187863   dF: +3.970e-08   |Residual|: 1.766e-04   |deigs|: 9.373e-06  t[s]: 2075685.90
	Linear fluid (dielectric constant: 64) occupying 0.881301 of unit cell:	Completed after 0 iterations at t[s]: 2075687.76
	FillingsUpdate:  mu: -0.105716254  nElectrons: 330.000000
	Linear fluid (dielectric constant: 64) occupying 0.881301 of unit cell:	Completed after 4 iterations at t[s]: 2076091.05
SCF: Cycle:  2   F: -547.939738399778321   dF: +3.404e-07   |Residual|: 2.913e-04   |deigs|: 1.426e-05  t[s]: 2076092.57
	Linear fluid (dielectric constant: 64) occupying 0.881301 of unit cell:	Completed after 2 iterations at t[s]: 2076095.52
	FillingsUpdate:  mu: -0.105722371  nElectrons: 330.000000
	Linear fluid (dielectric constant: 64) occupying 0.881302 of unit cell:	Completed after 0 iterations at t[s]: 2076493.61
SCF: Cycle:  3   F: -547.939738957920099   dF: -5.581e-07   |Residual|: 1.169e-04   |deigs|: 1.341e-05  t[s]: 2076495.19
	Linear fluid (dielectric constant: 64) occupying 0.881301 of unit cell:	Completed after 0 iterations at t[s]: 2076496.73
	FillingsUpdate:  mu: -0.105722366  nElectrons: 330.000000
	Linear fluid (dielectric constant: 64) occupying 0.881302 of unit cell:	Completed after 0 iterations at t[s]: 2076902.29
SCF: Cycle:  4   F: -547.939738962480988   dF: -4.561e-09   |Residual|: 1.142e-04   |deigs|: 7.298e-07  t[s]: 2076903.89
	Linear fluid (dielectric constant: 64) occupying 0.881301 of unit cell:	Completed after 0 iterations at t[s]: 2076905.57
	FillingsUpdate:  mu: -0.105722368  nElectrons: 330.000000
	Linear fluid (dielectric constant: 64) occupying 0.881302 of unit cell:	Completed after 1 iterations at t[s]: 2077311.52
SCF: Cycle:  5   F: -547.939738865861045   dF: +9.662e-08   |Residual|: 1.119e-04   |deigs|: 8.729e-07  t[s]: 2077313.16
	Linear fluid (dielectric constant: 64) occupying 0.881301 of unit cell:	Completed after 0 iterations at t[s]: 2077314.76
	FillingsUpdate:  mu: -0.105719765  nElectrons: 330.000000
	Linear fluid (dielectric constant: 64) occupying 0.881301 of unit cell:	Completed after 0 iterations at t[s]: 2077716.84
SCF: Cycle:  6   F: -547.939738892178866   dF: -2.632e-08   |Residual|: 9.172e-05   |deigs|: 7.311e-06  t[s]: 2077718.45
	Linear fluid (dielectric constant: 64) occupying 0.881301 of unit cell:	Completed after 0 iterations at t[s]: 2077720.17
	FillingsUpdate:  mu: -0.105719188  nElectrons: 330.000000
	Linear fluid (dielectric constant: 64) occupying 0.881301 of unit cell:	Completed after 0 iterations at t[s]: 2078120.24
SCF: Cycle:  7   F: -547.939738897986786   dF: -5.808e-09   |Residual|: 4.759e-05   |deigs|: 4.739e-06  t[s]: 2078121.86
	Linear fluid (dielectric constant: 64) occupying 0.881301 of unit cell:	Completed after 0 iterations at t[s]: 2078123.61
	FillingsUpdate:  mu: -0.105719193  nElectrons: 330.000000
	Linear fluid (dielectric constant: 64) occupying 0.881301 of unit cell:	Completed after 0 iterations at t[s]: 2078523.05
SCF: Cycle:  8   F: -547.939738898335236   dF: -3.485e-10   |Residual|: 4.666e-05   |deigs|: 1.694e-07  t[s]: 2078524.67
SCF: Converged (|Delta E|<1.000000e-08 for 2 iters).

Setting wave functions to eigenvectors of Hamiltonian

-------- Electronic minimization -----------
Will mix electronic density at each iteration.
	FillingsUpdate:  mu: -0.105719193  nElectrons: 330.000000
	Linear fluid (dielectric constant: 64) occupying 0.881301 of unit cell:	Completed after 8 iterations at t[s]: 2078754.40
	FillingsUpdate:  mu: -0.105720157  nElectrons: 330.000000
	Linear fluid (dielectric constant: 64) occupying 0.881302 of unit cell:	Completed after 3 iterations at t[s]: 2079215.04
SCF: Cycle:  0   F: -547.939739024416781   dF: -1.505e-07   |Residual|: 2.868e-04   |deigs|: 6.369e-09  t[s]: 2079216.58
	Linear fluid (dielectric constant: 64) occupying 0.881301 of unit cell:	Completed after 1 iterations at t[s]: 2079218.80
	FillingsUpdate:  mu: -0.105717010  nElectrons: 330.000000
	Linear fluid (dielectric constant: 64) occupying 0.881302 of unit cell:	Completed after 2 iterations at t[s]: 2079621.76
SCF: Cycle:  1   F: -547.939739130259909   dF: -1.058e-07   |Residual|: 1.636e-04   |deigs|: 6.931e-06  t[s]: 2079623.12
	Linear fluid (dielectric constant: 64) occupying 0.881301 of unit cell:	Completed after 0 iterations at t[s]: 2079624.56
	FillingsUpdate:  mu: -0.105719679  nElectrons: 330.000000
	Linear fluid (dielectric constant: 64) occupying 0.881302 of unit cell:	Completed after 3 iterations at t[s]: 2080028.47
SCF: Cycle:  2   F: -547.939738945687395   dF: +1.846e-07   |Residual|: 2.378e-04   |deigs|: 6.062e-06  t[s]: 2080030.00
	Linear fluid (dielectric constant: 64) occupying 0.881301 of unit cell:	Completed after 2 iterations at t[s]: 2080032.95
	FillingsUpdate:  mu: -0.105720848  nElectrons: 330.000000
	Linear fluid (dielectric constant: 64) occupying 0.881302 of unit cell:	Completed after 2 iterations at t[s]: 2080432.31
SCF: Cycle:  3   F: -547.939739106616230   dF: -1.609e-07   |Residual|: 1.613e-04   |deigs|: 5.531e-06  t[s]: 2080433.88
	Linear fluid (dielectric constant: 64) occupying 0.881301 of unit cell:	Completed after 0 iterations at t[s]: 2080435.85
	FillingsUpdate:  mu: -0.105716448  nElectrons: 330.000000
	Linear fluid (dielectric constant: 64) occupying 0.881302 of unit cell:	Completed after 3 iterations at t[s]: 2080837.48
SCF: Cycle:  4   F: -547.939738699123154   dF: +4.075e-07   |Residual|: 2.871e-04   |deigs|: 6.734e-06  t[s]: 2080839.05
	Linear fluid (dielectric constant: 64) occupying 0.881301 of unit cell:	Completed after 3 iterations at t[s]: 2080842.59
	FillingsUpdate:  mu: -0.105718811  nElectrons: 330.000000
	Linear fluid (dielectric constant: 64) occupying 0.881302 of unit cell:	Completed after 0 iterations at t[s]: 2081244.75
SCF: Cycle:  5   F: -547.939739256479356   dF: -5.574e-07   |Residual|: 1.266e-04   |deigs|: 3.912e-06  t[s]: 2081246.33
	Linear fluid (dielectric constant: 64) occupying 0.881301 of unit cell:	Completed after 0 iterations at t[s]: 2081248.06
	FillingsUpdate:  mu: -0.105716092  nElectrons: 330.000000
	Linear fluid (dielectric constant: 64) occupying 0.881302 of unit cell:	Completed after 0 iterations at t[s]: 2081650.07
SCF: Cycle:  6   F: -547.939739263542492   dF: -7.063e-09   |Residual|: 5.339e-05   |deigs|: 3.568e-06  t[s]: 2081651.76
	Linear fluid (dielectric constant: 64) occupying 0.881301 of unit cell:	Completed after 0 iterations at t[s]: 2081653.45
	FillingsUpdate:  mu: -0.105716100  nElectrons: 330.000000
	Linear fluid (dielectric constant: 64) occupying 0.881302 of unit cell:	Completed after 0 iterations at t[s]: 2082054.22
SCF: Cycle:  7   F: -547.939739263565912   dF: -2.342e-11   |Residual|: 5.292e-05   |deigs|: 3.396e-07  t[s]: 2082055.80
SCF: Converged (|Delta E|<1.000000e-08 for 2 iters).

Setting wave functions to eigenvectors of Hamiltonian

# Ionic positions in cartesian coordinates:
ion C  28.001738171729979  -0.006228724804273  13.958100972732892 1
ion C  16.333220082827495  20.205025705756743  13.959650963095390 1
ion C   2.329968751276316   4.036074509062764  13.950857251245587 1
ion C  23.333613335638379  -0.006183059974108  13.962132829555760 1
ion C   4.664052379181524  -0.006369651352263  13.957227956583225 1
ion C  11.664948598138478  20.205168511496851  13.955775868050910 1
ion C  25.667704023734697   4.036057991327952  13.960772118924355 1
ion C  18.667040773587821  16.162788033636065  13.962657030076141 1
ion C   4.663844416872585   8.078391621643091  13.938076499402714 1
ion C  18.666254165298795  -0.006303766466116  13.963465135605022 1
ion C   9.331817211144267  -0.006637244498587  13.959998904836024 1
ion C   9.331224620497789  16.162649322005070  13.943919176859170 1
ion C  23.333955499051250   8.078239414752730  13.961790366947588 1
ion C  21.000619298287432  12.120587665036531  13.960753371270220 1
ion C   6.997790694933661  12.120501454706890  13.938623083597545 1
ion C  13.999158576947332  -0.006454911089280  13.959634580675885 1
ion C  13.999129058118124  16.162588221482196  13.952566482526153 1
ion C   6.997734179087094   4.035866302050130  13.948586895983301 1
ion C  21.000076951790316   4.035768857895674  13.965275073190890 1
ion C  16.332941575315740  12.120549242285300  13.955455644778475 1
ion C   9.331324651273409   8.078386985436374  13.942469339378562 1
ion C  16.332843420866059   4.035462810292066  13.959753051638780 1
ion C  11.665261353449710   4.035801307378563  13.951990674287869 1
ion C  11.664856499903788  12.120473274654088  13.942163508223588 1
ion C  18.666627161384280   8.078026909989580  13.960488899273429 1
ion C   6.996944599246568  20.205433076073579  13.955787619971650 1
ion C  -7.005036089617636  20.204994170737358  13.964448454251999 1
ion C  -0.003946868284630   8.078496027989971  13.950433020505539 1
ion C  13.999094778307409   8.077984831927719  13.951913208856181 1
ion C   2.329812295907299  20.205360531292470  13.957641825698127 1
ion C  -4.671483173651482  16.162864970129640  13.962361229260583 1
ion C   2.329868863634799  12.120557089833788  13.945325109721251 1
ion C  -2.337838637258222  12.120616229023131  13.955634342743199 1
ion C  -2.337606425770826  20.205208979885228  13.962876290277295 1
ion C   4.663584182958081  16.162991079517667  13.948653571728725 1
ion C  -0.004159073484132  16.163212669285855  13.955555052645945 1
ion C  13.998995445181379  21.552457795238119  13.957460066162755 1
ion C   2.329963352926791   1.340977859906396  13.954946700674698 1
ion C  25.667558638837413   1.341213865681831  13.959852414169186 1
ion C  16.333007913979053  17.510118199761141  13.959362486397934 1
ion C   4.663835792073479   5.383758985148290  13.943626614316468 1
ion C  20.999914116308869   1.341194137145680  13.964453962468326 1
ion C   6.998078736015959   1.340764378845552  13.955370977031242 1
ion C  11.665030123016038  17.510065445005431  13.949264869898583 1
ion C  23.333864594906636   5.383377458693738  13.963045849751699 1
ion C  18.666781404039810  13.467918769178187  13.960698520961342 1
ion C   6.997297634746996   9.425641802177459  13.936451758056183 1
ion C  16.332554995200148   1.340980853160816  13.961406520280795 1
ion C  11.665360969061979   1.340858251301133  13.956948466062759 1
ion C   9.331384801762168  13.468117310689285  13.938106381474874 1
ion C  21.000162998846896   9.425553830622023  13.961218761199882 1
ion C   9.330982090921140  21.552678133007166  13.957433691783050 1
ion C  -9.338711227035709  21.552402289674493  13.960558805656966 1
ion C  -0.004300079810013   5.383500021836960  13.953277127490029 1
ion C  13.998851522125694  13.467752574358629  13.948884616198173 1
ion C   9.331547605520626   5.383337350546001  13.946237270516212 1
ion C  18.666411392811902   5.383186269747209  13.961966475363681 1
ion C  16.332952177398088   9.425554932563866  13.955641611361832 1
ion C  11.665323223573894   9.425728018311357  13.944719065295560 1
ion C  13.999111580110212   5.382921928589453  13.953739891527308 1
ion C   4.663212071335995  21.552852331281322  13.959605692432962 1
ion C  -7.005159394703694  17.510294577289756  13.964564571377482 1
ion C   2.330238098425714   9.425744054787932  13.941287986506817 1
ion C  -2.338144176641904   9.425597474982743  13.955940008497537 1
ion C  -4.671213834352251  21.552490400726089  13.963643493416257 1
ion C   6.997480916650217  17.510271244140842  13.947714910594629 1
ion C  -0.004088753447119  21.552627915227909  13.960334448389148 1
ion C  -4.671577521601819  13.468060026983498  13.959710349364368 1
ion C   4.663667561890854  13.468003536490237  13.943060929721936 1
ion C   2.329790302073841  17.510436185675264  13.953205861326330 1
ion C  -2.337903945409775  17.510636208091206  13.960676274199523 1
ion C  -0.003994088787860  13.468124546843244  13.951536870987479 1
ion S   4.838692884602109  14.277326923317585  22.315571043040684 1
ion S   7.213370710633217  13.363221860464584  25.234829980014279 1
ion S   8.179133765116536   9.517630191269015  25.218643381176690 1
ion S  10.605748549315159   8.640932107915807  22.331111268905161 1
ion Na   2.511463352718527   6.477929150660654  21.410685862444051 1
ion Na  12.871291915209284  16.426739082862102  21.436981904985679 1

# Forces in Cartesian coordinates:
force C  -0.000043661385687  -0.000037443110069  -0.000095447297242 1
force C  -0.000117413886257   0.000049477581015  -0.000070623389416 1
force C  -0.000063224585348  -0.000014398936332  -0.000154655483896 1
force C   0.000129771692807  -0.000017217173765  -0.000107222989137 1
force C  -0.000008441030500  -0.000047472348035  -0.000067734390930 1
force C   0.000007674329326  -0.000018957786569  -0.000161001760083 1
force C  -0.000033025198256  -0.000030451985575  -0.000187905668170 1
force C  -0.000083438428939  -0.000019927347692  -0.000079033520284 1
force C   0.000011902488346   0.000041411586746  -0.000024739063074 1
force C  -0.000015593277399   0.000037386086870  -0.000093584357684 1
force C  -0.000041545699592   0.000065821328716  -0.000151263050863 1
force C  -0.000061233130946   0.000098540517274  -0.000111757425364 1
force C  -0.000022076330010  -0.000030756507688  -0.000156092471921 1
force C  -0.000086846020302  -0.000085304936816   0.000021833226993 1
force C  -0.000241892983404   0.000059259275783  -0.000171698576041 1
force C  -0.000149194071471   0.000013372473375   0.000029777345027 1
force C  -0.000079271644368   0.000061522292291  -0.000134623535766 1
force C   0.000044797702771   0.000005960245081  -0.000147466281024 1
force C   0.000030785182003   0.000106442935329  -0.000155300349278 1
force C  -0.000024093848731  -0.000100506474667  -0.000032761287720 1
force C   0.000014848893569  -0.000070295357000  -0.000188994496743 1
force C  -0.000081899616122   0.000149782996021  -0.000053215235032 1
force C  -0.000004736401766  -0.000052601387665  -0.000045215501207 1
force C   0.000127004750850  -0.000025250123233  -0.000056130442286 1
force C  -0.000056481134019   0.000025782484585  -0.000061483133331 1
force C   0.000129155266174  -0.000165583778088  -0.000104783115119 1
force C   0.000046964141189   0.000058371369958  -0.000122042547165 1
force C  -0.000033388040693  -0.000032210281556  -0.000142866780209 1
force C  -0.000037547507554   0.000030231086398  -0.000143639375605 1
force C  -0.000120441066619  -0.000097610325719   0.000021954724470 1
force C   0.000026109756556   0.000030849687504  -0.000042592465833 1
force C   0.000085124606431   0.000125438688387  -0.000187959524092 1
force C   0.000019499066684   0.000004725066777  -0.000035979308696 1
force C  -0.000033394178152   0.000011323835999  -0.000121853566374 1
force C   0.000006273730656  -0.000114203293408  -0.000157209301170 1
force C   0.000073638160574  -0.000111999876643  -0.000099249676246 1
force C   0.000029083540200   0.000053100951668   0.000090921715175 1
force C   0.000032668105023   0.000045389258344   0.000082331948679 1
force C   0.000079677919764  -0.000067356979207   0.000124356488026 1
force C   0.000062586356024  -0.000000821016980  -0.000031937655379 1
force C   0.000052618108821  -0.000233884529089   0.000124677809398 1
force C   0.000005751314777  -0.000074574806755   0.000007426845934 1
force C  -0.000114141189042   0.000139427668857   0.000053755257599 1
force C   0.000033116685008   0.000055640292487   0.000088593726901 1
force C  -0.000028507266370  -0.000012579980200   0.000064533474293 1
force C   0.000022229115622  -0.000000355328565  -0.000073117262002 1
force C   0.000328438474047   0.000136414746764   0.000206987088826 1
force C   0.000093382948888  -0.000032114576571  -0.000032285217133 1
force C   0.000044763139264   0.000091745111442   0.000054539003702 1
force C  -0.000116546451803  -0.000208342470619   0.000252769348439 1
force C   0.000074626882924   0.000085217688766   0.000033418907309 1
force C  -0.000052182993713   0.000002244666114   0.000084454951437 1
force C  -0.000070360384023   0.000053630845153   0.000099310479876 1
force C   0.000138340755810  -0.000019144334686   0.000052467405718 1
force C   0.000041989932037  -0.000047677781384   0.000068711541697 1
force C   0.000000779253456   0.000108294746670   0.000069598239481 1
force C  -0.000001402617206  -0.000010305815868   0.000073294162579 1
force C  -0.000067116027201  -0.000013191344241   0.000039452728375 1
force C  -0.000128662332904  -0.000114114085478   0.000055819052833 1
force C  -0.000029370601823   0.000126193854341   0.000058393317205 1
force C   0.000092510663736  -0.000067906881827  -0.000039810504603 1
force C   0.000020969343787  -0.000047140662784  -0.000031074684590 1
force C  -0.000197881398560   0.000061249278684   0.000207184101357 1
force C   0.000109229709011   0.000130993296834   0.000037232342452 1
force C  -0.000055973297654  -0.000033728779043  -0.000003953875240 1
force C  -0.000122913376771   0.000077578627646   0.000099062512871 1
force C   0.000142470504721  -0.000016049905130   0.000013776820639 1
force C   0.000034377315025  -0.000009423915504   0.000037893951426 1
force C   0.000137777015175   0.000003576937113   0.000054483834704 1
force C   0.000028378086362   0.000035437831326   0.000055339180425 1
force C   0.000065945926678  -0.000145762889475   0.000037276574749 1
force C  -0.000021030757805   0.000017571502171   0.000046409648225 1
force S  -0.000055021212790   0.000092541409163  -0.000035771468321 1
force S  -0.000097975232814   0.000004431504264  -0.000051711548415 1
force S   0.000097601326407  -0.000020393983217  -0.000009201171107 1
force S   0.000111524062956  -0.000122914145331  -0.000050012826149 1
force Na  -0.000046324371155  -0.000013329052597   0.000032661520885 1
force Na   0.000057573495270   0.000013485143751   0.000078701773409 1

# Energy components:
   A_diel =       -0.3323553621597840
   Eewald =     4742.0149055657548161
       EH =     5174.4944547567602058
     Eloc =   -10501.5241314388476894
      Enl =      -78.8477353124129081
      Exc =     -161.9047964953138603
 Exc_core =        9.4955892974835248
       KE =      268.7356244416077971
-------------------------------------
     Etot =     -547.8684445471283198
       TS =        0.0712947164375421
-------------------------------------
        F =     -547.9397392635659116

IonicMinimize: Iter: 113  F: -547.939739263565912  |grad|_K:  8.900e-05  alpha:  6.015e-01  linmin:  2.003e-02  t[s]: 2082189.16
IonicMinimize: Converged (|grad|_K<1.000000e-04).

#--- Lowdin population analysis ---
# oxidation-state C +0.035 +0.034 +0.034 +0.036 +0.035 +0.034 +0.035 +0.035 +0.035 +0.036 +0.036 +0.035 +0.035 +0.036 +0.036 +0.036 +0.034 +0.035 +0.036 +0.035 +0.036 +0.036 +0.036 +0.035 +0.036 +0.036 +0.036 +0.034 +0.036 +0.036 +0.036 +0.036 +0.036 +0.036 +0.036 +0.036 +0.034 +0.035 +0.035 +0.034 +0.034 +0.036 +0.035 +0.034 +0.035 +0.035 +0.036 +0.036 +0.036 +0.036 +0.036 +0.035 +0.035 +0.034 +0.034 +0.036 +0.036 +0.036 +0.036 +0.036 +0.036 +0.036 +0.034 +0.035 +0.036 +0.036 +0.036 +0.036 +0.036 +0.036 +0.036 +0.036
# oxidation-state S -0.596 +0.025 +0.025 -0.596
# oxidation-state Na +0.967 +0.967


Dumping 'NaS4@graphene_6x6x1-PC.fillings' ... done
Dumping 'NaS4@graphene_6x6x1-PC.wfns' ... done
Dumping 'NaS4@graphene_6x6x1-PC.fluidState' ... done
Dumping 'NaS4@graphene_6x6x1-PC.ionpos' ... done
Dumping 'NaS4@graphene_6x6x1-PC.eigenvals' ... done
End date and time: Mon Dec 11 16:46:55 2023  (Duration: 24-2:24:23.39)
Done!
