
*************** JDFTx 1.7.0  ***************

Start date and time: Sat Apr  1 13:01:52 2023
Executable jdftx with command-line: -i Na2S@graphene_6x6x1.in -o Na2S@graphene_6x6x1.out
Running on hosts (process indices):  Andrew-Kim-Laptop1 (0)
Divided in process groups (process indices):  0 (0)
Resource initialization completed at t[s]:      0.00
Run totals: 1 processes, 2 threads, 0 GPUs


Input parsed successfully to the following command list (including defaults):

basis kpoint-dependent
coords-type Cartesian
core-overlap-check vector
coulomb-interaction Slab 001
coulomb-truncation-embed 0 0 23.6216
davidson-band-ratio 1.1
dump End State
dump-name Na2S@graphene_6x6x1.$VAR
elec-cutoff 15 75
elec-eigen-algo Davidson
elec-ex-corr gga-PBE
elec-smearing Fermi 0.01
electronic-minimize  \
	dirUpdateScheme      FletcherReeves \
	linminMethod         DirUpdateRecommended \
	nIterations          100 \
	history              15 \
	knormThreshold       0 \
	energyDiffThreshold  1e-08 \
	nEnergyDiff          2 \
	alphaTstart          1 \
	alphaTmin            1e-10 \
	updateTestStepSize   yes \
	alphaTreduceFactor   0.1 \
	alphaTincreaseFactor 3 \
	nAlphaAdjustMax      3 \
	wolfeEnergy          0.0001 \
	wolfeGradient        0.9 \
	fdTest               no
electronic-scf  \
	nIterations	50 \
	energyDiffThreshold	1e-08 \
	residualThreshold	1e-07 \
	mixFraction	0.5 \
	qMetric	0.8 \
	history	10 \
	nEigSteps	2 \
	eigDiffThreshold	1e-08 \
	mixedVariable	Density \
	qKerker	0.8 \
	qKappa	-1 \
	verbose	no \
	mixFractionMag	1.5
exchange-regularization WignerSeitzTruncated
fluid None
fluid-ex-corr lda-TF lda-PZ
fluid-gummel-loop 10 1.000000e-05
fluid-minimize  \
	dirUpdateScheme      PolakRibiere \
	linminMethod         DirUpdateRecommended \
	nIterations          100 \
	history              15 \
	knormThreshold       0 \
	energyDiffThreshold  0 \
	nEnergyDiff          2 \
	alphaTstart          1 \
	alphaTmin            1e-10 \
	updateTestStepSize   yes \
	alphaTreduceFactor   0.1 \
	alphaTincreaseFactor 3 \
	nAlphaAdjustMax      3 \
	wolfeEnergy          0.0001 \
	wolfeGradient        0.9 \
	fdTest               no
fluid-solvent H2O 55.338 ScalarEOS \
	epsBulk 78.4 \
	pMol 0.92466 \
	epsInf 1.77 \
	Pvap 1.06736e-10 \
	sigmaBulk 4.62e-05 \
	Rvdw 2.61727 \
	Res 1.42 \
	tauNuc 343133 \
	poleEl 15 7 1
forces-output-coords Positions
ion C  28.005798599999999   0.000000000000000  23.621624999999998 1
ion C  16.336715849999997  20.211444698219999  23.621624999999998 1
ion C   2.333816549999999   4.042289317590000  23.621624999999998 1
ion C  23.338165499999999   0.000000000000000  23.621624999999998 1
ion C   4.667633100000000   0.000000000000000  23.621624999999998 1
ion C  11.669082749999999  20.211444698219999  23.621624999999998 1
ion C  25.671982049999997   4.042289317590000  23.621624999999998 1
ion C  18.670532399999995  16.169155380629999  23.621624999999998 1
ion C   4.667633100000001   8.084576745450001  23.621624999999998 1
ion C  18.670532399999999   0.000000000000000  23.621624999999998 1
ion C   9.335266200000000   0.000000000000000  23.621624999999998 1
ion C   9.335266199999996  16.169155380629999  23.621624999999998 1
ion C  23.338165499999999   8.084576745450001  23.621624999999998 1
ion C  21.004348950000004  12.126866063040000  23.621624999999998 1
ion C   7.001449650000001  12.126866063040000  23.621624999999998 1
ion C  14.002899299999999   0.000000000000000  23.621624999999998 1
ion C  14.002899299999999  16.169155380629999  23.621624999999998 1
ion C   7.001449650000000   4.042289317590000  23.621624999999998 1
ion C  21.004348950000001   4.042289317590000  23.621624999999998 1
ion C  16.336715849999997  12.126866063040000  23.621624999999998 1
ion C   9.335266200000000   8.084576745450001  23.621624999999998 1
ion C  16.336715849999994   4.042289317590000  23.621624999999998 1
ion C  11.669082750000001   4.042289317590000  23.621624999999998 1
ion C  11.669082750000001  12.126866063040000  23.621624999999998 1
ion C  18.670532399999995   8.084576745450001  23.621624999999998 1
ion C   7.001449650000000  20.211444698219999  23.621624999999998 1
ion C  -7.001449650000000  20.211444698219999  23.621624999999998 1
ion C   0.000000000000000   8.084576745450001  23.621624999999998 1
ion C  14.002899299999999   8.084576745450001  23.621624999999998 1
ion C   2.333816550000000  20.211444698219999  23.621624999999998 1
ion C  -4.667633100000001  16.169155380629999  23.621624999999998 1
ion C   2.333816550000001  12.126866063040000  23.621624999999998 1
ion C  -2.333816550000000  12.126866063040000  23.621624999999998 1
ion C  -2.333816550000000  20.211444698219999  23.621624999999998 1
ion C   4.667633099999998  16.169155380629999  23.621624999999998 1
ion C   0.000000000000000  16.169155380629999  23.621624999999998 1
ion C  14.002884182159999  21.558876990390001  23.621624999999998 1
ion C   2.333820329460000   1.347415284600000  23.621624999999998 1
ion C  25.671991498650002   1.347439851090000  23.621624999999998 1
ion C  16.336700732160004  17.516587672800000  23.621624999999998 1
ion C   4.667636879460000   5.389704602190000  23.621624999999998 1
ion C  21.004358398649998   1.347439851090000  23.621624999999998 1
ion C   7.001440201349999   1.347439851090000  23.621624999999998 1
ion C  11.669095978109999  17.516587672800000  23.621624999999998 1
ion C  23.338159830810000   5.389704602190000  23.621624999999998 1
ion C  18.670517282159999  13.474298355209999  23.621624999999998 1
ion C   7.001453429460000   9.431993919780000  23.621624999999998 1
ion C  16.336725298649998   1.347439851090000  23.621624999999998 1
ion C  11.669073301350002   1.347439851090000  23.621624999999998 1
ion C   9.335279428109997  13.474298355209999  23.621624999999998 1
ion C  21.004343280810001   9.431993919780000  23.621624999999998 1
ion C   9.335252971890000  21.558876990390001  23.621624999999998 1
ion C  -9.335260530810000  21.558859982820000  23.621624999999998 1
ion C   0.000009448650000   5.389729168680000  23.621624999999998 1
ion C  14.002884182160001  13.474298355209999  23.621624999999998 1
ion C   9.335269979460001   5.389704602190000  23.621624999999998 1
ion C  18.670541848650000   5.389729168680000  23.621624999999998 1
ion C  16.336700732160001   9.432009037620000  23.621624999999998 1
ion C  11.669086529459999   9.431993919780000  23.621624999999998 1
ion C  14.002908748649999   5.389729168680000  23.621624999999998 1
ion C   4.667619871890004  21.558876990390001  23.621624999999998 1
ion C  -7.001443980809999  17.516570665229999  23.621624999999998 1
ion C   2.333825998650001   9.432018486270000  23.621624999999998 1
ion C  -2.333825998649999   9.432018486270000  23.621624999999998 1
ion C  -4.667619871889999  21.558876990390001  23.621624999999998 1
ion C   7.001443980810002  17.516570665229999  23.621624999999998 1
ion C  -0.000013228109999  21.558876990390001  23.621624999999998 1
ion C  -4.667627430810000  13.474283237369997  23.621624999999998 1
ion C   4.667642548650001  13.474305914129998  23.621624999999998 1
ion C   2.333803321889999  17.516587672800000  23.621624999999998 1
ion C  -2.333812770539999  17.516570665229999  23.621624999999998 1
ion C   0.000009448650001  13.474305914129998  23.621624999999998 1
ion S   7.562274270750001  10.181668708079998  26.456219999999998 1
ion Na   3.653322412229999  12.652545485250002  26.456219999999998 1
ion Na  11.469323171159999  12.655897866269999  26.456219999999998 1
ion-species GBRV/$ID_pbe.uspp
ion-width 0
ionic-minimize  \
	dirUpdateScheme      FletcherReeves \
	linminMethod         DirUpdateRecommended \
	nIterations          200 \
	history              15 \
	knormThreshold       0.0001 \
	energyDiffThreshold  1e-06 \
	nEnergyDiff          2 \
	alphaTstart          1 \
	alphaTmin            1e-10 \
	updateTestStepSize   yes \
	alphaTreduceFactor   0.1 \
	alphaTincreaseFactor 3 \
	nAlphaAdjustMax      3 \
	wolfeEnergy          0.0001 \
	wolfeGradient        0.9 \
	fdTest               no
kpoint   0.000000000000   0.000000000000   0.000000000000  1.00000000000000
kpoint-folding 1 1 1 
latt-move-scale 1 1 1
latt-scale 1 1 1 
lattice Triclinic 28.0058 28.0058 37.7946 90 90 120
lattice-minimize  \
	dirUpdateScheme      L-BFGS \
	linminMethod         DirUpdateRecommended \
	nIterations          0 \
	history              15 \
	knormThreshold       0 \
	energyDiffThreshold  1e-06 \
	nEnergyDiff          2 \
	alphaTstart          1 \
	alphaTmin            1e-10 \
	updateTestStepSize   yes \
	alphaTreduceFactor   0.1 \
	alphaTincreaseFactor 3 \
	nAlphaAdjustMax      3 \
	wolfeEnergy          0.0001 \
	wolfeGradient        0.9 \
	fdTest               no
lcao-params -1 1e-06 0.01
pcm-variant GLSSA13
spintype no-spin
subspace-rotation-factor 1 yes
symmetries automatic
symmetry-threshold 0.0001



---------- Setting up symmetries ----------

Found 24 point-group symmetries of the bravais lattice
Found 1 space-group symmetries with basis
Applied RMS atom displacement 0 bohrs to make symmetries exact.

---------- Initializing the Grid ----------
R = 
[      28.0058     -14.0029            0  ]
[            0      24.2537            0  ]
[            0            0      37.7946  ]
unit cell volume = 25671.8
G =
[   0.224353    0.12953         -0  ]
[          0   0.259061          0  ]
[          0         -0   0.166246  ]
Minimum fftbox size, Smin = [  112  112  148  ]
Chosen fftbox size, S = [  112  112  150  ]

---------- Initializing tighter grid for wavefunction operations ----------
R = 
[      28.0058     -14.0029            0  ]
[            0      24.2537            0  ]
[            0            0      37.7946  ]
unit cell volume = 25671.8
G =
[   0.224353    0.12953         -0  ]
[          0   0.259061          0  ]
[          0         -0   0.166246  ]
Minimum fftbox size, Smin = [  100  100  132  ]
Chosen fftbox size, S = [  100  100  140  ]

---------- Exchange Correlation functional ----------
Initalized PBE GGA exchange.
Initalized PBE GGA correlation.

---------- Setting up pseudopotentials ----------
Width of ionic core gaussian charges (only for fluid interactions / plotting) set to 0

Reading pseudopotential file '/home/akakimmykim/jdftx-1.7.0/build/pseudopotentials/GBRV/c_pbe.uspp':
  Title: C.  Created by USPP 7.3.6 on 3-2-2014
  Reference state energy: -5.406344.  4 valence electrons in orbitals:
    |200>  occupation: 2  eigenvalue: -0.504890
    |210>  occupation: 2  eigenvalue: -0.194356
  lMax: 1  lLocal: 2  QijEcut: 5
  4 projectors sampled on a log grid with 503 points:
    l: 0  eig: -0.504890  rCut: 1.3
    l: 0  eig: 0.000000  rCut: 1.3
    l: 1  eig: -0.194357  rCut: 1.3
    l: 1  eig: 0.000000  rCut: 1.3
  Partial core density with radius 1.1
  Transforming core density to a uniform radial grid of dG=0.02 with 1408 points.
  Transforming local potential to a uniform radial grid of dG=0.02 with 1408 points.
  Transforming nonlocal projectors to a uniform radial grid of dG=0.02 with 375 points.
  Transforming density augmentations to a uniform radial grid of dG=0.02 with 1408 points.
  Transforming atomic orbitals to a uniform radial grid of dG=0.02 with 375 points.
  Core radius for overlap checks: 1.30 bohrs.

Reading pseudopotential file '/home/akakimmykim/jdftx-1.7.0/build/pseudopotentials/GBRV/s_pbe.uspp':
  Title: S.  Created by USPP 7.3.6 on 1-4-15
  Reference state energy: -11.898476.  6 valence electrons in orbitals:
    |300>  occupation: 2  eigenvalue: -0.634167
    |310>  occupation: 4  eigenvalue: -0.257568
  lMax: 2  lLocal: 3  QijEcut: 6
  6 projectors sampled on a log grid with 635 points:
    l: 0  eig: -0.634161  rCut: 1.5
    l: 0  eig: 1.500000  rCut: 1.5
    l: 1  eig: -0.257567  rCut: 1.5
    l: 1  eig: 1.500000  rCut: 1.5
    l: 2  eig: -1.000000  rCut: 1.5
    l: 2  eig: 1.500000  rCut: 1.5
  Partial core density with radius 1.15
  Transforming core density to a uniform radial grid of dG=0.02 with 1408 points.
  Transforming local potential to a uniform radial grid of dG=0.02 with 1408 points.
  Transforming nonlocal projectors to a uniform radial grid of dG=0.02 with 375 points.
  Transforming density augmentations to a uniform radial grid of dG=0.02 with 1408 points.
  Transforming atomic orbitals to a uniform radial grid of dG=0.02 with 375 points.
  Core radius for overlap checks: 1.50 bohrs.

Reading pseudopotential file '/home/akakimmykim/jdftx-1.7.0/build/pseudopotentials/GBRV/na_pbe.uspp':
  Title: Na.  Created by USPP 7.3.6 on 23-9-15
  Reference state energy: -47.625620.  9 valence electrons in orbitals:
    |200>  occupation: 2  eigenvalue: -2.085638
    |210>  occupation: 6  eigenvalue: -1.053708
    |300>  occupation: 1  eigenvalue: -0.100838
  lMax: 2  lLocal: 0  QijEcut: 6
  5 projectors sampled on a log grid with 657 points:
    l: 0  eig: -2.085640  rCut: 1.37
    l: 0  eig: -0.100839  rCut: 1.37
    l: 1  eig: -1.053708  rCut: 1.47
    l: 1  eig: 0.500000  rCut: 1.47
    l: 2  eig: 0.750000  rCut: 2
  Transforming local potential to a uniform radial grid of dG=0.02 with 1408 points.
  Transforming nonlocal projectors to a uniform radial grid of dG=0.02 with 375 points.
  Transforming density augmentations to a uniform radial grid of dG=0.02 with 1408 points.
  Transforming atomic orbitals to a uniform radial grid of dG=0.02 with 375 points.
  Core radius for overlap checks: 2.00 bohrs.

Initialized 3 species with 75 total atoms.

Folded 1 k-points by 1x1x1 to 1 k-points.

---------- Setting up k-points, bands, fillings ----------
No reducable k-points. 
Computing the number of bands and number of electrons
Calculating initial fillings.
nElectrons: 312.000000   nBands: 302   nStates: 1

----- Setting up reduced wavefunction bases (one per k-point) -----
average nbasis = 71207.000 , ideal nbasis = 71233.977

---------- Setting up coulomb interaction ----------
Setting up double-sized grid for truncated Coulomb potentials:
R = 
[      28.0058     -14.0029            0  ]
[            0      24.2537            0  ]
[            0            0      75.5892  ]
unit cell volume = 51343.6
G =
[   0.224353    0.12953         -0  ]
[          0   0.259061          0  ]
[          0         -0  0.0831228  ]
Chosen fftbox size, S = [  112  112  300  ]
Integer grid location selected as the embedding center:
   Grid: [  0  0  94  ]
   Lattice: [  0  0  0.625  ]
   Cartesian: [  0  0  23.6216  ]
Constructing Wigner-Seitz cell: 8 faces (6 quadrilaterals, 2 hexagons)
Range-separation parameter for embedded mesh potentials due to point charges: 0.633256 bohrs.
Initialized slab truncation along lattice direction 001

---------- Setting up 2D ewald sum ----------
Optimum gaussian width for ewald sums = 15.547689 bohr.
Real space sums over 289 unit cells with max indices [  8  8  0  ]
Reciprocal space sums over 81 terms with max indices [  4  4  0  ]

---------- Allocating electronic variables ----------
Initializing wave functions:  linear combination of atomic orbitals
C pseudo-atom occupations:   s ( 2 )  p ( 2 )
S pseudo-atom occupations:   s ( 2 )  p ( 4 )
Na pseudo-atom occupations:   s ( 2 1 )  p ( 6 )
	FillingsUpdate:  mu: -0.278689315  nElectrons: 312.000000
LCAOMinimize: Iter:   0  F: -511.7237647350621614  |grad|_K:  4.090e-03  alpha:  1.000e+00
	FillingsUpdate:  mu: -0.257008311  nElectrons: 312.000000
LCAOMinimize: Iter:   1  F: -511.8233436612344462  |grad|_K:  2.369e-03  alpha:  2.849e-01  linmin:  1.424e-01  cgtest: -7.829e-01  t[s]:    266.92
	FillingsUpdate:  mu: -0.256958257  nElectrons: 312.000000
LCAOMinimize: Iter:   2  F: -511.8284698827704915  |grad|_K:  2.163e-03  alpha:  9.314e-02  linmin:  3.232e-04  cgtest:  9.690e-01  t[s]:    368.90
LCAOMinimize: Encountered beta<0, resetting CG.
	FillingsUpdate:  mu: -0.280250334  nElectrons: 312.000000
LCAOMinimize: Iter:   3  F: -511.8647550918295224  |grad|_K:  4.653e-04  alpha:  1.719e-01  linmin:  4.643e-02  cgtest: -2.337e-01  t[s]:    471.08
	FillingsUpdate:  mu: -0.279701796  nElectrons: 312.000000
LCAOMinimize: Iter:   4  F: -511.8673371872308167  |grad|_K:  2.378e-04  alpha:  2.857e-01  linmin:  1.519e-02  cgtest:  2.892e-01  t[s]:    572.04
	FillingsUpdate:  mu: -0.278788730  nElectrons: 312.000000
LCAOMinimize: Iter:   5  F: -511.8678977944807684  |grad|_K:  1.258e-04  alpha:  2.193e-01  linmin:  2.697e-04  cgtest:  2.219e-02  t[s]:    674.02
	FillingsUpdate:  mu: -0.279319283  nElectrons: 312.000000
LCAOMinimize: Iter:   6  F: -511.8681559012769640  |grad|_K:  6.026e-05  alpha:  3.563e-01  linmin:  1.111e-03  cgtest: -2.464e-02  t[s]:    775.22
	FillingsUpdate:  mu: -0.279405422  nElectrons: 312.000000
LCAOMinimize: Iter:   7  F: -511.8682106402725367  |grad|_K:  2.616e-05  alpha:  3.297e-01  linmin:  3.557e-04  cgtest:  2.058e-02  t[s]:    877.89
	FillingsUpdate:  mu: -0.279351529  nElectrons: 312.000000
LCAOMinimize: Iter:   8  F: -511.8682185289858353  |grad|_K:  1.116e-05  alpha:  2.514e-01  linmin:  2.542e-05  cgtest:  3.686e-03  t[s]:    980.61
	FillingsUpdate:  mu: -0.279406351  nElectrons: 312.000000
LCAOMinimize: Iter:   9  F: -511.8682202839230513  |grad|_K:  6.831e-06  alpha:  3.068e-01  linmin:  1.744e-05  cgtest: -3.198e-04  t[s]:   1083.18
	FillingsUpdate:  mu: -0.279401700  nElectrons: 312.000000
LCAOMinimize: Iter:  10  F: -511.8682209389604623  |grad|_K:  2.318e-06  alpha:  3.059e-01  linmin:  2.246e-04  cgtest: -5.358e-04  t[s]:   1185.94
	FillingsUpdate:  mu: -0.279401765  nElectrons: 312.000000
LCAOMinimize: Iter:  11  F: -511.8682210135017385  |grad|_K:  7.967e-07  alpha:  3.016e-01  linmin: -7.668e-04  cgtest:  4.271e-03  t[s]:   1288.51
LCAOMinimize: Converged (|Delta F|<1.000000e-06 for 2 iters).


---- Citations for features of the code used in this run ----

   Software package:
      R. Sundararaman, K. Letchworth-Weaver, K.A. Schwarz, D. Gunceler, Y. Ozhabes and T.A. Arias, 'JDFTx: software for joint density-functional theory', SoftwareX 6, 278 (2017)

   gga-PBE exchange-correlation functional:
      J.P. Perdew, K. Burke and M. Ernzerhof, Phys. Rev. Lett. 77, 3865 (1996)

   Pseudopotentials:
      KF Garrity, JW Bennett, KM Rabe and D Vanderbilt, Comput. Mater. Sci. 81, 446 (2014)

   Truncated Coulomb potentials:
      R. Sundararaman and T.A. Arias, Phys. Rev. B 87, 165122 (2013)

This list may not be complete. Please suggest additional citations or
report any other bugs at https://github.com/shankar1729/jdftx/issues

Initialization completed successfully at t[s]:   1317.75


-------- Electronic minimization -----------
Will mix electronic density at each iteration.
	FillingsUpdate:  mu: -0.279401765  nElectrons: 312.000000
	FillingsUpdate:  mu: -0.290673543  nElectrons: 312.000000
SCF: Cycle:  0   F: -515.378969759568463   dF: -3.511e+00   |Residual|: 9.385e-01   |deigs|: 1.196e-01  t[s]:   1605.06
	FillingsUpdate:  mu: -0.258171967  nElectrons: 312.000000
SCF: Cycle:  1   F: -515.914899393000496   dF: -5.359e-01   |Residual|: 4.794e-01   |deigs|: 3.552e-02  t[s]:   1840.28
	FillingsUpdate:  mu: -0.219594715  nElectrons: 312.000000
SCF: Cycle:  2   F: -516.181708466381224   dF: -2.668e-01   |Residual|: 1.140e-01   |deigs|: 3.781e-02  t[s]:   2075.98
	FillingsUpdate:  mu: -0.213138643  nElectrons: 312.000000
SCF: Cycle:  3   F: -516.195733948812745   dF: -1.403e-02   |Residual|: 6.369e-02   |deigs|: 6.504e-03  t[s]:   2314.16
	FillingsUpdate:  mu: -0.198370228  nElectrons: 312.000000
SCF: Cycle:  4   F: -516.211693431991193   dF: -1.596e-02   |Residual|: 3.395e-02   |deigs|: 1.305e-02  t[s]:   2547.42
	FillingsUpdate:  mu: -0.189294794  nElectrons: 312.000000
SCF: Cycle:  5   F: -516.216436091182686   dF: -4.743e-03   |Residual|: 2.246e-02   |deigs|: 7.677e-03  t[s]:   2782.87
	FillingsUpdate:  mu: -0.181828554  nElectrons: 312.000000
SCF: Cycle:  6   F: -516.218099188695305   dF: -1.663e-03   |Residual|: 1.696e-02   |deigs|: 6.609e-03  t[s]:   3001.89
	FillingsUpdate:  mu: -0.174091084  nElectrons: 312.000000
SCF: Cycle:  7   F: -516.218871088059473   dF: -7.719e-04   |Residual|: 1.245e-02   |deigs|: 7.221e-03  t[s]:   3221.20
	FillingsUpdate:  mu: -0.170098879  nElectrons: 312.000000
SCF: Cycle:  8   F: -516.219470787580917   dF: -5.997e-04   |Residual|: 8.874e-03   |deigs|: 3.530e-03  t[s]:   3433.83
	FillingsUpdate:  mu: -0.165507222  nElectrons: 312.000000
SCF: Cycle:  9   F: -516.220139179264947   dF: -6.684e-04   |Residual|: 7.676e-03   |deigs|: 4.090e-03  t[s]:   3647.09
	FillingsUpdate:  mu: -0.160569391  nElectrons: 312.000000
SCF: Cycle: 10   F: -516.220557983747995   dF: -4.188e-04   |Residual|: 7.002e-03   |deigs|: 4.486e-03  t[s]:   3861.60
	FillingsUpdate:  mu: -0.157290192  nElectrons: 312.000000
SCF: Cycle: 11   F: -516.220754840293921   dF: -1.969e-04   |Residual|: 5.591e-03   |deigs|: 3.080e-03  t[s]:   4067.95
	FillingsUpdate:  mu: -0.150049337  nElectrons: 312.000000
SCF: Cycle: 12   F: -516.220942087677486   dF: -1.872e-04   |Residual|: 4.672e-03   |deigs|: 6.585e-03  t[s]:   4275.60
	FillingsUpdate:  mu: -0.147042489  nElectrons: 312.000000
SCF: Cycle: 13   F: -516.220953461376212   dF: -1.137e-05   |Residual|: 3.821e-03   |deigs|: 3.093e-03  t[s]:   4482.87
	FillingsUpdate:  mu: -0.141306618  nElectrons: 312.000000
SCF: Cycle: 14   F: -516.220911844857483   dF: +4.162e-05   |Residual|: 2.435e-03   |deigs|: 5.940e-03  t[s]:   4689.17
	FillingsUpdate:  mu: -0.139606502  nElectrons: 312.000000
SCF: Cycle: 15   F: -516.220900053203309   dF: +1.179e-05   |Residual|: 1.818e-03   |deigs|: 1.813e-03  t[s]:   4896.30
	FillingsUpdate:  mu: -0.138299315  nElectrons: 312.000000
SCF: Cycle: 16   F: -516.220912657077974   dF: -1.260e-05   |Residual|: 1.062e-03   |deigs|: 1.559e-03  t[s]:   5103.99
	FillingsUpdate:  mu: -0.137342470  nElectrons: 312.000000
SCF: Cycle: 17   F: -516.220926619648935   dF: -1.396e-05   |Residual|: 8.341e-04   |deigs|: 1.229e-03  t[s]:   5309.76
	FillingsUpdate:  mu: -0.136812539  nElectrons: 312.000000
SCF: Cycle: 18   F: -516.220941228373704   dF: -1.461e-05   |Residual|: 8.052e-04   |deigs|: 6.022e-04  t[s]:   5512.25
	FillingsUpdate:  mu: -0.135943238  nElectrons: 312.000000
SCF: Cycle: 19   F: -516.220956962011883   dF: -1.573e-05   |Residual|: 7.258e-04   |deigs|: 1.120e-03  t[s]:   5724.14
	FillingsUpdate:  mu: -0.135416296  nElectrons: 312.000000
SCF: Cycle: 20   F: -516.220967413191715   dF: -1.045e-05   |Residual|: 6.191e-04   |deigs|: 9.331e-04  t[s]:   5931.68
	FillingsUpdate:  mu: -0.135245535  nElectrons: 312.000000
SCF: Cycle: 21   F: -516.220972794032150   dF: -5.381e-06   |Residual|: 4.385e-04   |deigs|: 6.718e-04  t[s]:   6138.69
	FillingsUpdate:  mu: -0.135063051  nElectrons: 312.000000
SCF: Cycle: 22   F: -516.220974049712595   dF: -1.256e-06   |Residual|: 3.303e-04   |deigs|: 4.033e-04  t[s]:   6344.21
	FillingsUpdate:  mu: -0.135071814  nElectrons: 312.000000
SCF: Cycle: 23   F: -516.220975106273045   dF: -1.057e-06   |Residual|: 2.144e-04   |deigs|: 4.336e-04  t[s]:   6552.67
	FillingsUpdate:  mu: -0.135094817  nElectrons: 312.000000
SCF: Cycle: 24   F: -516.220975460428463   dF: -3.542e-07   |Residual|: 1.654e-04   |deigs|: 1.945e-04  t[s]:   6759.84
	FillingsUpdate:  mu: -0.135087044  nElectrons: 312.000000
SCF: Cycle: 25   F: -516.220975723495826   dF: -2.631e-07   |Residual|: 1.198e-04   |deigs|: 3.490e-04  t[s]:   6968.24
	FillingsUpdate:  mu: -0.134952967  nElectrons: 312.000000
SCF: Cycle: 26   F: -516.220975946354770   dF: -2.229e-07   |Residual|: 8.286e-05   |deigs|: 5.068e-04  t[s]:   7175.54
	FillingsUpdate:  mu: -0.134895939  nElectrons: 312.000000
SCF: Cycle: 27   F: -516.220976029858321   dF: -8.350e-08   |Residual|: 6.253e-05   |deigs|: 3.719e-04  t[s]:   7383.79
	FillingsUpdate:  mu: -0.134900649  nElectrons: 312.000000
SCF: Cycle: 28   F: -516.220976059134955   dF: -2.928e-08   |Residual|: 3.695e-05   |deigs|: 3.001e-04  t[s]:   7591.44
	FillingsUpdate:  mu: -0.134913527  nElectrons: 312.000000
SCF: Cycle: 29   F: -516.220976084022254   dF: -2.489e-08   |Residual|: 2.086e-05   |deigs|: 2.006e-04  t[s]:   7798.17
	FillingsUpdate:  mu: -0.134917964  nElectrons: 312.000000
SCF: Cycle: 30   F: -516.220976090114846   dF: -6.093e-09   |Residual|: 1.396e-05   |deigs|: 5.496e-05  t[s]:   8005.03
	FillingsUpdate:  mu: -0.134918715  nElectrons: 312.000000
SCF: Cycle: 31   F: -516.220976090755812   dF: -6.410e-10   |Residual|: 8.609e-06   |deigs|: 3.538e-05  t[s]:   8216.88
SCF: Converged (|Delta E|<1.000000e-08 for 2 iters).

Setting wave functions to eigenvectors of Hamiltonian

# Ionic positions in cartesian coordinates:
ion C  28.005798599999999   0.000000000000000  23.621624999999998 1
ion C  16.336715849999997  20.211444698219999  23.621624999999998 1
ion C   2.333816549999999   4.042289317590000  23.621624999999998 1
ion C  23.338165499999999   0.000000000000000  23.621624999999998 1
ion C   4.667633100000000   0.000000000000000  23.621624999999998 1
ion C  11.669082749999999  20.211444698219999  23.621624999999998 1
ion C  25.671982049999997   4.042289317590000  23.621624999999998 1
ion C  18.670532399999995  16.169155380629999  23.621624999999998 1
ion C   4.667633100000001   8.084576745450001  23.621624999999998 1
ion C  18.670532399999999   0.000000000000000  23.621624999999998 1
ion C   9.335266200000000   0.000000000000000  23.621624999999998 1
ion C   9.335266199999996  16.169155380629999  23.621624999999998 1
ion C  23.338165499999999   8.084576745450001  23.621624999999998 1
ion C  21.004348950000004  12.126866063040000  23.621624999999998 1
ion C   7.001449650000001  12.126866063040000  23.621624999999998 1
ion C  14.002899299999999   0.000000000000000  23.621624999999998 1
ion C  14.002899299999999  16.169155380629999  23.621624999999998 1
ion C   7.001449650000000   4.042289317590000  23.621624999999998 1
ion C  21.004348950000001   4.042289317590000  23.621624999999998 1
ion C  16.336715849999997  12.126866063040000  23.621624999999998 1
ion C   9.335266200000000   8.084576745450001  23.621624999999998 1
ion C  16.336715849999994   4.042289317590000  23.621624999999998 1
ion C  11.669082750000001   4.042289317590000  23.621624999999998 1
ion C  11.669082750000001  12.126866063040000  23.621624999999998 1
ion C  18.670532399999995   8.084576745450001  23.621624999999998 1
ion C   7.001449650000000  20.211444698219999  23.621624999999998 1
ion C  -7.001449650000000  20.211444698219999  23.621624999999998 1
ion C   0.000000000000000   8.084576745450001  23.621624999999998 1
ion C  14.002899299999999   8.084576745450001  23.621624999999998 1
ion C   2.333816550000000  20.211444698219999  23.621624999999998 1
ion C  -4.667633100000001  16.169155380629999  23.621624999999998 1
ion C   2.333816550000001  12.126866063040000  23.621624999999998 1
ion C  -2.333816550000000  12.126866063040000  23.621624999999998 1
ion C  -2.333816550000000  20.211444698219999  23.621624999999998 1
ion C   4.667633099999998  16.169155380629999  23.621624999999998 1
ion C   0.000000000000000  16.169155380629999  23.621624999999998 1
ion C  14.002884182159999  21.558876990390001  23.621624999999998 1
ion C   2.333820329460000   1.347415284600000  23.621624999999998 1
ion C  25.671991498650002   1.347439851090000  23.621624999999998 1
ion C  16.336700732160004  17.516587672800000  23.621624999999998 1
ion C   4.667636879460000   5.389704602190000  23.621624999999998 1
ion C  21.004358398649998   1.347439851090000  23.621624999999998 1
ion C   7.001440201349999   1.347439851090000  23.621624999999998 1
ion C  11.669095978109999  17.516587672800000  23.621624999999998 1
ion C  23.338159830810000   5.389704602190000  23.621624999999998 1
ion C  18.670517282159999  13.474298355209999  23.621624999999998 1
ion C   7.001453429460000   9.431993919780000  23.621624999999998 1
ion C  16.336725298649998   1.347439851090000  23.621624999999998 1
ion C  11.669073301350002   1.347439851090000  23.621624999999998 1
ion C   9.335279428109997  13.474298355209999  23.621624999999998 1
ion C  21.004343280810001   9.431993919780000  23.621624999999998 1
ion C   9.335252971890000  21.558876990390001  23.621624999999998 1
ion C  -9.335260530810000  21.558859982820000  23.621624999999998 1
ion C   0.000009448650000   5.389729168680000  23.621624999999998 1
ion C  14.002884182160001  13.474298355209999  23.621624999999998 1
ion C   9.335269979460001   5.389704602190000  23.621624999999998 1
ion C  18.670541848650000   5.389729168680000  23.621624999999998 1
ion C  16.336700732160001   9.432009037620000  23.621624999999998 1
ion C  11.669086529459999   9.431993919780000  23.621624999999998 1
ion C  14.002908748649999   5.389729168680000  23.621624999999998 1
ion C   4.667619871890004  21.558876990390001  23.621624999999998 1
ion C  -7.001443980809999  17.516570665229999  23.621624999999998 1
ion C   2.333825998650001   9.432018486270000  23.621624999999998 1
ion C  -2.333825998649999   9.432018486270000  23.621624999999998 1
ion C  -4.667619871889999  21.558876990390001  23.621624999999998 1
ion C   7.001443980810002  17.516570665229999  23.621624999999998 1
ion C  -0.000013228109999  21.558876990390001  23.621624999999998 1
ion C  -4.667627430810000  13.474283237369997  23.621624999999998 1
ion C   4.667642548650001  13.474305914129998  23.621624999999998 1
ion C   2.333803321889999  17.516587672800000  23.621624999999998 1
ion C  -2.333812770539999  17.516570665229999  23.621624999999998 1
ion C   0.000009448650001  13.474305914129998  23.621624999999998 1
ion S   7.562274270750001  10.181668708079998  26.456219999999998 1
ion Na   3.653322412229999  12.652545485250002  26.456219999999998 1
ion Na  11.469323171159999  12.655897866269999  26.456219999999998 1

# Forces in Cartesian coordinates:
force C  -0.001432362339495   0.000677938429322  -0.000052203543387 1
force C  -0.002434730729288   0.000478065422103  -0.000055244908617 1
force C  -0.003350265968211   0.000511513161896   0.000817555834145 1
force C  -0.000630414223646  -0.000890037459708   0.000000883615038 1
force C  -0.003183680754998  -0.001579112274120   0.000010892079941 1
force C  -0.001476288927791   0.000655572766222   0.000401254662164 1
force C  -0.001863324670447  -0.000168995478864  -0.000108109853107 1
force C  -0.001287785227741  -0.001334568783849  -0.000146275099848 1
force C  -0.050070420544270  -0.034223475443737  -0.028583860489345 1
force C   0.000598986253407  -0.000632426782600   0.000045514470900 1
force C   0.003346165620481  -0.002330788422297  -0.000014703026419 1
force C  -0.002148186990610  -0.010131767620853  -0.001680076703840 1
force C  -0.000171510007570  -0.001636005946895  -0.000004446174699 1
force C  -0.000212263038587  -0.003596872434876  -0.000081419686532 1
force C  -0.003907561771671   0.055813280515209  -0.036588735285455 1
force C   0.001389960225264   0.000911296973406  -0.000045146457119 1
force C  -0.000809790385313   0.005066131303811  -0.000215066803198 1
force C  -0.000819065794419  -0.010614236536482  -0.000578253471620 1
force C  -0.000454765544831  -0.001407912740906  -0.000004182743905 1
force C   0.003861793473278  -0.003994099490010   0.000378491604621 1
force C   0.058606709948438  -0.048082169833784  -0.052459843419682 1
force C   0.001089336810876   0.000123941073196  -0.000183758779925 1
force C   0.004878722614484   0.002080382376616   0.001795417115173 1
force C   0.020718344203359  -0.046523284486746  -0.311860247714083 1
force C  -0.000286490316287  -0.001346236522152   0.000055996795542 1
force C  -0.000339418862709  -0.004074998975262  -0.000346363936598 1
force C  -0.000407195818560  -0.000522675033141  -0.000018501162543 1
force C  -0.004276467485266  -0.003464569966806   0.001578078987175 1
force C  -0.000178452362573  -0.001465903559090   0.000968215416888 1
force C   0.002231217512409   0.000451194058170   0.000267770307248 1
force C  -0.000250423402708  -0.001089786443761  -0.000046074910512 1
force C  -0.076208794207886  -0.021985427385000  -0.174168723090835 1
force C  -0.004741897285178  -0.003993047013393   0.001123028882892 1
force C   0.002251049559674   0.001318799499863  -0.000041116743211 1
force C   0.005504990094358  -0.005384769727343  -0.002631050589592 1
force C  -0.001408549925290   0.006784791390936  -0.000106231251572 1
force C   0.001728747413753  -0.001026226167341  -0.000094490639136 1
force C   0.001997686964021  -0.000355394510210   0.000090773408584 1
force C   0.001186669405102   0.000206382862906   0.000024608737223 1
force C   0.001941419776670  -0.000503078365853   0.000435621562516 1
force C  -0.000441816977428   0.012737105387534  -0.000689838797861 1
force C  -0.000072735570296   0.000743222747737  -0.000019346225702 1
force C  -0.000677382789530   0.009690050340505  -0.000189959439912 1
force C   0.003527103815521   0.003712412838973   0.001224818140080 1
force C   0.001679666131845   0.000828807218126  -0.000006679114131 1
force C  -0.001204593326337   0.002280528042731   0.000144798700676 1
force C  -0.023070119318448  -0.049523575311597  -0.111954403952267 1
force C  -0.000670012755886   0.000075954385979   0.000026584513995 1
force C  -0.001753113742011  -0.000042309182756   0.000051277738417 1
force C  -0.004504023446322   0.041330017955300  -0.089106273143992 1
force C  -0.000029808929345   0.002460489477936  -0.000015668914447 1
force C   0.001348792673700   0.001194109519538  -0.000203378461074 1
force C   0.001282010291486   0.001737039660145  -0.000028130590680 1
force C   0.002087440821430   0.000829937943224  -0.000176939305876 1
force C   0.015538786183050   0.002137366434167  -0.030120605071503 1
force C   0.000654211827101   0.011075560321497  -0.001979557477640 1
force C  -0.000695245980903   0.000520003445657  -0.000025409449842 1
force C   0.001660517475719  -0.000113019058562   0.000329606899689 1
force C   0.007993414582513  -0.007680884546887  -0.021574226103966 1
force C  -0.001338976559608  -0.001841258486166   0.000191794176360 1
force C  -0.001112501045490   0.001207899921640  -0.000185285851909 1
force C   0.000870051882489   0.001207255689314   0.000058210542502 1
force C   0.008846595823408  -0.008400558604918  -0.005318257509419 1
force C   0.000236526144626   0.001375828182395  -0.000171910489383 1
force C  -0.000567591980787   0.002175090057499  -0.000001069362378 1
force C  -0.001204242630934   0.007765197138666   0.003377960667181 1
force C  -0.002476621302962  -0.001132122038957  -0.000086893807827 1
force C   0.002264807664035   0.001541038007008  -0.000020874749500 1
force C   0.047792458240636   0.061971454689303  -0.204140626096527 1
force C  -0.004073746630323   0.002282307724085   0.000636165929863 1
force C   0.000887226409839  -0.001583913368384   0.000104594848669 1
force C   0.006159561027902  -0.005081862877620  -0.002287868761994 1
force S  -0.009282336908223   0.002502915398027   0.285664493541646 1
force Na  -0.012314531000247  -0.010074743656904   0.378532195714285 1
force Na   0.013641684286218   0.049375756438646   0.398260809508232 1

# Energy components:
   Eewald =     -899.6898873352491819
       EH =     -504.5911276643886367
     Eloc =      858.8752192773877141
      Enl =      -84.4031525543302621
      Exc =     -150.0929887772295217
 Exc_core =        4.1924069262708699
       KE =      259.5409045048712073
-------------------------------------
     Etot =     -516.1686256226678324
       TS =        0.0523504680880350
-------------------------------------
        F =     -516.2209760907558120

IonicMinimize: Iter:   0  F: -516.220976090755812  |grad|_K:  5.235e-02  alpha:  1.000e+00

#--- Lowdin population analysis ---
# oxidation-state C +0.038 +0.035 +0.036 +0.037 +0.035 +0.032 +0.034 +0.035 +0.002 +0.036 +0.037 +0.003 +0.034 +0.034 +0.033 +0.038 +0.010 +0.031 +0.038 +0.020 +0.035 +0.038 +0.038 -0.082 +0.033 +0.039 +0.041 +0.032 +0.030 +0.034 +0.037 -0.092 +0.024 +0.035 -0.001 +0.018 +0.037 +0.035 +0.036 +0.029 +0.030 +0.036 +0.037 +0.006 +0.036 +0.030 -0.034 +0.034 +0.036 -0.103 +0.037 +0.029 +0.033 +0.039 -0.054 +0.013 +0.033 +0.019 -0.048 +0.029 +0.030 +0.033 -0.018 +0.031 +0.033 +0.003 +0.038 +0.032 -0.128 +0.012 +0.030 -0.001
# oxidation-state S +0.065
# oxidation-state Na +0.853 +0.888


-------- Electronic minimization -----------
Will mix electronic density at each iteration.
	FillingsUpdate:  mu: -0.134918715  nElectrons: 312.000000
	FillingsUpdate:  mu: -0.122723644  nElectrons: 312.000000
SCF: Cycle:  0   F: -516.072112952081397   dF: -1.640e-01   |Residual|: 3.537e-01   |deigs|: 5.128e-03  t[s]:   8656.57
	FillingsUpdate:  mu: -0.125488926  nElectrons: 312.000000
SCF: Cycle:  1   F: -516.329489543706813   dF: -2.574e-01   |Residual|: 1.482e-01   |deigs|: 4.459e-03  t[s]:   8897.32
	FillingsUpdate:  mu: -0.127014898  nElectrons: 312.000000
SCF: Cycle:  2   F: -516.353823303566969   dF: -2.433e-02   |Residual|: 4.410e-02   |deigs|: 1.965e-03  t[s]:   9131.87
	FillingsUpdate:  mu: -0.127798437  nElectrons: 312.000000
SCF: Cycle:  3   F: -516.354625246127284   dF: -8.019e-04   |Residual|: 1.317e-02   |deigs|: 7.298e-04  t[s]:   9370.76
	FillingsUpdate:  mu: -0.128444467  nElectrons: 312.000000
SCF: Cycle:  4   F: -516.354741099115131   dF: -1.159e-04   |Residual|: 5.346e-03   |deigs|: 5.356e-04  t[s]:   9577.21
	FillingsUpdate:  mu: -0.129009429  nElectrons: 312.000000
SCF: Cycle:  5   F: -516.354817788064452   dF: -7.669e-05   |Residual|: 3.143e-03   |deigs|: 5.333e-04  t[s]:   9784.29
	FillingsUpdate:  mu: -0.129729897  nElectrons: 312.000000
SCF: Cycle:  6   F: -516.354882022653896   dF: -6.423e-05   |Residual|: 2.107e-03   |deigs|: 7.460e-04  t[s]:   9991.11
	FillingsUpdate:  mu: -0.130542162  nElectrons: 312.000000
SCF: Cycle:  7   F: -516.354930814123918   dF: -4.879e-05   |Residual|: 1.595e-03   |deigs|: 9.566e-04  t[s]:  10197.72
	FillingsUpdate:  mu: -0.131139630  nElectrons: 312.000000
SCF: Cycle:  8   F: -516.354954626074118   dF: -2.381e-05   |Residual|: 1.194e-03   |deigs|: 9.097e-04  t[s]:  10406.00
	FillingsUpdate:  mu: -0.131701614  nElectrons: 312.000000
SCF: Cycle:  9   F: -516.354967927247799   dF: -1.330e-05   |Residual|: 9.313e-04   |deigs|: 1.091e-03  t[s]:  10614.01
	FillingsUpdate:  mu: -0.132137121  nElectrons: 312.000000
SCF: Cycle: 10   F: -516.354974899985905   dF: -6.973e-06   |Residual|: 7.539e-04   |deigs|: 1.003e-03  t[s]:  10821.99
	FillingsUpdate:  mu: -0.132567283  nElectrons: 312.000000
SCF: Cycle: 11   F: -516.354980393062078   dF: -5.493e-06   |Residual|: 6.264e-04   |deigs|: 8.870e-04  t[s]:  11029.57
	FillingsUpdate:  mu: -0.132978427  nElectrons: 312.000000
SCF: Cycle: 12   F: -516.354984298162890   dF: -3.905e-06   |Residual|: 5.568e-04   |deigs|: 6.579e-04  t[s]:  11237.29
	FillingsUpdate:  mu: -0.133471033  nElectrons: 312.000000
SCF: Cycle: 13   F: -516.354986745102224   dF: -2.447e-06   |Residual|: 4.531e-04   |deigs|: 5.296e-04  t[s]:  11444.14
	FillingsUpdate:  mu: -0.133935661  nElectrons: 312.000000
SCF: Cycle: 14   F: -516.354987489234645   dF: -7.441e-07   |Residual|: 3.512e-04   |deigs|: 5.100e-04  t[s]:  11651.23
	FillingsUpdate:  mu: -0.134306168  nElectrons: 312.000000
SCF: Cycle: 15   F: -516.354987700660558   dF: -2.114e-07   |Residual|: 2.402e-04   |deigs|: 5.330e-04  t[s]:  11857.62
	FillingsUpdate:  mu: -0.134560009  nElectrons: 312.000000
SCF: Cycle: 16   F: -516.354987824056479   dF: -1.234e-07   |Residual|: 1.632e-04   |deigs|: 4.216e-04  t[s]:  12064.42
	FillingsUpdate:  mu: -0.134701111  nElectrons: 312.000000
SCF: Cycle: 17   F: -516.354987916882919   dF: -9.283e-08   |Residual|: 1.238e-04   |deigs|: 2.449e-04  t[s]:  12272.49
	FillingsUpdate:  mu: -0.134815749  nElectrons: 312.000000
SCF: Cycle: 18   F: -516.354988069118804   dF: -1.522e-07   |Residual|: 1.041e-04   |deigs|: 2.080e-04  t[s]:  12480.08
	FillingsUpdate:  mu: -0.134912643  nElectrons: 312.000000
SCF: Cycle: 19   F: -516.354988163065741   dF: -9.395e-08   |Residual|: 9.518e-05   |deigs|: 2.844e-04  t[s]:  12686.92
	FillingsUpdate:  mu: -0.134998629  nElectrons: 312.000000
SCF: Cycle: 20   F: -516.354988333380902   dF: -1.703e-07   |Residual|: 7.081e-05   |deigs|: 2.113e-04  t[s]:  12894.80
	FillingsUpdate:  mu: -0.135036177  nElectrons: 312.000000
SCF: Cycle: 21   F: -516.354988455448165   dF: -1.221e-07   |Residual|: 5.242e-05   |deigs|: 1.101e-04  t[s]:  13108.19
	FillingsUpdate:  mu: -0.135056371  nElectrons: 312.000000
SCF: Cycle: 22   F: -516.354988498358466   dF: -4.291e-08   |Residual|: 3.891e-05   |deigs|: 7.060e-05  t[s]:  13316.63
	FillingsUpdate:  mu: -0.135074749  nElectrons: 312.000000
SCF: Cycle: 23   F: -516.354988517169204   dF: -1.881e-08   |Residual|: 2.857e-05   |deigs|: 7.744e-05  t[s]:  13523.70
	FillingsUpdate:  mu: -0.135083616  nElectrons: 312.000000
SCF: Cycle: 24   F: -516.354988531065601   dF: -1.390e-08   |Residual|: 2.173e-05   |deigs|: 1.179e-04  t[s]:  13727.88
	FillingsUpdate:  mu: -0.135089176  nElectrons: 312.000000
SCF: Cycle: 25   F: -516.354988537719350   dF: -6.654e-09   |Residual|: 1.441e-05   |deigs|: 1.712e-04  t[s]:  13938.97
	FillingsUpdate:  mu: -0.135094189  nElectrons: 312.000000
SCF: Cycle: 26   F: -516.354988540291060   dF: -2.572e-09   |Residual|: 8.781e-06   |deigs|: 7.011e-05  t[s]:  14149.17
SCF: Converged (|Delta E|<1.000000e-08 for 2 iters).

Setting wave functions to eigenvectors of Hamiltonian
IonicMinimize: 	Predicted alpha/alphaT>3.000000, increasing alphaT to 7.470756e-01.

-------- Electronic minimization -----------
Will mix electronic density at each iteration.
	FillingsUpdate:  mu: -0.135094189  nElectrons: 312.000000
	FillingsUpdate:  mu: -0.112224394  nElectrons: 312.000000
SCF: Cycle:  0   F: -515.422318355992616   dF: -7.370e-01   |Residual|: 7.572e-01   |deigs|: 2.188e-02  t[s]:  14509.68
	FillingsUpdate:  mu: -0.115859479  nElectrons: 312.000000
SCF: Cycle:  1   F: -516.406377392247123   dF: -9.841e-01   |Residual|: 3.097e-01   |deigs|: 9.871e-03  t[s]:  14749.24
	FillingsUpdate:  mu: -0.118619010  nElectrons: 312.000000
SCF: Cycle:  2   F: -516.524926455708055   dF: -1.185e-01   |Residual|: 8.631e-02   |deigs|: 3.707e-03  t[s]:  14987.90
	FillingsUpdate:  mu: -0.120003378  nElectrons: 312.000000
SCF: Cycle:  3   F: -516.528115512608792   dF: -3.189e-03   |Residual|: 2.708e-02   |deigs|: 1.550e-03  t[s]:  15227.13
	FillingsUpdate:  mu: -0.121224246  nElectrons: 312.000000
SCF: Cycle:  4   F: -516.528599382349057   dF: -4.839e-04   |Residual|: 1.174e-02   |deigs|: 1.021e-03  t[s]:  15486.15
	FillingsUpdate:  mu: -0.122359412  nElectrons: 312.000000
SCF: Cycle:  5   F: -516.528844659279343   dF: -2.453e-04   |Residual|: 6.408e-03   |deigs|: 1.028e-03  t[s]:  15707.76
	FillingsUpdate:  mu: -0.123699618  nElectrons: 312.000000
SCF: Cycle:  6   F: -516.529044047604884   dF: -1.994e-04   |Residual|: 4.501e-03   |deigs|: 1.291e-03  t[s]:  15921.15
	FillingsUpdate:  mu: -0.125648199  nElectrons: 312.000000
SCF: Cycle:  7   F: -516.529229151547611   dF: -1.851e-04   |Residual|: 3.243e-03   |deigs|: 2.039e-03  t[s]:  16132.44
	FillingsUpdate:  mu: -0.126968773  nElectrons: 312.000000
SCF: Cycle:  8   F: -516.529320305414672   dF: -9.115e-05   |Residual|: 2.479e-03   |deigs|: 1.562e-03  t[s]:  16341.34
	FillingsUpdate:  mu: -0.128094678  nElectrons: 312.000000
SCF: Cycle:  9   F: -516.529375761817732   dF: -5.546e-05   |Residual|: 1.926e-03   |deigs|: 1.542e-03  t[s]:  16550.27
	FillingsUpdate:  mu: -0.129040495  nElectrons: 312.000000
SCF: Cycle: 10   F: -516.529409843240387   dF: -3.408e-05   |Residual|: 1.593e-03   |deigs|: 1.483e-03  t[s]:  16756.96
	FillingsUpdate:  mu: -0.129997139  nElectrons: 312.000000
SCF: Cycle: 11   F: -516.529433441951824   dF: -2.360e-05   |Residual|: 1.286e-03   |deigs|: 1.419e-03  t[s]:  16963.14
	FillingsUpdate:  mu: -0.130875574  nElectrons: 312.000000
SCF: Cycle: 12   F: -516.529447724554529   dF: -1.428e-05   |Residual|: 1.170e-03   |deigs|: 1.027e-03  t[s]:  17171.04
	FillingsUpdate:  mu: -0.132051353  nElectrons: 312.000000
SCF: Cycle: 13   F: -516.529454538844675   dF: -6.814e-06   |Residual|: 9.292e-04   |deigs|: 1.059e-03  t[s]:  17379.46
	FillingsUpdate:  mu: -0.133009886  nElectrons: 312.000000
SCF: Cycle: 14   F: -516.529455390422754   dF: -8.516e-07   |Residual|: 7.132e-04   |deigs|: 8.581e-04  t[s]:  17586.91
	FillingsUpdate:  mu: -0.133702116  nElectrons: 312.000000
SCF: Cycle: 15   F: -516.529455657720519   dF: -2.673e-07   |Residual|: 4.948e-04   |deigs|: 7.172e-04  t[s]:  17792.73
	FillingsUpdate:  mu: -0.134250846  nElectrons: 312.000000
SCF: Cycle: 16   F: -516.529455996809361   dF: -3.391e-07   |Residual|: 3.330e-04   |deigs|: 6.320e-04  t[s]:  17998.31
	FillingsUpdate:  mu: -0.134463902  nElectrons: 312.000000
SCF: Cycle: 17   F: -516.529456416513881   dF: -4.197e-07   |Residual|: 2.673e-04   |deigs|: 3.402e-04  t[s]:  18208.56
	FillingsUpdate:  mu: -0.134691091  nElectrons: 312.000000
SCF: Cycle: 18   F: -516.529457114733418   dF: -6.982e-07   |Residual|: 2.259e-04   |deigs|: 3.311e-04  t[s]:  18415.53
	FillingsUpdate:  mu: -0.134942346  nElectrons: 312.000000
SCF: Cycle: 19   F: -516.529457772264323   dF: -6.575e-07   |Residual|: 1.934e-04   |deigs|: 4.785e-04  t[s]:  18623.59
	FillingsUpdate:  mu: -0.135141572  nElectrons: 312.000000
SCF: Cycle: 20   F: -516.529458246216223   dF: -4.740e-07   |Residual|: 1.565e-04   |deigs|: 2.798e-04  t[s]:  18829.64
	FillingsUpdate:  mu: -0.135209580  nElectrons: 312.000000
SCF: Cycle: 21   F: -516.529458686932458   dF: -4.407e-07   |Residual|: 1.025e-04   |deigs|: 2.235e-04  t[s]:  19036.86
	FillingsUpdate:  mu: -0.135240194  nElectrons: 312.000000
SCF: Cycle: 22   F: -516.529458925452673   dF: -2.385e-07   |Residual|: 7.595e-05   |deigs|: 1.558e-04  t[s]:  19244.44
	FillingsUpdate:  mu: -0.135248743  nElectrons: 312.000000
SCF: Cycle: 23   F: -516.529458991246884   dF: -6.579e-08   |Residual|: 5.469e-05   |deigs|: 9.458e-05  t[s]:  19451.03
	FillingsUpdate:  mu: -0.135267688  nElectrons: 312.000000
SCF: Cycle: 24   F: -516.529459023099889   dF: -3.185e-08   |Residual|: 4.267e-05   |deigs|: 7.022e-05  t[s]:  19657.74
	FillingsUpdate:  mu: -0.135293765  nElectrons: 312.000000
SCF: Cycle: 25   F: -516.529459051765798   dF: -2.867e-08   |Residual|: 2.709e-05   |deigs|: 1.998e-04  t[s]:  19864.92
	FillingsUpdate:  mu: -0.135306785  nElectrons: 312.000000
SCF: Cycle: 26   F: -516.529459060575846   dF: -8.810e-09   |Residual|: 2.044e-05   |deigs|: 1.371e-04  t[s]:  20073.91
	FillingsUpdate:  mu: -0.135313294  nElectrons: 312.000000
SCF: Cycle: 27   F: -516.529459064047160   dF: -3.471e-09   |Residual|: 1.285e-05   |deigs|: 8.148e-05  t[s]:  20285.75
SCF: Converged (|Delta E|<1.000000e-08 for 2 iters).

Setting wave functions to eigenvectors of Hamiltonian

-------- Electronic minimization -----------
Will mix electronic density at each iteration.
	FillingsUpdate:  mu: -0.135313294  nElectrons: 312.000000
	FillingsUpdate:  mu: -0.116430321  nElectrons: 312.000000
SCF: Cycle:  0   F: -515.980582040923650   dF: -4.436e-01   |Residual|: 5.505e-01   |deigs|: 1.273e-02  t[s]:  20637.08
	FillingsUpdate:  mu: -0.119411870  nElectrons: 312.000000
SCF: Cycle:  1   F: -516.527760213433794   dF: -5.472e-01   |Residual|: 2.322e-01   |deigs|: 6.232e-03  t[s]:  20871.44
	FillingsUpdate:  mu: -0.121656214  nElectrons: 312.000000
SCF: Cycle:  2   F: -516.601448098520336   dF: -7.369e-02   |Residual|: 6.310e-02   |deigs|: 2.695e-03  t[s]:  21106.03
	FillingsUpdate:  mu: -0.122807388  nElectrons: 312.000000
SCF: Cycle:  3   F: -516.603332085174429   dF: -1.884e-03   |Residual|: 2.014e-02   |deigs|: 1.326e-03  t[s]:  21340.18
	FillingsUpdate:  mu: -0.123817826  nElectrons: 312.000000
SCF: Cycle:  4   F: -516.603660369599652   dF: -3.283e-04   |Residual|: 9.207e-03   |deigs|: 8.599e-04  t[s]:  21577.36
	FillingsUpdate:  mu: -0.124804503  nElectrons: 312.000000
SCF: Cycle:  5   F: -516.603818787696241   dF: -1.584e-04   |Residual|: 5.179e-03   |deigs|: 8.927e-04  t[s]:  21786.06
	FillingsUpdate:  mu: -0.126041968  nElectrons: 312.000000
SCF: Cycle:  6   F: -516.603956955562921   dF: -1.382e-04   |Residual|: 3.538e-03   |deigs|: 1.212e-03  t[s]:  21992.91
	FillingsUpdate:  mu: -0.127524451  nElectrons: 312.000000
SCF: Cycle:  7   F: -516.604065741391537   dF: -1.088e-04   |Residual|: 2.618e-03   |deigs|: 1.590e-03  t[s]:  22201.78
	FillingsUpdate:  mu: -0.128628429  nElectrons: 312.000000
SCF: Cycle:  8   F: -516.604125451057939   dF: -5.971e-05   |Residual|: 1.983e-03   |deigs|: 1.378e-03  t[s]:  22410.08
	FillingsUpdate:  mu: -0.129551246  nElectrons: 312.000000
SCF: Cycle:  9   F: -516.604159801745254   dF: -3.435e-05   |Residual|: 1.520e-03   |deigs|: 1.376e-03  t[s]:  22617.34
	FillingsUpdate:  mu: -0.130296277  nElectrons: 312.000000
SCF: Cycle: 10   F: -516.604178602049387   dF: -1.880e-05   |Residual|: 1.265e-03   |deigs|: 1.292e-03  t[s]:  22827.38
	FillingsUpdate:  mu: -0.131111036  nElectrons: 312.000000
SCF: Cycle: 11   F: -516.604192145014963   dF: -1.354e-05   |Residual|: 1.044e-03   |deigs|: 1.317e-03  t[s]:  23037.56
	FillingsUpdate:  mu: -0.131829015  nElectrons: 312.000000
SCF: Cycle: 12   F: -516.604200067654119   dF: -7.923e-06   |Residual|: 9.348e-04   |deigs|: 9.043e-04  t[s]:  23248.41
	FillingsUpdate:  mu: -0.132828950  nElectrons: 312.000000
SCF: Cycle: 13   F: -516.604204086711320   dF: -4.019e-06   |Residual|: 7.601e-04   |deigs|: 9.413e-04  t[s]:  23460.06
	FillingsUpdate:  mu: -0.133699566  nElectrons: 312.000000
SCF: Cycle: 14   F: -516.604204881939154   dF: -7.952e-07   |Residual|: 5.592e-04   |deigs|: 8.031e-04  t[s]:  23669.81
	FillingsUpdate:  mu: -0.134255851  nElectrons: 312.000000
SCF: Cycle: 15   F: -516.604205118606274   dF: -2.367e-07   |Residual|: 4.097e-04   |deigs|: 5.891e-04  t[s]:  23873.82
	FillingsUpdate:  mu: -0.134699439  nElectrons: 312.000000
SCF: Cycle: 16   F: -516.604205540653538   dF: -4.220e-07   |Residual|: 2.658e-04   |deigs|: 5.499e-04  t[s]:  24189.59
	FillingsUpdate:  mu: -0.134882049  nElectrons: 312.000000
SCF: Cycle: 17   F: -516.604205743624902   dF: -2.030e-07   |Residual|: 2.184e-04   |deigs|: 2.743e-04  t[s]:  24464.32
	FillingsUpdate:  mu: -0.135091093  nElectrons: 312.000000
SCF: Cycle: 18   F: -516.604206258890258   dF: -5.153e-07   |Residual|: 1.781e-04   |deigs|: 3.196e-04  t[s]:  24745.41
	FillingsUpdate:  mu: -0.135252476  nElectrons: 312.000000
SCF: Cycle: 19   F: -516.604206805750778   dF: -5.469e-07   |Residual|: 1.474e-04   |deigs|: 3.816e-04  t[s]:  25040.66
	FillingsUpdate:  mu: -0.135336413  nElectrons: 312.000000
SCF: Cycle: 20   F: -516.604207172034307   dF: -3.663e-07   |Residual|: 1.141e-04   |deigs|: 2.669e-04  t[s]:  25294.92
	FillingsUpdate:  mu: -0.135375006  nElectrons: 312.000000
SCF: Cycle: 21   F: -516.604207336355898   dF: -1.643e-07   |Residual|: 8.414e-05   |deigs|: 1.598e-04  t[s]:  25513.20
	FillingsUpdate:  mu: -0.135404112  nElectrons: 312.000000
SCF: Cycle: 22   F: -516.604207414337907   dF: -7.798e-08   |Residual|: 5.876e-05   |deigs|: 1.229e-04  t[s]:  25718.79
	FillingsUpdate:  mu: -0.135434825  nElectrons: 312.000000
SCF: Cycle: 23   F: -516.604207481449976   dF: -6.711e-08   |Residual|: 4.751e-05   |deigs|: 1.159e-04  t[s]:  25926.18
	FillingsUpdate:  mu: -0.135461088  nElectrons: 312.000000
SCF: Cycle: 24   F: -516.604207517501436   dF: -3.605e-08   |Residual|: 3.503e-05   |deigs|: 1.281e-04  t[s]:  26132.41
	FillingsUpdate:  mu: -0.135480580  nElectrons: 312.000000
SCF: Cycle: 25   F: -516.604207530010285   dF: -1.251e-08   |Residual|: 2.268e-05   |deigs|: 1.496e-04  t[s]:  26340.59
	FillingsUpdate:  mu: -0.135493873  nElectrons: 312.000000
SCF: Cycle: 26   F: -516.604207535160754   dF: -5.150e-09   |Residual|: 1.444e-05   |deigs|: 6.759e-05  t[s]:  26547.53
	FillingsUpdate:  mu: -0.135503167  nElectrons: 312.000000
SCF: Cycle: 27   F: -516.604207536385388   dF: -1.225e-09   |Residual|: 1.095e-05   |deigs|: 3.925e-05  t[s]:  26754.64
SCF: Converged (|Delta E|<1.000000e-08 for 2 iters).

Setting wave functions to eigenvectors of Hamiltonian

# Ionic positions in cartesian coordinates:
ion C  28.004179401333364   0.000766563010307  23.621593406934299 1
ion C  16.333963145879061  20.211985239394267  23.621589967675732 1
ion C   2.330028533714903   4.042867682378694  23.622576954508627 1
ion C  23.337453166087524  -0.001006546796952  23.621653439337795 1
ion C   4.664033462807567  -0.001785771350032  23.621664757182288 1
ion C  11.667413877951871  20.212185969529799  23.622106189813856 1
ion C  25.669875507401031   4.042098144687905  23.621530186557798 1
ion C  18.669076693065946  16.167646145713935  23.621487028258127 1
ion C   4.611012661446774   8.045875839822243  23.589329032780228 1
ion C  18.671210305604699  -0.000715233632489  23.621703909124221 1
ion C   9.339050690796562  -0.002635787195007  23.621635813539452 1
ion C   9.332837527336958  16.157698033856200  23.619752563662431 1
ion C  23.337972107463983   8.082726637186452  23.621647412266515 1
ion C  21.004109472827434  12.122798553587511  23.621560368524527 1
ion C   6.997031428453731  12.189981171371089  23.580276902510768 1
ion C  14.004471660498170   0.001030451202733  23.621601387279512 1
ion C  14.001984122642243  16.174884231565994  23.621409236727839 1
ion C   7.000523983757201   4.030286381836176  23.620998535359181 1
ion C  21.003835244393745   4.040697143331265  23.621647710161223 1
ion C  16.341083426805145  12.122349358423163  23.622080448728891 1
ion C   9.401540818220015   8.030204051046201  23.562329421505638 1
ion C  16.337948257359812   4.042429405313145  23.621444640692591 1
ion C  11.674600297953415   4.044641802382955  23.623682746657380 1
ion C  11.692512173116164  12.074256198611179  23.268992384833496 1
ion C  18.670208984601736   8.083054316337931  23.621715762822198 1
ion C   7.001066381561012  20.206836510263585  23.621260762356179 1
ion C  -7.001909562465190  20.210853574852656  23.621631518503758 1
ion C  -0.004835390166849   8.080658847228973  23.623436974787460 1
ion C  14.002698056860016   8.082918993595863  23.622747324464939 1
ion C   2.336340227133013  20.211954852524634  23.621955242072577 1
ion C  -4.667915729950836  16.167922952245778  23.621600337359144 1
ion C   2.247638127160782  12.102004275211481  23.424697708106674 1
ion C  -2.339178260851107  12.122350548592365  23.622922391745497 1
ion C  -2.331270446248219  20.212935964369695  23.621605944189664 1
ion C   4.673858848263313  16.163066068262157  23.618677176511987 1
ion C  -0.001592270940602  16.176827739165279  23.621532310931542 1
ion C  14.004839652430894  21.557716437696129  23.621545587535596 1
ion C   2.336079923893439   1.347013326600470  23.621755089162658 1
ion C  25.673333972356239   1.347673166232575  23.621680268351639 1
ion C  16.338896698126696  17.516018709877340  23.622145052840054 1
ion C   4.667137816446157   5.404107999382886  23.620872351635509 1
ion C  21.004276702935773   1.348280239384262  23.621630562883343 1
ion C   7.000674754104987   1.358397555511111  23.621437628817528 1
ion C  11.673085078741686  17.520785702054955  23.623037497807687 1
ion C  23.340059798631582   5.390641771732531  23.621644887197835 1
ion C  18.669155650892105  13.476877170169095  23.621816182433239 1
ion C   6.975365666337183   9.375991244834518  23.495051353330641 1
ion C  16.335968185639601   1.347525674161299  23.621682502613780 1
ion C  11.667091388268261   1.347391938499269  23.621710426383970 1
ion C   9.330186711469530  13.521035396081150  23.520888641452949 1
ion C  21.004310127709594   9.434776240027617  23.621634721286984 1
ion C   9.336778779000504  21.560227253716548  23.621422454223200 1
ion C  -9.333810243034769  21.560824206325211  23.621620629284362 1
ion C   0.002370539188019   5.390667616877243  23.621452352339432 1
ion C  14.020456420106846  13.476715279126035  23.587591240184725 1
ion C   9.336010335646380   5.402229079003812  23.619413902653147 1
ion C  18.669756201222043   5.390317134512630  23.621623706424476 1
ion C  16.338579046160113   9.431881164377362  23.622025168574176 1
ion C  11.678126255856167   9.423308098286215  23.597255718108087 1
ion C  14.001395153164724   5.387646955259164  23.621869326196105 1
ion C   4.666362381079551  21.560242848278548  23.621442913838031 1
ion C  -7.000459546814973  17.517935794603101  23.621718266187507 1
ion C   2.343830525612420   9.422518837765699  23.615638409795594 1
ion C  -2.333557972800540   9.433574242005919  23.621458039061984 1
ion C  -4.668261164700566  21.561336573205939  23.621651230857783 1
ion C   7.000082746118011  17.525351693266227  23.625472329974393 1
ion C  -0.002813303231683  21.557596687762583  23.621554178239187 1
ion C  -4.665065769019384  13.476025816871720  23.621628834387028 1
ion C   4.721688116732560  13.544384853409824  23.390804664512430 1
ion C   2.329197173982902  17.519168500271203  23.622371833868399 1
ion C  -2.332808915122047  17.514779464671914  23.621770718823250 1
ion C   0.006975403538901  13.468559137071333  23.619065255862211 1
ion S   7.551778107206595  10.184499004712661  26.779284623683274 1
ion Na   3.639397361087175  12.641152622726526  26.884301948663833 1
ion Na  11.484750114652909  12.711733247180229  26.906611602049711 1

# Forces in Cartesian coordinates:
force C   0.000278036241787  -0.000043954404732  -0.000075683045103 1
force C   0.000146123281809   0.000014237863051   0.000183033964366 1
force C   0.000443167153188  -0.000861640008129   0.000879627179343 1
force C  -0.000338850663724  -0.000416418946733  -0.000137649881157 1
force C   0.000287963543615   0.000794591215532   0.000014351923423 1
force C   0.000509108595265  -0.000062740538376   0.000670345032878 1
force C   0.000372993725686  -0.000392832657816  -0.000162931722876 1
force C   0.000251091579487   0.000022330709856  -0.000433625985028 1
force C  -0.004854815555584  -0.006959513366064  -0.022956777604947 1
force C   0.000339556410555  -0.000032391836506  -0.000141813961362 1
force C  -0.000444445327728   0.000705069163663  -0.000044118381800 1
force C   0.001027201427216   0.013539361021455  -0.004835572139483 1
force C  -0.000738696026987   0.000043996328593  -0.000263929364374 1
force C   0.000036536409375   0.001190420410843   0.000040401058297 1
force C   0.004048588092677  -0.001394545849145  -0.034886308921340 1
force C  -0.000794450554969   0.000120228976179  -0.000073247476720 1
force C   0.001616538276168   0.001561063177946  -0.000467230422899 1
force C  -0.001413599900255   0.005334573153918  -0.000126319520557 1
force C  -0.000198854596076   0.000239150006321   0.000049266776564 1
force C   0.005935707965563   0.001022059732113   0.000830949376997 1
force C   0.000652158045506  -0.006392699739375  -0.035932177070171 1
force C   0.000070073040830  -0.000768914265993  -0.000027612562572 1
force C   0.000819376479265  -0.002263020744961   0.001398436816613 1
force C  -0.006508142102432   0.029677608569342  -0.031682715673401 1
force C   0.000065456924768   0.000142323448945   0.000077649670997 1
force C   0.000178220709117   0.002294941987935   0.001471182800294 1
force C  -0.000107243477081   0.000597428450519   0.000004363046321 1
force C  -0.000334715008622  -0.002203270592697   0.002960663932821 1
force C   0.005370877081142  -0.003294250115690   0.001670630879713 1
force C  -0.000596050928510  -0.000000994019361   0.001089095638166 1
force C  -0.000542745231311   0.000168604621431  -0.000143887475688 1
force C   0.037688656897820   0.012514856372835  -0.042013590057799 1
force C  -0.003665087238193   0.000412895840933   0.002712949975575 1
force C   0.000085274042074   0.000042280082832   0.000029938921636 1
force C   0.003321410128324   0.023042617089818  -0.010686743286667 1
force C   0.000689387558507   0.002322088067885  -0.000183165698784 1
force C   0.000027650348576   0.000313715009124  -0.000011971503545 1
force C  -0.001068999394616   0.000456289715297   0.000132840554494 1
force C  -0.000011194422519   0.000343548764628  -0.000052300489395 1
force C   0.000676599653664   0.001466807925864   0.001847408153358 1
force C  -0.007226965259315  -0.014046914646598  -0.001186423450967 1
force C  -0.000039083868957  -0.000361994842376  -0.000001900156245 1
force C  -0.000391508254511  -0.000312482698856  -0.000012400112584 1
force C   0.000129563314977   0.001769135033345  -0.000091697769661 1
force C  -0.000365650635741  -0.000187098735251   0.000002819308919 1
force C   0.002229930192075  -0.001086156311216   0.001719262561550 1
force C   0.016488626642033   0.012519963684018   0.012284736869916 1
force C   0.000405503759770   0.000526960024599  -0.000093523427268 1
force C   0.001894722994445   0.000831310569912   0.000158845953760 1
force C   0.023434463160242  -0.011415604451014  -0.052698857088335 1
force C   0.000332372367622  -0.000810167314597  -0.000044037933512 1
force C  -0.001022041291661   0.000556778687603  -0.000192295761535 1
force C   0.000173297064563   0.000579541823632  -0.000075594820997 1
force C  -0.002034051892830  -0.001653449876719   0.000904977233179 1
force C  -0.005287762049758  -0.009344678792951  -0.029583040248802 1
force C   0.008712108649359  -0.014434918865149  -0.003002351528276 1
force C   0.000497144785539  -0.000549644053555  -0.000016637914116 1
force C   0.001041231911538  -0.002695191627409  -0.000521594522490 1
force C   0.010495417289615  -0.013058250856261  -0.031734458027592 1
force C   0.001154396007747  -0.001203781006197   0.001988036597442 1
force C   0.001071723091983   0.000205554103424  -0.000435443960338 1
force C   0.000469058792597  -0.000418627960678  -0.000327706846177 1
force C  -0.020163235891480  -0.005442894883426  -0.014814777056363 1
force C  -0.001158611296427  -0.000688661269917  -0.000487408177277 1
force C   0.000169794099225   0.000779201991097  -0.000017121783339 1
force C  -0.000053576927468   0.002548076535509   0.006502697889412 1
force C   0.000379238875959   0.000314236850684   0.000049616690156 1
force C  -0.000673613632755  -0.001397585297240   0.000871702197605 1
force C  -0.037384068494056  -0.021479248947195  -0.046151031207345 1
force C  -0.000426000142421   0.001605174973026   0.000731396165164 1
force C   0.000301651891930   0.000279436483083   0.000816408449215 1
force C  -0.016370803250442   0.000652348664682  -0.009996972970837 1
force S  -0.019479403779161  -0.017285488606337   0.118864226890963 1
force Na  -0.015163389686995   0.006843209593125   0.112239296028295 1
force Na   0.014458032347009   0.014551027826764   0.101670663447821 1

# Energy components:
   Eewald =     -931.2925913089181904
       EH =     -534.5198561012480241
     Eloc =      920.2323537899712846
      Enl =      -83.9022560011150347
      Exc =     -149.7687793834180070
 Exc_core =        4.1923999757534265
       KE =      258.5079696839042640
-------------------------------------
     Etot =     -516.5507593450702188
       TS =        0.0534481913151332
-------------------------------------
        F =     -516.6042075363853883

IonicMinimize: Iter:   1  F: -516.604207536385388  |grad|_K:  1.632e-02  alpha:  1.131e+00  linmin: -7.506e-01  t[s]:  26860.97

#--- Lowdin population analysis ---
# oxidation-state C +0.037 +0.035 +0.037 +0.037 +0.036 +0.032 +0.034 +0.033 +0.012 +0.036 +0.037 +0.003 +0.034 +0.034 +0.036 +0.038 +0.009 +0.031 +0.038 +0.020 +0.047 +0.038 +0.040 -0.063 +0.033 +0.038 +0.039 +0.033 +0.031 +0.034 +0.036 -0.066 +0.026 +0.035 -0.003 +0.019 +0.037 +0.036 +0.036 +0.029 +0.036 +0.035 +0.039 +0.013 +0.036 +0.030 +0.043 +0.035 +0.037 -0.069 +0.037 +0.030 +0.034 +0.038 -0.048 +0.020 +0.034 +0.024 -0.035 +0.030 +0.031 +0.033 -0.016 +0.030 +0.034 +0.009 +0.039 +0.031 -0.097 +0.015 +0.031 -0.005
# oxidation-state S -0.209
# oxidation-state Na +0.827 +0.848


-------- Electronic minimization -----------
Will mix electronic density at each iteration.
	FillingsUpdate:  mu: -0.135503167  nElectrons: 312.000000
	FillingsUpdate:  mu: -0.121271041  nElectrons: 312.000000
SCF: Cycle:  0   F: -516.319188164532989   dF: -1.208e-01   |Residual|: 3.508e-01   |deigs|: 5.299e-03  t[s]:  27187.53
	FillingsUpdate:  mu: -0.123672483  nElectrons: 312.000000
SCF: Cycle:  1   F: -516.606318777821343   dF: -2.871e-01   |Residual|: 1.494e-01   |deigs|: 3.683e-03  t[s]:  27426.68
	FillingsUpdate:  mu: -0.125389177  nElectrons: 312.000000
SCF: Cycle:  2   F: -516.646094036044815   dF: -3.978e-02   |Residual|: 4.334e-02   |deigs|: 2.093e-03  t[s]:  27661.11
	FillingsUpdate:  mu: -0.126279243  nElectrons: 312.000000
SCF: Cycle:  3   F: -516.647072717860965   dF: -9.787e-04   |Residual|: 1.374e-02   |deigs|: 9.525e-04  t[s]:  27900.20
	FillingsUpdate:  mu: -0.127036560  nElectrons: 312.000000
SCF: Cycle:  4   F: -516.647314572683399   dF: -2.419e-04   |Residual|: 6.660e-03   |deigs|: 6.465e-04  t[s]:  28136.09
	FillingsUpdate:  mu: -0.127805240  nElectrons: 312.000000
SCF: Cycle:  5   F: -516.647415011599037   dF: -1.004e-04   |Residual|: 3.741e-03   |deigs|: 7.076e-04  t[s]:  28343.98
	FillingsUpdate:  mu: -0.128755116  nElectrons: 312.000000
SCF: Cycle:  6   F: -516.647494123020806   dF: -7.911e-05   |Residual|: 2.544e-03   |deigs|: 9.568e-04  t[s]:  28551.71
	FillingsUpdate:  mu: -0.129779695  nElectrons: 312.000000
SCF: Cycle:  7   F: -516.647549562947802   dF: -5.544e-05   |Residual|: 1.893e-03   |deigs|: 1.166e-03  t[s]:  28774.48
	FillingsUpdate:  mu: -0.130625598  nElectrons: 312.000000
SCF: Cycle:  8   F: -516.647585204885104   dF: -3.564e-05   |Residual|: 1.445e-03   |deigs|: 1.167e-03  t[s]:  28981.21
	FillingsUpdate:  mu: -0.131359709  nElectrons: 312.000000
SCF: Cycle:  9   F: -516.647606030402244   dF: -2.083e-05   |Residual|: 1.121e-03   |deigs|: 1.247e-03  t[s]:  29187.89
	FillingsUpdate:  mu: -0.131917141  nElectrons: 312.000000
SCF: Cycle: 10   F: -516.647616260110453   dF: -1.023e-05   |Residual|: 9.271e-04   |deigs|: 1.122e-03  t[s]:  29394.89
	FillingsUpdate:  mu: -0.132530199  nElectrons: 312.000000
SCF: Cycle: 11   F: -516.647623537929803   dF: -7.278e-06   |Residual|: 7.738e-04   |deigs|: 1.125e-03  t[s]:  29600.23
	FillingsUpdate:  mu: -0.133097707  nElectrons: 312.000000
SCF: Cycle: 12   F: -516.647627968194115   dF: -4.430e-06   |Residual|: 6.737e-04   |deigs|: 7.994e-04  t[s]:  29804.99
	FillingsUpdate:  mu: -0.133798649  nElectrons: 312.000000
SCF: Cycle: 13   F: -516.647629854706906   dF: -1.887e-06   |Residual|: 5.682e-04   |deigs|: 6.992e-04  t[s]:  30016.63
	FillingsUpdate:  mu: -0.134422751  nElectrons: 312.000000
SCF: Cycle: 14   F: -516.647630431742186   dF: -5.770e-07   |Residual|: 4.236e-04   |deigs|: 6.218e-04  t[s]:  30227.19
	FillingsUpdate:  mu: -0.134918116  nElectrons: 312.000000
SCF: Cycle: 15   F: -516.647630673009417   dF: -2.413e-07   |Residual|: 2.861e-04   |deigs|: 5.560e-04  t[s]:  30438.13
	FillingsUpdate:  mu: -0.135186364  nElectrons: 312.000000
SCF: Cycle: 16   F: -516.647630898799321   dF: -2.258e-07   |Residual|: 1.932e-04   |deigs|: 4.060e-04  t[s]:  30649.32
	FillingsUpdate:  mu: -0.135348675  nElectrons: 312.000000
SCF: Cycle: 17   F: -516.647631038658460   dF: -1.399e-07   |Residual|: 1.515e-04   |deigs|: 2.488e-04  t[s]:  30859.09
	FillingsUpdate:  mu: -0.135476540  nElectrons: 312.000000
SCF: Cycle: 18   F: -516.647631317622427   dF: -2.790e-07   |Residual|: 1.266e-04   |deigs|: 2.131e-04  t[s]:  31066.65
	FillingsUpdate:  mu: -0.135566253  nElectrons: 312.000000
SCF: Cycle: 19   F: -516.647631646461832   dF: -3.288e-07   |Residual|: 1.132e-04   |deigs|: 3.155e-04  t[s]:  31275.66
	FillingsUpdate:  mu: -0.135643454  nElectrons: 312.000000
SCF: Cycle: 20   F: -516.647631865051949   dF: -2.186e-07   |Residual|: 8.577e-05   |deigs|: 2.322e-04  t[s]:  31482.32
	FillingsUpdate:  mu: -0.135689958  nElectrons: 312.000000
SCF: Cycle: 21   F: -516.647631958348711   dF: -9.330e-08   |Residual|: 5.806e-05   |deigs|: 1.328e-04  t[s]:  31690.17
	FillingsUpdate:  mu: -0.135721109  nElectrons: 312.000000
SCF: Cycle: 22   F: -516.647632022293692   dF: -6.394e-08   |Residual|: 4.179e-05   |deigs|: 1.039e-04  t[s]:  31899.43
	FillingsUpdate:  mu: -0.135749638  nElectrons: 312.000000
SCF: Cycle: 23   F: -516.647632042072246   dF: -1.978e-08   |Residual|: 3.071e-05   |deigs|: 9.201e-05  t[s]:  32105.54
	FillingsUpdate:  mu: -0.135769861  nElectrons: 312.000000
SCF: Cycle: 24   F: -516.647632051012010   dF: -8.940e-09   |Residual|: 2.287e-05   |deigs|: 8.979e-05  t[s]:  32311.80
	FillingsUpdate:  mu: -0.135768183  nElectrons: 312.000000
SCF: Cycle: 25   F: -516.647632061337276   dF: -1.033e-08   |Residual|: 1.644e-05   |deigs|: 1.347e-04  t[s]:  32519.40
	FillingsUpdate:  mu: -0.135760349  nElectrons: 312.000000
SCF: Cycle: 26   F: -516.647632066164192   dF: -4.827e-09   |Residual|: 1.171e-05   |deigs|: 1.426e-04  t[s]:  32727.00
	FillingsUpdate:  mu: -0.135756871  nElectrons: 312.000000
SCF: Cycle: 27   F: -516.647632067932363   dF: -1.768e-09   |Residual|: 8.702e-06   |deigs|: 4.791e-05  t[s]:  32934.12
SCF: Converged (|Delta E|<1.000000e-08 for 2 iters).

Setting wave functions to eigenvectors of Hamiltonian
IonicMinimize: 	Predicted alpha/alphaT>3.000000, increasing alphaT to 1.999293e+00.

-------- Electronic minimization -----------
Will mix electronic density at each iteration.
	FillingsUpdate:  mu: -0.135756871  nElectrons: 312.000000
	FillingsUpdate:  mu: -0.108793961  nElectrons: 312.000000
SCF: Cycle:  0   F: -515.378820738953323   dF: -5.403e-01   |Residual|: 7.644e-01   |deigs|: 2.247e-02  t[s]:  33286.43
	FillingsUpdate:  mu: -0.112213857  nElectrons: 312.000000
SCF: Cycle:  1   F: -516.521041491542064   dF: -1.142e+00   |Residual|: 3.147e-01   |deigs|: 1.256e-02  t[s]:  33520.38
	FillingsUpdate:  mu: -0.115152309  nElectrons: 312.000000
SCF: Cycle:  2   F: -516.696699050339816   dF: -1.757e-01   |Residual|: 9.130e-02   |deigs|: 3.542e-03  t[s]:  33754.23
	FillingsUpdate:  mu: -0.116742575  nElectrons: 312.000000
SCF: Cycle:  3   F: -516.701789930966470   dF: -5.091e-03   |Residual|: 3.176e-02   |deigs|: 1.988e-03  t[s]:  33988.59
	FillingsUpdate:  mu: -0.118225596  nElectrons: 312.000000
SCF: Cycle:  4   F: -516.702860964414640   dF: -1.071e-03   |Residual|: 1.453e-02   |deigs|: 1.321e-03  t[s]:  34224.75
	FillingsUpdate:  mu: -0.119796954  nElectrons: 312.000000
SCF: Cycle:  5   F: -516.703274719771457   dF: -4.138e-04   |Residual|: 7.823e-03   |deigs|: 1.405e-03  t[s]:  34432.58
	FillingsUpdate:  mu: -0.121592167  nElectrons: 312.000000
SCF: Cycle:  6   F: -516.703516982050360   dF: -2.423e-04   |Residual|: 5.333e-03   |deigs|: 1.701e-03  t[s]:  34643.59
	FillingsUpdate:  mu: -0.123772740  nElectrons: 312.000000
SCF: Cycle:  7   F: -516.703722777582357   dF: -2.058e-04   |Residual|: 3.975e-03   |deigs|: 2.200e-03  t[s]:  34851.71
	FillingsUpdate:  mu: -0.125683363  nElectrons: 312.000000
SCF: Cycle:  8   F: -516.703870661484643   dF: -1.479e-04   |Residual|: 3.065e-03   |deigs|: 2.115e-03  t[s]:  35058.98
	FillingsUpdate:  mu: -0.127151099  nElectrons: 312.000000
SCF: Cycle:  9   F: -516.703967788726800   dF: -9.713e-05   |Residual|: 2.353e-03   |deigs|: 1.815e-03  t[s]:  35265.10
	FillingsUpdate:  mu: -0.128211139  nElectrons: 312.000000
SCF: Cycle: 10   F: -516.704010427336925   dF: -4.264e-05   |Residual|: 1.965e-03   |deigs|: 1.473e-03  t[s]:  35472.32
	FillingsUpdate:  mu: -0.129322620  nElectrons: 312.000000
SCF: Cycle: 11   F: -516.704039837335927   dF: -2.941e-05   |Residual|: 1.649e-03   |deigs|: 1.560e-03  t[s]:  35681.10
	FillingsUpdate:  mu: -0.130663653  nElectrons: 312.000000
SCF: Cycle: 12   F: -516.704059359851612   dF: -1.952e-05   |Residual|: 1.496e-03   |deigs|: 1.589e-03  t[s]:  35887.53
	FillingsUpdate:  mu: -0.132175995  nElectrons: 312.000000
SCF: Cycle: 13   F: -516.704064640507227   dF: -5.281e-06   |Residual|: 1.181e-03   |deigs|: 1.347e-03  t[s]:  36095.41
	FillingsUpdate:  mu: -0.133372134  nElectrons: 312.000000
SCF: Cycle: 14   F: -516.704064882309240   dF: -2.418e-07   |Residual|: 9.711e-04   |deigs|: 1.051e-03  t[s]:  36305.53
	FillingsUpdate:  mu: -0.134402623  nElectrons: 312.000000
SCF: Cycle: 15   F: -516.704065709679071   dF: -8.274e-07   |Residual|: 6.982e-04   |deigs|: 9.073e-04  t[s]:  36512.33
	FillingsUpdate:  mu: -0.135174023  nElectrons: 312.000000
SCF: Cycle: 16   F: -516.704066227492035   dF: -5.178e-07   |Residual|: 4.605e-04   |deigs|: 7.789e-04  t[s]:  36719.83
	FillingsUpdate:  mu: -0.135523996  nElectrons: 312.000000
SCF: Cycle: 17   F: -516.704067259677231   dF: -1.032e-06   |Residual|: 3.233e-04   |deigs|: 4.625e-04  t[s]:  36926.56
	FillingsUpdate:  mu: -0.135743195  nElectrons: 312.000000
SCF: Cycle: 18   F: -516.704068236423836   dF: -9.767e-07   |Residual|: 2.718e-04   |deigs|: 2.911e-04  t[s]:  37133.93
	FillingsUpdate:  mu: -0.135891753  nElectrons: 312.000000
SCF: Cycle: 19   F: -516.704069438138163   dF: -1.202e-06   |Residual|: 2.466e-04   |deigs|: 3.574e-04  t[s]:  37344.56
	FillingsUpdate:  mu: -0.136034762  nElectrons: 312.000000
SCF: Cycle: 20   F: -516.704070511041778   dF: -1.073e-06   |Residual|: 1.865e-04   |deigs|: 4.704e-04  t[s]:  37557.06
	FillingsUpdate:  mu: -0.136148395  nElectrons: 312.000000
SCF: Cycle: 21   F: -516.704070713367287   dF: -2.023e-07   |Residual|: 1.377e-04   |deigs|: 3.463e-04  t[s]:  37767.09
	FillingsUpdate:  mu: -0.136231544  nElectrons: 312.000000
SCF: Cycle: 22   F: -516.704071070278019   dF: -3.569e-07   |Residual|: 9.762e-05   |deigs|: 1.405e-04  t[s]:  37975.90
	FillingsUpdate:  mu: -0.136315512  nElectrons: 312.000000
SCF: Cycle: 23   F: -516.704071382671032   dF: -3.124e-07   |Residual|: 6.838e-05   |deigs|: 2.499e-04  t[s]:  38182.12
	FillingsUpdate:  mu: -0.136371351  nElectrons: 312.000000
SCF: Cycle: 24   F: -516.704071450119159   dF: -6.745e-08   |Residual|: 4.725e-05   |deigs|: 1.569e-04  t[s]:  38391.01
	FillingsUpdate:  mu: -0.136416548  nElectrons: 312.000000
SCF: Cycle: 25   F: -516.704071461209082   dF: -1.109e-08   |Residual|: 3.325e-05   |deigs|: 8.159e-05  t[s]:  38598.10
	FillingsUpdate:  mu: -0.136440154  nElectrons: 312.000000
SCF: Cycle: 26   F: -516.704071467559857   dF: -6.351e-09   |Residual|: 2.415e-05   |deigs|: 5.127e-05  t[s]:  38805.01
	FillingsUpdate:  mu: -0.136447291  nElectrons: 312.000000
SCF: Cycle: 27   F: -516.704071474605257   dF: -7.045e-09   |Residual|: 1.713e-05   |deigs|: 4.837e-05  t[s]:  39012.08
SCF: Converged (|Delta E|<1.000000e-08 for 2 iters).

Setting wave functions to eigenvectors of Hamiltonian

-------- Electronic minimization -----------
Will mix electronic density at each iteration.
	FillingsUpdate:  mu: -0.136447291  nElectrons: 312.000000
	FillingsUpdate:  mu: -0.112954238  nElectrons: 312.000000
SCF: Cycle:  0   F: -515.872282673735754   dF: -3.580e-01   |Residual|: 5.954e-01   |deigs|: 1.456e-02  t[s]:  39363.34
	FillingsUpdate:  mu: -0.116436002  nElectrons: 312.000000
SCF: Cycle:  1   F: -516.605979392083441   dF: -7.337e-01   |Residual|: 2.515e-01   |deigs|: 8.710e-03  t[s]:  39595.63
	FillingsUpdate:  mu: -0.118654347  nElectrons: 312.000000
SCF: Cycle:  2   F: -516.720057234884280   dF: -1.141e-01   |Residual|: 7.253e-02   |deigs|: 2.683e-03  t[s]:  39830.84
	FillingsUpdate:  mu: -0.120093277  nElectrons: 312.000000
SCF: Cycle:  3   F: -516.724076103854486   dF: -4.019e-03   |Residual|: 2.826e-02   |deigs|: 1.542e-03  t[s]:  40066.02
	FillingsUpdate:  mu: -0.121310595  nElectrons: 312.000000
SCF: Cycle:  4   F: -516.724805427105366   dF: -7.293e-04   |Residual|: 1.251e-02   |deigs|: 1.187e-03  t[s]:  40301.52
	FillingsUpdate:  mu: -0.122741255  nElectrons: 312.000000
SCF: Cycle:  5   F: -516.725162573532657   dF: -3.571e-04   |Residual|: 6.910e-03   |deigs|: 1.289e-03  t[s]:  40536.90
	FillingsUpdate:  mu: -0.124116298  nElectrons: 312.000000
SCF: Cycle:  6   F: -516.725326240801678   dF: -1.637e-04   |Residual|: 4.892e-03   |deigs|: 1.334e-03  t[s]:  40744.51
	FillingsUpdate:  mu: -0.125816901  nElectrons: 312.000000
SCF: Cycle:  7   F: -516.725472558580918   dF: -1.463e-04   |Residual|: 3.600e-03   |deigs|: 1.733e-03  t[s]:  40951.60
	FillingsUpdate:  mu: -0.127452233  nElectrons: 312.000000
SCF: Cycle:  8   F: -516.725586727327936   dF: -1.142e-04   |Residual|: 2.784e-03   |deigs|: 1.817e-03  t[s]:  41158.43
	FillingsUpdate:  mu: -0.128623451  nElectrons: 312.000000
SCF: Cycle:  9   F: -516.725654795073069   dF: -6.807e-05   |Residual|: 2.123e-03   |deigs|: 1.470e-03  t[s]:  41365.92
	FillingsUpdate:  mu: -0.129621430  nElectrons: 312.000000
SCF: Cycle: 10   F: -516.725695025655114   dF: -4.023e-05   |Residual|: 1.773e-03   |deigs|: 1.405e-03  t[s]:  41573.30
	FillingsUpdate:  mu: -0.130589800  nElectrons: 312.000000
SCF: Cycle: 11   F: -516.725717924521064   dF: -2.290e-05   |Residual|: 1.480e-03   |deigs|: 1.441e-03  t[s]:  41780.75
	FillingsUpdate:  mu: -0.131785404  nElectrons: 312.000000
SCF: Cycle: 12   F: -516.725733518308175   dF: -1.559e-05   |Residual|: 1.301e-03   |deigs|: 1.600e-03  t[s]:  41987.81
	FillingsUpdate:  mu: -0.133148735  nElectrons: 312.000000
SCF: Cycle: 13   F: -516.725739254862106   dF: -5.737e-06   |Residual|: 1.065e-03   |deigs|: 1.296e-03  t[s]:  42195.21
	FillingsUpdate:  mu: -0.134259409  nElectrons: 312.000000
SCF: Cycle: 14   F: -516.725739526704047   dF: -2.718e-07   |Residual|: 8.802e-04   |deigs|: 9.738e-04  t[s]:  42400.80
	FillingsUpdate:  mu: -0.135260734  nElectrons: 312.000000
SCF: Cycle: 15   F: -516.725740348166482   dF: -8.215e-07   |Residual|: 6.011e-04   |deigs|: 8.618e-04  t[s]:  42608.13
	FillingsUpdate:  mu: -0.135907719  nElectrons: 312.000000
SCF: Cycle: 16   F: -516.725740910361537   dF: -5.622e-07   |Residual|: 4.271e-04   |deigs|: 7.091e-04  t[s]:  42816.50
	FillingsUpdate:  mu: -0.136280972  nElectrons: 312.000000
SCF: Cycle: 17   F: -516.725741529316110   dF: -6.190e-07   |Residual|: 3.058e-04   |deigs|: 4.622e-04  t[s]:  43023.58
	FillingsUpdate:  mu: -0.136519936  nElectrons: 312.000000
SCF: Cycle: 18   F: -516.725742301984042   dF: -7.727e-07   |Residual|: 2.426e-04   |deigs|: 3.064e-04  t[s]:  43249.23
	FillingsUpdate:  mu: -0.136660579  nElectrons: 312.000000
SCF: Cycle: 19   F: -516.725743188649062   dF: -8.867e-07   |Residual|: 2.055e-04   |deigs|: 3.165e-04  t[s]:  43454.80
	FillingsUpdate:  mu: -0.136769455  nElectrons: 312.000000
SCF: Cycle: 20   F: -516.725743898693963   dF: -7.100e-07   |Residual|: 1.803e-04   |deigs|: 2.542e-04  t[s]:  43661.18
	FillingsUpdate:  mu: -0.136831553  nElectrons: 312.000000
SCF: Cycle: 21   F: -516.725744241739108   dF: -3.430e-07   |Residual|: 1.251e-04   |deigs|: 4.286e-04  t[s]:  43869.15
	FillingsUpdate:  mu: -0.136850567  nElectrons: 312.000000
SCF: Cycle: 22   F: -516.725744287669045   dF: -4.593e-08   |Residual|: 9.782e-05   |deigs|: 2.588e-04  t[s]:  44075.99
	FillingsUpdate:  mu: -0.136859442  nElectrons: 312.000000
SCF: Cycle: 23   F: -516.725744494276569   dF: -2.066e-07   |Residual|: 8.008e-05   |deigs|: 1.211e-04  t[s]:  44284.50
	FillingsUpdate:  mu: -0.136876180  nElectrons: 312.000000
SCF: Cycle: 24   F: -516.725744648979457   dF: -1.547e-07   |Residual|: 6.196e-05   |deigs|: 1.285e-04  t[s]:  44497.65
	FillingsUpdate:  mu: -0.136933666  nElectrons: 312.000000
SCF: Cycle: 25   F: -516.725744741463359   dF: -9.248e-08   |Residual|: 4.231e-05   |deigs|: 1.849e-04  t[s]:  44709.31
	FillingsUpdate:  mu: -0.136984524  nElectrons: 312.000000
SCF: Cycle: 26   F: -516.725744777841101   dF: -3.638e-08   |Residual|: 3.596e-05   |deigs|: 1.331e-04  t[s]:  44920.80
	FillingsUpdate:  mu: -0.137030988  nElectrons: 312.000000
SCF: Cycle: 27   F: -516.725744786944460   dF: -9.103e-09   |Residual|: 2.317e-05   |deigs|: 1.033e-04  t[s]:  45133.70
	FillingsUpdate:  mu: -0.137053138  nElectrons: 312.000000
SCF: Cycle: 28   F: -516.725744790563681   dF: -3.619e-09   |Residual|: 1.590e-05   |deigs|: 5.927e-05  t[s]:  45344.60
SCF: Converged (|Delta E|<1.000000e-08 for 2 iters).

Setting wave functions to eigenvectors of Hamiltonian

# Ionic positions in cartesian coordinates:
ion C  28.004611032531685   0.000834702589510  23.621432158398967 1
ion C  16.333687908842371  20.212172910415237  23.622225374344421 1
ion C   2.330394812072306   4.040365237416396  23.625621205431884 1
ion C  23.336223258608126  -0.002556241675696  23.621317060704541 1
ion C   4.663971175942272   0.000191425908740  23.621799963321052 1
ion C  11.668544696957747  20.212189497163330  23.624380588521017 1
[...]
symmetries automatic
symmetry-threshold 0.0001



---------- Setting up symmetries ----------

Found 24 point-group symmetries of the bravais lattice
Found 1 space-group symmetries with basis
Applied RMS atom displacement 0 bohrs to make symmetries exact.

---------- Initializing the Grid ----------
R = 
[      28.0058     -14.0029            0  ]
[            0      24.2537            0  ]
[            0            0      37.7946  ]
unit cell volume = 25671.8
G =
[   0.224353    0.12953         -0  ]
[          0   0.259061          0  ]
[          0         -0   0.166246  ]
Minimum fftbox size, Smin = [  128  128  172  ]
Chosen fftbox size, S = [  128  128  180  ]

---------- Initializing tighter grid for wavefunction operations ----------
R = 
[      28.0058     -14.0029            0  ]
[            0      24.2537            0  ]
[            0            0      37.7946  ]
unit cell volume = 25671.8
G =
[   0.224353    0.12953         -0  ]
[          0   0.259061          0  ]
[          0         -0   0.166246  ]
Minimum fftbox size, Smin = [  116  116  156  ]
Chosen fftbox size, S = [  120  120  160  ]

---------- Exchange Correlation functional ----------
Initalized PBE GGA exchange.
Initalized PBE GGA correlation.

---------- Setting up pseudopotentials ----------
Width of ionic core gaussian charges (only for fluid interactions / plotting) set to 0

Reading pseudopotential file '/home/akakimmykim/jdftx_install/build/pseudopotentials/GBRV/c_pbe.uspp':
  Title: C.  Created by USPP 7.3.6 on 3-2-2014
  Reference state energy: -5.406344.  4 valence electrons in orbitals:
    |200>  occupation: 2  eigenvalue: -0.504890
    |210>  occupation: 2  eigenvalue: -0.194356
  lMax: 1  lLocal: 2  QijEcut: 5
  4 projectors sampled on a log grid with 503 points:
    l: 0  eig: -0.504890  rCut: 1.3
    l: 0  eig: 0.000000  rCut: 1.3
    l: 1  eig: -0.194357  rCut: 1.3
    l: 1  eig: 0.000000  rCut: 1.3
  Partial core density with radius 1.1
  Transforming core density to a uniform radial grid of dG=0.02 with 1625 points.
  Transforming local potential to a uniform radial grid of dG=0.02 with 1625 points.
  Transforming nonlocal projectors to a uniform radial grid of dG=0.02 with 432 points.
  Transforming density augmentations to a uniform radial grid of dG=0.02 with 1625 points.
  Transforming atomic orbitals to a uniform radial grid of dG=0.02 with 432 points.
  Core radius for overlap checks: 1.30 bohrs.

Reading pseudopotential file '/home/akakimmykim/jdftx_install/build/pseudopotentials/GBRV/s_pbe.uspp':
  Title: S.  Created by USPP 7.3.6 on 1-4-15
  Reference state energy: -11.898476.  6 valence electrons in orbitals:
    |300>  occupation: 2  eigenvalue: -0.634167
    |310>  occupation: 4  eigenvalue: -0.257568
  lMax: 2  lLocal: 3  QijEcut: 6
  6 projectors sampled on a log grid with 635 points:
    l: 0  eig: -0.634161  rCut: 1.5
    l: 0  eig: 1.500000  rCut: 1.5
    l: 1  eig: -0.257567  rCut: 1.5
    l: 1  eig: 1.500000  rCut: 1.5
    l: 2  eig: -1.000000  rCut: 1.5
    l: 2  eig: 1.500000  rCut: 1.5
  Partial core density with radius 1.15
  Transforming core density to a uniform radial grid of dG=0.02 with 1625 points.
  Transforming local potential to a uniform radial grid of dG=0.02 with 1625 points.
  Transforming nonlocal projectors to a uniform radial grid of dG=0.02 with 432 points.
  Transforming density augmentations to a uniform radial grid of dG=0.02 with 1625 points.
  Transforming atomic orbitals to a uniform radial grid of dG=0.02 with 432 points.
  Core radius for overlap checks: 1.50 bohrs.

Reading pseudopotential file '/home/akakimmykim/jdftx_install/build/pseudopotentials/GBRV/na_pbe.uspp':
  Title: Na.  Created by USPP 7.3.6 on 23-9-15
  Reference state energy: -47.625620.  9 valence electrons in orbitals:
    |200>  occupation: 2  eigenvalue: -2.085638
    |210>  occupation: 6  eigenvalue: -1.053708
    |300>  occupation: 1  eigenvalue: -0.100838
  lMax: 2  lLocal: 0  QijEcut: 6
  5 projectors sampled on a log grid with 657 points:
    l: 0  eig: -2.085640  rCut: 1.37
    l: 0  eig: -0.100839  rCut: 1.37
    l: 1  eig: -1.053708  rCut: 1.47
    l: 1  eig: 0.500000  rCut: 1.47
    l: 2  eig: 0.750000  rCut: 2
  Transforming local potential to a uniform radial grid of dG=0.02 with 1625 points.
  Transforming nonlocal projectors to a uniform radial grid of dG=0.02 with 432 points.
  Transforming density augmentations to a uniform radial grid of dG=0.02 with 1625 points.
  Transforming atomic orbitals to a uniform radial grid of dG=0.02 with 432 points.
  Core radius for overlap checks: 2.00 bohrs.

Initialized 3 species with 75 total atoms.

Folded 1 k-points by 1x1x1 to 1 k-points.

---------- Setting up k-points, bands, fillings ----------
No reducable k-points. 
Computing the number of bands and number of electrons
Reading initial fillings from file Na2S@graphene_6x6x1.fillings.
nElectrons: 312.000000   nBands: 302   nStates: 1

----- Setting up reduced wavefunction bases (one per k-point) -----
average nbasis = 109673.000 , ideal nbasis = 109671.883

---------- Setting up coulomb interaction ----------
Setting up double-sized grid for truncated Coulomb potentials:
R = 
[      28.0058     -14.0029            0  ]
[            0      24.2537            0  ]
[            0            0      75.5892  ]
unit cell volume = 51343.6
G =
[   0.224353    0.12953         -0  ]
[          0   0.259061          0  ]
[          0         -0  0.0831228  ]
Chosen fftbox size, S = [  128  128  360  ]
Integer grid location selected as the embedding center:
   Grid: [  0  0  113  ]
   Lattice: [  0  0  0.625  ]
   Cartesian: [  0  0  23.6216  ]
Constructing Wigner-Seitz cell: 8 faces (6 quadrilaterals, 2 hexagons)
Range-separation parameter for embedded mesh potentials due to point charges: 0.590105 bohrs.
Initialized slab truncation along lattice direction 001

---------- Setting up 2D ewald sum ----------
Optimum gaussian width for ewald sums = 15.547689 bohr.
Real space sums over 289 unit cells with max indices [  8  8  0  ]
Reciprocal space sums over 81 terms with max indices [  4  4  0  ]

---------- Allocating electronic variables ----------
Initializing wave functions:  reading from 'Na2S@graphene_6x6x1.wfns'


---- Citations for features of the code used in this run ----

   Software package:
      R. Sundararaman, K. Letchworth-Weaver, K.A. Schwarz, D. Gunceler, Y. Ozhabes and T.A. Arias, 'JDFTx: software for joint density-functional theory', SoftwareX 6, 278 (2017)

   gga-PBE exchange-correlation functional:
      J.P. Perdew, K. Burke and M. Ernzerhof, Phys. Rev. Lett. 77, 3865 (1996)

   Pseudopotentials:
      KF Garrity, JW Bennett, KM Rabe and D Vanderbilt, Comput. Mater. Sci. 81, 446 (2014)

   Truncated Coulomb potentials:
      R. Sundararaman and T.A. Arias, Phys. Rev. B 87, 165122 (2013)

   Total energy minimization with Auxiliary Hamiltonian:
      C. Freysoldt, S. Boeck, and J. Neugebauer, Phys. Rev. B 79, 241103(R) (2009)

This list may not be complete. Please suggest additional citations or
report any other bugs at https://github.com/shankar1729/jdftx/issues

Initialization completed successfully at t[s]:     84.78


-------- Electronic minimization -----------
	FillingsUpdate:  mu: -0.160488557  nElectrons: 312.000000
ElecMinimize: Iter:   0  F: -516.863165614745071  |grad|_K:  3.479e-08  alpha:  1.000e+00
	FillingsUpdate:  mu: -0.160486013  nElectrons: 312.000000
	SubspaceRotationAdjust: set factor to 0.709
ElecMinimize: Iter:   1  F: -516.863165617322693  |grad|_K:  1.514e-08  alpha:  6.872e-02  linmin:  2.663e-07  t[s]:    609.01
ElecMinimize: 	Predicted alpha/alphaT>3.000000, increasing alphaT to 2.061728e-01.
	FillingsUpdate:  mu: -0.160488179  nElectrons: 312.000000
	SubspaceRotationAdjust: set factor to 0.512
ElecMinimize: Iter:   2  F: -516.863165620792529  |grad|_K:  1.224e-08  alpha:  4.648e-01  linmin:  2.315e-06  t[s]:   1048.99
ElecMinimize: Converged (|Delta F|<1.000000e-08 for 2 iters).
Setting wave functions to eigenvectors of Hamiltonian

# Ionic positions in cartesian coordinates:
ion C  28.014162925916441   0.004453384674690  23.488700336250716 1
ion C  16.346425888740537  20.217875004139898  23.494441368511783 1
ion C   2.341491267388133   4.043706087769919  23.494288650092468 1
ion C  23.346676486641854   0.004384458899791  23.483901318126694 1
ion C   4.676245474304146   0.003825684533332  23.487138916511071 1
ion C  11.677668704867260  20.219126759791724  23.483004299183591 1
ion C  25.678811057378855   4.044276294935732  23.499408675705300 1
ion C  18.680488284317882  16.174907144025568  23.511821298159187 1
ion C   4.677492135958810   8.082325094833877  23.480434218273459 1
ion C  18.679382389646399   0.004419539788082  23.483426455373358 1
ion C   9.343823638707175   0.003953947274407  23.485047852861264 1
ion C   9.343132606087327  16.180035273305720  23.462238808629923 1
ion C  23.345124811792473   8.086659640014878  23.516110558754391 1
ion C  21.013103120380649  12.130537488137513  23.522228736787792 1
ion C   7.010396563482270  12.130147336608232  23.448669631144288 1
ion C  14.011721669833374   0.004487328277764  23.486992976749193 1
ion C  14.013558296018106  16.179574426149870  23.498757826101649 1
ion C   7.009818515150769   4.042499155409574  23.483844483499080 1
ion C  21.013258005010439   4.045063281439558  23.499911963395391 1
ion C  16.350423015839485  12.130599170600259  23.518035179028320 1
ion C   9.342281602294870   8.081813368171400  23.475546112810431 1
ion C  16.347062351595820   4.043993563439029  23.499817348777334 1
ion C  11.678225160842871   4.043864528802732  23.491257888877005 1
ion C  11.678772579836281  12.132656534902800  23.479943835860723 1
ion C  18.681222676379658   8.086169753017820  23.517364251816780 1
ion C   7.009916898374378  20.219343866477669  23.472579061328812 1
ion C  -6.992609659547584  20.216547172333016  23.496399385793953 1
ion C   0.003266530903848   8.083516107494180  23.512278174675206 1
ion C  14.015955885954099   8.083119896903865  23.508223950230427 1
ion C   2.342093071666019  20.219019570074142  23.480326146245698 1
ion C  -4.659880863172910  16.174560757149859  23.510300320021678 1
ion C   2.339186588937720  12.132995157544903  23.489299233363806 1
ion C  -2.329954496254302  12.131009916067642  23.516589949079659 1
ion C  -2.326304055174534  20.217696998809750  23.491504033873877 1
ion C   4.676726791076918  16.180841540819191  23.466168264274856 1
ion C   0.006137637165399  16.178703673620589  23.495659639727563 1
ion C  14.012348709644570  21.564438777735628  23.489604884116638 1
ion C   2.342824768057115   1.350062948308334  23.489941598843274 1
ion C  25.680516519737949   1.350702761820675  23.488903069804863 1
ion C  16.348003904104942  17.524448264432507  23.502678071625702 1
ion C   4.676210764116784   5.387823892778022  23.487264968155824 1
ion C  21.013008310099927   1.350663380772684  23.487704732809103 1
ion C   7.009950811972321   1.349259225414340  23.484223002515041 1
ion C  11.677762640953041  17.525450596518706  23.480362871851007 1
ion C  23.346324894239519   5.392231680162620  23.505102574666331 1
ion C  18.681997813576384  13.480334719088798  23.519483950082130 1
ion C   7.010361707405791   9.432882251512829  23.458902066493309 1
ion C  16.345682566415046   1.350653197918856  23.488395943382983 1
ion C  11.677343100946770   1.350076750284254  23.487853421160832 1
ion C   9.341532935239169  13.484022034967618  23.456042416622726 1
ion C  21.013053215586027   9.435742751134141  23.521852547273895 1
ion C   9.343921412688335  21.564967661889821  23.477772535012715 1
ion C  -9.325533050580072  21.563719294268758  23.490997739711112 1
ion C   0.006621766066881   5.389878389931321  23.504040826675343 1
ion C  14.017461384638807  13.483496515252021  23.507386649611831 1
ion C   9.343663251770447   5.388443811910577  23.484361305393769 1
ion C  18.680116870408927   5.391612106124537  23.506293009054612 1
ion C  16.349307086552550   9.434553397568573  23.516260415420753 1
ion C  11.678730991940606   9.429609444088063  23.492142348590626 1
ion C  14.013221041087661   5.389351834858124  23.501819267339133 1
ion C   4.676087364948579  21.564740743826302  23.475841543189748 1
ion C  -6.992581671971104  17.522334606507364  23.508981806064543 1
ion C   2.340099012219734   9.430388049872771  23.500315667712528 1
ion C  -2.329065275086099   9.435064464295710  23.516027596967280 1
ion C  -4.659725635779632  21.563781912962209  23.489331157040134 1
ion C   7.009941513485121  17.526875139515802  23.463681891904692 1
ion C   0.007471279885106  21.564584663929224  23.486805220524936 1
ion C  -4.661048587855587  13.480345295815439  23.517705640484358 1
ion C   4.678420581440577  13.483969691801144  23.461191111877959 1
ion C   2.341877433067657  17.525550844977925  23.479816581548118 1
ion C  -2.327622151484986  17.523857084604192  23.499038527601275 1
ion C   0.001623704991355  13.483660458022491  23.506902314285373 1
ion S   7.340965348298487  11.786218808348673  31.474376075483118 1
ion Na   3.511478615926023  11.652908876786041  28.565832651122516 1
ion Na  11.216418298394242  11.742143755213936  28.618760848083024 1

# Forces in Cartesian coordinates:
force C  -0.000017634385235  -0.000064881273582   0.000058769002197 1
force C  -0.000035465571401   0.000222936868326  -0.000053997750583 1
force C   0.000079202643406  -0.000152550900020  -0.000049209631421 1
force C   0.000017079728003   0.000205209235110  -0.000020389852954 1
force C   0.000043494667233  -0.000065282245443  -0.000058529847706 1
force C   0.000044383177795   0.000054642194600  -0.000057841037696 1
force C   0.000085854168445   0.000020567744848  -0.000037495436469 1
force C   0.000034918292809   0.000076622395599   0.000018182805158 1
force C   0.000066558184888   0.000059436580775   0.000096361839834 1
force C   0.000030377627619   0.000142961859759  -0.000055502611046 1
force C   0.000003182611348  -0.000116227866901   0.000031145519403 1
force C  -0.000049885971131  -0.000114068721317   0.000106955950610 1
force C  -0.000118347439003   0.000030058745927   0.000025395274906 1
force C   0.000092138281878  -0.000082375582452  -0.000038866496383 1
force C   0.000065174350262   0.000117999978358   0.000024213535413 1
force C  -0.000008068041383  -0.000038030349625   0.000025601027534 1
force C   0.000120846263706  -0.000006960829806  -0.000024388881910 1
force C   0.000063171880166  -0.000088117701321  -0.000161456481708 1
force C  -0.000032508855132  -0.000037713662319  -0.000035500144983 1
force C   0.000179806338856   0.000009604278674   0.000123554404371 1
force C   0.000014172830543   0.000188475155959   0.000087540007442 1
force C   0.000038670009279   0.000022996366164  -0.000096171610690 1
force C  -0.000018210333708  -0.000221088888110  -0.000022690962111 1
force C   0.000174051289016  -0.000000026178000  -0.000034760031551 1
force C   0.000126006737734   0.000050213220774  -0.000004939918266 1
force C   0.000040616927998   0.000171456801617  -0.000229733226298 1
force C  -0.000049299220200   0.000180204953674  -0.000086759738012 1
force C  -0.000043470560753   0.000108258285048  -0.000038392466640 1
force C   0.000028140655399   0.000145874638771   0.000025480457386 1
force C   0.000006952923201   0.000086369111714  -0.000007478835979 1
force C  -0.000068415706644   0.000128301942420  -0.000056845766058 1
force C  -0.000145569397179   0.000045844126177  -0.000088436378582 1
force C  -0.000052083538790  -0.000057809230099   0.000019594220547 1
force C   0.000104139991944   0.000185202704069  -0.000065569677022 1
force C   0.000017552850637  -0.000005305882952  -0.000039234765443 1
force C  -0.000056133669756   0.000004320956611  -0.000019649729445 1
force C  -0.000012113724703  -0.000018422218016  -0.000140692488796 1
force C  -0.000128453626748   0.000005817434277   0.000009101027065 1
force C  -0.000105423184678  -0.000184174300400   0.000115146232689 1
force C  -0.000066480056958  -0.000097047554230   0.000088103696156 1
force C   0.000035515800815   0.000106120398507  -0.000008694548582 1
force C   0.000024294528739   0.000062287524891   0.000026052633510 1
force C   0.000030153106902   0.000092106174526   0.000089218585740 1
force C   0.000076413001836   0.000118280772826  -0.000088863143962 1
force C  -0.000127530811722  -0.000039878752575   0.000088912077398 1
force C  -0.000031206273797  -0.000030808972376   0.000090278995220 1
force C  -0.000007081893144  -0.000119738562749   0.000081805823943 1
force C  -0.000038646241346  -0.000197343410432   0.000128089941180 1
force C   0.000074677842034   0.000062774244116  -0.000032196281711 1
force C  -0.000109241804922   0.000161473859881   0.000011517198710 1
force C   0.000000974389322   0.000080958780253  -0.000196737220754 1
force C   0.000046420251266  -0.000035056503690   0.000005405131975 1
force C  -0.000220812330479  -0.000066577585429   0.000155924603009 1
force C   0.000028870084666  -0.000114095870266  -0.000111603376360 1
force C   0.000021289501517  -0.000077652664800  -0.000155470245043 1
force C  -0.000091806001221  -0.000016665269169  -0.000117515718791 1
force C  -0.000004144698151   0.000088062852759   0.000019439122378 1
force C  -0.000043682260746  -0.000035923085480   0.000033663591708 1
force C  -0.000026873770728  -0.000032306950518  -0.000120980364363 1
force C  -0.000080104787523  -0.000125008101836  -0.000063064697437 1
force C  -0.000091914887520   0.000048233231084   0.000144107986410 1
force C  -0.000009989320848  -0.000084692637851  -0.000222104027042 1
force C  -0.000072510529095  -0.000067417085904  -0.000060954094956 1
force C   0.000106058985422   0.000029524214975   0.000094206779390 1
force C   0.000143611958116  -0.000055647037675   0.000141294462557 1
force C   0.000053080400179  -0.000169349683301  -0.000066520580759 1
force C   0.000035726371451  -0.000102575158215  -0.000166119472308 1
force C  -0.000156864434709  -0.000111383445605   0.000088335161076 1
force C  -0.000053676749209   0.000139361406219  -0.000045840132952 1
force C  -0.000136859150643   0.000019695146556  -0.000046868665973 1
force C   0.000032368705778   0.000053734227929   0.000125673695427 1
force C  -0.000004001270253  -0.000083298631128  -0.000015482617038 1
force S   0.000193840975643  -0.000094623233590   0.000149846709707 1
force Na  -0.000023793308187  -0.000224061155027  -0.000088440506742 1
force Na  -0.000033779832300  -0.000081816283891   0.000128148013843 1

# Energy components:
   Eewald =    -1092.5375164450520060
       EH =     -700.5047083644391250
     Eloc =     1247.7794451916338403
      Enl =      -83.7801287705524942
      Exc =     -149.3072752039712157
 Exc_core =        4.1923995665807245
       KE =      257.3703613357741915
-------------------------------------
     Etot =     -516.7874226900258918
       TS =        0.0757429307666162
-------------------------------------
        F =     -516.8631656207925289

IonicMinimize: Iter:   0  F: -516.863165620792529  |grad|_K:  9.339e-05  alpha:  1.000e+00
IonicMinimize: Converged (|grad|_K<1.000000e-04).

#--- Lowdin population analysis ---
# oxidation-state C +0.041 +0.040 +0.039 +0.041 +0.042 +0.040 +0.040 +0.039 +0.022 +0.041 +0.042 +0.034 +0.038 +0.039 +0.020 +0.041 +0.030 +0.041 +0.040 +0.027 +0.027 +0.040 +0.039 -0.020 +0.037 +0.042 +0.041 +0.028 +0.025 +0.040 +0.040 -0.018 +0.031 +0.040 +0.032 +0.032 +0.041 +0.041 +0.041 +0.037 +0.038 +0.042 +0.042 +0.034 +0.040 +0.036 +0.025 +0.041 +0.041 +0.012 +0.039 +0.042 +0.041 +0.037 +0.010 +0.039 +0.040 +0.030 +0.001 +0.037 +0.042 +0.040 -0.000 +0.033 +0.041 +0.040 +0.041 +0.038 +0.003 +0.035 +0.038 +0.018
# oxidation-state S -0.892
# oxidation-state Na +0.791 +0.791


Dumping 'Na2S@graphene_6x6x1.fillings' ... done
Dumping 'Na2S@graphene_6x6x1.wfns' ... done
Dumping 'Na2S@graphene_6x6x1.ionpos' ... done
Dumping 'Na2S@graphene_6x6x1.eigenvals' ... done
End date and time: Wed Jun 14 01:28:12 2023  (Duration: 0-0:20:06.85)
Done!
