
*************** JDFTx 1.7.0  ***************

Start date and time: Wed May 22 05:11:54 2024
Executable jdftx with command-line: -i Na2S@graphene_6x6x1-PC.in -o Na2S@graphene_6x6x1-PC.out
Running on hosts (process indices):  DESKTOP-H9SOOLG (0)
Divided in process groups (process indices):  0 (0)
Resource initialization completed at t[s]:      0.00
Run totals: 1 processes, 4 threads, 0 GPUs


Input parsed successfully to the following command list (including defaults):

basis kpoint-dependent
coords-type Cartesian
core-overlap-check vector
coulomb-interaction Slab 001
coulomb-truncation-embed 0 0 24.4487
davidson-band-ratio 1.1
dump End State
dump-name Na2S@graphene_6x6x1-PC.$VAR
elec-cutoff 20 100
elec-eigen-algo Davidson
elec-ex-corr gga-PBE
elec-smearing Fermi 0.01
electronic-minimize  \
	dirUpdateScheme      FletcherReeves \
	linminMethod         DirUpdateRecommended \
	nIterations          100 \
	history              15 \
	knormThreshold       0 \
	energyDiffThreshold  1e-08 \
	nEnergyDiff          2 \
	alphaTstart          1 \
	alphaTmin            1e-10 \
	updateTestStepSize   yes \
	alphaTreduceFactor   0.1 \
	alphaTincreaseFactor 3 \
	nAlphaAdjustMax      3 \
	wolfeEnergy          0.0001 \
	wolfeGradient        0.9 \
	fdTest               no
electronic-scf  \
	nIterations	50 \
	energyDiffThreshold	1e-08 \
	residualThreshold	1e-07 \
	mixFraction	0.5 \
	qMetric	0.8 \
	history	10 \
	nEigSteps	2 \
	eigDiffThreshold	1e-08 \
	mixedVariable	Density \
	qKerker	0.8 \
	qKappa	-1 \
	verbose	no \
	mixFractionMag	1.5
exchange-regularization WignerSeitzTruncated
fluid LinearPCM 298.000000 1.013250
fluid-ex-corr lda-TF lda-PZ
fluid-gummel-loop 10 1.000000e-05
fluid-minimize  \
	dirUpdateScheme      PolakRibiere \
	linminMethod         DirUpdateRecommended \
	nIterations          400 \
	history              15 \
	knormThreshold       1e-11 \
	energyDiffThreshold  0 \
	nEnergyDiff          2 \
	alphaTstart          1 \
	alphaTmin            1e-10 \
	updateTestStepSize   yes \
	alphaTreduceFactor   0.1 \
	alphaTincreaseFactor 3 \
	nAlphaAdjustMax      6 \
	wolfeEnergy          0.0001 \
	wolfeGradient        0.9 \
	fdTest               no
fluid-solvent PC 11.6429 ScalarEOS \
	epsBulk 64 \
	pMol 2.95 \
	epsInf 2.02 \
	Pvap 1.53277e-13 \
	sigmaBulk 2.88e-05 \
	Rvdw 0 \
	Res 0 \
	tauNuc 343133
forces-output-coords Positions
ion C  28.001738171729979  -0.006228724804273  13.958100972732892 1
ion C  16.333220082827495  20.205025705756743  13.959650963095390 1
ion C   2.329968751276316   4.036074509062764  13.950857251245587 1
ion C  23.333613335638383  -0.006183059974108  13.962132829555760 1
ion C   4.664052379181524  -0.006369651352263  13.957227956583225 1
ion C  11.664948598138478  20.205168511496851  13.955775868050910 1
ion C  25.667704023734700   4.036057991327952  13.960772118924355 1
ion C  18.667040773587821  16.162788033636065  13.962657030076141 1
ion C   4.663844416872585   8.078391621643091  13.938076499402714 1
ion C  18.666254165298795  -0.006303766466116  13.963465135605022 1
ion C   9.331817211144267  -0.006637244498587  13.959998904836024 1
ion C   9.331224620497785  16.162649322005070  13.943919176859170 1
ion C  23.333955499051250   8.078239414752730  13.961790366947588 1
ion C  21.000619298287432  12.120587665036531  13.960753371270220 1
ion C   6.997790694933661  12.120501454706890  13.938623083597545 1
ion C  13.999158576947332  -0.006454911089280  13.959634580675885 1
ion C  13.999129058118124  16.162588221482196  13.952566482526153 1
ion C   6.997734179087095   4.035866302050130  13.948586895983301 1
ion C  21.000076951790316   4.035768857895674  13.965275073190890 1
ion C  16.332941575315743  12.120549242285300  13.955455644778475 1
ion C   9.331324651273409   8.078386985436374  13.942469339378562 1
ion C  16.332843420866059   4.035462810292066  13.959753051638780 1
ion C  11.665261353449711   4.035801307378563  13.951990674287869 1
ion C  11.664856499903788  12.120473274654088  13.942163508223588 1
ion C  18.666627161384280   8.078026909989580  13.960488899273429 1
ion C   6.996944599246570  20.205433076073579  13.955787619971650 1
ion C  -7.005036089617635  20.204994170737358  13.964448454251999 1
ion C  -0.003946868284630   8.078496027989971  13.950433020505539 1
ion C  13.999094778307409   8.077984831927719  13.951913208856181 1
ion C   2.329812295907299  20.205360531292470  13.957641825698127 1
ion C  -4.671483173651483  16.162864970129640  13.962361229260583 1
ion C   2.329868863634800  12.120557089833788  13.945325109721251 1
ion C  -2.337838637258221  12.120616229023131  13.955634342743199 1
ion C  -2.337606425770826  20.205208979885228  13.962876290277295 1
ion C   4.663584182958081  16.162991079517667  13.948653571728725 1
ion C  -0.004159073484132  16.163212669285855  13.955555052645945 1
ion C  13.998995445181377  21.552457795238119  13.957460066162755 1
ion C   2.329963352926791   1.340977859906396  13.954946700674698 1
ion C  25.667558638837416   1.341213865681831  13.959852414169186 1
ion C  16.333007913979053  17.510118199761141  13.959362486397934 1
ion C   4.663835792073479   5.383758985148290  13.943626614316468 1
ion C  20.999914116308869   1.341194137145680  13.964453962468326 1
ion C   6.998078736015959   1.340764378845552  13.955370977031242 1
ion C  11.665030123016038  17.510065445005431  13.949264869898583 1
ion C  23.333864594906636   5.383377458693738  13.963045849751699 1
ion C  18.666781404039810  13.467918769178187  13.960698520961342 1
ion C   6.997297634746996   9.425641802177459  13.936451758056183 1
ion C  16.332554995200148   1.340980853160816  13.961406520280795 1
ion C  11.665360969061981   1.340858251301133  13.956948466062759 1
ion C   9.331384801762168  13.468117310689285  13.938106381474874 1
ion C  21.000162998846896   9.425553830622023  13.961218761199882 1
ion C   9.330982090921138  21.552678133007166  13.957433691783050 1
ion C  -9.338711227035709  21.552402289674493  13.960558805656966 1
ion C  -0.004300079810013   5.383500021836960  13.953277127490029 1
ion C  13.998851522125690  13.467752574358629  13.948884616198173 1
ion C   9.331547605520626   5.383337350546001  13.946237270516212 1
ion C  18.666411392811902   5.383186269747209  13.961966475363681 1
ion C  16.332952177398088   9.425554932563866  13.955641611361832 1
ion C  11.665323223573898   9.425728018311357  13.944719065295560 1
ion C  13.999111580110212   5.382921928589453  13.953739891527308 1
ion C   4.663212071335995  21.552852331281322  13.959605692432962 1
ion C  -7.005159394703696  17.510294577289756  13.964564571377482 1
ion C   2.330238098425715   9.425744054787932  13.941287986506817 1
ion C  -2.338144176641904   9.425597474982743  13.955940008497537 1
ion C  -4.671213834352253  21.552490400726089  13.963643493416257 1
ion C   6.997480916650217  17.510271244140842  13.947714910594629 1
ion C  -0.004088753447119  21.552627915227909  13.960334448389148 1
ion C  -4.671577521601819  13.468060026983498  13.959710349364368 1
ion C   4.663667561890854  13.468003536490237  13.943060929721936 1
ion C   2.329790302073841  17.510436185675264  13.953205861326330 1
ion C  -2.337903945409773  17.510636208091206  13.960676274199523 1
ion C  -0.003994088787859  13.468124546843244  13.951536870987479 1
ion S   7.547879655261107  12.008472948846125  21.649144251536924 1
ion Na   2.091287985999344  11.200877024603512  19.559296668305223 1
ion Na  12.818356486600733  11.638134570094143  19.328380591107539 1
ion-species GBRV/$ID_pbe.uspp
ion-width Ecut
ionic-minimize  \
	dirUpdateScheme      FletcherReeves \
	linminMethod         DirUpdateRecommended \
	nIterations          200 \
	history              15 \
	knormThreshold       0.0001 \
	energyDiffThreshold  1e-06 \
	nEnergyDiff          2 \
	alphaTstart          1 \
	alphaTmin            1e-10 \
	updateTestStepSize   yes \
	alphaTreduceFactor   0.1 \
	alphaTincreaseFactor 3 \
	nAlphaAdjustMax      3 \
	wolfeEnergy          0.0001 \
	wolfeGradient        0.9 \
	fdTest               no
kpoint   0.000000000000   0.000000000000   0.000000000000  1.00000000000000
kpoint-folding 1 1 1 
latt-move-scale 1 1 1
latt-scale 1 1 1 
lattice Triclinic 28.0058 28.0058 37.7946 90 90 120
lattice-minimize  \
	dirUpdateScheme      L-BFGS \
	linminMethod         DirUpdateRecommended \
	nIterations          0 \
	history              15 \
	knormThreshold       0 \
	energyDiffThreshold  1e-06 \
	nEnergyDiff          2 \
	alphaTstart          1 \
	alphaTmin            1e-10 \
	updateTestStepSize   yes \
	alphaTreduceFactor   0.1 \
	alphaTincreaseFactor 3 \
	nAlphaAdjustMax      3 \
	wolfeEnergy          0.0001 \
	wolfeGradient        0.9 \
	fdTest               no
lcao-params -1 1e-06 0.01
pcm-variant GLSSA13
spintype no-spin
subspace-rotation-factor 1 yes
symmetries automatic
symmetry-threshold 0.0001



---------- Setting up symmetries ----------

Found 24 point-group symmetries of the bravais lattice
Found 1 space-group symmetries with basis
Applied RMS atom displacement 0 bohrs to make symmetries exact.

---------- Initializing the Grid ----------
R = 
[      28.0058     -14.0029            0  ]
[            0      24.2537            0  ]
[            0            0      37.7946  ]
unit cell volume = 25671.8
G =
[   0.224353    0.12953         -0  ]
[          0   0.259061          0  ]
[          0         -0   0.166246  ]
Minimum fftbox size, Smin = [  128  128  172  ]
Chosen fftbox size, S = [  128  128  180  ]

---------- Initializing tighter grid for wavefunction operations ----------
R = 
[      28.0058     -14.0029            0  ]
[            0      24.2537            0  ]
[            0            0      37.7946  ]
unit cell volume = 25671.8
G =
[   0.224353    0.12953         -0  ]
[          0   0.259061          0  ]
[          0         -0   0.166246  ]
Minimum fftbox size, Smin = [  116  116  156  ]
Chosen fftbox size, S = [  120  120  160  ]

---------- Exchange Correlation functional ----------
Initalized PBE GGA exchange.
Initalized PBE GGA correlation.

---------- Setting up pseudopotentials ----------
Width of ionic core gaussian charges (only for fluid interactions / plotting) set to 0.397384

Reading pseudopotential file '/home/danielkim/jdftx_install/build/pseudopotentials/GBRV/c_pbe.uspp':
  Title: C.  Created by USPP 7.3.6 on 3-2-2014
  Reference state energy: -5.406344.  4 valence electrons in orbitals:
    |200>  occupation: 2  eigenvalue: -0.504890
    |210>  occupation: 2  eigenvalue: -0.194356
  lMax: 1  lLocal: 2  QijEcut: 5
  4 projectors sampled on a log grid with 503 points:
    l: 0  eig: -0.504890  rCut: 1.3
    l: 0  eig: 0.000000  rCut: 1.3
    l: 1  eig: -0.194357  rCut: 1.3
    l: 1  eig: 0.000000  rCut: 1.3
  Partial core density with radius 1.1
  Transforming core density to a uniform radial grid of dG=0.02 with 1625 points.
  Transforming local potential to a uniform radial grid of dG=0.02 with 1625 points.
  Transforming nonlocal projectors to a uniform radial grid of dG=0.02 with 432 points.
  Transforming density augmentations to a uniform radial grid of dG=0.02 with 1625 points.
  Transforming atomic orbitals to a uniform radial grid of dG=0.02 with 432 points.
  Core radius for overlap checks: 1.30 bohrs.

Reading pseudopotential file '/home/danielkim/jdftx_install/build/pseudopotentials/GBRV/s_pbe.uspp':
  Title: S.  Created by USPP 7.3.6 on 1-4-15
  Reference state energy: -11.898476.  6 valence electrons in orbitals:
    |300>  occupation: 2  eigenvalue: -0.634167
    |310>  occupation: 4  eigenvalue: -0.257568
  lMax: 2  lLocal: 3  QijEcut: 6
  6 projectors sampled on a log grid with 635 points:
    l: 0  eig: -0.634161  rCut: 1.5
    l: 0  eig: 1.500000  rCut: 1.5
    l: 1  eig: -0.257567  rCut: 1.5
    l: 1  eig: 1.500000  rCut: 1.5
    l: 2  eig: -1.000000  rCut: 1.5
    l: 2  eig: 1.500000  rCut: 1.5
  Partial core density with radius 1.15
  Transforming core density to a uniform radial grid of dG=0.02 with 1625 points.
  Transforming local potential to a uniform radial grid of dG=0.02 with 1625 points.
  Transforming nonlocal projectors to a uniform radial grid of dG=0.02 with 432 points.
  Transforming density augmentations to a uniform radial grid of dG=0.02 with 1625 points.
  Transforming atomic orbitals to a uniform radial grid of dG=0.02 with 432 points.
  Core radius for overlap checks: 1.50 bohrs.

Reading pseudopotential file '/home/danielkim/jdftx_install/build/pseudopotentials/GBRV/na_pbe.uspp':
  Title: Na.  Created by USPP 7.3.6 on 23-9-15
  Reference state energy: -47.625620.  9 valence electrons in orbitals:
    |200>  occupation: 2  eigenvalue: -2.085638
    |210>  occupation: 6  eigenvalue: -1.053708
    |300>  occupation: 1  eigenvalue: -0.100838
  lMax: 2  lLocal: 0  QijEcut: 6
  5 projectors sampled on a log grid with 657 points:
    l: 0  eig: -2.085640  rCut: 1.37
    l: 0  eig: -0.100839  rCut: 1.37
    l: 1  eig: -1.053708  rCut: 1.47
    l: 1  eig: 0.500000  rCut: 1.47
    l: 2  eig: 0.750000  rCut: 2
  Transforming local potential to a uniform radial grid of dG=0.02 with 1625 points.
  Transforming nonlocal projectors to a uniform radial grid of dG=0.02 with 432 points.
  Transforming density augmentations to a uniform radial grid of dG=0.02 with 1625 points.
  Transforming atomic orbitals to a uniform radial grid of dG=0.02 with 432 points.
  Core radius for overlap checks: 2.00 bohrs.

Initialized 3 species with 75 total atoms.

Folded 1 k-points by 1x1x1 to 1 k-points.

---------- Setting up k-points, bands, fillings ----------
No reducable k-points. 
Computing the number of bands and number of electrons
Calculating initial fillings.
nElectrons: 312.000000   nBands: 302   nStates: 1

----- Setting up reduced wavefunction bases (one per k-point) -----
average nbasis = 109673.000 , ideal nbasis = 109671.883

---------- Setting up coulomb interaction ----------
Fluid mode embedding: using embedded box, but periodic Coulomb kernel.
(Fluid response is responsible for (approximate) separation between periodic images.)
Setting up double-sized grid for truncated Coulomb potentials:
R = 
[      28.0058     -14.0029            0  ]
[            0      24.2537            0  ]
[            0            0      75.5892  ]
unit cell volume = 51343.6
G =
[   0.224353    0.12953         -0  ]
[          0   0.259061          0  ]
[          0         -0  0.0831228  ]
Chosen fftbox size, S = [  128  128  360  ]
Integer grid location selected as the embedding center:
   Grid: [  0  0  116  ]
   Lattice: [  0  0  0.646884  ]
   Cartesian: [  0  0  24.4487  ]
Constructing Wigner-Seitz cell: 8 faces (6 quadrilaterals, 2 hexagons)
Range-separation parameter for embedded mesh potentials due to point charges: 0.590105 bohrs.

---------- Setting up ewald sum ----------
Optimum gaussian width for ewald sums = 7.220412 bohr.
Real space sum over 405 unit cells with max indices [  4  4  2  ]
Reciprocal space sum over 7875 terms with max indices [  7  7  17  ]

---------- Allocating electronic variables ----------
Initializing wave functions:  linear combination of atomic orbitals
C pseudo-atom occupations:   s ( 2 )  p ( 2 )
S pseudo-atom occupations:   s ( 2 )  p ( 4 )
Na pseudo-atom occupations:   s ( 2 1 )  p ( 6 )
	FillingsUpdate:  mu: -0.177024144  nElectrons: 312.000000
LCAOMinimize: Iter:   0  F: -512.1018984112818089  |grad|_K:  1.499e-02  alpha:  1.000e+00
LCAOMinimize: 	Step increased F by 9.886927e-02, reducing alpha to 4.477476e-02.
	FillingsUpdate:  mu: -0.183760273  nElectrons: 312.000000
LCAOMinimize: Iter:   1  F: -512.5849960022288769  |grad|_K:  2.409e-03  alpha:  4.477e-02  linmin:  1.195e-01  cgtest: -8.672e-01  t[s]:    400.31
LCAOMinimize: 	Bad step direction: g.d > 0.
LCAOMinimize: 	Undoing step.
LCAOMinimize: 	Step failed: resetting search direction.
	FillingsUpdate:  mu: -0.183760273  nElectrons: 312.000000
LCAOMinimize: Iter:   2  F: -512.5849960022288769  |grad|_K:  2.409e-03  alpha:  0.000e+00
	FillingsUpdate:  mu: -0.222687983  nElectrons: 312.000000
LCAOMinimize: Iter:   3  F: -512.5961279503110291  |grad|_K:  5.758e-04  alpha:  4.161e-02  linmin:  2.993e-02  cgtest: -8.023e-02  t[s]:    570.45
LCAOMinimize: 	Predicted alpha/alphaT>3.000000, increasing alphaT to 1.248441e-01.
LCAOMinimize: 	Predicted alpha/alphaT>3.000000, increasing alphaT to 3.745324e-01.
	FillingsUpdate:  mu: -0.222455625  nElectrons: 312.000000
LCAOMinimize: Iter:   4  F: -512.6026772480153113  |grad|_K:  4.074e-04  alpha:  4.467e-01  linmin:  3.849e-03  cgtest: -4.405e-02  t[s]:    729.64
	FillingsUpdate:  mu: -0.217648028  nElectrons: 312.000000
LCAOMinimize: Iter:   5  F: -512.6045336211994936  |grad|_K:  4.721e-04  alpha:  2.476e-01  linmin: -1.807e-04  cgtest:  6.197e-02  t[s]:    834.52
	FillingsUpdate:  mu: -0.222825822  nElectrons: 312.000000
LCAOMinimize: Iter:   6  F: -512.6050569796012724  |grad|_K:  8.359e-05  alpha:  4.870e-02  linmin: -2.003e-02  cgtest:  3.140e-01  t[s]:    939.43
LCAOMinimize: Encountered beta<0, resetting CG.
LCAOMinimize: 	Predicted alpha/alphaT>3.000000, increasing alphaT to 1.460972e-01.
	FillingsUpdate:  mu: -0.223701730  nElectrons: 312.000000
LCAOMinimize: Iter:   7  F: -512.6051869991586045  |grad|_K:  8.779e-05  alpha:  4.053e-01  linmin: -1.273e-05  cgtest: -4.312e-04  t[s]:   1072.16
	FillingsUpdate:  mu: -0.222919049  nElectrons: 312.000000
LCAOMinimize: Iter:   8  F: -512.6052067932057525  |grad|_K:  4.652e-05  alpha:  5.665e-02  linmin:  2.350e-03  cgtest: -2.298e-02  t[s]:   1176.54
LCAOMinimize: 	Predicted alpha/alphaT>3.000000, increasing alphaT to 1.699351e-01.
	FillingsUpdate:  mu: -0.223195003  nElectrons: 312.000000
LCAOMinimize: Iter:   9  F: -512.6052330024544972  |grad|_K:  1.275e-05  alpha:  2.671e-01  linmin:  2.300e-04  cgtest:  1.013e-01  t[s]:   1308.60
	FillingsUpdate:  mu: -0.223346387  nElectrons: 312.000000
LCAOMinimize: Iter:  10  F: -512.6052352471311906  |grad|_K:  1.361e-05  alpha:  3.012e-01  linmin:  2.767e-05  cgtest: -3.512e-04  t[s]:   1413.35
	FillingsUpdate:  mu: -0.223231715  nElectrons: 312.000000
LCAOMinimize: Iter:  11  F: -512.6052356866809987  |grad|_K:  4.919e-06  alpha:  5.177e-02  linmin:  4.342e-04  cgtest: -4.094e-03  t[s]:   1517.32
LCAOMinimize: 	Predicted alpha/alphaT>3.000000, increasing alphaT to 1.553114e-01.
	FillingsUpdate:  mu: -0.223259314  nElectrons: 312.000000
LCAOMinimize: Iter:  12  F: -512.6052361777337865  |grad|_K:  1.852e-06  alpha:  4.412e-01  linmin: -9.044e-04  cgtest:  1.702e-02  t[s]:   1650.46
LCAOMinimize: Converged (|Delta F|<1.000000e-06 for 2 iters).
----- createFluidSolver() ----- (Fluid-side solver setup)
   Initializing fluid molecule 'PC'
     Net charge: 0   dipole magnitude: 0
     Initializing spherical shell mfKernel with radius 0 Bohr
     deltaS corrections:

Correction to mu due to finite nuclear width = -0.00602931
   Cavity determined by nc: 0.00098 and sigma: 0.6
   Effective cavity tension: 9.53e-06 Eh/bohr^2 to account for cavitation and dispersion.


---- Citations for features of the code used in this run ----

   Software package:
      R. Sundararaman, K. Letchworth-Weaver, K.A. Schwarz, D. Gunceler, Y. Ozhabes and T.A. Arias, 'JDFTx: software for joint density-functional theory', SoftwareX 6, 278 (2017)

   gga-PBE exchange-correlation functional:
      J.P. Perdew, K. Burke and M. Ernzerhof, Phys. Rev. Lett. 77, 3865 (1996)

   Pseudopotentials:
      KF Garrity, JW Bennett, KM Rabe and D Vanderbilt, Comput. Mater. Sci. 81, 446 (2014)

   Truncated Coulomb potentials:
      R. Sundararaman and T.A. Arias, Phys. Rev. B 87, 165122 (2013)

   Linear/nonlinear dielectric/ionic fluid model with effective cavity tension:
      D. Gunceler, K. Letchworth-Weaver, R. Sundararaman, K.A. Schwarz and T.A. Arias, Modelling Simul. Mater. Sci. Eng. 21, 074005 (2013)

This list may not be complete. Please suggest additional citations or
report any other bugs at https://github.com/shankar1729/jdftx/issues

Initialization completed successfully at t[s]:   1707.70

Fluid solver invoked on fresh (random / LCAO) wavefunctions
Running a vacuum solve first:

-------- Initial electronic minimization -----------
Will mix electronic density at each iteration.
	FillingsUpdate:  mu: -0.223259314  nElectrons: 312.000000
	FillingsUpdate:  mu: -0.229651780  nElectrons: 312.000000
SCF: Cycle:  0   F: -515.930827499622410   dF: -3.326e+00   |Residual|: 9.412e-01   |deigs|: 1.265e-01  t[s]:   2226.58
	FillingsUpdate:  mu: -0.206621297  nElectrons: 312.000000
SCF: Cycle:  1   F: -516.367181428701087   dF: -4.364e-01   |Residual|: 4.985e-01   |deigs|: 3.608e-02  t[s]:   2691.02
	FillingsUpdate:  mu: -0.172970530  nElectrons: 312.000000
SCF: Cycle:  2   F: -516.303930845228933   dF: +6.325e-02   |Residual|: 2.677e-01   |deigs|: 2.473e-02  t[s]:   3155.05
	FillingsUpdate:  mu: -0.172633023  nElectrons: 312.000000
SCF: Cycle:  3   F: -516.702559231280816   dF: -3.986e-01   |Residual|: 1.168e-01   |deigs|: 1.263e-02  t[s]:   3614.95
	FillingsUpdate:  mu: -0.168140634  nElectrons: 312.000000
SCF: Cycle:  4   F: -516.785105967529262   dF: -8.255e-02   |Residual|: 8.681e-02   |deigs|: 3.896e-03  t[s]:   4078.66
	FillingsUpdate:  mu: -0.164840833  nElectrons: 312.000000
SCF: Cycle:  5   F: -516.827938617970744   dF: -4.283e-02   |Residual|: 3.015e-02   |deigs|: 5.964e-03  t[s]:   4538.78
	FillingsUpdate:  mu: -0.161811512  nElectrons: 312.000000
SCF: Cycle:  6   F: -516.829741582760334   dF: -1.803e-03   |Residual|: 1.893e-02   |deigs|: 3.119e-03  t[s]:   4987.90
	FillingsUpdate:  mu: -0.159492232  nElectrons: 312.000000
SCF: Cycle:  7   F: -516.831423869452919   dF: -1.682e-03   |Residual|: 1.648e-02   |deigs|: 3.964e-03  t[s]:   5426.66
	FillingsUpdate:  mu: -0.151317378  nElectrons: 312.000000
SCF: Cycle:  8   F: -516.833297811474154   dF: -1.874e-03   |Residual|: 1.257e-02   |deigs|: 8.791e-03  t[s]:   5855.16
	FillingsUpdate:  mu: -0.144233377  nElectrons: 312.000000
SCF: Cycle:  9   F: -516.830599603381643   dF: +2.698e-03   |Residual|: 1.837e-02   |deigs|: 6.377e-03  t[s]:   6257.93
	FillingsUpdate:  mu: -0.134272205  nElectrons: 312.000000
SCF: Cycle: 10   F: -516.832735699736645   dF: -2.136e-03   |Residual|: 1.065e-02   |deigs|: 7.749e-03  t[s]:   6696.51
	FillingsUpdate:  mu: -0.127772669  nElectrons: 312.000000
SCF: Cycle: 11   F: -516.827033125761318   dF: +5.703e-03   |Residual|: 2.358e-02   |deigs|: 6.266e-03  t[s]:   7134.17
	FillingsUpdate:  mu: -0.121160790  nElectrons: 312.000000
SCF: Cycle: 12   F: -516.832401293130943   dF: -5.368e-03   |Residual|: 1.377e-02   |deigs|: 4.620e-03  t[s]:   7571.51
	FillingsUpdate:  mu: -0.118125297  nElectrons: 312.000000
SCF: Cycle: 13   F: -516.833454130276550   dF: -1.053e-03   |Residual|: 7.665e-03   |deigs|: 2.707e-03  t[s]:   7971.76
	FillingsUpdate:  mu: -0.116058136  nElectrons: 312.000000
SCF: Cycle: 14   F: -516.834090955754050   dF: -6.368e-04   |Residual|: 4.400e-03   |deigs|: 2.127e-03  t[s]:   8377.34
	FillingsUpdate:  mu: -0.115287950  nElectrons: 312.000000
SCF: Cycle: 15   F: -516.834114996223320   dF: -2.404e-05   |Residual|: 2.859e-03   |deigs|: 8.898e-04  t[s]:   8777.91
	FillingsUpdate:  mu: -0.113625971  nElectrons: 312.000000
SCF: Cycle: 16   F: -516.834152035719853   dF: -3.704e-05   |Residual|: 1.915e-03   |deigs|: 1.919e-03  t[s]:   9181.52
	FillingsUpdate:  mu: -0.112779608  nElectrons: 312.000000
SCF: Cycle: 17   F: -516.834156258045823   dF: -4.222e-06   |Residual|: 1.369e-03   |deigs|: 8.783e-04  t[s]:   9581.29
	FillingsUpdate:  mu: -0.112300965  nElectrons: 312.000000
SCF: Cycle: 18   F: -516.834156659921518   dF: -4.019e-07   |Residual|: 7.906e-04   |deigs|: 9.009e-04  t[s]:   9982.06
	FillingsUpdate:  mu: -0.111752991  nElectrons: 312.000000
SCF: Cycle: 19   F: -516.834157207299540   dF: -5.474e-07   |Residual|: 5.912e-04   |deigs|: 6.009e-04  t[s]:  10385.67
	FillingsUpdate:  mu: -0.111729907  nElectrons: 312.000000
SCF: Cycle: 20   F: -516.834159597449343   dF: -2.390e-06   |Residual|: 4.098e-04   |deigs|: 2.266e-04  t[s]:  10786.04
	FillingsUpdate:  mu: -0.111547484  nElectrons: 312.000000
SCF: Cycle: 21   F: -516.834159707394292   dF: -1.099e-07   |Residual|: 2.748e-04   |deigs|: 7.702e-04  t[s]:  11186.63
	FillingsUpdate:  mu: -0.111350051  nElectrons: 312.000000
SCF: Cycle: 22   F: -516.834159755880592   dF: -4.849e-08   |Residual|: 2.124e-04   |deigs|: 9.017e-04  t[s]:  11590.06
	FillingsUpdate:  mu: -0.111301484  nElectrons: 312.000000
SCF: Cycle: 23   F: -516.834159492242520   dF: +2.636e-07   |Residual|: 1.575e-04   |deigs|: 5.977e-04  t[s]:  11993.47
	FillingsUpdate:  mu: -0.111247039  nElectrons: 312.000000
SCF: Cycle: 24   F: -516.834159783134851   dF: -2.909e-07   |Residual|: 1.163e-04   |deigs|: 4.201e-04  t[s]:  12392.83
	FillingsUpdate:  mu: -0.111324092  nElectrons: 312.000000
SCF: Cycle: 25   F: -516.834160236907906   dF: -4.538e-07   |Residual|: 9.267e-05   |deigs|: 3.005e-04  t[s]:  12793.27
	FillingsUpdate:  mu: -0.111419976  nElectrons: 312.000000
SCF: Cycle: 26   F: -516.834160339531536   dF: -1.026e-07   |Residual|: 1.048e-04   |deigs|: 3.422e-04  t[s]:  13192.29
	FillingsUpdate:  mu: -0.111477866  nElectrons: 312.000000
SCF: Cycle: 27   F: -516.834160514596306   dF: -1.751e-07   |Residual|: 6.228e-05   |deigs|: 1.475e-04  t[s]:  13591.76
	FillingsUpdate:  mu: -0.111537434  nElectrons: 312.000000
SCF: Cycle: 28   F: -516.834160548697810   dF: -3.410e-08   |Residual|: 4.696e-05   |deigs|: 2.814e-04  t[s]:  13991.08
	FillingsUpdate:  mu: -0.111545619  nElectrons: 312.000000
SCF: Cycle: 29   F: -516.834160564949002   dF: -1.625e-08   |Residual|: 3.278e-05   |deigs|: 1.362e-04  t[s]:  14391.64
	FillingsUpdate:  mu: -0.111557298  nElectrons: 312.000000
SCF: Cycle: 30   F: -516.834160568116772   dF: -3.168e-09   |Residual|: 2.598e-05   |deigs|: 5.278e-05  t[s]:  14791.12
	FillingsUpdate:  mu: -0.111564731  nElectrons: 312.000000
SCF: Cycle: 31   F: -516.834160574504949   dF: -6.388e-09   |Residual|: 1.736e-05   |deigs|: 8.251e-05  t[s]:  15191.07
SCF: Converged (|Delta E|<1.000000e-08 for 2 iters).

Setting wave functions to eigenvectors of Hamiltonian
Vacuum energy after initial minimize, F = -516.834160574504949


-------- Electronic minimization -----------
Will mix electronic density at each iteration.
	FillingsUpdate:  mu: -0.111564731  nElectrons: 312.000000
	Linear fluid (dielectric constant: 64) occupying 0.893089 of unit cell:	Completed after 46 iterations at t[s]:  15239.11
	FillingsUpdate:  mu: -0.108026439  nElectrons: 312.000000
	Linear fluid (dielectric constant: 64) occupying 0.893598 of unit cell:	Completed after 38 iterations at t[s]:  15754.86
SCF: Cycle:  0   F: -516.973949952409612   dF: +1.351e-02   |Residual|: 1.167e-01   |deigs|: 4.668e-03  t[s]:  15755.96
	Linear fluid (dielectric constant: 64) occupying 0.893399 of unit cell:	Completed after 34 iterations at t[s]:  15767.74
	FillingsUpdate:  mu: -0.106188197  nElectrons: 312.000000
	Linear fluid (dielectric constant: 64) occupying 0.893231 of unit cell:	Completed after 32 iterations at t[s]:  16242.14
SCF: Cycle:  1   F: -517.038679788856030   dF: -6.473e-02   |Residual|: 4.151e-02   |deigs|: 4.494e-03  t[s]:  16243.18
	Linear fluid (dielectric constant: 64) occupying 0.893358 of unit cell:	Completed after 30 iterations at t[s]:  16253.82
	FillingsUpdate:  mu: -0.106822001  nElectrons: 312.000000
	Linear fluid (dielectric constant: 64) occupying 0.893283 of unit cell:	Completed after 32 iterations at t[s]:  16703.05
SCF: Cycle:  2   F: -517.038015404213411   dF: +6.644e-04   |Residual|: 2.847e-02   |deigs|: 1.289e-03  t[s]:  16704.17
	Linear fluid (dielectric constant: 64) occupying 0.893384 of unit cell:	Completed after 29 iterations at t[s]:  16715.11
	FillingsUpdate:  mu: -0.105580163  nElectrons: 312.000000
	Linear fluid (dielectric constant: 64) occupying 0.893332 of unit cell:	Completed after 28 iterations at t[s]:  17188.92
SCF: Cycle:  3   F: -517.038874838836136   dF: -8.594e-04   |Residual|: 2.483e-02   |deigs|: 2.015e-03  t[s]:  17189.94
	Linear fluid (dielectric constant: 64) occupying 0.893309 of unit cell:	Completed after 26 iterations at t[s]:  17199.59
	FillingsUpdate:  mu: -0.106320817  nElectrons: 312.000000
	Linear fluid (dielectric constant: 64) occupying 0.893303 of unit cell:	Completed after 28 iterations at t[s]:  17673.11
SCF: Cycle:  4   F: -517.040394630487185   dF: -1.520e-03   |Residual|: 1.485e-02   |deigs|: 8.315e-04  t[s]:  17674.26
	Linear fluid (dielectric constant: 64) occupying 0.893255 of unit cell:	Completed after 23 iterations at t[s]:  17683.01
	FillingsUpdate:  mu: -0.105395032  nElectrons: 312.000000
	Linear fluid (dielectric constant: 64) occupying 0.893247 of unit cell:	Completed after 24 iterations at t[s]:  18153.30
SCF: Cycle:  5   F: -517.039974445776693   dF: +4.202e-04   |Residual|: 1.592e-02   |deigs|: 1.029e-03  t[s]:  18154.43
	Linear fluid (dielectric constant: 64) occupying 0.893085 of unit cell:	Completed after 21 iterations at t[s]:  18162.55
	FillingsUpdate:  mu: -0.106001179  nElectrons: 312.000000
	Linear fluid (dielectric constant: 64) occupying 0.893171 of unit cell:	Completed after 20 iterations at t[s]:  18632.54
SCF: Cycle:  6   F: -517.041583262078689   dF: -1.609e-03   |Residual|: 6.274e-03   |deigs|: 5.553e-04  t[s]:  18633.55
	Linear fluid (dielectric constant: 64) occupying 0.892894 of unit cell:	Completed after 20 iterations at t[s]:  18641.34
	FillingsUpdate:  mu: -0.106383585  nElectrons: 312.000000
	Linear fluid (dielectric constant: 64) occupying 0.893124 of unit cell:	Completed after 22 iterations at t[s]:  19052.14
SCF: Cycle:  7   F: -517.041445504599778   dF: +1.378e-04   |Residual|: 7.462e-03   |deigs|: 5.798e-04  t[s]:  19053.28
	Linear fluid (dielectric constant: 64) occupying 0.892846 of unit cell:	Completed after 22 iterations at t[s]:  19061.68
	FillingsUpdate:  mu: -0.106592097  nElectrons: 312.000000
	Linear fluid (dielectric constant: 64) occupying 0.893112 of unit cell:	Completed after 22 iterations at t[s]:  19471.72
SCF: Cycle:  8   F: -517.041530389711284   dF: -8.489e-05   |Residual|: 6.650e-03   |deigs|: 5.988e-04  t[s]:  19472.74
	Linear fluid (dielectric constant: 64) occupying 0.892902 of unit cell:	Completed after 21 iterations at t[s]:  19480.90
	FillingsUpdate:  mu: -0.106749645  nElectrons: 312.000000
	Linear fluid (dielectric constant: 64) occupying 0.893118 of unit cell:	Completed after 21 iterations at t[s]:  19891.49
SCF: Cycle:  9   F: -517.041510155899687   dF: +2.023e-05   |Residual|: 6.698e-03   |deigs|: 5.513e-04  t[s]:  19892.53
	Linear fluid (dielectric constant: 64) occupying 0.892952 of unit cell:	Completed after 20 iterations at t[s]:  19900.49
	FillingsUpdate:  mu: -0.106765397  nElectrons: 312.000000
	Linear fluid (dielectric constant: 64) occupying 0.893123 of unit cell:	Completed after 20 iterations at t[s]:  20302.20
SCF: Cycle: 10   F: -517.041634261384274   dF: -1.241e-04   |Residual|: 5.378e-03   |deigs|: 3.772e-04  t[s]:  20303.22
	Linear fluid (dielectric constant: 64) occupying 0.893063 of unit cell:	Completed after 20 iterations at t[s]:  20311.01
	FillingsUpdate:  mu: -0.106645808  nElectrons: 312.000000
	Linear fluid (dielectric constant: 64) occupying 0.893131 of unit cell:	Completed after 15 iterations at t[s]:  20710.86
SCF: Cycle: 11   F: -517.041840496738246   dF: -2.062e-04   |Residual|: 1.665e-03   |deigs|: 8.349e-04  t[s]:  20711.99
	Linear fluid (dielectric constant: 64) occupying 0.893071 of unit cell:	Completed after 14 iterations at t[s]:  20717.84
	FillingsUpdate:  mu: -0.106660594  nElectrons: 312.000000
	Linear fluid (dielectric constant: 64) occupying 0.893135 of unit cell:	Completed after 14 iterations at t[s]:  21117.89
SCF: Cycle: 12   F: -517.041847174597933   dF: -6.678e-06   |Residual|: 1.282e-03   |deigs|: 5.691e-04  t[s]:  21118.91
	Linear fluid (dielectric constant: 64) occupying 0.893063 of unit cell:	Completed after 12 iterations at t[s]:  21124.02
	FillingsUpdate:  mu: -0.106694374  nElectrons: 312.000000
	Linear fluid (dielectric constant: 64) occupying 0.893140 of unit cell:	Completed after 11 iterations at t[s]:  21522.85
SCF: Cycle: 13   F: -517.041850426561496   dF: -3.252e-06   |Residual|: 1.038e-03   |deigs|: 5.460e-04  t[s]:  21523.95
	Linear fluid (dielectric constant: 64) occupying 0.893060 of unit cell:	Completed after 7 iterations at t[s]:  21527.55
	FillingsUpdate:  mu: -0.106715289  nElectrons: 312.000000
	Linear fluid (dielectric constant: 64) occupying 0.893144 of unit cell:	Completed after 5 iterations at t[s]:  21925.87
SCF: Cycle: 14   F: -517.041849854155544   dF: +5.724e-07   |Residual|: 9.024e-04   |deigs|: 3.767e-04  t[s]:  21926.90
	Linear fluid (dielectric constant: 64) occupying 0.893076 of unit cell:	Completed after 9 iterations at t[s]:  21931.11
	FillingsUpdate:  mu: -0.106701275  nElectrons: 312.000000
	Linear fluid (dielectric constant: 64) occupying 0.893142 of unit cell:	Completed after 7 iterations at t[s]:  22336.83
SCF: Cycle: 15   F: -517.041849589383560   dF: +2.648e-07   |Residual|: 7.606e-04   |deigs|: 6.260e-04  t[s]:  22337.90
	Linear fluid (dielectric constant: 64) occupying 0.893111 of unit cell:	Completed after 4 iterations at t[s]:  22340.52
	FillingsUpdate:  mu: -0.106724985  nElectrons: 312.000000
	Linear fluid (dielectric constant: 64) occupying 0.893144 of unit cell:	Completed after 4 iterations at t[s]:  22746.01
SCF: Cycle: 16   F: -517.041852047416114   dF: -2.458e-06   |Residual|: 5.779e-04   |deigs|: 4.354e-04  t[s]:  22747.09
	Linear fluid (dielectric constant: 64) occupying 0.893141 of unit cell:	Completed after 4 iterations at t[s]:  22749.79
	FillingsUpdate:  mu: -0.106721963  nElectrons: 312.000000
	Linear fluid (dielectric constant: 64) occupying 0.893146 of unit cell:	Completed after 5 iterations at t[s]:  23145.97
SCF: Cycle: 17   F: -517.041851709420371   dF: +3.380e-07   |Residual|: 5.767e-04   |deigs|: 4.843e-04  t[s]:  23146.98
	Linear fluid (dielectric constant: 64) occupying 0.893140 of unit cell:	Completed after 5 iterations at t[s]:  23150.07
	FillingsUpdate:  mu: -0.106751620  nElectrons: 312.000000
	Linear fluid (dielectric constant: 64) occupying 0.893147 of unit cell:	Completed after 5 iterations at t[s]:  23547.14
SCF: Cycle: 18   F: -517.041852879258272   dF: -1.170e-06   |Residual|: 4.167e-04   |deigs|: 3.324e-04  t[s]:  23548.14
	Linear fluid (dielectric constant: 64) occupying 0.893143 of unit cell:	Completed after 3 iterations at t[s]:  23550.49
	FillingsUpdate:  mu: -0.106737791  nElectrons: 312.000000
	Linear fluid (dielectric constant: 64) occupying 0.893149 of unit cell:	Completed after 7 iterations at t[s]:  23948.40
SCF: Cycle: 19   F: -517.041850547023614   dF: +2.332e-06   |Residual|: 6.607e-04   |deigs|: 2.619e-04  t[s]:  23949.45
	Linear fluid (dielectric constant: 64) occupying 0.893134 of unit cell:	Completed after 5 iterations at t[s]:  23952.54
	FillingsUpdate:  mu: -0.106770061  nElectrons: 312.000000
	Linear fluid (dielectric constant: 64) occupying 0.893149 of unit cell:	Completed after 5 iterations at t[s]:  24349.76
SCF: Cycle: 20   F: -517.041852756342109   dF: -2.209e-06   |Residual|: 3.932e-04   |deigs|: 2.551e-04  t[s]:  24350.75
	Linear fluid (dielectric constant: 64) occupying 0.893139 of unit cell:	Completed after 3 iterations at t[s]:  24353.21
	FillingsUpdate:  mu: -0.106736838  nElectrons: 312.000000
	Linear fluid (dielectric constant: 64) occupying 0.893151 of unit cell:	Completed after 7 iterations at t[s]:  24750.30
SCF: Cycle: 21   F: -517.041851224331253   dF: +1.532e-06   |Residual|: 5.577e-04   |deigs|: 1.101e-04  t[s]:  24751.29
	Linear fluid (dielectric constant: 64) occupying 0.893137 of unit cell:	Completed after 5 iterations at t[s]:  24754.36
	FillingsUpdate:  mu: -0.106773685  nElectrons: 312.000000
	Linear fluid (dielectric constant: 64) occupying 0.893149 of unit cell:	Completed after 5 iterations at t[s]:  25151.18
SCF: Cycle: 22   F: -517.041852333587826   dF: -1.109e-06   |Residual|: 4.455e-04   |deigs|: 2.322e-04  t[s]:  25152.19
	Linear fluid (dielectric constant: 64) occupying 0.893148 of unit cell:	Completed after 3 iterations at t[s]:  25154.53
	FillingsUpdate:  mu: -0.106737798  nElectrons: 312.000000
	Linear fluid (dielectric constant: 64) occupying 0.893151 of unit cell:	Completed after 7 iterations at t[s]:  25552.13
SCF: Cycle: 23   F: -517.041851121421132   dF: +1.212e-06   |Residual|: 5.648e-04   |deigs|: 1.961e-04  t[s]:  25553.21
	Linear fluid (dielectric constant: 64) occupying 0.893149 of unit cell:	Completed after 5 iterations at t[s]:  25556.34
	FillingsUpdate:  mu: -0.106767349  nElectrons: 312.000000
	Linear fluid (dielectric constant: 64) occupying 0.893149 of unit cell:	Completed after 4 iterations at t[s]:  25953.00
SCF: Cycle: 24   F: -517.041853620562961   dF: -2.499e-06   |Residual|: 1.628e-04   |deigs|: 1.183e-04  t[s]:  25954.01
	Linear fluid (dielectric constant: 64) occupying 0.893152 of unit cell:	Completed after 2 iterations at t[s]:  25956.01
	FillingsUpdate:  mu: -0.106749529  nElectrons: 312.000000
	Linear fluid (dielectric constant: 64) occupying 0.893151 of unit cell:	Completed after 7 iterations at t[s]:  26353.73
SCF: Cycle: 25   F: -517.041851637543004   dF: +1.983e-06   |Residual|: 5.193e-04   |deigs|: 1.962e-04  t[s]:  26354.73
	Linear fluid (dielectric constant: 64) occupying 0.893151 of unit cell:	Completed after 4 iterations at t[s]:  26357.39
	FillingsUpdate:  mu: -0.106772203  nElectrons: 312.000000
	Linear fluid (dielectric constant: 64) occupying 0.893149 of unit cell:	Completed after 4 iterations at t[s]:  26754.17
SCF: Cycle: 26   F: -517.041853051433918   dF: -1.414e-06   |Residual|: 3.141e-04   |deigs|: 1.564e-04  t[s]:  26755.18
	Linear fluid (dielectric constant: 64) occupying 0.893152 of unit cell:	Completed after 3 iterations at t[s]:  26757.64
	FillingsUpdate:  mu: -0.106746925  nElectrons: 312.000000
	Linear fluid (dielectric constant: 64) occupying 0.893151 of unit cell:	Completed after 3 iterations at t[s]:  27152.68
SCF: Cycle: 27   F: -517.041852598756464   dF: +4.527e-07   |Residual|: 4.139e-04   |deigs|: 5.852e-05  t[s]:  27153.68
	Linear fluid (dielectric constant: 64) occupying 0.893151 of unit cell:	Completed after 3 iterations at t[s]:  27156.00
	FillingsUpdate:  mu: -0.106781200  nElectrons: 312.000000
	Linear fluid (dielectric constant: 64) occupying 0.893151 of unit cell:	Completed after 4 iterations at t[s]:  27553.15
SCF: Cycle: 28   F: -517.041853167871409   dF: -5.691e-07   |Residual|: 3.029e-04   |deigs|: 8.343e-05  t[s]:  27554.21
	Linear fluid (dielectric constant: 64) occupying 0.893151 of unit cell:	Completed after 2 iterations at t[s]:  27556.27
	FillingsUpdate:  mu: -0.106754182  nElectrons: 312.000000
	Linear fluid (dielectric constant: 64) occupying 0.893150 of unit cell:	Completed after 5 iterations at t[s]:  27825.49
SCF: Cycle: 29   F: -517.041852329121525   dF: +8.387e-07   |Residual|: 4.447e-04   |deigs|: 1.976e-05  t[s]:  27826.52
	Linear fluid (dielectric constant: 64) occupying 0.893150 of unit cell:	Completed after 4 iterations at t[s]:  27829.31
	FillingsUpdate:  mu: -0.106776594  nElectrons: 312.000000
	Linear fluid (dielectric constant: 64) occupying 0.893150 of unit cell:	Completed after 3 iterations at t[s]:  28226.15
SCF: Cycle: 30   F: -517.041853348786162   dF: -1.020e-06   |Residual|: 2.620e-04   |deigs|: 1.265e-04  t[s]:  28227.25
	Linear fluid (dielectric constant: 64) occupying 0.893149 of unit cell:	Completed after 3 iterations at t[s]:  28229.61
	FillingsUpdate:  mu: -0.106752588  nElectrons: 312.000000
	Linear fluid (dielectric constant: 64) occupying 0.893151 of unit cell:	Completed after 5 iterations at t[s]:  28625.56
SCF: Cycle: 31   F: -517.041852928010712   dF: +4.208e-07   |Residual|: 3.420e-04   |deigs|: 6.250e-05  t[s]:  28626.55
	Linear fluid (dielectric constant: 64) occupying 0.893149 of unit cell:	Completed after 3 iterations at t[s]:  28628.88
	FillingsUpdate:  mu: -0.106777572  nElectrons: 312.000000
	Linear fluid (dielectric constant: 64) occupying 0.893150 of unit cell:	Completed after 3 iterations at t[s]:  28897.53
SCF: Cycle: 32   F: -517.041853409063378   dF: -4.811e-07   |Residual|: 2.528e-04   |deigs|: 2.509e-05  t[s]:  28898.54
	Linear fluid (dielectric constant: 64) occupying 0.893149 of unit cell:	Completed after 3 iterations at t[s]:  28900.97
	FillingsUpdate:  mu: -0.106753860  nElectrons: 312.000000
	Linear fluid (dielectric constant: 64) occupying 0.893151 of unit cell:	Completed after 3 iterations at t[s]:  29297.72
SCF: Cycle: 33   F: -517.041853243381411   dF: +1.657e-07   |Residual|: 2.961e-04   |deigs|: 6.803e-05  t[s]:  29298.77
	Linear fluid (dielectric constant: 64) occupying 0.893149 of unit cell:	Completed after 4 iterations at t[s]:  29301.44
	FillingsUpdate:  mu: -0.106775243  nElectrons: 312.000000
	Linear fluid (dielectric constant: 64) occupying 0.893151 of unit cell:	Completed after 3 iterations at t[s]:  29697.51
SCF: Cycle: 34   F: -517.041853468027398   dF: -2.246e-07   |Residual|: 2.375e-04   |deigs|: 2.357e-05  t[s]:  29698.58
	Linear fluid (dielectric constant: 64) occupying 0.893150 of unit cell:	Completed after 3 iterations at t[s]:  29700.97
	FillingsUpdate:  mu: -0.106753317  nElectrons: 312.000000
	Linear fluid (dielectric constant: 64) occupying 0.893151 of unit cell:	Completed after 3 iterations at t[s]:  30097.47
SCF: Cycle: 35   F: -517.041853229667254   dF: +2.384e-07   |Residual|: 2.999e-04   |deigs|: 2.220e-05  t[s]:  30098.56
	Linear fluid (dielectric constant: 64) occupying 0.893150 of unit cell:	Completed after 3 iterations at t[s]:  30100.92
	FillingsUpdate:  mu: -0.106779310  nElectrons: 312.000000
	Linear fluid (dielectric constant: 64) occupying 0.893151 of unit cell:	Completed after 3 iterations at t[s]:  30501.20
SCF: Cycle: 36   F: -517.041853158374352   dF: +7.129e-08   |Residual|: 3.165e-04   |deigs|: 2.553e-05  t[s]:  30502.31
	Linear fluid (dielectric constant: 64) occupying 0.893150 of unit cell:	Completed after 3 iterations at t[s]:  30504.69
	FillingsUpdate:  mu: -0.106750482  nElectrons: 312.000000
	Linear fluid (dielectric constant: 64) occupying 0.893151 of unit cell:	Completed after 5 iterations at t[s]:  30901.66
SCF: Cycle: 37   F: -517.041852749233044   dF: +4.091e-07   |Residual|: 3.747e-04   |deigs|: 3.482e-05  t[s]:  30902.65
	Linear fluid (dielectric constant: 64) occupying 0.893150 of unit cell:	Completed after 3 iterations at t[s]:  30905.02
	FillingsUpdate:  mu: -0.106777567  nElectrons: 312.000000
	Linear fluid (dielectric constant: 64) occupying 0.893150 of unit cell:	Completed after 3 iterations at t[s]:  31174.38
SCF: Cycle: 38   F: -517.041853399694901   dF: -6.505e-07   |Residual|: 2.485e-04   |deigs|: 2.478e-05  t[s]:  31175.44
	Linear fluid (dielectric constant: 64) occupying 0.893151 of unit cell:	Completed after 3 iterations at t[s]:  31177.83
	FillingsUpdate:  mu: -0.106751366  nElectrons: 312.000000
	Linear fluid (dielectric constant: 64) occupying 0.893151 of unit cell:	Completed after 3 iterations at t[s]:  31446.01
SCF: Cycle: 39   F: -517.041853090771269   dF: +3.089e-07   |Residual|: 3.334e-04   |deigs|: 2.518e-05  t[s]:  31447.15
	Linear fluid (dielectric constant: 64) occupying 0.893151 of unit cell:	Completed after 4 iterations at t[s]:  31449.99
	FillingsUpdate:  mu: -0.106773205  nElectrons: 312.000000
	Linear fluid (dielectric constant: 64) occupying 0.893150 of unit cell:	Completed after 3 iterations at t[s]:  31718.26
SCF: Cycle: 40   F: -517.041853643643549   dF: -5.529e-07   |Residual|: 1.781e-04   |deigs|: 1.977e-05  t[s]:  31719.38
	Linear fluid (dielectric constant: 64) occupying 0.893151 of unit cell:	Completed after 2 iterations at t[s]:  31721.60
	FillingsUpdate:  mu: -0.106753399  nElectrons: 312.000000
	Linear fluid (dielectric constant: 64) occupying 0.893150 of unit cell:	Completed after 4 iterations at t[s]:  32117.33
SCF: Cycle: 41   F: -517.041852045691485   dF: +1.598e-06   |Residual|: 5.002e-04   |deigs|: 4.215e-05  t[s]:  32118.34
	Linear fluid (dielectric constant: 64) occupying 0.893151 of unit cell:	Completed after 4 iterations at t[s]:  32120.96
	FillingsUpdate:  mu: -0.106774677  nElectrons: 312.000000
	Linear fluid (dielectric constant: 64) occupying 0.893150 of unit cell:	Completed after 3 iterations at t[s]:  32389.12
SCF: Cycle: 42   F: -517.041853309573185   dF: -1.264e-06   |Residual|: 2.661e-04   |deigs|: 3.294e-05  t[s]:  32390.23
	Linear fluid (dielectric constant: 64) occupying 0.893151 of unit cell:	Completed after 3 iterations at t[s]:  32392.57
	FillingsUpdate:  mu: -0.106750637  nElectrons: 312.000000
	Linear fluid (dielectric constant: 64) occupying 0.893151 of unit cell:	Completed after 3 iterations at t[s]:  32661.04
SCF: Cycle: 43   F: -517.041852872757545   dF: +4.368e-07   |Residual|: 3.753e-04   |deigs|: 2.669e-05  t[s]:  32662.14
	Linear fluid (dielectric constant: 64) occupying 0.893151 of unit cell:	Completed after 3 iterations at t[s]:  32664.58
	FillingsUpdate:  mu: -0.106778555  nElectrons: 312.000000
	Linear fluid (dielectric constant: 64) occupying 0.893151 of unit cell:	Completed after 3 iterations at t[s]:  33059.92
SCF: Cycle: 44   F: -517.041853473521314   dF: -6.008e-07   |Residual|: 2.309e-04   |deigs|: 4.869e-05  t[s]:  33061.03
	Linear fluid (dielectric constant: 64) occupying 0.893151 of unit cell:	Completed after 2 iterations at t[s]:  33063.08
	FillingsUpdate:  mu: -0.106752314  nElectrons: 312.000000
	Linear fluid (dielectric constant: 64) occupying 0.893151 of unit cell:	Completed after 5 iterations at t[s]:  33458.55
SCF: Cycle: 45   F: -517.041852865895862   dF: +6.076e-07   |Residual|: 3.645e-04   |deigs|: 5.547e-05  t[s]:  33459.60
	Linear fluid (dielectric constant: 64) occupying 0.893151 of unit cell:	Completed after 3 iterations at t[s]:  33462.03
	FillingsUpdate:  mu: -0.106776370  nElectrons: 312.000000
	Linear fluid (dielectric constant: 64) occupying 0.893151 of unit cell:	Completed after 3 iterations at t[s]:  33730.52
SCF: Cycle: 46   F: -517.041853526307591   dF: -6.604e-07   |Residual|: 2.165e-04   |deigs|: 1.857e-05  t[s]:  33731.62
	Linear fluid (dielectric constant: 64) occupying 0.893151 of unit cell:	Completed after 2 iterations at t[s]:  33733.73
	FillingsUpdate:  mu: -0.106749122  nElectrons: 312.000000
	Linear fluid (dielectric constant: 64) occupying 0.893151 of unit cell:	Completed after 5 iterations at t[s]:  34003.19
SCF: Cycle: 47   F: -517.041852131859400   dF: +1.394e-06   |Residual|: 4.744e-04   |deigs|: 2.342e-05  t[s]:  34004.19
	Linear fluid (dielectric constant: 64) occupying 0.893151 of unit cell:	Completed after 4 iterations at t[s]:  34007.05
	FillingsUpdate:  mu: -0.106774236  nElectrons: 312.000000
	Linear fluid (dielectric constant: 64) occupying 0.893150 of unit cell:	Completed after 3 iterations at t[s]:  34275.46
SCF: Cycle: 48   F: -517.041853344659899   dF: -1.213e-06   |Residual|: 2.612e-04   |deigs|: 2.657e-05  t[s]:  34276.65
	Linear fluid (dielectric constant: 64) occupying 0.893151 of unit cell:	Completed after 3 iterations at t[s]:  34279.16
	FillingsUpdate:  mu: -0.106747364  nElectrons: 312.000000
	Linear fluid (dielectric constant: 64) occupying 0.893151 of unit cell:	Completed after 5 iterations at t[s]:  34548.41
SCF: Cycle: 49   F: -517.041852459469169   dF: +8.852e-07   |Residual|: 4.231e-04   |deigs|: 1.887e-05  t[s]:  34549.43
	Linear fluid (dielectric constant: 64) occupying 0.893151 of unit cell:	Completed after 3 iterations at t[s]:  34551.76
Setting wave functions to eigenvectors of Hamiltonian
Single-point solvation energy estimate, DeltaF = -0.206755972177803

# Ionic positions in cartesian coordinates:
ion C  28.001738171729979  -0.006228724804273  13.958100972732892 1
ion C  16.333220082827495  20.205025705756743  13.959650963095390 1
ion C   2.329968751276316   4.036074509062764  13.950857251245587 1
ion C  23.333613335638383  -0.006183059974108  13.962132829555760 1
ion C   4.664052379181524  -0.006369651352263  13.957227956583225 1
ion C  11.664948598138478  20.205168511496851  13.955775868050910 1
ion C  25.667704023734700   4.036057991327952  13.960772118924355 1
ion C  18.667040773587821  16.162788033636065  13.962657030076141 1
ion C   4.663844416872585   8.078391621643091  13.938076499402714 1
ion C  18.666254165298795  -0.006303766466116  13.963465135605022 1
ion C   9.331817211144267  -0.006637244498587  13.959998904836024 1
ion C   9.331224620497785  16.162649322005070  13.943919176859170 1
ion C  23.333955499051250   8.078239414752730  13.961790366947588 1
ion C  21.000619298287432  12.120587665036531  13.960753371270220 1
ion C   6.997790694933661  12.120501454706890  13.938623083597545 1
ion C  13.999158576947332  -0.006454911089280  13.959634580675885 1
ion C  13.999129058118124  16.162588221482196  13.952566482526153 1
ion C   6.997734179087095   4.035866302050130  13.948586895983301 1
ion C  21.000076951790316   4.035768857895674  13.965275073190890 1
ion C  16.332941575315743  12.120549242285300  13.955455644778475 1
ion C   9.331324651273409   8.078386985436374  13.942469339378562 1
ion C  16.332843420866059   4.035462810292066  13.959753051638780 1
ion C  11.665261353449711   4.035801307378563  13.951990674287869 1
ion C  11.664856499903788  12.120473274654088  13.942163508223588 1
ion C  18.666627161384280   8.078026909989580  13.960488899273429 1
ion C   6.996944599246570  20.205433076073579  13.955787619971650 1
ion C  -7.005036089617635  20.204994170737358  13.964448454251999 1
ion C  -0.003946868284630   8.078496027989971  13.950433020505539 1
ion C  13.999094778307409   8.077984831927719  13.951913208856181 1
ion C   2.329812295907299  20.205360531292470  13.957641825698127 1
ion C  -4.671483173651483  16.162864970129640  13.962361229260583 1
ion C   2.329868863634800  12.120557089833788  13.945325109721251 1
ion C  -2.337838637258221  12.120616229023131  13.955634342743199 1
ion C  -2.337606425770826  20.205208979885228  13.962876290277295 1
ion C   4.663584182958081  16.162991079517667  13.948653571728725 1
ion C  -0.004159073484132  16.163212669285855  13.955555052645945 1
ion C  13.998995445181377  21.552457795238119  13.957460066162755 1
ion C   2.329963352926791   1.340977859906396  13.954946700674698 1
ion C  25.667558638837416   1.341213865681831  13.959852414169186 1
ion C  16.333007913979053  17.510118199761141  13.959362486397934 1
ion C   4.663835792073479   5.383758985148290  13.943626614316468 1
ion C  20.999914116308869   1.341194137145680  13.964453962468326 1
ion C   6.998078736015959   1.340764378845552  13.955370977031242 1
ion C  11.665030123016038  17.510065445005431  13.949264869898583 1
ion C  23.333864594906636   5.383377458693738  13.963045849751699 1
ion C  18.666781404039810  13.467918769178187  13.960698520961342 1
ion C   6.997297634746996   9.425641802177459  13.936451758056183 1
ion C  16.332554995200148   1.340980853160816  13.961406520280795 1
ion C  11.665360969061981   1.340858251301133  13.956948466062759 1
ion C   9.331384801762168  13.468117310689285  13.938106381474874 1
ion C  21.000162998846896   9.425553830622023  13.961218761199882 1
ion C   9.330982090921138  21.552678133007166  13.957433691783050 1
ion C  -9.338711227035709  21.552402289674493  13.960558805656966 1
ion C  -0.004300079810013   5.383500021836960  13.953277127490029 1
ion C  13.998851522125690  13.467752574358629  13.948884616198173 1
ion C   9.331547605520626   5.383337350546001  13.946237270516212 1
ion C  18.666411392811902   5.383186269747209  13.961966475363681 1
ion C  16.332952177398088   9.425554932563866  13.955641611361832 1
ion C  11.665323223573898   9.425728018311357  13.944719065295560 1
ion C  13.999111580110212   5.382921928589453  13.953739891527308 1
ion C   4.663212071335995  21.552852331281322  13.959605692432962 1
ion C  -7.005159394703696  17.510294577289756  13.964564571377482 1
ion C   2.330238098425715   9.425744054787932  13.941287986506817 1
ion C  -2.338144176641904   9.425597474982743  13.955940008497537 1
ion C  -4.671213834352253  21.552490400726089  13.963643493416257 1
ion C   6.997480916650217  17.510271244140842  13.947714910594629 1
ion C  -0.004088753447119  21.552627915227909  13.960334448389148 1
ion C  -4.671577521601819  13.468060026983498  13.959710349364368 1
ion C   4.663667561890854  13.468003536490237  13.943060929721936 1
ion C   2.329790302073841  17.510436185675264  13.953205861326330 1
ion C  -2.337903945409773  17.510636208091206  13.960676274199523 1
ion C  -0.003994088787859  13.468124546843244  13.951536870987479 1
ion S   7.547879655261107  12.008472948846125  21.649144251536924 1
ion Na   2.091287985999344  11.200877024603512  19.559296668305223 1
ion Na  12.818356486600733  11.638134570094143  19.328380591107539 1

# Forces in Cartesian coordinates:
force C  -0.000026944807254  -0.000045362574453  -0.000092533058845 1
force C  -0.000149873060269   0.000044032092867  -0.000069957293557 1
force C  -0.000043981917349  -0.000030459410550  -0.000114039067020 1
force C   0.000153798080631  -0.000026169009634  -0.000105915135669 1
force C  -0.000030381814919  -0.000018327483985  -0.000062660414538 1
force C   0.000038345840672  -0.000025228953444  -0.000147860049059 1
force C   0.000005780455440  -0.000035097361996  -0.000192314460963 1
force C  -0.000125732292693   0.000025205464502  -0.000087938816076 1
force C   0.000052106699202   0.000019915685885  -0.000287926294718 1
force C   0.000002540821686   0.000054730931906  -0.000091488869956 1
force C  -0.000070458053415   0.000090766375895  -0.000153111156307 1
force C  -0.000026133493012  -0.000027788081352  -0.000235268855843 1
force C  -0.000060218398808  -0.000096304052346  -0.000149201192153 1
force C  -0.000101605445692  -0.000093233970358   0.000020364757070 1
force C  -0.000173102713130   0.000089004462557  -0.000815335572849 1
force C  -0.000154540846082   0.000032952821003   0.000031507063705 1
force C  -0.000083198968251   0.000041427350766  -0.000129401635030 1
force C  -0.000016636971093   0.000016480522203  -0.000115984987253 1
force C   0.000042429411127   0.000110789017485  -0.000152405751814 1
force C   0.000070905738347   0.000043733321339  -0.000600051213407 1
force C  -0.000047396902239  -0.000053460473609  -0.000403895111296 1
force C  -0.000062663689607   0.000138882971246  -0.000051532996248 1
force C  -0.000024067277402  -0.000068372653305   0.000003527750490 1
force C  -0.000260940300725   0.000249387348131  -0.003612777543097 1
force C  -0.000003191357251  -0.000022340251793  -0.000048258657782 1
force C   0.000164262907700  -0.000172423795034  -0.000101788885357 1
force C   0.000012888518916   0.000080653114868  -0.000119569313472 1
force C   0.000062791291367  -0.000123115531547  -0.000367674767558 1
force C  -0.000071190319195  -0.000127927914211  -0.000559090047508 1
force C  -0.000106493296787  -0.000048045959354   0.000025218159522 1
force C  -0.000005529172939   0.000045061521256  -0.000050089705995 1
force C   0.000203260215907   0.000236516103969  -0.002917126709043 1
force C  -0.000027023374069   0.000012073636636  -0.000092003038325 1
force C  -0.000043208180717   0.000042446961661  -0.000119712275971 1
force C   0.000086381609887  -0.000143792979281  -0.000268541718627 1
force C   0.000067934156080  -0.000092749933405  -0.000066765204604 1
force C   0.000006596078546   0.000032344682756   0.000089428178670 1
force C   0.000021459183650   0.000068616699922   0.000083709653009 1
force C   0.000099305290782  -0.000072788508428   0.000127602724861 1
force C   0.000063779336407   0.000027491455062  -0.000024004122512 1
force C   0.000006535454214  -0.000273893977056   0.000203802708772 1
force C   0.000022017547022  -0.000108406134716   0.000005913778728 1
force C  -0.000142743622481   0.000129944941382   0.000050871967674 1
force C  -0.000013283518156   0.000095804356303   0.000153785290946 1
force C   0.000008339734185  -0.000019822735401   0.000053237586075 1
force C   0.000052770550050   0.000062922725178  -0.000053441886411 1
force C   0.000246606271118   0.000252324519481  -0.000199567138160 1
force C   0.000102369621005  -0.000063945833327  -0.000027317641874 1
force C   0.000036514002971   0.000050761744342   0.000055580487061 1
force C  -0.000181885078125  -0.000150726149060  -0.000525532762829 1
force C   0.000104630108727   0.000088563605929   0.000027747795369 1
force C  -0.000022910574580  -0.000031819659933   0.000088570038810 1
force C  -0.000093014676042   0.000041107469395   0.000097753855279 1
force C   0.000155465223264  -0.000072204667714   0.000090485335907 1
force C   0.000104081520703   0.000301892650466  -0.001972039439128 1
force C  -0.000033456802541   0.000071742160282   0.000147602179443 1
force C   0.000024905797138  -0.000028509102058   0.000065644669666 1
force C   0.000057207270199  -0.000041706613657  -0.000217191188071 1
force C  -0.000334829348884  -0.000249784110103  -0.001734824514900 1
force C  -0.000033660388809   0.000070264498561   0.000101971072824 1
force C   0.000114904671106  -0.000093761756312  -0.000039705381747 1
force C   0.000007426326418  -0.000046572908493  -0.000029861658093 1
force C  -0.000170501895584  -0.000061703480171  -0.001530124860507 1
force C   0.000096950150570   0.000074047951140  -0.000002785192777 1
force C  -0.000062166574385  -0.000048628313658  -0.000006888703708 1
force C  -0.000086817258090   0.000062565838691   0.000190114711512 1
force C   0.000142123327924  -0.000033783932323   0.000020125839305 1
force C  -0.000007819256805   0.000037918423139   0.000048803918807 1
force C   0.000213221240238  -0.000049720366733  -0.000826289013092 1
force C   0.000070019202911   0.000064326500868   0.000125420730548 1
force C   0.000031241923712  -0.000120173313941   0.000040525005931 1
force C   0.000063054652788   0.000040287652225  -0.000524226896947 1
force S  -0.000367624181219   0.000946981390633   0.005979781714499 1
force Na  -0.004416004422711  -0.000690371223338   0.004620943502071 1
force Na   0.004872715748663  -0.000412063143186   0.006827803525134 1

# Energy components:
   A_diel =       -0.2684463875573790
   Eewald =     4591.3934618686671456
       EH =     4993.7038380836602300
     Eloc =   -10129.9005756554524851
      Enl =      -84.1140303193695331
      Exc =     -149.3239137107856038
 Exc_core =        4.1924003145521258
       KE =      257.3519531258615984
-------------------------------------
     Etot =     -516.9653126804239491
       TS =        0.0756038662587760
-------------------------------------
        F =     -517.0409165466827517

IonicMinimize: Iter:   0  F: -517.040916546682752  |grad|_K:  9.060e-04  alpha:  1.000e+00

#--- Lowdin population analysis ---
# oxidation-state C +0.034 +0.034 +0.033 +0.034 +0.034 +0.034 +0.034 +0.033 +0.033 +0.034 +0.034 +0.034 +0.033 +0.033 +0.036 +0.034 +0.033 +0.034 +0.034 +0.031 +0.033 +0.034 +0.033 +0.030 +0.033 +0.034 +0.034 +0.032 +0.032 +0.034 +0.033 +0.032 +0.032 +0.034 +0.033 +0.033 +0.034 +0.034 +0.034 +0.033 +0.033 +0.034 +0.034 +0.033 +0.034 +0.033 +0.033 +0.034 +0.034 +0.035 +0.033 +0.034 +0.034 +0.033 +0.031 +0.034 +0.034 +0.031 +0.032 +0.033 +0.034 +0.034 +0.032 +0.031 +0.034 +0.034 +0.034 +0.033 +0.034 +0.033 +0.034 +0.032
# oxidation-state S -1.162
# oxidation-state Na +0.922 +0.916


-------- Electronic minimization -----------
Will mix electronic density at each iteration.
	FillingsUpdate:  mu: -0.106747364  nElectrons: 312.000000
	Linear fluid (dielectric constant: 64) occupying 0.893143 of unit cell:	Completed after 13 iterations at t[s]:  34780.43
	FillingsUpdate:  mu: -0.106851544  nElectrons: 312.000000
	Linear fluid (dielectric constant: 64) occupying 0.893142 of unit cell:	Completed after 15 iterations at t[s]:  35091.13
SCF: Cycle:  0   F: -517.041954768403343   dF: +7.423e-05   |Residual|: 3.588e-03   |deigs|: 7.156e-07  t[s]:  35092.06
	Linear fluid (dielectric constant: 64) occupying 0.893153 of unit cell:	Completed after 12 iterations at t[s]:  35096.84
	FillingsUpdate:  mu: -0.106708892  nElectrons: 312.000000
	Linear fluid (dielectric constant: 64) occupying 0.893143 of unit cell:	Completed after 13 iterations at t[s]:  35368.40
SCF: Cycle:  1   F: -517.041987723539933   dF: -3.296e-05   |Residual|: 2.961e-03   |deigs|: 1.478e-04  t[s]:  35369.36
	Linear fluid (dielectric constant: 64) occupying 0.893149 of unit cell:	Completed after 11 iterations at t[s]:  35373.79
	FillingsUpdate:  mu: -0.106739222  nElectrons: 312.000000
	Linear fluid (dielectric constant: 64) occupying 0.893139 of unit cell:	Completed after 8 iterations at t[s]:  35643.68
SCF: Cycle:  2   F: -517.042036085538257   dF: -4.836e-05   |Residual|: 4.968e-04   |deigs|: 9.600e-05  t[s]:  35644.66
	Linear fluid (dielectric constant: 64) occupying 0.893148 of unit cell:	Completed after 5 iterations at t[s]:  35647.43
	FillingsUpdate:  mu: -0.106750912  nElectrons: 312.000000
	Linear fluid (dielectric constant: 64) occupying 0.893142 of unit cell:	Completed after 4 iterations at t[s]:  35916.14
SCF: Cycle:  3   F: -517.042037214072593   dF: -1.129e-06   |Residual|: 2.677e-04   |deigs|: 4.017e-05  t[s]:  35917.16
	Linear fluid (dielectric constant: 64) occupying 0.893147 of unit cell:	Completed after 2 iterations at t[s]:  35919.01
	FillingsUpdate:  mu: -0.106782588  nElectrons: 312.000000
	Linear fluid (dielectric constant: 64) occupying 0.893143 of unit cell:	Completed after 5 iterations at t[s]:  36187.54
SCF: Cycle:  4   F: -517.042034691396111   dF: +2.523e-06   |Residual|: 6.006e-04   |deigs|: 2.916e-05  t[s]:  36188.59
	Linear fluid (dielectric constant: 64) occupying 0.893147 of unit cell:	Completed after 5 iterations at t[s]:  36191.38
	FillingsUpdate:  mu: -0.106755905  nElectrons: 312.000000
	Linear fluid (dielectric constant: 64) occupying 0.893144 of unit cell:	Completed after 3 iterations at t[s]:  36460.77
SCF: Cycle:  5   F: -517.042037259080985   dF: -2.568e-06   |Residual|: 1.731e-04   |deigs|: 2.078e-05  t[s]:  36461.82
	Linear fluid (dielectric constant: 64) occupying 0.893145 of unit cell:	Completed after 0 iterations at t[s]:  36462.93
	FillingsUpdate:  mu: -0.106798751  nElectrons: 312.000000
	Linear fluid (dielectric constant: 64) occupying 0.893144 of unit cell:	Completed after 9 iterations at t[s]:  36733.64
SCF: Cycle:  6   F: -517.042029033782910   dF: +8.225e-06   |Residual|: 1.040e-03   |deigs|: 3.459e-05  t[s]:  36734.67
	Linear fluid (dielectric constant: 64) occupying 0.893145 of unit cell:	Completed after 9 iterations at t[s]:  36739.02
	FillingsUpdate:  mu: -0.106777297  nElectrons: 312.000000
	Linear fluid (dielectric constant: 64) occupying 0.893143 of unit cell:	Completed after 4 iterations at t[s]:  37008.08
SCF: Cycle:  7   F: -517.042037104289761   dF: -8.071e-06   |Residual|: 2.173e-04   |deigs|: 3.686e-05  t[s]:  37009.12
	Linear fluid (dielectric constant: 64) occupying 0.893144 of unit cell:	Completed after 3 iterations at t[s]:  37011.46
	FillingsUpdate:  mu: -0.106758963  nElectrons: 312.000000
	Linear fluid (dielectric constant: 64) occupying 0.893142 of unit cell:	Completed after 0 iterations at t[s]:  37279.49
SCF: Cycle:  8   F: -517.042037462877488   dF: -3.586e-07   |Residual|: 9.339e-05   |deigs|: 3.367e-05  t[s]:  37280.51
	Linear fluid (dielectric constant: 64) occupying 0.893143 of unit cell:	Completed after 0 iterations at t[s]:  37281.90
	FillingsUpdate:  mu: -0.106760960  nElectrons: 312.000000
	Linear fluid (dielectric constant: 64) occupying 0.893142 of unit cell:	Completed after 0 iterations at t[s]:  37549.53
SCF: Cycle:  9   F: -517.042037459335802   dF: +3.542e-09   |Residual|: 7.616e-05   |deigs|: 1.125e-05  t[s]:  37550.63
	Linear fluid (dielectric constant: 64) occupying 0.893143 of unit cell:	Completed after 0 iterations at t[s]:  37551.73
	FillingsUpdate:  mu: -0.106760946  nElectrons: 312.000000
	Linear fluid (dielectric constant: 64) occupying 0.893142 of unit cell:	Completed after 0 iterations at t[s]:  37947.13
SCF: Cycle: 10   F: -517.042037466624151   dF: -7.288e-09   |Residual|: 6.993e-05   |deigs|: 1.421e-05  t[s]:  37948.15
	Linear fluid (dielectric constant: 64) occupying 0.893141 of unit cell:	Completed after 2 iterations at t[s]:  37950.23
	FillingsUpdate:  mu: -0.106790778  nElectrons: 312.000000
	Linear fluid (dielectric constant: 64) occupying 0.893143 of unit cell:	Completed after 8 iterations at t[s]:  38391.67
SCF: Cycle: 11   F: -517.042031275474756   dF: +6.191e-06   |Residual|: 1.049e-03   |deigs|: 6.229e-05  t[s]:  38392.68
	Linear fluid (dielectric constant: 64) occupying 0.893141 of unit cell:	Completed after 7 iterations at t[s]:  38396.31
	FillingsUpdate:  mu: -0.106804137  nElectrons: 312.000000
	Linear fluid (dielectric constant: 64) occupying 0.893144 of unit cell:	Completed after 8 iterations at t[s]:  38666.88
SCF: Cycle: 12   F: -517.042029361378695   dF: +1.914e-06   |Residual|: 1.136e-03   |deigs|: 1.145e-05  t[s]:  38668.06
	Linear fluid (dielectric constant: 64) occupying 0.893141 of unit cell:	Completed after 8 iterations at t[s]:  38671.96
	FillingsUpdate:  mu: -0.106810569  nElectrons: 312.000000
	Linear fluid (dielectric constant: 64) occupying 0.893144 of unit cell:	Completed after 8 iterations at t[s]:  38942.13
SCF: Cycle: 13   F: -517.042026484133203   dF: +2.877e-06   |Residual|: 1.323e-03   |deigs|: 8.893e-06  t[s]:  38943.17
	Linear fluid (dielectric constant: 64) occupying 0.893141 of unit cell:	Completed after 8 iterations at t[s]:  38947.11
	FillingsUpdate:  mu: -0.106810716  nElectrons: 312.000000
	Linear fluid (dielectric constant: 64) occupying 0.893144 of unit cell:	Completed after 8 iterations at t[s]:  39217.93
SCF: Cycle: 14   F: -517.042027272126916   dF: -7.880e-07   |Residual|: 1.279e-03   |deigs|: 2.781e-06  t[s]:  39219.01
	Linear fluid (dielectric constant: 64) occupying 0.893141 of unit cell:	Completed after 8 iterations at t[s]:  39222.96
	FillingsUpdate:  mu: -0.106811844  nElectrons: 312.000000
	Linear fluid (dielectric constant: 64) occupying 0.893144 of unit cell:	Completed after 8 iterations at t[s]:  39493.34
SCF: Cycle: 15   F: -517.042026267441315   dF: +1.005e-06   |Residual|: 1.340e-03   |deigs|: 4.671e-06  t[s]:  39494.39
	Linear fluid (dielectric constant: 64) occupying 0.893140 of unit cell:	Completed after 8 iterations at t[s]:  39498.26
	FillingsUpdate:  mu: -0.106821096  nElectrons: 312.000000
	Linear fluid (dielectric constant: 64) occupying 0.893144 of unit cell:	Completed after 9 iterations at t[s]:  39768.75
SCF: Cycle: 16   F: -517.042021773549209   dF: +4.494e-06   |Residual|: 1.592e-03   |deigs|: 6.624e-06  t[s]:  39769.74
	Linear fluid (dielectric constant: 64) occupying 0.893140 of unit cell:	Completed after 9 iterations at t[s]:  39774.02
	FillingsUpdate:  mu: -0.106822562  nElectrons: 312.000000
	Linear fluid (dielectric constant: 64) occupying 0.893144 of unit cell:	Completed after 9 iterations at t[s]:  40041.98
SCF: Cycle: 17   F: -517.042022992940360   dF: -1.219e-06   |Residual|: 1.518e-03   |deigs|: 8.171e-06  t[s]:  40043.02
	Linear fluid (dielectric constant: 64) occupying 0.893140 of unit cell:	Completed after 9 iterations at t[s]:  40047.26
	FillingsUpdate:  mu: -0.106823040  nElectrons: 312.000000
	Linear fluid (dielectric constant: 64) occupying 0.893144 of unit cell:	Completed after 9 iterations at t[s]:  40318.07
SCF: Cycle: 18   F: -517.042021927447649   dF: +1.065e-06   |Residual|: 1.574e-03   |deigs|: 1.426e-05  t[s]:  40319.09
	Linear fluid (dielectric constant: 64) occupying 0.893140 of unit cell:	Completed after 9 iterations at t[s]:  40323.47
	FillingsUpdate:  mu: -0.106823049  nElectrons: 312.000000
	Linear fluid (dielectric constant: 64) occupying 0.893144 of unit cell:	Completed after 9 iterations at t[s]:  40593.53
SCF: Cycle: 19   F: -517.042023579496686   dF: -1.652e-06   |Residual|: 1.493e-03   |deigs|: 1.780e-05  t[s]:  40594.72
	Linear fluid (dielectric constant: 64) occupying 0.893141 of unit cell:	Completed after 9 iterations at t[s]:  40598.95
	FillingsUpdate:  mu: -0.106806565  nElectrons: 312.000000
	Linear fluid (dielectric constant: 64) occupying 0.893144 of unit cell:	Completed after 8 iterations at t[s]:  40869.83
SCF: Cycle: 20   F: -517.042031624493120   dF: -8.045e-06   |Residual|: 9.638e-04   |deigs|: 1.396e-05  t[s]:  40870.84
	Linear fluid (dielectric constant: 64) occupying 0.893141 of unit cell:	Completed after 8 iterations at t[s]:  40874.74
	FillingsUpdate:  mu: -0.106797592  nElectrons: 312.000000
	Linear fluid (dielectric constant: 64) occupying 0.893144 of unit cell:	Completed after 7 iterations at t[s]:  41142.36
SCF: Cycle: 21   F: -517.042033172806782   dF: -1.548e-06   |Residual|: 8.260e-04   |deigs|: 6.112e-06  t[s]:  41143.44
	Linear fluid (dielectric constant: 64) occupying 0.893142 of unit cell:	Completed after 8 iterations at t[s]:  41147.28
	FillingsUpdate:  mu: -0.106771896  nElectrons: 312.000000
	Linear fluid (dielectric constant: 64) occupying 0.893143 of unit cell:	Completed after 0 iterations at t[s]:  41415.07
SCF: Cycle: 22   F: -517.042037445514211   dF: -4.273e-06   |Residual|: 1.298e-04   |deigs|: 2.878e-05  t[s]:  41416.06
	Linear fluid (dielectric constant: 64) occupying 0.893142 of unit cell:	Completed after 0 iterations at t[s]:  41417.41
	FillingsUpdate:  mu: -0.106767996  nElectrons: 312.000000
	Linear fluid (dielectric constant: 64) occupying 0.893143 of unit cell:	Completed after 0 iterations at t[s]:  41684.41
SCF: Cycle: 23   F: -517.042037452999807   dF: -7.486e-09   |Residual|: 5.753e-05   |deigs|: 9.565e-06  t[s]:  41685.38
	Linear fluid (dielectric constant: 64) occupying 0.893142 of unit cell:	Completed after 0 iterations at t[s]:  41686.53
	FillingsUpdate:  mu: -0.106768415  nElectrons: 312.000000
	Linear fluid (dielectric constant: 64) occupying 0.893142 of unit cell:	Completed after 0 iterations at t[s]:  42082.42
SCF: Cycle: 24   F: -517.042037458800564   dF: -5.801e-09   |Residual|: 3.830e-05   |deigs|: 8.859e-06  t[s]:  42083.39
SCF: Converged (|Delta E|<1.000000e-08 for 2 iters).

Setting wave functions to eigenvectors of Hamiltonian
IonicMinimize: 	Wrong curvature in test step, increasing alphaT to 3.000000e+00.

-------- Electronic minimization -----------
Will mix electronic density at each iteration.
	FillingsUpdate:  mu: -0.106768415  nElectrons: 312.000000
	Linear fluid (dielectric constant: 64) occupying 0.893142 of unit cell:	Completed after 0 iterations at t[s]:  42112.91
	FillingsUpdate:  mu: -0.106769384  nElectrons: 312.000000
	Linear fluid (dielectric constant: 64) occupying 0.893142 of unit cell:	Completed after 0 iterations at t[s]:  42405.76
SCF: Cycle:  0   F: -517.042037467261821   dF: -8.463e-09   |Residual|: 2.074e-05   |deigs|: 2.772e-06  t[s]:  42406.71
	Linear fluid (dielectric constant: 64) occupying 0.893142 of unit cell:	Completed after 0 iterations at t[s]:  42407.59
	FillingsUpdate:  mu: -0.106769425  nElectrons: 312.000000
	Linear fluid (dielectric constant: 64) occupying 0.893142 of unit cell:	Completed after 0 iterations at t[s]:  42802.35
SCF: Cycle:  1   F: -517.042037467875048   dF: -6.132e-10   |Residual|: 1.869e-05   |deigs|: 6.706e-07  t[s]:  42803.32
SCF: Converged (|Delta E|<1.000000e-08 for 2 iters).

Setting wave functions to eigenvectors of Hamiltonian

# Ionic positions in cartesian coordinates:
ion C  28.001711141112992  -0.006273732480735  13.958018015356700 1
ion C  16.333070123957494  20.205070092747601  13.959590581484486 1
ion C   2.329924683549234   4.036044404550204  13.950752787861219 1
ion C  23.333767047909276  -0.006208874085751  13.962036490102742 1
ion C   4.664021911556872  -0.006387623938257  13.957174871851340 1
ion C  11.664986858169415  20.205143637441395  13.955637583684505 1
ion C  25.667709718380408   4.036023248863946  13.960589380146045 1
ion C  18.666914955485392  16.162813593998560  13.962578666942720 1
ion C   4.663896437762054   8.078411892226967  13.937798148790648 1
ion C  18.666256620310751  -0.006248680636219  13.963383222417718 1
ion C   9.331746667281120  -0.006546123224701  13.959855369362369 1
ion C   9.331198401195044  16.162621888821707  13.943693483685980 1
ion C  23.333895194842707   8.078143465598375  13.961650741438088 1
ion C  21.000517607032005  12.120494785964164  13.960783311709942 1
ion C   6.997617506410799  12.120590814067437  13.937817323707350 1
ion C  13.999003950291517  -0.006421603370285  13.959675663422242 1
ion C  13.999045773340141  16.162630003730953  13.952446656573779 1
ion C   6.997717456306268   4.035883137470324  13.948480486678701 1
ion C  21.000119295391709   4.035880001811149  13.965132243121730 1
ion C  16.333012395244353  12.120593330504629  13.954865169247720 1
ion C   9.331277168561437   8.078333879860757  13.942075019949918 1
ion C  16.332780671366720   4.035602048161303  13.959711094325185 1
ion C  11.665237200362574   4.035733289623249  13.952003777721011 1
ion C  11.664595473793327  12.120723016900211  13.938560306363145 1
ion C  18.666623884217298   8.078004924635778  13.960450216298302 1
ion C   6.997108776344534  20.205261007176535  13.955695406768946 1
ion C  -7.005023286908452  20.205075178750217  13.964338460621180 1
ion C  -0.003884162802995   8.078373267356413  13.950074921420635 1
ion C  13.999023502178485   8.077857258911498  13.951363694491327 1
ion C   2.329705716800779  20.205312840231109  13.957676619540305 1
ion C  -4.671488788634153  16.162910386548884  13.962320715237244 1
ion C   2.330072038040974  12.120793960835748  13.942417558694862 1
ion C  -2.337865746442024  12.120628657557758  13.955551915387527 1
ion C  -2.337649719761275  20.205251781744881  13.962766153683978 1
ion C   4.663670478758236  16.162847641436375  13.948394605692751 1
ion C  -0.004091225137785  16.163120274250439  13.955497863123995 1
ion C  13.999001955450190  21.552490494818866  13.957559070024079 1
ion C   2.329984726300708   1.341046831504309  13.955039986010362 1
ion C  25.667657858318464   1.341141432071394  13.959989592576701 1
ion C  16.333071607505726  17.510146046114194  13.959348057958076 1
ion C   4.663842241717962   5.383485446069225  13.943839992707895 1
ion C  20.999936048046159   1.341086085908955  13.964469451929707 1
ion C   6.997935906583745   1.340894678684925  13.955431424681569 1
ion C  11.665016753688148  17.510161604259725  13.949428230872185 1
ion C  23.333872848831088   5.383357990856328  13.963108663020428 1
ion C  18.666834088780128  13.467982046801358  13.960654654757585 1
ion C   6.997544155208382   9.425894481594932  13.936261766600678 1
ion C  16.332657279011421   1.340917262225480  13.961388778321574 1
ion C  11.665397397255219   1.340909367943466  13.957013622232472 1
ion C   9.331202830874311  13.467966939438215  13.937590424394699 1
ion C  21.000267543145888   9.425642749125943  13.961256084677904 1
ion C   9.330959094536825  21.552646668245224  13.957531837504513 1
ion C  -9.338804327521485  21.552443752041881  13.960666135194899 1
ion C  -0.004144700396482   5.383428172067237  13.953377188508588 1
ion C  13.998955517836661  13.468054821907089  13.946922152441697 1
ion C   9.331514062908351   5.383409447604274  13.946394448378308 1
ion C  18.666436212799312   5.383158115543143  13.962041695716000 1
ion C  16.333009298858553   9.425513580848200  13.955433995856414 1
ion C  11.664988308415282   9.425478589099244  13.942993816463312 1
ion C  13.999077833911670   5.382992547986005  13.953851438282786 1
ion C   4.663326890197364  21.552758924423003  13.959575562733868 1
ion C  -7.005152054187009  17.510248359279256  13.964544285402042 1
ion C   2.330067510720398   9.425682706205752  13.939767437328962 1
ion C  -2.338047312301067   9.425671877831874  13.955946798987412 1
ion C  -4.671276086736371  21.552442127310425  13.963646180395203 1
ion C   6.997394013582394  17.510334164877523  13.947914600988796 1
ion C  -0.003946715928926  21.552594486193577  13.960364149911106 1
ion C  -4.671585426668357  13.468098300304627  13.959768728965829 1
ion C   4.663880697321360  13.467954171021495  13.942244216391495 1
ion C   2.329860235467018  17.510500867074125  13.953340857739532 1
ion C  -2.337872789295795  17.510516389675256  13.960726374888107 1
ion C  -0.003931119944805  13.468165189393460  13.951022219773185 1
ion S   7.547511945270156  12.009420285134748  21.655133608934076 1
ion Na   2.086871895766900  11.200187008278165  19.563927187489945 1
ion Na  12.823229116539665  11.637722861848950  19.335217970315323 1

# Forces in Cartesian coordinates:
force C   0.000029863175384  -0.000012895530349  -0.000042012075676 1
force C  -0.000057658630167   0.000031790036208  -0.000023743252134 1
force C   0.000010551998201  -0.000055572538767  -0.000076836610538 1
force C   0.000065472368583  -0.000041393639674  -0.000060337959645 1
force C  -0.000055848984324   0.000018117819125  -0.000022343392151 1
force C   0.000005673392020   0.000013686862915  -0.000092879442573 1
force C   0.000045207557323  -0.000034067649071  -0.000123731996633 1
force C  -0.000029810501386   0.000035411062252  -0.000076428606863 1
force C   0.000064014283420   0.000004629531791  -0.000332447834251 1
force C   0.000040095374347  -0.000041608653126  -0.000066969294469 1
force C  -0.000074156088328   0.000061027948467  -0.000109086835173 1
force C  -0.000048178922412  -0.000020566948393  -0.000219881538920 1
force C   0.000035439447606  -0.000006047547747  -0.000103084451687 1
force C  -0.000009106316777  -0.000002651003786   0.000043966298283 1
force C  -0.000042919794232   0.000017530092242  -0.000783577279294 1
force C  -0.000006698850844   0.000002082709949   0.000047613970588 1
force C  -0.000007617798500   0.000103656790148  -0.000201843601336 1
force C  -0.000009546460480   0.000004463062935  -0.000067270796404 1
force C   0.000023469483182  -0.000011381508312  -0.000104159076616 1
force C   0.000025022157543   0.000051207504122  -0.000629204188763 1
force C  -0.000073821930367  -0.000019328154779  -0.000440708401362 1
force C  -0.000014699185490   0.000038277641702  -0.000012711818846 1
force C  -0.000043158925952   0.000011963321671   0.000014966553992 1
force C  -0.000129397084527   0.000057371981274  -0.003300217898719 1
force C   0.000025941277441  -0.000000149649163  -0.000019168171507 1
force C   0.000059644400435  -0.000078066115477  -0.000068213389972 1
force C  -0.000045589944419   0.000011868044956  -0.000076206528223 1
force C   0.000028286463240  -0.000060014261879  -0.000382457853873 1
force C  -0.000108445700759  -0.000011881856218  -0.000574866603010 1
force C   0.000032193209343  -0.000019996112541   0.000040032814939 1
force C  -0.000010364862324   0.000005679560011  -0.000030179764534 1
force C   0.000106728058494   0.000080378800601  -0.002642689268021 1
force C   0.000012024473938   0.000025713504054  -0.000090923288312 1
force C   0.000002113617699  -0.000018073786148  -0.000078655820592 1
force C   0.000044699714157  -0.000046828349961  -0.000266492632076 1
force C   0.000054446367214  -0.000031219745089  -0.000059321931171 1
force C  -0.000025373089539   0.000016866383543   0.000070523349985 1
force C  -0.000015434400275  -0.000005283640219   0.000067186532028 1
force C   0.000067882406092  -0.000031354299996   0.000103640037033 1
force C  -0.000030546108118   0.000040991874060  -0.000006844236697 1
force C   0.000003191542757  -0.000062448293377   0.000149691152537 1
force C   0.000067602328771  -0.000007470835517   0.000002253623893 1
force C  -0.000057826880828   0.000058902993925   0.000031211545497 1
force C  -0.000061728101621   0.000020310931946   0.000086661606546 1
force C   0.000024131517393  -0.000025362028581   0.000028283600250 1
force C  -0.000001212548223   0.000021991286558  -0.000050500066933 1
force C   0.000045696760220   0.000127467585894  -0.000287396548759 1
force C  -0.000008862110578   0.000017999030626  -0.000009947697798 1
force C  -0.000041926069906   0.000019372990866   0.000052645643176 1
force C  -0.000147042235901  -0.000000770294044  -0.000718063668816 1
force C   0.000029147618077  -0.000000214795600   0.000025158080135 1
[...]
SCF: Cycle: 46   F: -517.054389988633943   dF: -2.745e-06   |Residual|: 8.351e-04   |deigs|: 3.578e-05  t[s]: 1216642.90
	Linear fluid (dielectric constant: 64) occupying 0.892413 of unit cell:	Completed after 7 iterations at t[s]: 1216646.64
	FillingsUpdate:  mu: -0.107147559  nElectrons: 312.000000
	Linear fluid (dielectric constant: 64) occupying 0.892415 of unit cell:	Completed after 7 iterations at t[s]: 1216918.07
SCF: Cycle: 47   F: -517.054389225880414   dF: +7.628e-07   |Residual|: 9.137e-04   |deigs|: 1.733e-05  t[s]: 1216919.05
	Linear fluid (dielectric constant: 64) occupying 0.892412 of unit cell:	Completed after 7 iterations at t[s]: 1216922.89
	FillingsUpdate:  mu: -0.107142146  nElectrons: 312.000000
	Linear fluid (dielectric constant: 64) occupying 0.892415 of unit cell:	Completed after 7 iterations at t[s]: 1217193.93
SCF: Cycle: 48   F: -517.054390721632217   dF: -1.496e-06   |Residual|: 7.863e-04   |deigs|: 1.191e-05  t[s]: 1217194.91
	Linear fluid (dielectric constant: 64) occupying 0.892413 of unit cell:	Completed after 7 iterations at t[s]: 1217198.48
	FillingsUpdate:  mu: -0.107134560  nElectrons: 312.000000
	Linear fluid (dielectric constant: 64) occupying 0.892414 of unit cell:	Completed after 5 iterations at t[s]: 1217469.24
SCF: Cycle: 49   F: -517.054392175303633   dF: -1.454e-06   |Residual|: 6.083e-04   |deigs|: 1.722e-05  t[s]: 1217470.23
	Linear fluid (dielectric constant: 64) occupying 0.892413 of unit cell:	Completed after 3 iterations at t[s]: 1217472.60
Setting wave functions to eigenvectors of Hamiltonian
IonicMinimize: 	Step increased F by 2.046680e-03, reducing alpha to 5.752561e-03.

-------- Electronic minimization -----------
Will mix electronic density at each iteration.
	FillingsUpdate:  mu: -0.107134560  nElectrons: 312.000000
	Linear fluid (dielectric constant: 64) occupying 0.892414 of unit cell:	Completed after 4 iterations at t[s]: 1217700.60
	FillingsUpdate:  mu: -0.107020394  nElectrons: 312.000000
	Linear fluid (dielectric constant: 64) occupying 0.892411 of unit cell:	Completed after 14 iterations at t[s]: 1218012.04
SCF: Cycle:  0   F: -517.054298518324913   dF: +8.580e-05   |Residual|: 3.695e-03   |deigs|: 2.987e-06  t[s]: 1218012.99
	Linear fluid (dielectric constant: 64) occupying 0.892400 of unit cell:	Completed after 12 iterations at t[s]: 1218017.83
	FillingsUpdate:  mu: -0.107160714  nElectrons: 312.000000
	Linear fluid (dielectric constant: 64) occupying 0.892413 of unit cell:	Completed after 12 iterations at t[s]: 1218290.02
SCF: Cycle:  1   F: -517.054348801427750   dF: -5.028e-05   |Residual|: 2.623e-03   |deigs|: 1.431e-04  t[s]: 1218291.06
	Linear fluid (dielectric constant: 64) occupying 0.892406 of unit cell:	Completed after 10 iterations at t[s]: 1218295.22
	FillingsUpdate:  mu: -0.107136869  nElectrons: 312.000000
	Linear fluid (dielectric constant: 64) occupying 0.892416 of unit cell:	Completed after 7 iterations at t[s]: 1218566.65
SCF: Cycle:  2   F: -517.054385044426795   dF: -3.624e-05   |Residual|: 3.855e-04   |deigs|: 8.965e-05  t[s]: 1218567.65
	Linear fluid (dielectric constant: 64) occupying 0.892405 of unit cell:	Completed after 5 iterations at t[s]: 1218570.38
	FillingsUpdate:  mu: -0.107126980  nElectrons: 312.000000
	Linear fluid (dielectric constant: 64) occupying 0.892412 of unit cell:	Completed after 0 iterations at t[s]: 1218839.74
SCF: Cycle:  3   F: -517.054386485458849   dF: -1.441e-06   |Residual|: 1.324e-04   |deigs|: 2.665e-05  t[s]: 1218840.71
	Linear fluid (dielectric constant: 64) occupying 0.892406 of unit cell:	Completed after 0 iterations at t[s]: 1218841.91
	FillingsUpdate:  mu: -0.107130688  nElectrons: 312.000000
	Linear fluid (dielectric constant: 64) occupying 0.892412 of unit cell:	Completed after 0 iterations at t[s]: 1219111.27
SCF: Cycle:  4   F: -517.054386496680308   dF: -1.122e-08   |Residual|: 9.148e-05   |deigs|: 2.015e-05  t[s]: 1219112.24
	Linear fluid (dielectric constant: 64) occupying 0.892408 of unit cell:	Completed after 0 iterations at t[s]: 1219113.52
	FillingsUpdate:  mu: -0.107126215  nElectrons: 312.000000
	Linear fluid (dielectric constant: 64) occupying 0.892413 of unit cell:	Completed after 0 iterations at t[s]: 1219513.40
SCF: Cycle:  5   F: -517.054386483822782   dF: +1.286e-08   |Residual|: 6.251e-05   |deigs|: 2.405e-05  t[s]: 1219514.36
	Linear fluid (dielectric constant: 64) occupying 0.892411 of unit cell:	Completed after 0 iterations at t[s]: 1219515.65
	FillingsUpdate:  mu: -0.107124140  nElectrons: 312.000000
	Linear fluid (dielectric constant: 64) occupying 0.892414 of unit cell:	Completed after 0 iterations at t[s]: 1219913.08
SCF: Cycle:  6   F: -517.054386461496961   dF: +2.233e-08   |Residual|: 7.148e-05   |deigs|: 4.156e-05  t[s]: 1219914.08
	Linear fluid (dielectric constant: 64) occupying 0.892415 of unit cell:	Completed after 0 iterations at t[s]: 1219915.41
	FillingsUpdate:  mu: -0.107122769  nElectrons: 312.000000
	Linear fluid (dielectric constant: 64) occupying 0.892414 of unit cell:	Completed after 0 iterations at t[s]: 1220313.06
SCF: Cycle:  7   F: -517.054386436532013   dF: +2.496e-08   |Residual|: 1.122e-04   |deigs|: 8.329e-05  t[s]: 1220314.06
	Linear fluid (dielectric constant: 64) occupying 0.892416 of unit cell:	Completed after 0 iterations at t[s]: 1220315.11
	FillingsUpdate:  mu: -0.107116254  nElectrons: 312.000000
	Linear fluid (dielectric constant: 64) occupying 0.892414 of unit cell:	Completed after 0 iterations at t[s]: 1220712.70
SCF: Cycle:  8   F: -517.054386438108054   dF: -1.576e-09   |Residual|: 2.985e-05   |deigs|: 9.675e-05  t[s]: 1220713.68
	Linear fluid (dielectric constant: 64) occupying 0.892413 of unit cell:	Completed after 0 iterations at t[s]: 1220715.11
	FillingsUpdate:  mu: -0.107119608  nElectrons: 312.000000
	Linear fluid (dielectric constant: 64) occupying 0.892413 of unit cell:	Completed after 0 iterations at t[s]: 1221155.97
SCF: Cycle:  9   F: -517.054386435260199   dF: +2.848e-09   |Residual|: 9.351e-05   |deigs|: 5.494e-05  t[s]: 1221157.01
	Linear fluid (dielectric constant: 64) occupying 0.892413 of unit cell:	Completed after 0 iterations at t[s]: 1221158.17
	FillingsUpdate:  mu: -0.107116455  nElectrons: 312.000000
	Linear fluid (dielectric constant: 64) occupying 0.892413 of unit cell:	Completed after 0 iterations at t[s]: 1221555.79
SCF: Cycle: 10   F: -517.054386439795962   dF: -4.536e-09   |Residual|: 3.765e-05   |deigs|: 4.302e-05  t[s]: 1221556.80
	Linear fluid (dielectric constant: 64) occupying 0.892411 of unit cell:	Completed after 0 iterations at t[s]: 1221558.21
	FillingsUpdate:  mu: -0.107119099  nElectrons: 312.000000
	Linear fluid (dielectric constant: 64) occupying 0.892413 of unit cell:	Completed after 0 iterations at t[s]: 1221955.53
SCF: Cycle: 11   F: -517.054386437405128   dF: +2.391e-09   |Residual|: 9.779e-05   |deigs|: 3.664e-05  t[s]: 1221956.53
	Linear fluid (dielectric constant: 64) occupying 0.892414 of unit cell:	Completed after 0 iterations at t[s]: 1221957.83
	FillingsUpdate:  mu: -0.107115572  nElectrons: 312.000000
	Linear fluid (dielectric constant: 64) occupying 0.892414 of unit cell:	Completed after 0 iterations at t[s]: 1222364.35
SCF: Cycle: 12   F: -517.054386441356087   dF: -3.951e-09   |Residual|: 2.462e-05   |deigs|: 1.683e-05  t[s]: 1222365.52
	Linear fluid (dielectric constant: 64) occupying 0.892414 of unit cell:	Completed after 0 iterations at t[s]: 1222366.65
	FillingsUpdate:  mu: -0.107115858  nElectrons: 312.000000
	Linear fluid (dielectric constant: 64) occupying 0.892414 of unit cell:	Completed after 0 iterations at t[s]: 1222763.94
SCF: Cycle: 13   F: -517.054386448162859   dF: -6.807e-09   |Residual|: 2.102e-05   |deigs|: 5.841e-05  t[s]: 1222764.97
SCF: Converged (|Delta E|<1.000000e-08 for 2 iters).

Setting wave functions to eigenvectors of Hamiltonian

# Ionic positions in cartesian coordinates:
ion C  27.999727280259446  -0.006620967550585  13.960589876716305 1
ion C  16.332541647030439  20.206491000104453  13.953275908330683 1
ion C   2.331371363321449   4.037183439087793  13.935181388935812 1
ion C  23.333814716004671  -0.005663364728451  13.964851001891605 1
ion C   4.662032385752150  -0.006929589644428  13.960241117537027 1
ion C  11.664219227201217  20.205533146831112  13.939847603084836 1
ion C  25.666934512124119   4.035079313090415  13.955625279135349 1
ion C  18.667776179168868  16.163482749711431  13.936455293643464 1
ion C   4.663164252475138   8.077270578553074  13.880321881554387 1
ion C  18.665656245293814  -0.006081069119388  13.964961984945438 1
ion C   9.330493801891038  -0.005297029714566  13.961077095075973 1
ion C   9.330040381325244  16.164337523241834  13.887785959970364 1
ion C  23.332366646640178   8.077782375170793  13.941073745479354 1
ion C  20.999809855742733  12.121446592772262  13.935569024068567 1
ion C   6.995318067725674  12.119661518182410  13.851628854243796 1
ion C  13.998563079413179  -0.005409489911109  13.963281090849527 1
ion C  13.998055206538373  16.161474769156193  13.900944973630477 1
ion C   6.995472193763542   4.038235166250084  13.928757363776180 1
ion C  21.000753844190793   4.035106858621467  13.961229744822871 1
ion C  16.331707405899515  12.121372004679888  13.892458184698530 1
ion C   9.330680332441670   8.077759623445257  13.877983074391551 1
ion C  16.330710640508752   4.034939289470397  13.950625795844173 1
ion C  11.663518958279235   4.036185286218338  13.932475450030022 1
ion C  11.664331087576070  12.121343328754929  13.847465172113829 1
ion C  18.665852413234692   8.079288205294196  13.933198058122956 1
ion C   6.996566359950618  20.206166660321809  13.941519191200809 1
ion C  -7.006955533110308  20.204900650264307  13.963278109599695 1
ion C  -0.001420053039566   8.079178366580994  13.906391350496721 1
ion C  13.997834193968647   8.078680458187014  13.893395082316632 1
ion C   2.330193441869495  20.204858551778372  13.949216599177195 1
ion C  -4.673407007552825  16.162092740798133  13.948537461336183 1
ion C   2.328623910483596  12.120713538319887  13.864284254221619 1
ion C  -2.340449162894140  12.121510951027172  13.916454026760249 1
ion C  -2.337686229708211  20.204913270535549  13.963622079731401 1
ion C   4.662771787120500  16.164921846120006  13.897559591750348 1
ion C  -0.004533131422495  16.163678653805707  13.922034614301555 1
ion C  13.999772793992857  21.552934081398263  13.954799209189966 1
ion C   2.330734041485411   1.340966678850648  13.953515587226351 1
ion C  25.669679110070444   1.341508999033876  13.963648794030426 1
ion C  16.332654647503666  17.511040811354214  13.932612274104583 1
ion C   4.664130212386530   5.382851108186300  13.915828175015671 1
ion C  21.000730232475238   1.342081016808588  13.964838735351439 1
ion C   6.999406233621329   1.339807602830560  13.953347135948542 1
ion C  11.664842979399330  17.510970941616975  13.907525130891882 1
ion C  23.334685724993182   5.384297407763885  13.955283014734745 1
ion C  18.666824933593919  13.468328746080978  13.923625078673036 1
ion C   6.998218951041065   9.427821977558295  13.860887593959459 1
ion C  16.333446316876547   1.342126483309158  13.962926694412181 1
ion C  11.665243249952118   1.341062183390550  13.954231648179416 1
ion C   9.332790198989315  13.468462538584317  13.856121247917669 1
ion C  21.001024670666354   9.425138798580049  13.938911277884767 1
ion C   9.331643549749366  21.551876934312645  13.952065796816981 1
ion C  -9.338752497295008  21.553547563272186  13.963261108219282 1
ion C  -0.004805913678060   5.383209080872438  13.934194973317229 1
ion C  13.998826375211017  13.469896668218448  13.869243282886279 1
ion C   9.332637276879922   5.383402272514869  13.913835789611802 1
ion C  18.667221861459208   5.383984955879208  13.950852627662631 1
ion C  16.333973739641060   9.425059430959804  13.901193452076567 1
ion C  11.664781452144135   9.426222666160269  13.864243721286293 1
ion C  14.000419406327829   5.383449643978147  13.926981237609095 1
ion C   4.664279696058811  21.552067591333973  13.955411714411035 1
ion C  -7.005457436467164  17.510824711475330  13.953681095013579 1
ion C   2.328730513952384   9.425815611896343  13.873410067137048 1
ion C  -2.337332899414416   9.426098651430751  13.918398991334985 1
ion C  -4.670726809923493  21.553419913206241  13.967439771971401 1
ion C   6.998379695815574  17.508981644978771  13.909667005893978 1
ion C  -0.004343369733141  21.552616451140626  13.963161915254885 1
ion C  -4.669408209972714  13.468103679003073  13.936742019794988 1
ion C   4.665504397667656  13.467974195201062  13.864693983815261 1
ion C   2.331007932447760  17.510542224937971  13.922349467742780 1
ion C  -2.336480917809872  17.511958385595094  13.948820536653585 1
ion C  -0.001741459823202  13.468176455531228  13.896991543556089 1
ion S   7.487158094446973  12.175273906936848  22.469652866382486 1
ion Na   1.371615455630939  11.086184752868194  20.061790129108648 1
ion Na  13.605006538306242  11.562960232897510  19.986209237401141 1

# Forces in Cartesian coordinates:
force C   0.001831624144311   0.000367743449617  -0.000017755265464 1
force C   0.000176640908038  -0.000576864698921  -0.000115483874427 1
force C  -0.001268830584267  -0.001012504665815   0.000084149950280 1
force C   0.000527000924759  -0.000333119864243  -0.000093897293344 1
force C   0.001481105975248   0.000582682947455  -0.000150974128316 1
force C   0.000838974585282  -0.000249811787858   0.000093317504968 1
force C   0.000799888728054   0.000894262312606  -0.000159279987266 1
force C  -0.001045117961144   0.000045138889405   0.000033526350154 1
force C   0.000453747330615   0.001090226025545  -0.000104687588200 1
force C   0.000707542172956   0.000059134445620  -0.000021897089192 1
force C   0.000909386436025  -0.000725022699135  -0.000033545772919 1
force C   0.000988921377613  -0.001048529826660  -0.000060317468742 1
force C   0.001516037980007   0.000377854167322  -0.000027787228570 1
force C   0.000737563026929  -0.000666839303750  -0.000100914366554 1
force C   0.002029021205238   0.001282025780974   0.000009479566258 1
force C   0.000225066909717  -0.000439969254212  -0.000037507754565 1
force C   0.000407280408127   0.001665054583563  -0.000182510428043 1
force C   0.001845407895240  -0.001951271285574   0.000078067165742 1
force C  -0.000198879637535   0.001133714386085   0.000013791244836 1
force C   0.000673159842172  -0.000229336632661  -0.000063765054734 1
force C   0.000457012229361   0.000718586318031  -0.000154872182486 1
force C   0.001765963962115   0.001084989953053  -0.000157324208774 1
force C   0.001393545780947  -0.000194910894877   0.000032203474720 1
force C   0.000371271684443   0.000029402590594   0.000359786798359 1
force C   0.000733682374582  -0.000835553316674  -0.000052325344053 1
force C   0.000817349540918  -0.001115946424054  -0.000042236301534 1
force C   0.001311889088794   0.000782004151893   0.000074309291858 1
force C  -0.002093946248791  -0.000679393815342  -0.000054981266548 1
force C   0.000838165406129  -0.000286818706637  -0.000001700590636 1
force C  -0.000258209413496   0.000343916672059   0.000055639318679 1
force C   0.001696773426503   0.001070388280916  -0.000143942270975 1
force C   0.001383129654482   0.000223029792792   0.000282984176826 1
force C   0.002539161415795  -0.000608969154202  -0.000122963542407 1
force C  -0.000029958690021   0.000722800476333  -0.000165073928490 1
force C   0.001049981858925  -0.001568945269762  -0.000200691447575 1
force C   0.000844122871254  -0.000219095546445  -0.000030961226103 1
force C  -0.000982169681607  -0.000047331120564  -0.000168201436996 1
force C  -0.000991248930831   0.000324564663807   0.000183035054864 1
force C  -0.001602871725897  -0.000397374378265  -0.000082510345860 1
force C   0.000090979861129  -0.000303971343633  -0.000129690337366 1
force C  -0.000331005363515   0.000937565285949  -0.000235079514384 1
force C  -0.000332363972091  -0.000893823443764   0.000215930371849 1
force C  -0.001943711458948   0.001584760165818  -0.000065074095766 1
force C  -0.000192439738746  -0.000116354370870   0.000119472503571 1
force C  -0.000546461351790  -0.000899543964109  -0.000170683542929 1
force C  -0.000230706014029   0.000122352236984  -0.000170037476645 1
force C  -0.001018599963975  -0.001878821570413   0.000259933251541 1
force C  -0.000736655026017  -0.000836825372801  -0.000069435456409 1
force C  -0.000208219532592   0.000459104579329   0.000150033541564 1
force C  -0.001594186879916   0.000030147507888  -0.000208727181725 1
force C  -0.000766470369085   0.000955715371619  -0.000189629836466 1
force C  -0.000568360818078   0.000890826027071  -0.000157179104267 1
force C  -0.000607749425809  -0.000605674916792  -0.000071731520282 1
force C   0.000875904368990   0.000122119467275  -0.000206095708684 1
force C  -0.000196227236156  -0.001210653052934   0.000078593130019 1
force C  -0.001524633675567   0.000290878837209  -0.000167444904692 1
force C  -0.000704618199902  -0.000547243701213  -0.000159731681791 1
force C  -0.001193889008352   0.000903509509076   0.000128628174856 1
force C  -0.000223651183166  -0.000189077902995  -0.000000222064590 1
force C  -0.001694898454010   0.000035476449186  -0.000152427174687 1
force C  -0.000568378736190   0.000595283372137  -0.000147367619633 1
force C  -0.000011536689610  -0.000296265905556  -0.000006357586325 1
force C   0.001399891633953  -0.000048911229985   0.000015160661621 1
force C  -0.000504988188836  -0.000122636570895   0.000165899666861 1
force C  -0.000949601349171  -0.000578929327565  -0.000068282747868 1
force C  -0.001045614864906   0.001619213049002  -0.000014563334515 1
force C   0.000569965933589   0.000215014215948  -0.000178125950444 1
force C  -0.002203240997086   0.000357940849244  -0.000041823405530 1
force C  -0.001724085489917   0.000526252377195  -0.000058188166384 1
force C  -0.000857970312482   0.000269110029248   0.000113285267244 1
force C  -0.001363350544986  -0.001269983226948  -0.000098068324715 1
force C  -0.001951071628661   0.000329702511432  -0.000160173398044 1
force S  -0.000101942957716   0.000520005547834   0.001729223254284 1
force Na  -0.002011439554249  -0.000373634193281   0.001025534959314 1
force Na   0.002077919471895  -0.000234712320664   0.001192923476114 1

# Energy components:
   A_diel =       -0.3162911283489573
   Eewald =     4552.8639404538889721
       EH =     4955.1705581923770296
     Eloc =   -10052.7764877757435897
      Enl =      -84.1036906427151507
      Exc =     -149.2980444605216519
 Exc_core =        4.1924000132666119
       KE =      257.2883159744863519
-------------------------------------
     Etot =     -516.9792993733103685
       TS =        0.0750870748525218
-------------------------------------
        F =     -517.0543864481628589

IonicMinimize: Iter:  44  F: -517.054386448162859  |grad|_K:  8.242e-04  alpha:  5.753e-03  linmin: -9.999e-01  t[s]: 1222844.78
IonicMinimize: Converged (|Delta F|<1.000000e-06 for 2 iters).

#--- Lowdin population analysis ---
# oxidation-state C +0.034 +0.034 +0.034 +0.035 +0.034 +0.035 +0.034 +0.033 +0.033 +0.035 +0.034 +0.034 +0.033 +0.033 +0.034 +0.034 +0.033 +0.035 +0.034 +0.032 +0.034 +0.034 +0.034 +0.032 +0.033 +0.035 +0.034 +0.032 +0.032 +0.035 +0.034 +0.032 +0.032 +0.034 +0.034 +0.033 +0.034 +0.034 +0.034 +0.033 +0.034 +0.034 +0.035 +0.034 +0.034 +0.033 +0.033 +0.034 +0.035 +0.034 +0.033 +0.035 +0.034 +0.033 +0.032 +0.034 +0.034 +0.032 +0.032 +0.034 +0.035 +0.034 +0.032 +0.032 +0.035 +0.035 +0.034 +0.033 +0.034 +0.034 +0.034 +0.032
# oxidation-state S -1.224
# oxidation-state Na +0.945 +0.944


Dumping 'Na2S@graphene_6x6x1-PC.fillings' ... done
Dumping 'Na2S@graphene_6x6x1-PC.wfns' ... done
Dumping 'Na2S@graphene_6x6x1-PC.fluidState' ... done
Dumping 'Na2S@graphene_6x6x1-PC.ionpos' ... done
Dumping 'Na2S@graphene_6x6x1-PC.eigenvals' ... done
End date and time: Wed Jun  5 08:53:25 2024  (Duration: 14-3:41:31.07)
Done!
