
*************** JDFTx 1.7.0  ***************

Start date and time: Sat Sep 16 22:22:55 2023
Executable jdftx with command-line: -i Na2S2@graphene_6x6x1-PC.in -o Na2S2@graphene_6x6x1-PC.out
Running on hosts (process indices):  Kimmy (0)
Divided in process groups (process indices):  0 (0)
Resource initialization completed at t[s]:      0.00
Run totals: 1 processes, 6 threads, 0 GPUs


Input parsed successfully to the following command list (including defaults):

basis kpoint-dependent
coords-type Cartesian
core-overlap-check vector
coulomb-interaction Slab 001
coulomb-truncation-embed 0 0 0
davidson-band-ratio 1.1
dump End State
dump-name Na2S2@graphene_6x6x1-PC.$VAR
elec-cutoff 20 100
elec-eigen-algo Davidson
elec-ex-corr gga-PBE
elec-smearing Fermi 0.01
electronic-minimize  \
	dirUpdateScheme      FletcherReeves \
	linminMethod         DirUpdateRecommended \
	nIterations          100 \
	history              15 \
	knormThreshold       0 \
	energyDiffThreshold  1e-08 \
	nEnergyDiff          2 \
	alphaTstart          1 \
	alphaTmin            1e-10 \
	updateTestStepSize   yes \
	alphaTreduceFactor   0.1 \
	alphaTincreaseFactor 3 \
	nAlphaAdjustMax      3 \
	wolfeEnergy          0.0001 \
	wolfeGradient        0.9 \
	fdTest               no
electronic-scf  \
	nIterations	50 \
	energyDiffThreshold	1e-08 \
	residualThreshold	1e-07 \
	mixFraction	0.5 \
	qMetric	0.8 \
	history	10 \
	nEigSteps	2 \
	eigDiffThreshold	1e-08 \
	mixedVariable	Density \
	qKerker	0.8 \
	qKappa	-1 \
	verbose	no \
	mixFractionMag	1.5
exchange-regularization WignerSeitzTruncated
fluid LinearPCM 298.000000 1.013250
fluid-ex-corr lda-TF lda-PZ
fluid-gummel-loop 10 1.000000e-05
fluid-minimize  \
	dirUpdateScheme      PolakRibiere \
	linminMethod         DirUpdateRecommended \
	nIterations          400 \
	history              15 \
	knormThreshold       1e-11 \
	energyDiffThreshold  0 \
	nEnergyDiff          2 \
	alphaTstart          1 \
	alphaTmin            1e-10 \
	updateTestStepSize   yes \
	alphaTreduceFactor   0.1 \
	alphaTincreaseFactor 3 \
	nAlphaAdjustMax      6 \
	wolfeEnergy          0.0001 \
	wolfeGradient        0.9 \
	fdTest               no
fluid-solvent PC 11.6429 ScalarEOS \
	epsBulk 64 \
	pMol 2.95 \
	epsInf 2.02 \
	Pvap 1.53277e-13 \
	sigmaBulk 2.88e-05 \
	Rvdw 0 \
	Res 0 \
	tauNuc 343133
forces-output-coords Positions
ion C -14.002925756219998  24.253749133649997   0.000000000000000 0
ion C  -2.333825998650000   4.042300655969999   0.000000000000000 0
ion C  11.669105426759998  20.211497610660000   0.000000000000000 0
ion C  -9.335273758920000  24.253749133649997   0.000000000000000 0
ion C   9.335307774059999  24.253749133649997   0.000000000000000 0
ion C   2.333825998650000   4.042300655969999   0.000000000000000 0
ion C -11.669128103519999  20.211497610660000   0.000000000000000 0
ion C  -4.667651997299998   8.084599422210001   0.000000000000000 0
ion C   9.335277538380002  16.169198844420002   0.000000000000000 0
ion C  -4.667621761620000  24.253749133649997   0.000000000000000 0
ion C   4.667653887029999  24.253749133649997   0.000000000000000 0
ion C   4.667653887029999   8.084599422210001   0.000000000000000 0
ion C  -9.335302104870001  16.169198844420002   0.000000000000000 0
ion C  -7.001477995949999  12.126900078179998   0.000000000000000 0
ion C   7.001451539730000  12.126900078179998   0.000000000000000 0
ion C   0.000030235680001  24.253749133649997   0.000000000000000 0
ion C   0.000000000000001   8.084599422210001   0.000000000000000 0
ion C   7.001451539729999  20.211497610660000   0.000000000000000 0
ion C  -7.001476106220001  20.211497610660000   0.000000000000000 0
ion C  -2.333825998649999  12.126900078179998   0.000000000000000 0
ion C   4.667625541080000  16.169198844420002   0.000000000000000 0
ion C  -2.333824108920000  20.211497610660000   0.000000000000000 0
ion C   2.333827888379998  20.211497610660000   0.000000000000000 0
ion C   2.333827888380001  12.126900078179998   0.000000000000000 0
ion C  -4.667650107569999  16.169198844420002   0.000000000000000 0
ion C   7.001449649999998   4.042300655969999   0.000000000000000 0
ion C  21.004379185680005   4.042300655969999   0.000000000000000 0
ion C  14.002931425410001  16.169198844420002   0.000000000000000 0
ion C   0.000001889730001  16.169198844420002   0.000000000000000 0
ion C  11.669103537030001   4.042300655969999   0.000000000000000 0
ion C  18.670583422709996   8.084599422210001   0.000000000000000 0
ion C  11.669103537029997  12.126900078179998   0.000000000000000 0
ion C  16.336757424060000  12.126900078179998   0.000000000000000 0
ion C  16.336755534330003   4.042300655969999   0.000000000000000 0
ion C   9.335277538380002   8.084599422210001   0.000000000000000 0
ion C  14.002929535680002   8.084599422210001   0.000000000000000 0
ion C   0.000015117840000   2.694858915150000   0.000000000000000 0
ion C  11.669118654869999  22.906358415540002   0.000000000000000 0
ion C -11.669114875410003  22.906358415540002   0.000000000000000 0
ion C  -2.333810880810000   6.737157681389999   0.000000000000000 0
ion C   9.335292656219996  18.864057759569999   0.000000000000000 0
ion C  -7.001462878110001  22.906358415540002   0.000000000000000 0
ion C   7.001466657569997  22.906358415540002   0.000000000000000 0
ion C   2.333812770540000   6.737157681389999   0.000000000000000 0
ion C  -9.335288876760000  18.864057759569999   0.000000000000000 0
ion C  -4.667636879460000  10.779458337359999   0.000000000000000 0
ion C   7.001466657569999  14.821757103600000   0.000000000000000 0
ion C  -2.333837337030001  22.906358415540002   0.000000000000000 0
ion C   2.333814660269999  22.906358415540002   0.000000000000000 0
ion C   4.667638769190000  10.779458337359999   0.000000000000000 0
ion C  -7.001462878110000  14.821757103600000   0.000000000000000 0
ion C   4.667638769189999   2.694858915150000   0.000000000000000 0
ion C  23.338220302169997   2.694858915150000   0.000000000000000 0
ion C  14.002918197300000  18.864057759569999   0.000000000000000 0
ion C   0.000015117839999  10.779458337359999   0.000000000000000 0
ion C   4.667640658920000  18.864057759569999   0.000000000000000 0
ion C  -4.667636879460000  18.864057759569999   0.000000000000000 0
ion C  -2.333810880810001  14.821757103600000   0.000000000000000 0
ion C   2.333814660269999  14.821757103600000   0.000000000000000 0
ion C  -0.000011338380000  18.864057759569999   0.000000000000000 0
ion C   9.335290766490001   2.694858915150000   0.000000000000000 0
ion C  21.004394303519998   6.737157681389999   0.000000000000000 0
ion C  11.669116765139997  14.821757103600000   0.000000000000000 0
ion C  16.336742306220000  14.821757103600000   0.000000000000000 0
ion C  18.670566415139998   2.694858915150000   0.000000000000000 0
ion C   7.001464767840000   6.737157681389999   0.000000000000000 0
ion C  14.002942763789999   2.694858915150000   0.000000000000000 0
ion C  18.670568304869999  10.779458337359999   0.000000000000000 0
ion C   9.335290766490001  10.779458337359999   0.000000000000000 0
ion C  11.669116765139997   6.737157681389999   0.000000000000000 0
ion C  16.336740416489995   6.737157681389999   0.000000000000000 0
ion C  14.002942763789999  10.779458337359999   0.000000000000000 0
ion S   8.124896024729999  12.391337556000000   7.951199602049999 1
ion S   5.017289841900000  10.088002350900000   6.468430516470000 1
ion Na   9.519533772299999   7.785952162200001   6.427801321470000 1
ion Na   5.138378071110001  14.811287999399998   4.680555073740000 1
ion-species GBRV/$ID_pbe.uspp
ion-width Ecut
ionic-minimize  \
	dirUpdateScheme      FletcherReeves \
	linminMethod         DirUpdateRecommended \
	nIterations          200 \
	history              15 \
	knormThreshold       0.0001 \
	energyDiffThreshold  1e-06 \
	nEnergyDiff          2 \
	alphaTstart          1 \
	alphaTmin            1e-10 \
	updateTestStepSize   yes \
	alphaTreduceFactor   0.1 \
	alphaTincreaseFactor 3 \
	nAlphaAdjustMax      3 \
	wolfeEnergy          0.0001 \
	wolfeGradient        0.9 \
	fdTest               no
kpoint   0.000000000000   0.000000000000   0.000000000000  1.00000000000000
kpoint-folding 1 1 1 
latt-move-scale 1 1 1
latt-scale 1 1 1 
lattice Triclinic 28.0058 28.0058 37.7946 90 90 120
lattice-minimize  \
	dirUpdateScheme      L-BFGS \
	linminMethod         DirUpdateRecommended \
	nIterations          0 \
	history              15 \
	knormThreshold       0 \
	energyDiffThreshold  1e-06 \
	nEnergyDiff          2 \
	alphaTstart          1 \
	alphaTmin            1e-10 \
	updateTestStepSize   yes \
	alphaTreduceFactor   0.1 \
	alphaTincreaseFactor 3 \
	nAlphaAdjustMax      3 \
	wolfeEnergy          0.0001 \
	wolfeGradient        0.9 \
	fdTest               no
lcao-params -1 1e-06 0.01
pcm-variant GLSSA13
spintype no-spin
subspace-rotation-factor 1 yes
symmetries automatic
symmetry-threshold 0.0001



---------- Setting up symmetries ----------

Found 24 point-group symmetries of the bravais lattice
Found 1 space-group symmetries with basis
Applied RMS atom displacement 0 bohrs to make symmetries exact.

---------- Initializing the Grid ----------
R = 
[      28.0058     -14.0029            0  ]
[            0      24.2537            0  ]
[            0            0      37.7946  ]
unit cell volume = 25671.8
G =
[   0.224353    0.12953         -0  ]
[          0   0.259061          0  ]
[          0         -0   0.166246  ]
Minimum fftbox size, Smin = [  128  128  172  ]
Chosen fftbox size, S = [  128  128  180  ]

---------- Initializing tighter grid for wavefunction operations ----------
R = 
[      28.0058     -14.0029            0  ]
[            0      24.2537            0  ]
[            0            0      37.7946  ]
unit cell volume = 25671.8
G =
[   0.224353    0.12953         -0  ]
[          0   0.259061          0  ]
[          0         -0   0.166246  ]
Minimum fftbox size, Smin = [  116  116  156  ]
Chosen fftbox size, S = [  120  120  160  ]

---------- Exchange Correlation functional ----------
Initalized PBE GGA exchange.
Initalized PBE GGA correlation.

---------- Setting up pseudopotentials ----------
Width of ionic core gaussian charges (only for fluid interactions / plotting) set to 0.397384

Reading pseudopotential file '/home/akakimmykim/jdftx_install/build/pseudopotentials/GBRV/c_pbe.uspp':
  Title: C.  Created by USPP 7.3.6 on 3-2-2014
  Reference state energy: -5.406344.  4 valence electrons in orbitals:
    |200>  occupation: 2  eigenvalue: -0.504890
    |210>  occupation: 2  eigenvalue: -0.194356
  lMax: 1  lLocal: 2  QijEcut: 5
  4 projectors sampled on a log grid with 503 points:
    l: 0  eig: -0.504890  rCut: 1.3
    l: 0  eig: 0.000000  rCut: 1.3
    l: 1  eig: -0.194357  rCut: 1.3
    l: 1  eig: 0.000000  rCut: 1.3
  Partial core density with radius 1.1
  Transforming core density to a uniform radial grid of dG=0.02 with 1625 points.
  Transforming local potential to a uniform radial grid of dG=0.02 with 1625 points.
  Transforming nonlocal projectors to a uniform radial grid of dG=0.02 with 432 points.
  Transforming density augmentations to a uniform radial grid of dG=0.02 with 1625 points.
  Transforming atomic orbitals to a uniform radial grid of dG=0.02 with 432 points.
  Core radius for overlap checks: 1.30 bohrs.

Reading pseudopotential file '/home/akakimmykim/jdftx_install/build/pseudopotentials/GBRV/s_pbe.uspp':
  Title: S.  Created by USPP 7.3.6 on 1-4-15
  Reference state energy: -11.898476.  6 valence electrons in orbitals:
    |300>  occupation: 2  eigenvalue: -0.634167
    |310>  occupation: 4  eigenvalue: -0.257568
  lMax: 2  lLocal: 3  QijEcut: 6
  6 projectors sampled on a log grid with 635 points:
    l: 0  eig: -0.634161  rCut: 1.5
    l: 0  eig: 1.500000  rCut: 1.5
    l: 1  eig: -0.257567  rCut: 1.5
    l: 1  eig: 1.500000  rCut: 1.5
    l: 2  eig: -1.000000  rCut: 1.5
    l: 2  eig: 1.500000  rCut: 1.5
  Partial core density with radius 1.15
  Transforming core density to a uniform radial grid of dG=0.02 with 1625 points.
  Transforming local potential to a uniform radial grid of dG=0.02 with 1625 points.
  Transforming nonlocal projectors to a uniform radial grid of dG=0.02 with 432 points.
  Transforming density augmentations to a uniform radial grid of dG=0.02 with 1625 points.
  Transforming atomic orbitals to a uniform radial grid of dG=0.02 with 432 points.
  Core radius for overlap checks: 1.50 bohrs.

Reading pseudopotential file '/home/akakimmykim/jdftx_install/build/pseudopotentials/GBRV/na_pbe.uspp':
  Title: Na.  Created by USPP 7.3.6 on 23-9-15
  Reference state energy: -47.625620.  9 valence electrons in orbitals:
    |200>  occupation: 2  eigenvalue: -2.085638
    |210>  occupation: 6  eigenvalue: -1.053708
    |300>  occupation: 1  eigenvalue: -0.100838
  lMax: 2  lLocal: 0  QijEcut: 6
  5 projectors sampled on a log grid with 657 points:
    l: 0  eig: -2.085640  rCut: 1.37
    l: 0  eig: -0.100839  rCut: 1.37
    l: 1  eig: -1.053708  rCut: 1.47
    l: 1  eig: 0.500000  rCut: 1.47
    l: 2  eig: 0.750000  rCut: 2
  Transforming local potential to a uniform radial grid of dG=0.02 with 1625 points.
  Transforming nonlocal projectors to a uniform radial grid of dG=0.02 with 432 points.
  Transforming density augmentations to a uniform radial grid of dG=0.02 with 1625 points.
  Transforming atomic orbitals to a uniform radial grid of dG=0.02 with 432 points.
  Core radius for overlap checks: 2.00 bohrs.

Initialized 3 species with 76 total atoms.

Folded 1 k-points by 1x1x1 to 1 k-points.

---------- Setting up k-points, bands, fillings ----------
No reducable k-points. 
Computing the number of bands and number of electrons
Calculating initial fillings.
nElectrons: 318.000000   nBands: 306   nStates: 1

----- Setting up reduced wavefunction bases (one per k-point) -----
average nbasis = 109673.000 , ideal nbasis = 109671.883

---------- Setting up coulomb interaction ----------
Fluid mode embedding: using embedded box, but periodic Coulomb kernel.
(Fluid response is responsible for (approximate) separation between periodic images.)
Setting up double-sized grid for truncated Coulomb potentials:
R = 
[      28.0058     -14.0029            0  ]
[            0      24.2537            0  ]
[            0            0      75.5892  ]
unit cell volume = 51343.6
G =
[   0.224353    0.12953         -0  ]
[          0   0.259061          0  ]
[          0         -0  0.0831228  ]
Chosen fftbox size, S = [  128  128  360  ]
Integer grid location selected as the embedding center:
   Grid: [  0  0  0  ]
   Lattice: [  0  0  0  ]
   Cartesian: [  0  0  0  ]
Constructing Wigner-Seitz cell: 8 faces (6 quadrilaterals, 2 hexagons)
Range-separation parameter for embedded mesh potentials due to point charges: 0.590105 bohrs.

---------- Setting up ewald sum ----------
Optimum gaussian width for ewald sums = 7.204490 bohr.
Real space sum over 405 unit cells with max indices [  4  4  2  ]
Reciprocal space sum over 7875 terms with max indices [  7  7  17  ]

---------- Allocating electronic variables ----------
Initializing wave functions:  linear combination of atomic orbitals
C pseudo-atom occupations:   s ( 2 )  p ( 2 )
S pseudo-atom occupations:   s ( 2 )  p ( 4 )
Na pseudo-atom occupations:   s ( 2 1 )  p ( 6 )
	FillingsUpdate:  mu: -0.186063523  nElectrons: 318.000000
LCAOMinimize: Iter:   0  F: -522.2324053266077044  |grad|_K:  1.141e-02  alpha:  1.000e+00
LCAOMinimize: 	Step increased F by 1.420272e+00, reducing alpha to 3.519726e-02.
	FillingsUpdate:  mu: -0.198162225  nElectrons: 318.000000
LCAOMinimize: Iter:   1  F: -522.6748779827121325  |grad|_K:  7.860e-03  alpha:  3.520e-02  linmin: -1.485e-01  cgtest:  7.773e-01  t[s]:    436.36
LCAOMinimize: Encountered beta<0, resetting CG.
	FillingsUpdate:  mu: -0.215321831  nElectrons: 318.000000
LCAOMinimize: Iter:   2  F: -522.8519057550429352  |grad|_K:  1.437e-03  alpha:  6.875e-02  linmin:  1.517e-01  cgtest: -9.261e-01  t[s]:    542.99
LCAOMinimize: 	Bad step direction: g.d > 0.
LCAOMinimize: 	Undoing step.
LCAOMinimize: 	Step failed: resetting search direction.
	FillingsUpdate:  mu: -0.215321831  nElectrons: 318.000000
LCAOMinimize: Iter:   3  F: -522.8519057550447542  |grad|_K:  1.437e-03  alpha:  0.000e+00
	FillingsUpdate:  mu: -0.228964878  nElectrons: 318.000000
LCAOMinimize: Iter:   4  F: -522.8583567951708346  |grad|_K:  4.034e-04  alpha:  6.613e-02  linmin:  2.623e-02  cgtest: -7.158e-02  t[s]:    717.74
LCAOMinimize: 	Predicted alpha/alphaT>3.000000, increasing alphaT to 1.983868e-01.
	FillingsUpdate:  mu: -0.228629217  nElectrons: 318.000000
LCAOMinimize: Iter:   5  F: -522.8621519564829896  |grad|_K:  2.560e-04  alpha:  5.166e-01  linmin:  3.722e-03  cgtest:  5.036e-02  t[s]:    849.95
	FillingsUpdate:  mu: -0.226818367  nElectrons: 318.000000
LCAOMinimize: Iter:   6  F: -522.8627936873749604  |grad|_K:  2.105e-04  alpha:  2.138e-01  linmin:  2.616e-04  cgtest:  2.260e-02  t[s]:    956.17
	FillingsUpdate:  mu: -0.228113957  nElectrons: 318.000000
LCAOMinimize: Iter:   7  F: -522.8629656859692432  |grad|_K:  5.637e-05  alpha:  8.195e-02  linmin: -2.235e-03  cgtest:  3.648e-02  t[s]:   1063.58
LCAOMinimize: 	Predicted alpha/alphaT>3.000000, increasing alphaT to 2.458626e-01.
	FillingsUpdate:  mu: -0.228228577  nElectrons: 318.000000
LCAOMinimize: Iter:   8  F: -522.8630154786802677  |grad|_K:  3.169e-05  alpha:  3.305e-01  linmin: -5.771e-04  cgtest: -6.910e-03  t[s]:   1197.44
	FillingsUpdate:  mu: -0.228238698  nElectrons: 318.000000
LCAOMinimize: Iter:   9  F: -522.8630330636719918  |grad|_K:  1.572e-05  alpha:  3.707e-01  linmin: -7.837e-05  cgtest:  1.383e-03  t[s]:   1304.12
	FillingsUpdate:  mu: -0.228364445  nElectrons: 318.000000
LCAOMinimize: Iter:  10  F: -522.8630360405132933  |grad|_K:  1.262e-05  alpha:  2.554e-01  linmin:  3.182e-06  cgtest:  2.534e-03  t[s]:   1410.93
	FillingsUpdate:  mu: -0.228303767  nElectrons: 318.000000
LCAOMinimize: Iter:  11  F: -522.8630366145883954  |grad|_K:  2.979e-06  alpha:  7.666e-02  linmin:  4.352e-04  cgtest: -4.476e-03  t[s]:   1517.69
LCAOMinimize: 	Predicted alpha/alphaT>3.000000, increasing alphaT to 2.299859e-01.
	FillingsUpdate:  mu: -0.228309173  nElectrons: 318.000000
LCAOMinimize: Iter:  12  F: -522.8630367657129909  |grad|_K:  1.109e-06  alpha:  3.630e-01  linmin:  2.691e-03  cgtest: -1.074e-02  t[s]:   1649.89
LCAOMinimize: Converged (|Delta F|<1.000000e-06 for 2 iters).
----- createFluidSolver() ----- (Fluid-side solver setup)
   Initializing fluid molecule 'PC'
     Net charge: 0   dipole magnitude: 0
     Initializing spherical shell mfKernel with radius 0 Bohr
     deltaS corrections:

Correction to mu due to finite nuclear width = -0.00614526
   Cavity determined by nc: 0.00098 and sigma: 0.6
   Effective cavity tension: 9.53e-06 Eh/bohr^2 to account for cavitation and dispersion.


---- Citations for features of the code used in this run ----

   Software package:
      R. Sundararaman, K. Letchworth-Weaver, K.A. Schwarz, D. Gunceler, Y. Ozhabes and T.A. Arias, 'JDFTx: software for joint density-functional theory', SoftwareX 6, 278 (2017)

   gga-PBE exchange-correlation functional:
      J.P. Perdew, K. Burke and M. Ernzerhof, Phys. Rev. Lett. 77, 3865 (1996)

   Pseudopotentials:
      KF Garrity, JW Bennett, KM Rabe and D Vanderbilt, Comput. Mater. Sci. 81, 446 (2014)

   Truncated Coulomb potentials:
      R. Sundararaman and T.A. Arias, Phys. Rev. B 87, 165122 (2013)

   Linear/nonlinear dielectric/ionic fluid model with effective cavity tension:
      D. Gunceler, K. Letchworth-Weaver, R. Sundararaman, K.A. Schwarz and T.A. Arias, Modelling Simul. Mater. Sci. Eng. 21, 074005 (2013)

This list may not be complete. Please suggest additional citations or
report any other bugs at https://github.com/shankar1729/jdftx/issues

Initialization completed successfully at t[s]:   1723.64

Fluid solver invoked on fresh (random / LCAO) wavefunctions
Running a vacuum solve first:

-------- Initial electronic minimization -----------
Will mix electronic density at each iteration.
	FillingsUpdate:  mu: -0.228309173  nElectrons: 318.000000
	FillingsUpdate:  mu: -0.235500228  nElectrons: 318.000000
SCF: Cycle:  0   F: -526.295937274923176   dF: -3.433e+00   |Residual|: 9.481e-01   |deigs|: 1.257e-01  t[s]:   2314.58
	FillingsUpdate:  mu: -0.208966414  nElectrons: 318.000000
SCF: Cycle:  1   F: -526.803554082936216   dF: -5.076e-01   |Residual|: 4.883e-01   |deigs|: 3.593e-02  t[s]:   2846.14
	FillingsUpdate:  mu: -0.176860750  nElectrons: 318.000000
SCF: Cycle:  2   F: -527.111727650318130   dF: -3.082e-01   |Residual|: 1.228e-01   |deigs|: 3.119e-02  t[s]:   3379.13
	FillingsUpdate:  mu: -0.168669462  nElectrons: 318.000000
SCF: Cycle:  3   F: -527.122919747984383   dF: -1.119e-02   |Residual|: 7.896e-02   |deigs|: 9.055e-03  t[s]:   3910.92
	FillingsUpdate:  mu: -0.157516333  nElectrons: 318.000000
SCF: Cycle:  4   F: -527.147642408950105   dF: -2.472e-02   |Residual|: 4.066e-02   |deigs|: 9.803e-03  t[s]:   4446.84
	FillingsUpdate:  mu: -0.148108505  nElectrons: 318.000000
SCF: Cycle:  5   F: -527.157618057343825   dF: -9.976e-03   |Residual|: 3.173e-02   |deigs|: 8.579e-03  t[s]:   5018.75
	FillingsUpdate:  mu: -0.142852999  nElectrons: 318.000000
SCF: Cycle:  6   F: -527.158897034302186   dF: -1.279e-03   |Residual|: 2.022e-02   |deigs|: 4.896e-03  t[s]:   5535.36
	FillingsUpdate:  mu: -0.135866274  nElectrons: 318.000000
SCF: Cycle:  7   F: -527.161979563012892   dF: -3.083e-03   |Residual|: 1.865e-02   |deigs|: 6.444e-03  t[s]:   6035.36
	FillingsUpdate:  mu: -0.134143649  nElectrons: 318.000000
SCF: Cycle:  8   F: -527.160062085423192   dF: +1.917e-03   |Residual|: 1.680e-02   |deigs|: 2.369e-03  t[s]:   6547.09
	FillingsUpdate:  mu: -0.130090717  nElectrons: 318.000000
SCF: Cycle:  9   F: -527.163883391915874   dF: -3.821e-03   |Residual|: 9.533e-03   |deigs|: 3.295e-03  t[s]:   7016.29
	FillingsUpdate:  mu: -0.128510652  nElectrons: 318.000000
SCF: Cycle: 10   F: -527.164037212723201   dF: -1.538e-04   |Residual|: 8.501e-03   |deigs|: 1.612e-03  t[s]:   7481.29
	FillingsUpdate:  mu: -0.125357727  nElectrons: 318.000000
SCF: Cycle: 11   F: -527.164535794276958   dF: -4.986e-04   |Residual|: 6.791e-03   |deigs|: 2.497e-03  t[s]:   7937.31
	FillingsUpdate:  mu: -0.123010321  nElectrons: 318.000000
SCF: Cycle: 12   F: -527.164769382400664   dF: -2.336e-04   |Residual|: 4.779e-03   |deigs|: 2.112e-03  t[s]:   8394.69
	FillingsUpdate:  mu: -0.121006065  nElectrons: 318.000000
SCF: Cycle: 13   F: -527.164824648175113   dF: -5.527e-05   |Residual|: 3.875e-03   |deigs|: 1.814e-03  t[s]:   8846.99
	FillingsUpdate:  mu: -0.118511161  nElectrons: 318.000000
SCF: Cycle: 14   F: -527.164835931636617   dF: -1.128e-05   |Residual|: 2.634e-03   |deigs|: 2.923e-03  t[s]:   9309.19
	FillingsUpdate:  mu: -0.116785756  nElectrons: 318.000000
SCF: Cycle: 15   F: -527.164820094268521   dF: +1.584e-05   |Residual|: 1.997e-03   |deigs|: 2.018e-03  t[s]:   9769.78
	FillingsUpdate:  mu: -0.115690386  nElectrons: 318.000000
SCF: Cycle: 16   F: -527.164848205620615   dF: -2.811e-05   |Residual|: 1.327e-03   |deigs|: 1.221e-03  t[s]:  10233.92
	FillingsUpdate:  mu: -0.115085451  nElectrons: 318.000000
SCF: Cycle: 17   F: -527.164853863389453   dF: -5.658e-06   |Residual|: 1.110e-03   |deigs|: 7.214e-04  t[s]:  10698.31
	FillingsUpdate:  mu: -0.114752894  nElectrons: 318.000000
SCF: Cycle: 18   F: -527.164867487735478   dF: -1.362e-05   |Residual|: 9.580e-04   |deigs|: 4.262e-04  t[s]:  11165.82
	FillingsUpdate:  mu: -0.114408709  nElectrons: 318.000000
SCF: Cycle: 19   F: -527.164874438981542   dF: -6.951e-06   |Residual|: 8.607e-04   |deigs|: 4.552e-04  t[s]:  11630.82
	FillingsUpdate:  mu: -0.114063400  nElectrons: 318.000000
SCF: Cycle: 20   F: -527.164878790907437   dF: -4.352e-06   |Residual|: 7.223e-04   |deigs|: 5.977e-04  t[s]:  12098.17
	FillingsUpdate:  mu: -0.113638220  nElectrons: 318.000000
SCF: Cycle: 21   F: -527.164880748452561   dF: -1.958e-06   |Residual|: 5.615e-04   |deigs|: 5.427e-04  t[s]:  12560.86
	FillingsUpdate:  mu: -0.112906627  nElectrons: 318.000000
SCF: Cycle: 22   F: -527.164882050753022   dF: -1.302e-06   |Residual|: 3.313e-04   |deigs|: 1.778e-03  t[s]:  13024.48
	FillingsUpdate:  mu: -0.112782718  nElectrons: 318.000000
SCF: Cycle: 23   F: -527.164882190604771   dF: -1.399e-07   |Residual|: 2.673e-04   |deigs|: 4.518e-04  t[s]:  13487.36
	FillingsUpdate:  mu: -0.112744264  nElectrons: 318.000000
SCF: Cycle: 24   F: -527.164882930746217   dF: -7.401e-07   |Residual|: 1.946e-04   |deigs|: 5.169e-04  t[s]:  13950.52
	FillingsUpdate:  mu: -0.112700910  nElectrons: 318.000000
SCF: Cycle: 25   F: -527.164883310467076   dF: -3.797e-07   |Residual|: 1.344e-04   |deigs|: 1.914e-04  t[s]:  14412.89
	FillingsUpdate:  mu: -0.112668187  nElectrons: 318.000000
SCF: Cycle: 26   F: -527.164883464522177   dF: -1.541e-07   |Residual|: 1.069e-04   |deigs|: 1.439e-04  t[s]:  14876.57
	FillingsUpdate:  mu: -0.112602444  nElectrons: 318.000000
SCF: Cycle: 27   F: -527.164883547410454   dF: -8.289e-08   |Residual|: 8.893e-05   |deigs|: 4.467e-04  t[s]:  15340.96
	FillingsUpdate:  mu: -0.112578861  nElectrons: 318.000000
SCF: Cycle: 28   F: -527.164883568508913   dF: -2.110e-08   |Residual|: 4.675e-05   |deigs|: 3.461e-04  t[s]:  15804.35
	FillingsUpdate:  mu: -0.112578426  nElectrons: 318.000000
SCF: Cycle: 29   F: -527.164883571777750   dF: -3.269e-09   |Residual|: 3.102e-05   |deigs|: 3.279e-04  t[s]:  16268.71
	FillingsUpdate:  mu: -0.112590298  nElectrons: 318.000000
SCF: Cycle: 30   F: -527.164883580760488   dF: -8.983e-09   |Residual|: 2.417e-05   |deigs|: 1.097e-04  t[s]:  16727.92
SCF: Converged (|Delta E|<1.000000e-08 for 2 iters).

Setting wave functions to eigenvectors of Hamiltonian
Vacuum energy after initial minimize, F = -527.164883580760488


-------- Electronic minimization -----------
Will mix electronic density at each iteration.
	FillingsUpdate:  mu: -0.112590298  nElectrons: 318.000000
	Linear fluid (dielectric constant: 64) occupying 0.891436 of unit cell:	Completed after 43 iterations at t[s]:  16773.80
	FillingsUpdate:  mu: -0.106224381  nElectrons: 318.000000
	Linear fluid (dielectric constant: 64) occupying 0.891312 of unit cell:	Completed after 33 iterations at t[s]:  17360.17
SCF: Cycle:  0   F: -527.298250026660412   dF: -2.568e-02   |Residual|: 5.488e-02   |deigs|: 3.014e-03  t[s]:  17361.23
	Linear fluid (dielectric constant: 64) occupying 0.891450 of unit cell:	Completed after 31 iterations at t[s]:  17372.50
	FillingsUpdate:  mu: -0.105497306  nElectrons: 318.000000
	Linear fluid (dielectric constant: 64) occupying 0.891307 of unit cell:	Completed after 31 iterations at t[s]:  17915.70
SCF: Cycle:  1   F: -527.304058668818584   dF: -5.809e-03   |Residual|: 2.857e-02   |deigs|: 1.995e-03  t[s]:  17916.88
	Linear fluid (dielectric constant: 64) occupying 0.891379 of unit cell:	Completed after 29 iterations at t[s]:  17927.04
	FillingsUpdate:  mu: -0.105617198  nElectrons: 318.000000
	Linear fluid (dielectric constant: 64) occupying 0.891323 of unit cell:	Completed after 30 iterations at t[s]:  18496.94
SCF: Cycle:  2   F: -527.305846807156399   dF: -1.788e-03   |Residual|: 1.818e-02   |deigs|: 1.014e-03  t[s]:  18498.07
	Linear fluid (dielectric constant: 64) occupying 0.891295 of unit cell:	Completed after 27 iterations at t[s]:  18508.00
	FillingsUpdate:  mu: -0.105266587  nElectrons: 318.000000
	Linear fluid (dielectric constant: 64) occupying 0.891320 of unit cell:	Completed after 27 iterations at t[s]:  19046.39
SCF: Cycle:  3   F: -527.306533937248446   dF: -6.871e-04   |Residual|: 1.209e-02   |deigs|: 9.831e-04  t[s]:  19047.48
	Linear fluid (dielectric constant: 64) occupying 0.891201 of unit cell:	Completed after 24 iterations at t[s]:  19056.57
	FillingsUpdate:  mu: -0.105135569  nElectrons: 318.000000
	Linear fluid (dielectric constant: 64) occupying 0.891293 of unit cell:	Completed after 25 iterations at t[s]:  19595.26
SCF: Cycle:  4   F: -527.306951339146167   dF: -4.174e-04   |Residual|: 8.069e-03   |deigs|: 8.815e-04  t[s]:  19596.38
	Linear fluid (dielectric constant: 64) occupying 0.891136 of unit cell:	Completed after 22 iterations at t[s]:  19604.85
	FillingsUpdate:  mu: -0.105101960  nElectrons: 318.000000
	Linear fluid (dielectric constant: 64) occupying 0.891256 of unit cell:	Completed after 22 iterations at t[s]:  20145.89
SCF: Cycle:  5   F: -527.307210955580899   dF: -2.596e-04   |Residual|: 5.604e-03   |deigs|: 7.437e-04  t[s]:  20147.01
	Linear fluid (dielectric constant: 64) occupying 0.891055 of unit cell:	Completed after 20 iterations at t[s]:  20154.85
	FillingsUpdate:  mu: -0.105265913  nElectrons: 318.000000
	Linear fluid (dielectric constant: 64) occupying 0.891228 of unit cell:	Completed after 18 iterations at t[s]:  20691.86
SCF: Cycle:  6   F: -527.307316580126326   dF: -1.056e-04   |Residual|: 3.233e-03   |deigs|: 6.220e-04  t[s]:  20692.97
	Linear fluid (dielectric constant: 64) occupying 0.891041 of unit cell:	Completed after 17 iterations at t[s]:  20699.75
	FillingsUpdate:  mu: -0.105359582  nElectrons: 318.000000
	Linear fluid (dielectric constant: 64) occupying 0.891225 of unit cell:	Completed after 17 iterations at t[s]:  21177.33
SCF: Cycle:  7   F: -527.307342700215486   dF: -2.612e-05   |Residual|: 2.478e-03   |deigs|: 5.128e-04  t[s]:  21178.48
	Linear fluid (dielectric constant: 64) occupying 0.891066 of unit cell:	Completed after 17 iterations at t[s]:  21185.94
	FillingsUpdate:  mu: -0.105534177  nElectrons: 318.000000
	Linear fluid (dielectric constant: 64) occupying 0.891231 of unit cell:	Completed after 15 iterations at t[s]:  21665.40
SCF: Cycle:  8   F: -527.307362232373407   dF: -1.953e-05   |Residual|: 1.796e-03   |deigs|: 7.126e-04  t[s]:  21666.57
	Linear fluid (dielectric constant: 64) occupying 0.891130 of unit cell:	Completed after 15 iterations at t[s]:  21673.17
	FillingsUpdate:  mu: -0.105567649  nElectrons: 318.000000
	Linear fluid (dielectric constant: 64) occupying 0.891237 of unit cell:	Completed after 15 iterations at t[s]:  22139.46
SCF: Cycle:  9   F: -527.307369420051259   dF: -7.188e-06   |Residual|: 1.291e-03   |deigs|: 4.817e-04  t[s]:  22140.60
	Linear fluid (dielectric constant: 64) occupying 0.891169 of unit cell:	Completed after 14 iterations at t[s]:  22146.78
	FillingsUpdate:  mu: -0.105575572  nElectrons: 318.000000
	Linear fluid (dielectric constant: 64) occupying 0.891241 of unit cell:	Completed after 14 iterations at t[s]:  22602.33
SCF: Cycle: 10   F: -527.307371519145818   dF: -2.099e-06   |Residual|: 9.196e-04   |deigs|: 4.349e-04  t[s]:  22603.48
	Linear fluid (dielectric constant: 64) occupying 0.891199 of unit cell:	Completed after 14 iterations at t[s]:  22609.71
	FillingsUpdate:  mu: -0.105601579  nElectrons: 318.000000
	Linear fluid (dielectric constant: 64) occupying 0.891246 of unit cell:	Completed after 14 iterations at t[s]:  23069.23
SCF: Cycle: 11   F: -527.307373059427846   dF: -1.540e-06   |Residual|: 8.281e-04   |deigs|: 5.412e-04  t[s]:  23070.32
	Linear fluid (dielectric constant: 64) occupying 0.891207 of unit cell:	Completed after 12 iterations at t[s]:  23075.76
	FillingsUpdate:  mu: -0.105613876  nElectrons: 318.000000
	Linear fluid (dielectric constant: 64) occupying 0.891248 of unit cell:	Completed after 12 iterations at t[s]:  23533.93
SCF: Cycle: 12   F: -527.307373908003797   dF: -8.486e-07   |Residual|: 7.295e-04   |deigs|: 3.125e-04  t[s]:  23535.00
	Linear fluid (dielectric constant: 64) occupying 0.891218 of unit cell:	Completed after 10 iterations at t[s]:  23540.06
	FillingsUpdate:  mu: -0.105620458  nElectrons: 318.000000
	Linear fluid (dielectric constant: 64) occupying 0.891251 of unit cell:	Completed after 9 iterations at t[s]:  23994.39
SCF: Cycle: 13   F: -527.307373566824481   dF: +3.412e-07   |Residual|: 6.344e-04   |deigs|: 2.817e-04  t[s]:  23995.51
	Linear fluid (dielectric constant: 64) occupying 0.891232 of unit cell:	Completed after 5 iterations at t[s]:  23998.92
	FillingsUpdate:  mu: -0.105629234  nElectrons: 318.000000
	Linear fluid (dielectric constant: 64) occupying 0.891252 of unit cell:	Completed after 4 iterations at t[s]:  24455.81
SCF: Cycle: 14   F: -527.307373699248842   dF: -1.324e-07   |Residual|: 5.749e-04   |deigs|: 2.384e-04  t[s]:  24456.92
	Linear fluid (dielectric constant: 64) occupying 0.891242 of unit cell:	Completed after 4 iterations at t[s]:  24459.60
	FillingsUpdate:  mu: -0.105627219  nElectrons: 318.000000
	Linear fluid (dielectric constant: 64) occupying 0.891253 of unit cell:	Completed after 4 iterations at t[s]:  24913.41
SCF: Cycle: 15   F: -527.307374153569640   dF: -4.543e-07   |Residual|: 4.790e-04   |deigs|: 1.636e-04  t[s]:  24914.53
	Linear fluid (dielectric constant: 64) occupying 0.891250 of unit cell:	Completed after 4 iterations at t[s]:  24917.25
	FillingsUpdate:  mu: -0.105649155  nElectrons: 318.000000
	Linear fluid (dielectric constant: 64) occupying 0.891253 of unit cell:	Completed after 5 iterations at t[s]:  25371.53
SCF: Cycle: 16   F: -527.307374502613925   dF: -3.490e-07   |Residual|: 4.442e-04   |deigs|: 2.145e-04  t[s]:  25372.62
	Linear fluid (dielectric constant: 64) occupying 0.891252 of unit cell:	Completed after 3 iterations at t[s]:  25375.14
	FillingsUpdate:  mu: -0.105635131  nElectrons: 318.000000
	Linear fluid (dielectric constant: 64) occupying 0.891253 of unit cell:	Completed after 4 iterations at t[s]:  25829.20
SCF: Cycle: 17   F: -527.307374676897894   dF: -1.743e-07   |Residual|: 3.758e-04   |deigs|: 2.392e-04  t[s]:  25830.31
	Linear fluid (dielectric constant: 64) occupying 0.891248 of unit cell:	Completed after 3 iterations at t[s]:  25832.84
	FillingsUpdate:  mu: -0.105660691  nElectrons: 318.000000
	Linear fluid (dielectric constant: 64) occupying 0.891253 of unit cell:	Completed after 5 iterations at t[s]:  26288.20
SCF: Cycle: 18   F: -527.307374220585075   dF: +4.563e-07   |Residual|: 4.828e-04   |deigs|: 2.678e-04  t[s]:  26289.30
	Linear fluid (dielectric constant: 64) occupying 0.891249 of unit cell:	Completed after 3 iterations at t[s]:  26291.61
	FillingsUpdate:  mu: -0.105640053  nElectrons: 318.000000
	Linear fluid (dielectric constant: 64) occupying 0.891254 of unit cell:	Completed after 5 iterations at t[s]:  26745.64
SCF: Cycle: 19   F: -527.307374548235430   dF: -3.277e-07   |Residual|: 4.150e-04   |deigs|: 1.348e-04  t[s]:  26746.71
	Linear fluid (dielectric constant: 64) occupying 0.891246 of unit cell:	Completed after 3 iterations at t[s]:  26749.07
	FillingsUpdate:  mu: -0.105659851  nElectrons: 318.000000
	Linear fluid (dielectric constant: 64) occupying 0.891254 of unit cell:	Completed after 4 iterations at t[s]:  27202.93
SCF: Cycle: 20   F: -527.307375336014616   dF: -7.878e-07   |Residual|: 2.302e-04   |deigs|: 3.277e-04  t[s]:  27204.04
	Linear fluid (dielectric constant: 64) occupying 0.891249 of unit cell:	Completed after 2 iterations at t[s]:  27206.08
	FillingsUpdate:  mu: -0.105647667  nElectrons: 318.000000
	Linear fluid (dielectric constant: 64) occupying 0.891254 of unit cell:	Completed after 4 iterations at t[s]:  27663.96
SCF: Cycle: 21   F: -527.307374759080290   dF: +5.769e-07   |Residual|: 3.909e-04   |deigs|: 1.514e-04  t[s]:  27665.05
	Linear fluid (dielectric constant: 64) occupying 0.891250 of unit cell:	Completed after 3 iterations at t[s]:  27667.64
	FillingsUpdate:  mu: -0.105667081  nElectrons: 318.000000
	Linear fluid (dielectric constant: 64) occupying 0.891254 of unit cell:	Completed after 4 iterations at t[s]:  28121.03
SCF: Cycle: 22   F: -527.307375005923973   dF: -2.468e-07   |Residual|: 3.474e-04   |deigs|: 1.467e-04  t[s]:  28122.11
	Linear fluid (dielectric constant: 64) occupying 0.891253 of unit cell:	Completed after 2 iterations at t[s]:  28124.36
	FillingsUpdate:  mu: -0.105653233  nElectrons: 318.000000
	Linear fluid (dielectric constant: 64) occupying 0.891254 of unit cell:	Completed after 3 iterations at t[s]:  28578.24
SCF: Cycle: 23   F: -527.307375500303124   dF: -4.944e-07   |Residual|: 2.142e-04   |deigs|: 1.340e-04  t[s]:  28579.35
	Linear fluid (dielectric constant: 64) occupying 0.891252 of unit cell:	Completed after 2 iterations at t[s]:  28581.37
	FillingsUpdate:  mu: -0.105673842  nElectrons: 318.000000
	Linear fluid (dielectric constant: 64) occupying 0.891255 of unit cell:	Completed after 4 iterations at t[s]:  29034.16
SCF: Cycle: 24   F: -527.307374893216320   dF: +6.071e-07   |Residual|: 3.972e-04   |deigs|: 2.008e-04  t[s]:  29035.26
	Linear fluid (dielectric constant: 64) occupying 0.891254 of unit cell:	Completed after 3 iterations at t[s]:  29037.59
	FillingsUpdate:  mu: -0.105654257  nElectrons: 318.000000
	Linear fluid (dielectric constant: 64) occupying 0.891254 of unit cell:	Completed after 0 iterations at t[s]:  29486.72
SCF: Cycle: 25   F: -527.307375920228992   dF: -1.027e-06   |Residual|: 1.105e-04   |deigs|: 1.270e-04  t[s]:  29487.79
	Linear fluid (dielectric constant: 64) occupying 0.891253 of unit cell:	Completed after 0 iterations at t[s]:  29488.91
	FillingsUpdate:  mu: -0.105665662  nElectrons: 318.000000
	Linear fluid (dielectric constant: 64) occupying 0.891254 of unit cell:	Completed after 0 iterations at t[s]:  29935.19
SCF: Cycle: 26   F: -527.307375946113893   dF: -2.588e-08   |Residual|: 3.075e-05   |deigs|: 1.504e-04  t[s]:  29936.26
	Linear fluid (dielectric constant: 64) occupying 0.891253 of unit cell:	Completed after 0 iterations at t[s]:  29937.42
	FillingsUpdate:  mu: -0.105665556  nElectrons: 318.000000
	Linear fluid (dielectric constant: 64) occupying 0.891254 of unit cell:	Completed after 0 iterations at t[s]:  30391.21
SCF: Cycle: 27   F: -527.307375957167551   dF: -1.105e-08   |Residual|: 2.383e-05   |deigs|: 1.043e-04  t[s]:  30392.28
	Linear fluid (dielectric constant: 64) occupying 0.891254 of unit cell:	Completed after 0 iterations at t[s]:  30393.42
	FillingsUpdate:  mu: -0.105665369  nElectrons: 318.000000
	Linear fluid (dielectric constant: 64) occupying 0.891254 of unit cell:	Completed after 0 iterations at t[s]:  30844.66
SCF: Cycle: 28   F: -527.307375971367833   dF: -1.420e-08   |Residual|: 2.192e-05   |deigs|: 8.666e-05  t[s]:  30845.74
	Linear fluid (dielectric constant: 64) occupying 0.891254 of unit cell:	Completed after 0 iterations at t[s]:  30847.21
	FillingsUpdate:  mu: -0.105658546  nElectrons: 318.000000
	Linear fluid (dielectric constant: 64) occupying 0.891254 of unit cell:	Completed after 0 iterations at t[s]:  31300.23
SCF: Cycle: 29   F: -527.307375955309567   dF: +1.606e-08   |Residual|: 1.842e-05   |deigs|: 7.338e-05  t[s]:  31301.32
	Linear fluid (dielectric constant: 64) occupying 0.891254 of unit cell:	Completed after 0 iterations at t[s]:  31302.51
	FillingsUpdate:  mu: -0.105658539  nElectrons: 318.000000
	Linear fluid (dielectric constant: 64) occupying 0.891254 of unit cell:	Completed after 0 iterations at t[s]:  31733.25
SCF: Cycle: 30   F: -527.307375956305009   dF: -9.954e-10   |Residual|: 1.872e-05   |deigs|: 1.729e-05  t[s]:  31734.34
	Linear fluid (dielectric constant: 64) occupying 0.891254 of unit cell:	Completed after 0 iterations at t[s]:  31735.51
	FillingsUpdate:  mu: -0.105658558  nElectrons: 318.000000
	Linear fluid (dielectric constant: 64) occupying 0.891254 of unit cell:	Completed after 0 iterations at t[s]:  32187.81
SCF: Cycle: 31   F: -527.307375957362638   dF: -1.058e-09   |Residual|: 1.870e-05   |deigs|: 1.246e-05  t[s]:  32188.92
SCF: Converged (|Delta E|<1.000000e-08 for 2 iters).

Setting wave functions to eigenvectors of Hamiltonian
Single-point solvation energy estimate, DeltaF = -0.142492376602149

# Ionic positions in cartesian coordinates:
ion C -14.002925756219998  24.253749133649997   0.000000000000000 0
ion C  -2.333825998650000   4.042300655969999   0.000000000000000 0
ion C  11.669105426759998  20.211497610660000   0.000000000000000 0
ion C  -9.335273758920000  24.253749133649997   0.000000000000000 0
ion C   9.335307774059999  24.253749133649997   0.000000000000000 0
ion C   2.333825998650000   4.042300655969999   0.000000000000000 0
ion C -11.669128103519999  20.211497610660000   0.000000000000000 0
ion C  -4.667651997299998   8.084599422210001   0.000000000000000 0
ion C   9.335277538380002  16.169198844420002   0.000000000000000 0
ion C  -4.667621761620000  24.253749133649997   0.000000000000000 0
ion C   4.667653887029999  24.253749133649997   0.000000000000000 0
ion C   4.667653887029999   8.084599422210001   0.000000000000000 0
ion C  -9.335302104870001  16.169198844420002   0.000000000000000 0
ion C  -7.001477995949999  12.126900078179998   0.000000000000000 0
ion C   7.001451539730000  12.126900078179998   0.000000000000000 0
ion C   0.000030235680001  24.253749133649997   0.000000000000000 0
ion C   0.000000000000001   8.084599422210001   0.000000000000000 0
ion C   7.001451539729999  20.211497610660000   0.000000000000000 0
ion C  -7.001476106220001  20.211497610660000   0.000000000000000 0
ion C  -2.333825998649999  12.126900078179998   0.000000000000000 0
ion C   4.667625541080000  16.169198844420002   0.000000000000000 0
ion C  -2.333824108920000  20.211497610660000   0.000000000000000 0
ion C   2.333827888379998  20.211497610660000   0.000000000000000 0
ion C   2.333827888380001  12.126900078179998   0.000000000000000 0
ion C  -4.667650107569999  16.169198844420002   0.000000000000000 0
ion C   7.001449649999998   4.042300655969999   0.000000000000000 0
ion C  21.004379185680005   4.042300655969999   0.000000000000000 0
ion C  14.002931425410001  16.169198844420002   0.000000000000000 0
ion C   0.000001889730001  16.169198844420002   0.000000000000000 0
ion C  11.669103537030001   4.042300655969999   0.000000000000000 0
ion C  18.670583422709996   8.084599422210001   0.000000000000000 0
ion C  11.669103537029997  12.126900078179998   0.000000000000000 0
ion C  16.336757424060000  12.126900078179998   0.000000000000000 0
ion C  16.336755534330003   4.042300655969999   0.000000000000000 0
ion C   9.335277538380002   8.084599422210001   0.000000000000000 0
ion C  14.002929535680002   8.084599422210001   0.000000000000000 0
ion C   0.000015117840000   2.694858915150000   0.000000000000000 0
ion C  11.669118654869999  22.906358415540002   0.000000000000000 0
ion C -11.669114875410003  22.906358415540002   0.000000000000000 0
ion C  -2.333810880810000   6.737157681389999   0.000000000000000 0
ion C   9.335292656219996  18.864057759569999   0.000000000000000 0
ion C  -7.001462878110001  22.906358415540002   0.000000000000000 0
ion C   7.001466657569997  22.906358415540002   0.000000000000000 0
ion C   2.333812770540000   6.737157681389999   0.000000000000000 0
ion C  -9.335288876760000  18.864057759569999   0.000000000000000 0
ion C  -4.667636879460000  10.779458337359999   0.000000000000000 0
ion C   7.001466657569999  14.821757103600000   0.000000000000000 0
ion C  -2.333837337030001  22.906358415540002   0.000000000000000 0
ion C   2.333814660269999  22.906358415540002   0.000000000000000 0
ion C   4.667638769190000  10.779458337359999   0.000000000000000 0
ion C  -7.001462878110000  14.821757103600000   0.000000000000000 0
ion C   4.667638769189999   2.694858915150000   0.000000000000000 0
ion C  23.338220302169997   2.694858915150000   0.000000000000000 0
ion C  14.002918197300000  18.864057759569999   0.000000000000000 0
ion C   0.000015117839999  10.779458337359999   0.000000000000000 0
ion C   4.667640658920000  18.864057759569999   0.000000000000000 0
ion C  -4.667636879460000  18.864057759569999   0.000000000000000 0
ion C  -2.333810880810001  14.821757103600000   0.000000000000000 0
ion C   2.333814660269999  14.821757103600000   0.000000000000000 0
ion C  -0.000011338380000  18.864057759569999   0.000000000000000 0
ion C   9.335290766490001   2.694858915150000   0.000000000000000 0
ion C  21.004394303519998   6.737157681389999   0.000000000000000 0
ion C  11.669116765139997  14.821757103600000   0.000000000000000 0
ion C  16.336742306220000  14.821757103600000   0.000000000000000 0
ion C  18.670566415139998   2.694858915150000   0.000000000000000 0
ion C   7.001464767840000   6.737157681389999   0.000000000000000 0
ion C  14.002942763789999   2.694858915150000   0.000000000000000 0
ion C  18.670568304869999  10.779458337359999   0.000000000000000 0
ion C   9.335290766490001  10.779458337359999   0.000000000000000 0
ion C  11.669116765139997   6.737157681389999   0.000000000000000 0
ion C  16.336740416489995   6.737157681389999   0.000000000000000 0
ion C  14.002942763789999  10.779458337359999   0.000000000000000 0
ion S   8.124896024729999  12.391337556000000   7.951199602049999 1
ion S   5.017289841900000  10.088002350900000   6.468430516470000 1
ion Na   9.519533772299999   7.785952162200001   6.427801321470000 1
ion Na   5.138378071110001  14.811287999399998   4.680555073740000 1

# Forces in Cartesian coordinates:
force C   0.000033661444891  -0.000002142198560  -0.000002329902376 0
force C   0.000074036824805  -0.000094428135455  -0.000004752914761 0
force C   0.000073871015636  -0.000047824800433   0.000003074743681 0
force C  -0.000003798111712  -0.000045349574683  -0.000010885423386 0
force C   0.000073795448485  -0.000006620836877  -0.000009889440143 0
force C   0.000079999714497  -0.000056472027624   0.000036529654629 0
force C   0.000057868226997   0.000024681747194  -0.000001660726262 0
force C   0.000041868560131   0.000023743857544  -0.000002988825381 0
force C   0.000647883236529   0.000307828703497  -0.000400163101011 0
force C   0.000009032833176  -0.000062901540653  -0.000000149521570 0
force C  -0.000032269912536  -0.000064739647657  -0.000009268771550 0
force C  -0.000154528760816  -0.000433986089508  -0.001159477063821 0
force C   0.000041710902459   0.000023369311614  -0.000004070336225 0
force C   0.000028277292575   0.000055775289624  -0.000002415576654 0
force C   0.000241429172467  -0.000812449159333  -0.003184336622211 0
force C  -0.000080681284907  -0.000029176302363  -0.000004572606002 0
force C  -0.000114999400129   0.000049960968755   0.000169460640480 0
force C  -0.000213864261921   0.000060791232399  -0.000006492752839 0
force C   0.000006805743873   0.000021949917007  -0.000000451916196 0
force C   0.000083151663969  -0.000108724120856   0.000001065158116 0
force C  -0.000599546166575   0.001208611548739  -0.007149872586127 0
force C   0.000013390388076  -0.000061194795390   0.000002767457560 0
force C   0.000127295812170  -0.000047874089448  -0.000004590129485 0
force C  -0.000360606127038  -0.000476362443904  -0.002360207814170 0
force C   0.000019952927396   0.000060559295882  -0.000016530205017 0
force C  -0.000080048311690   0.000187965405055  -0.000095001772867 0
force C   0.000015885810669  -0.000008543047405  -0.000004887010634 0
force C  -0.000018097926812   0.000092278263001  -0.000011754497651 0
force C  -0.000087672165937   0.000089617415216   0.000052180572568 0
force C  -0.000010343215907  -0.000152559815060  -0.000016761301339 0
force C   0.000022765522805  -0.000017654169784  -0.000007683630958 0
force C  -0.000047134194646  -0.000099784704779  -0.000091028224664 0
force C   0.000068672552085   0.000057019439695   0.000010471830350 0
force C  -0.000017807555802  -0.000048196469952  -0.000010775383988 0
force C  -0.000137086717526   0.000044374662674  -0.000748377967695 0
force C   0.000050776339197  -0.000010146281452  -0.000013128384575 0
force C  -0.000071748362949   0.000019495036686   0.000005578246375 0
force C  -0.000050388636146   0.000038821723923  -0.000009693019708 0
force C  -0.000008638930849  -0.000002977958955  -0.000003215222632 0
force C   0.000060637692154   0.000152213937332  -0.000020305115742 0
force C   0.000163635036633  -0.000191373370592  -0.000019502163541 0
force C  -0.000048574906096  -0.000029280700207  -0.000008781618417 0
force C  -0.000067751763326   0.000024737202137   0.000000873420440 0
force C   0.000656366852841   0.000370954753127  -0.000249979040942 0
force C  -0.000029407163028  -0.000024760535981  -0.000008097977672 0
force C  -0.000005648948147  -0.000025996488768   0.000006276847567 0
force C   0.001181478992308  -0.000321795240994  -0.006131594458451 0
force C   0.000055733227675   0.000048447507113  -0.000007303586856 0
force C   0.000127668548275   0.000062516578873  -0.000011281651721 0
force C  -0.000179912413399  -0.000435991595643  -0.001697462485519 0
force C  -0.000036626973881  -0.000061112376359  -0.000005655885378 0
force C  -0.000134724477015   0.000036450007520   0.000056066315608 0
force C  -0.000012056526575   0.000026128356882  -0.000003748083289 0
force C  -0.000062805092718  -0.000049968964662   0.000004315349198 0
force C  -0.000010572413498   0.000082259505933   0.000007933302748 0
force C  -0.000011304867398   0.000601947760416  -0.000480715135281 0
force C  -0.000010908475093  -0.000051161671098  -0.000006791958078 0
force C   0.000011385976504  -0.000030760892864   0.000013017500767 0
force C  -0.001138446232552  -0.000230687866288  -0.003413520236220 0
force C  -0.000120673398386  -0.000019980689495   0.000011465609782 0
force C   0.000066493176599  -0.000029277573527   0.000000629090886 0
force C  -0.000040349624379   0.000013090797921  -0.000003812438198 0
force C  -0.000160264466927   0.000132547271026  -0.000099845144095 0
force C  -0.000001279545787  -0.000048976314218   0.000012013207859 0
force C   0.000028075079759   0.000049041153628   0.000001893098220 0
force C  -0.000500124500691   0.000177668709911  -0.000728141258757 0
force C   0.000060733672412   0.000002441627765  -0.000001453881099 0
force C  -0.000020266827948   0.000006856929200  -0.000010007086336 0
force C  -0.000013586231481   0.000083679764509  -0.000296877361697 0
force C  -0.000053719806238   0.000150084180619  -0.000272065876007 0
force C   0.000079658376901   0.000026422427433  -0.000002265100494 0
force C  -0.000033908284060   0.000062154375997  -0.000022657984521 0
force S  -0.020370038761753  -0.013225416910346   0.001426258420744 1
force S   0.014107633974709   0.012308028341769   0.020041818139066 1
force Na   0.013915254974237  -0.016684104977729  -0.002090728935947 1
force Na  -0.007285740880851   0.017490396671177   0.008630447405122 1

# Energy components:
   A_diel =       -0.1878818027067561
   Eewald =     4722.0286781520107979
       EH =     5135.2084235146894571
     Eloc =   -10415.5658238797295780
      Enl =      -82.3658596270455376
      Exc =     -153.5684944168544064
 Exc_core =        5.9601284910361132
       KE =      261.2568149085045661
-------------------------------------
     Etot =     -527.2340146600956814
       TS =        0.0733612972669138
-------------------------------------
        F =     -527.3073759573626376

IonicMinimize: Iter:   0  F: -527.307375957362638  |grad|_K:  1.370e-02  alpha:  1.000e+00

#--- Lowdin population analysis ---
# oxidation-state C +0.034 +0.034 +0.034 +0.034 +0.034 +0.034 +0.034 +0.034 +0.033 +0.033 +0.034 +0.039 +0.034 +0.034 +0.028 +0.033 +0.034 +0.032 +0.034 +0.034 +0.015 +0.034 +0.032 +0.031 +0.034 +0.032 +0.034 +0.034 +0.033 +0.031 +0.034 +0.032 +0.034 +0.033 +0.031 +0.032 +0.034 +0.034 +0.034 +0.034 +0.032 +0.033 +0.034 +0.034 +0.034 +0.034 +0.019 +0.034 +0.034 +0.036 +0.034 +0.033 +0.034 +0.034 +0.034 +0.033 +0.034 +0.033 +0.029 +0.033 +0.032 +0.034 +0.033 +0.034 +0.034 +0.033 +0.033 +0.034 +0.032 +0.031 +0.033 +0.032
# oxidation-state S -0.539 -0.513
# oxidation-state Na +0.895 +0.875


-------- Electronic minimization -----------
Will mix electronic density at each iteration.
	FillingsUpdate:  mu: -0.105658558  nElectrons: 318.000000
	Linear fluid (dielectric constant: 64) occupying 0.891253 of unit cell:	Completed after 21 iterations at t[s]:  32413.92
	FillingsUpdate:  mu: -0.105379283  nElectrons: 318.000000
	Linear fluid (dielectric constant: 64) occupying 0.891340 of unit cell:	Completed after 21 iterations at t[s]:  32995.36
SCF: Cycle:  0   F: -527.306919903867993   dF: -1.701e-02   |Residual|: 6.599e-02   |deigs|: 2.254e-04  t[s]:  32996.43
	Linear fluid (dielectric constant: 64) occupying 0.891281 of unit cell:	Completed after 21 iterations at t[s]:  33004.63
	FillingsUpdate:  mu: -0.105205860  nElectrons: 318.000000
	Linear fluid (dielectric constant: 64) occupying 0.891286 of unit cell:	Completed after 20 iterations at t[s]:  33541.51
SCF: Cycle:  1   F: -527.308918004463976   dF: -1.998e-03   |Residual|: 3.075e-02   |deigs|: 5.043e-04  t[s]:  33542.58
	Linear fluid (dielectric constant: 64) occupying 0.891287 of unit cell:	Completed after 20 iterations at t[s]:  33550.16
	FillingsUpdate:  mu: -0.105350119  nElectrons: 318.000000
	Linear fluid (dielectric constant: 64) occupying 0.891264 of unit cell:	Completed after 21 iterations at t[s]:  34089.23
SCF: Cycle:  2   F: -527.309421237461038   dF: -5.032e-04   |Residual|: 7.490e-03   |deigs|: 3.727e-04  t[s]:  34090.34
	Linear fluid (dielectric constant: 64) occupying 0.891289 of unit cell:	Completed after 20 iterations at t[s]:  34097.89
	FillingsUpdate:  mu: -0.105283774  nElectrons: 318.000000
	Linear fluid (dielectric constant: 64) occupying 0.891270 of unit cell:	Completed after 18 iterations at t[s]:  34546.92
SCF: Cycle:  3   F: -527.309463424668024   dF: -4.219e-05   |Residual|: 4.576e-03   |deigs|: 2.113e-04  t[s]:  34548.00
	Linear fluid (dielectric constant: 64) occupying 0.891281 of unit cell:	Completed after 14 iterations at t[s]:  34553.58
	FillingsUpdate:  mu: -0.105308130  nElectrons: 318.000000
	Linear fluid (dielectric constant: 64) occupying 0.891280 of unit cell:	Completed after 14 iterations at t[s]:  35088.99
SCF: Cycle:  4   F: -527.309511732015721   dF: -4.831e-05   |Residual|: 2.229e-03   |deigs|: 2.912e-04  t[s]:  35090.08
	Linear fluid (dielectric constant: 64) occupying 0.891274 of unit cell:	Completed after 12 iterations at t[s]:  35095.05
	FillingsUpdate:  mu: -0.105312299  nElectrons: 318.000000
	Linear fluid (dielectric constant: 64) occupying 0.891278 of unit cell:	Completed after 13 iterations at t[s]:  35400.91
SCF: Cycle:  5   F: -527.309524731589363   dF: -1.300e-05   |Residual|: 1.487e-03   |deigs|: 5.059e-05  t[s]:  35402.01
	Linear fluid (dielectric constant: 64) occupying 0.891263 of unit cell:	Completed after 10 iterations at t[s]:  35406.81
	FillingsUpdate:  mu: -0.105309183  nElectrons: 318.000000
	Linear fluid (dielectric constant: 64) occupying 0.891279 of unit cell:	Completed after 8 iterations at t[s]:  35943.15
SCF: Cycle:  6   F: -527.309537940884979   dF: -1.321e-05   |Residual|: 8.797e-04   |deigs|: 9.689e-05  t[s]:  35944.23
	Linear fluid (dielectric constant: 64) occupying 0.891263 of unit cell:	Completed after 8 iterations at t[s]:  35948.18
	FillingsUpdate:  mu: -0.105329963  nElectrons: 318.000000
	Linear fluid (dielectric constant: 64) occupying 0.891280 of unit cell:	Completed after 5 iterations at t[s]:  36396.74
SCF: Cycle:  7   F: -527.309541723835196   dF: -3.783e-06   |Residual|: 5.695e-04   |deigs|: 6.233e-05  t[s]:  36397.85
	Linear fluid (dielectric constant: 64) occupying 0.891265 of unit cell:	Completed after 4 iterations at t[s]:  36400.67
	FillingsUpdate:  mu: -0.105335205  nElectrons: 318.000000
	Linear fluid (dielectric constant: 64) occupying 0.891281 of unit cell:	Completed after 5 iterations at t[s]:  36848.23
SCF: Cycle:  8   F: -527.309543390955923   dF: -1.667e-06   |Residual|: 4.528e-04   |deigs|: 1.116e-04  t[s]:  36849.44
	Linear fluid (dielectric constant: 64) occupying 0.891266 of unit cell:	Completed after 2 iterations at t[s]:  36851.58
	FillingsUpdate:  mu: -0.105344596  nElectrons: 318.000000
	Linear fluid (dielectric constant: 64) occupying 0.891280 of unit cell:	Completed after 4 iterations at t[s]:  37299.50
SCF: Cycle:  9   F: -527.309544215652750   dF: -8.247e-07   |Residual|: 3.786e-04   |deigs|: 1.006e-04  t[s]:  37300.65
	Linear fluid (dielectric constant: 64) occupying 0.891270 of unit cell:	Completed after 4 iterations at t[s]:  37303.62
	FillingsUpdate:  mu: -0.105341094  nElectrons: 318.000000
	Linear fluid (dielectric constant: 64) occupying 0.891280 of unit cell:	Completed after 3 iterations at t[s]:  37757.74
SCF: Cycle: 10   F: -527.309544474103859   dF: -2.585e-07   |Residual|: 3.283e-04   |deigs|: 1.232e-04  t[s]:  37758.83
	Linear fluid (dielectric constant: 64) occupying 0.891271 of unit cell:	Completed after 2 iterations at t[s]:  37760.92
	FillingsUpdate:  mu: -0.105359014  nElectrons: 318.000000
	Linear fluid (dielectric constant: 64) occupying 0.891281 of unit cell:	Completed after 4 iterations at t[s]:  38208.58
SCF: Cycle: 11   F: -527.309544442809511   dF: +3.129e-08   |Residual|: 2.843e-04   |deigs|: 4.615e-05  t[s]:  38209.69
	Linear fluid (dielectric constant: 64) occupying 0.891273 of unit cell:	Completed after 2 iterations at t[s]:  38211.87
	FillingsUpdate:  mu: -0.105334057  nElectrons: 318.000000
	Linear fluid (dielectric constant: 64) occupying 0.891280 of unit cell:	Completed after 7 iterations at t[s]:  38679.52
SCF: Cycle: 12   F: -527.309542315907265   dF: +2.127e-06   |Residual|: 6.774e-04   |deigs|: 7.111e-05  t[s]:  38680.62
	Linear fluid (dielectric constant: 64) occupying 0.891273 of unit cell:	Completed after 5 iterations at t[s]:  38683.96
	FillingsUpdate:  mu: -0.105351350  nElectrons: 318.000000
	Linear fluid (dielectric constant: 64) occupying 0.891280 of unit cell:	Completed after 4 iterations at t[s]:  39132.15
SCF: Cycle: 13   F: -527.309544837873318   dF: -2.522e-06   |Residual|: 2.006e-04   |deigs|: 4.281e-05  t[s]:  39133.27
	Linear fluid (dielectric constant: 64) occupying 0.891275 of unit cell:	Completed after 2 iterations at t[s]:  39135.57
	FillingsUpdate:  mu: -0.105344668  nElectrons: 318.000000
	Linear fluid (dielectric constant: 64) occupying 0.891280 of unit cell:	Completed after 3 iterations at t[s]:  39584.70
SCF: Cycle: 14   F: -527.309544781727027   dF: +5.615e-08   |Residual|: 2.459e-04   |deigs|: 7.004e-05  t[s]:  39585.82
	Linear fluid (dielectric constant: 64) occupying 0.891275 of unit cell:	Completed after 2 iterations at t[s]:  39588.07
	FillingsUpdate:  mu: -0.105363430  nElectrons: 318.000000
	Linear fluid (dielectric constant: 64) occupying 0.891281 of unit cell:	Completed after 4 iterations at t[s]:  40042.02
SCF: Cycle: 15   F: -527.309544423048237   dF: +3.587e-07   |Residual|: 3.388e-04   |deigs|: 7.507e-05  t[s]:  40043.12
	Linear fluid (dielectric constant: 64) occupying 0.891276 of unit cell:	Completed after 2 iterations at t[s]:  40045.26
	FillingsUpdate:  mu: -0.105341876  nElectrons: 318.000000
	Linear fluid (dielectric constant: 64) occupying 0.891280 of unit cell:	Completed after 3 iterations at t[s]:  40491.35
SCF: Cycle: 16   F: -527.309544250190243   dF: +1.729e-07   |Residual|: 3.737e-04   |deigs|: 4.139e-05  t[s]:  40492.45
	Linear fluid (dielectric constant: 64) occupying 0.891277 of unit cell:	Completed after 2 iterations at t[s]:  40494.49
	FillingsUpdate:  mu: -0.105362864  nElectrons: 318.000000
	Linear fluid (dielectric constant: 64) occupying 0.891281 of unit cell:	Completed after 4 iterations at t[s]:  40947.68
SCF: Cycle: 17   F: -527.309544443446157   dF: -1.933e-07   |Residual|: 3.154e-04   |deigs|: 9.268e-05  t[s]:  40948.77
	Linear fluid (dielectric constant: 64) occupying 0.891277 of unit cell:	Completed after 2 iterations at t[s]:  40950.94
	FillingsUpdate:  mu: -0.105344513  nElectrons: 318.000000
	Linear fluid (dielectric constant: 64) occupying 0.891281 of unit cell:	Completed after 3 iterations at t[s]:  41401.51
SCF: Cycle: 18   F: -527.309544557010099   dF: -1.136e-07   |Residual|: 3.069e-04   |deigs|: 5.253e-05  t[s]:  41402.61
	Linear fluid (dielectric constant: 64) occupying 0.891278 of unit cell:	Completed after 2 iterations at t[s]:  41404.85
	FillingsUpdate:  mu: -0.105363502  nElectrons: 318.000000
	Linear fluid (dielectric constant: 64) occupying 0.891282 of unit cell:	Completed after 4 iterations at t[s]:  41853.79
SCF: Cycle: 19   F: -527.309544599916876   dF: -4.291e-08   |Residual|: 2.870e-04   |deigs|: 5.311e-05  t[s]:  41854.93
	Linear fluid (dielectric constant: 64) occupying 0.891278 of unit cell:	Completed after 2 iterations at t[s]:  41857.02
	FillingsUpdate:  mu: -0.105347065  nElectrons: 318.000000
	Linear fluid (dielectric constant: 64) occupying 0.891281 of unit cell:	Completed after 3 iterations at t[s]:  42310.62
SCF: Cycle: 20   F: -527.309544849951976   dF: -2.500e-07   |Residual|: 2.010e-04   |deigs|: 4.533e-05  t[s]:  42311.73
	Linear fluid (dielectric constant: 64) occupying 0.891278 of unit cell:	Completed after 2 iterations at t[s]:  42313.76
	FillingsUpdate:  mu: -0.105367201  nElectrons: 318.000000
	Linear fluid (dielectric constant: 64) occupying 0.891282 of unit cell:	Completed after 4 iterations at t[s]:  42761.86
SCF: Cycle: 21   F: -527.309544405846623   dF: +4.441e-07   |Residual|: 3.432e-04   |deigs|: 8.777e-05  t[s]:  42762.92
	Linear fluid (dielectric constant: 64) occupying 0.891279 of unit cell:	Completed after 2 iterations at t[s]:  42764.95
	FillingsUpdate:  mu: -0.105347509  nElectrons: 318.000000
	Linear fluid (dielectric constant: 64) occupying 0.891281 of unit cell:	Completed after 3 iterations at t[s]:  43213.05
SCF: Cycle: 22   F: -527.309544837990416   dF: -4.321e-07   |Residual|: 2.041e-04   |deigs|: 5.087e-05  t[s]:  43214.14
	Linear fluid (dielectric constant: 64) occupying 0.891280 of unit cell:	Completed after 2 iterations at t[s]:  43216.19
	FillingsUpdate:  mu: -0.105364126  nElectrons: 318.000000
	Linear fluid (dielectric constant: 64) occupying 0.891282 of unit cell:	Completed after 3 iterations at t[s]:  43665.21
SCF: Cycle: 23   F: -527.309544701735717   dF: +1.363e-07   |Residual|: 2.710e-04   |deigs|: 4.468e-05  t[s]:  43666.35
	Linear fluid (dielectric constant: 64) occupying 0.891280 of unit cell:	Completed after 3 iterations at t[s]:  43668.75
	FillingsUpdate:  mu: -0.105347170  nElectrons: 318.000000
	Linear fluid (dielectric constant: 64) occupying 0.891281 of unit cell:	Completed after 2 iterations at t[s]:  44117.11
SCF: Cycle: 24   F: -527.309544972959657   dF: -2.712e-07   |Residual|: 1.724e-04   |deigs|: 4.829e-05  t[s]:  44118.19
	Linear fluid (dielectric constant: 64) occupying 0.891281 of unit cell:	Completed after 1 iterations at t[s]:  44119.92
	FillingsUpdate:  mu: -0.105367732  nElectrons: 318.000000
	Linear fluid (dielectric constant: 64) occupying 0.891283 of unit cell:	Completed after 4 iterations at t[s]:  44568.10
SCF: Cycle: 25   F: -527.309543798316213   dF: +1.175e-06   |Residual|: 4.355e-04   |deigs|: 3.611e-05  t[s]:  44569.19
	Linear fluid (dielectric constant: 64) occupying 0.891281 of unit cell:	Completed after 2 iterations at t[s]:  44571.22
	FillingsUpdate:  mu: -0.105347744  nElectrons: 318.000000
	Linear fluid (dielectric constant: 64) occupying 0.891281 of unit cell:	Completed after 4 iterations at t[s]:  45019.73
SCF: Cycle: 26   F: -527.309544444305971   dF: -6.460e-07   |Residual|: 3.072e-04   |deigs|: 5.572e-05  t[s]:  45020.85
	Linear fluid (dielectric constant: 64) occupying 0.891281 of unit cell:	Completed after 2 iterations at t[s]:  45022.88
	FillingsUpdate:  mu: -0.105363475  nElectrons: 318.000000
	Linear fluid (dielectric constant: 64) occupying 0.891282 of unit cell:	Completed after 4 iterations at t[s]:  45325.88
SCF: Cycle: 27   F: -527.309544618866312   dF: -1.746e-07   |Residual|: 2.822e-04   |deigs|: 4.042e-05  t[s]:  45326.95
	Linear fluid (dielectric constant: 64) occupying 0.891281 of unit cell:	Completed after 2 iterations at t[s]:  45328.98
	FillingsUpdate:  mu: -0.105350398  nElectrons: 318.000000
	Linear fluid (dielectric constant: 64) occupying 0.891281 of unit cell:	Completed after 2 iterations at t[s]:  45775.73
SCF: Cycle: 28   F: -527.309545026312549   dF: -4.074e-07   |Residual|: 1.448e-04   |deigs|: 2.021e-05  t[s]:  45776.79
	Linear fluid (dielectric constant: 64) occupying 0.891281 of unit cell:	Completed after 0 iterations at t[s]:  45777.90
	FillingsUpdate:  mu: -0.105376229  nElectrons: 318.000000
	Linear fluid (dielectric constant: 64) occupying 0.891283 of unit cell:	Completed after 5 iterations at t[s]:  46223.76
SCF: Cycle: 29   F: -527.309542588896875   dF: +2.437e-06   |Residual|: 5.846e-04   |deigs|: 4.374e-05  t[s]:  46224.84
	Linear fluid (dielectric constant: 64) occupying 0.891281 of unit cell:	Completed after 3 iterations at t[s]:  46227.16
	FillingsUpdate:  mu: -0.105345666  nElectrons: 318.000000
	Linear fluid (dielectric constant: 64) occupying 0.891282 of unit cell:	Completed after 3 iterations at t[s]:  46528.66
SCF: Cycle: 30   F: -527.309544468603349   dF: -1.880e-06   |Residual|: 2.988e-04   |deigs|: 7.994e-05  t[s]:  46529.76
	Linear fluid (dielectric constant: 64) occupying 0.891282 of unit cell:	Completed after 3 iterations at t[s]:  46532.07
	FillingsUpdate:  mu: -0.105366362  nElectrons: 318.000000
	Linear fluid (dielectric constant: 64) occupying 0.891282 of unit cell:	Completed after 3 iterations at t[s]:  46835.11
SCF: Cycle: 31   F: -527.309544802329583   dF: -3.337e-07   |Residual|: 2.413e-04   |deigs|: 3.681e-05  t[s]:  46836.15
	Linear fluid (dielectric constant: 64) occupying 0.891281 of unit cell:	Completed after 2 iterations at t[s]:  46838.26
	FillingsUpdate:  mu: -0.105351234  nElectrons: 318.000000
	Linear fluid (dielectric constant: 64) occupying 0.891282 of unit cell:	Completed after 4 iterations at t[s]:  47138.92
SCF: Cycle: 32   F: -527.309544799583023   dF: +2.747e-09   |Residual|: 2.079e-04   |deigs|: 2.251e-05  t[s]:  47139.97
	Linear fluid (dielectric constant: 64) occupying 0.891281 of unit cell:	Completed after 2 iterations at t[s]:  47142.00
	FillingsUpdate:  mu: -0.105366701  nElectrons: 318.000000
	Linear fluid (dielectric constant: 64) occupying 0.891282 of unit cell:	Completed after 3 iterations at t[s]:  47671.47
SCF: Cycle: 33   F: -527.309544530509811   dF: +2.691e-07   |Residual|: 3.175e-04   |deigs|: 2.495e-05  t[s]:  47672.55
	Linear fluid (dielectric constant: 64) occupying 0.891281 of unit cell:	Completed after 3 iterations at t[s]:  47674.89
	FillingsUpdate:  mu: -0.105348506  nElectrons: 318.000000
	Linear fluid (dielectric constant: 64) occupying 0.891282 of unit cell:	Completed after 2 iterations at t[s]:  47976.09
SCF: Cycle: 34   F: -527.309545028753405   dF: -4.982e-07   |Residual|: 1.422e-04   |deigs|: 2.384e-05  t[s]:  47977.17
	Linear fluid (dielectric constant: 64) occupying 0.891281 of unit cell:	Completed after 0 iterations at t[s]:  47978.60
	FillingsUpdate:  mu: -0.105376629  nElectrons: 318.000000
	Linear fluid (dielectric constant: 64) occupying 0.891283 of unit cell:	Completed after 4 iterations at t[s]:  48424.84
SCF: Cycle: 35   F: -527.309543662939973   dF: +1.366e-06   |Residual|: 4.555e-04   |deigs|: 3.874e-05  t[s]:  48426.01
	Linear fluid (dielectric constant: 64) occupying 0.891281 of unit cell:	Completed after 3 iterations at t[s]:  48428.58
	FillingsUpdate:  mu: -0.105349672  nElectrons: 318.000000
	Linear fluid (dielectric constant: 64) occupying 0.891282 of unit cell:	Completed after 3 iterations at t[s]:  48729.93
SCF: Cycle: 36   F: -527.309544816940502   dF: -1.154e-06   |Residual|: 2.069e-04   |deigs|: 6.355e-05  t[s]:  48731.05
	Linear fluid (dielectric constant: 64) occupying 0.891281 of unit cell:	Completed after 2 iterations at t[s]:  48733.08
	FillingsUpdate:  mu: -0.105365903  nElectrons: 318.000000
	Linear fluid (dielectric constant: 64) occupying 0.891282 of unit cell:	Completed after 4 iterations at t[s]:  49035.49
SCF: Cycle: 37   F: -527.309544437099817   dF: +3.798e-07   |Residual|: 3.309e-04   |deigs|: 2.590e-05  t[s]:  49036.57
	Linear fluid (dielectric constant: 64) occupying 0.891281 of unit cell:	Completed after 2 iterations at t[s]:  49038.62
	FillingsUpdate:  mu: -0.105349958  nElectrons: 318.000000
	Linear fluid (dielectric constant: 64) occupying 0.891282 of unit cell:	Completed after 3 iterations at t[s]:  49341.16
SCF: Cycle: 38   F: -527.309544832639290   dF: -3.955e-07   |Residual|: 1.998e-04   |deigs|: 6.714e-05  t[s]:  49342.26
	Linear fluid (dielectric constant: 64) occupying 0.891281 of unit cell:	Completed after 2 iterations at t[s]:  49344.53
	FillingsUpdate:  mu: -0.105366624  nElectrons: 318.000000
	Linear fluid (dielectric constant: 64) occupying 0.891282 of unit cell:	Completed after 3 iterations at t[s]:  49793.57
SCF: Cycle: 39   F: -527.309544810659872   dF: +2.198e-08   |Residual|: 2.421e-04   |deigs|: 6.199e-05  t[s]:  49794.65
	Linear fluid (dielectric constant: 64) occupying 0.891281 of unit cell:	Completed after 2 iterations at t[s]:  49796.67
	FillingsUpdate:  mu: -0.105353999  nElectrons: 318.000000
	Linear fluid (dielectric constant: 64) occupying 0.891282 of unit cell:	Completed after 2 iterations at t[s]:  50250.97
SCF: Cycle: 40   F: -527.309544975344465   dF: -1.647e-07   |Residual|: 1.673e-04   |deigs|: 2.213e-05  t[s]:  50252.09
	Linear fluid (dielectric constant: 64) occupying 0.891281 of unit cell:	Completed after 1 iterations at t[s]:  50254.03
	FillingsUpdate:  mu: -0.105370485  nElectrons: 318.000000
	Linear fluid (dielectric constant: 64) occupying 0.891283 of unit cell:	Completed after 4 iterations at t[s]:  50555.46
SCF: Cycle: 41   F: -527.309543905416149   dF: +1.070e-06   |Residual|: 4.256e-04   |deigs|: 2.074e-05  t[s]:  50556.60
	Linear fluid (dielectric constant: 64) occupying 0.891281 of unit cell:	Completed after 2 iterations at t[s]:  50558.79
	FillingsUpdate:  mu: -0.105349912  nElectrons: 318.000000
	Linear fluid (dielectric constant: 64) occupying 0.891282 of unit cell:	Completed after 3 iterations at t[s]:  50860.58
SCF: Cycle: 42   F: -527.309544647520624   dF: -7.421e-07   |Residual|: 2.559e-04   |deigs|: 2.412e-05  t[s]:  50861.62
	Linear fluid (dielectric constant: 64) occupying 0.891281 of unit cell:	Completed after 2 iterations at t[s]:  50863.76
	FillingsUpdate:  mu: -0.105366052  nElectrons: 318.000000
	Linear fluid (dielectric constant: 64) occupying 0.891282 of unit cell:	Completed after 2 iterations at t[s]:  51166.05
SCF: Cycle: 43   F: -527.309544859137418   dF: -2.116e-07   |Residual|: 2.399e-04   |deigs|: 1.740e-05  t[s]:  51167.13
	Linear fluid (dielectric constant: 64) occupying 0.891281 of unit cell:	Completed after 2 iterations at t[s]:  51169.17
	FillingsUpdate:  mu: -0.105349435  nElectrons: 318.000000
	Linear fluid (dielectric constant: 64) occupying 0.891281 of unit cell:	Completed after 4 iterations at t[s]:  51469.34
SCF: Cycle: 44   F: -527.309544488599840   dF: +3.705e-07   |Residual|: 2.834e-04   |deigs|: 2.413e-05  t[s]:  51470.45
	Linear fluid (dielectric constant: 64) occupying 0.891281 of unit cell:	Completed after 2 iterations at t[s]:  51472.45
	FillingsUpdate:  mu: -0.105366696  nElectrons: 318.000000
	Linear fluid (dielectric constant: 64) occupying 0.891282 of unit cell:	Completed after 3 iterations at t[s]:  51771.64
SCF: Cycle: 45   F: -527.309544541308242   dF: -5.271e-08   |Residual|: 3.180e-04   |deigs|: 2.127e-05  t[s]:  51772.70
	Linear fluid (dielectric constant: 64) occupying 0.891281 of unit cell:	Completed after 3 iterations at t[s]:  51775.00
	FillingsUpdate:  mu: -0.105349914  nElectrons: 318.000000
	Linear fluid (dielectric constant: 64) occupying 0.891282 of unit cell:	Completed after 0 iterations at t[s]:  52071.60
SCF: Cycle: 46   F: -527.309545185825073   dF: -6.445e-07   |Residual|: 1.090e-04   |deigs|: 1.501e-05  t[s]:  52072.64
	Linear fluid (dielectric constant: 64) occupying 0.891281 of unit cell:	Completed after 0 iterations at t[s]:  52073.75
	FillingsUpdate:  mu: -0.105357947  nElectrons: 318.000000
	Linear fluid (dielectric constant: 64) occupying 0.891282 of unit cell:	Completed after 0 iterations at t[s]:  52371.20
SCF: Cycle: 47   F: -527.309545174763457   dF: +1.106e-08   |Residual|: 2.925e-05   |deigs|: 6.987e-06  t[s]:  52372.23
	Linear fluid (dielectric constant: 64) occupying 0.891281 of unit cell:	Completed after 0 iterations at t[s]:  52373.30
	FillingsUpdate:  mu: -0.105355206  nElectrons: 318.000000
	Linear fluid (dielectric constant: 64) occupying 0.891282 of unit cell:	Completed after 0 iterations at t[s]:  52815.20
SCF: Cycle: 48   F: -527.309545180133682   dF: -5.370e-09   |Residual|: 4.652e-05   |deigs|: 8.811e-06  t[s]:  52816.37
	Linear fluid (dielectric constant: 64) occupying 0.891281 of unit cell:	Completed after 0 iterations at t[s]:  52817.51
	FillingsUpdate:  mu: -0.105355210  nElectrons: 318.000000
	Linear fluid (dielectric constant: 64) occupying 0.891282 of unit cell:	Completed after 0 iterations at t[s]:  53078.42
SCF: Cycle: 49   F: -527.309545179885390   dF: +2.483e-10   |Residual|: 4.672e-05   |deigs|: 1.674e-06  t[s]:  53079.51
	Linear fluid (dielectric constant: 64) occupying 0.891281 of unit cell:	Completed after 0 iterations at t[s]:  53080.66
Setting wave functions to eigenvectors of Hamiltonian
IonicMinimize: 	Wrong curvature in test step, increasing alphaT to 3.000000e+00.

-------- Electronic minimization -----------
Will mix electronic density at each iteration.
	FillingsUpdate:  mu: -0.105355210  nElectrons: 318.000000
	Linear fluid (dielectric constant: 64) occupying 0.891282 of unit cell:	Completed after 0 iterations at t[s]:  53120.24
	FillingsUpdate:  mu: -0.105354331  nElectrons: 318.000000
	Linear fluid (dielectric constant: 64) occupying 0.891282 of unit cell:	Completed after 0 iterations at t[s]:  53409.18
SCF: Cycle:  0   F: -527.309545183536670   dF: -3.648e-09   |Residual|: 2.688e-05   |deigs|: 1.990e-06  t[s]:  53410.22
	Linear fluid (dielectric constant: 64) occupying 0.891282 of unit cell:	Completed after 0 iterations at t[s]:  53411.09
	FillingsUpdate:  mu: -0.105354236  nElectrons: 318.000000
	Linear fluid (dielectric constant: 64) occupying 0.891282 of unit cell:	Completed after 0 iterations at t[s]:  53848.40
SCF: Cycle:  1   F: -527.309545183966861   dF: -4.302e-10   |Residual|: 2.390e-05   |deigs|: 3.347e-07  t[s]:  53849.45
SCF: Converged (|Delta E|<1.000000e-08 for 2 iters).

Setting wave functions to eigenvectors of Hamiltonian

# Ionic positions in cartesian coordinates:
ion C -14.002925756219998  24.253749133649997   0.000000000000000 0
ion C  -2.333825998650000   4.042300655969999   0.000000000000000 0
ion C  11.669105426759998  20.211497610660000   0.000000000000000 0
ion C  -9.335273758920000  24.253749133649997   0.000000000000000 0
ion C   9.335307774059999  24.253749133649997   0.000000000000000 0
ion C   2.333825998650000   4.042300655969999   0.000000000000000 0
ion C -11.669128103519999  20.211497610660000   0.000000000000000 0
ion C  -4.667651997299998   8.084599422210001   0.000000000000000 0
ion C   9.335277538380002  16.169198844420002   0.000000000000000 0
ion C  -4.667621761620000  24.253749133649997   0.000000000000000 0
ion C   4.667653887029999  24.253749133649997   0.000000000000000 0
ion C   4.667653887029999   8.084599422210001   0.000000000000000 0
ion C  -9.335302104870001  16.169198844420002   0.000000000000000 0
ion C  -7.001477995949999  12.126900078179998   0.000000000000000 0
ion C   7.001451539730000  12.126900078179998   0.000000000000000 0
ion C   0.000030235680001  24.253749133649997   0.000000000000000 0
ion C   0.000000000000001   8.084599422210001   0.000000000000000 0
ion C   7.001451539729999  20.211497610660000   0.000000000000000 0
ion C  -7.001476106220001  20.211497610660000   0.000000000000000 0
ion C  -2.333825998649999  12.126900078179998   0.000000000000000 0
ion C   4.667625541080000  16.169198844420002   0.000000000000000 0
ion C  -2.333824108920000  20.211497610660000   0.000000000000000 0
ion C   2.333827888379998  20.211497610660000   0.000000000000000 0
ion C   2.333827888380001  12.126900078179998   0.000000000000000 0
ion C  -4.667650107569999  16.169198844420002   0.000000000000000 0
ion C   7.001449649999998   4.042300655969999   0.000000000000000 0
ion C  21.004379185680005   4.042300655969999   0.000000000000000 0
ion C  14.002931425410001  16.169198844420002   0.000000000000000 0
ion C   0.000001889730001  16.169198844420002   0.000000000000000 0
ion C  11.669103537030001   4.042300655969999   0.000000000000000 0
ion C  18.670583422709996   8.084599422210001   0.000000000000000 0
ion C  11.669103537029997  12.126900078179998   0.000000000000000 0
ion C  16.336757424060000  12.126900078179998   0.000000000000000 0
ion C  16.336755534330003   4.042300655969999   0.000000000000000 0
ion C   9.335277538380002   8.084599422210001   0.000000000000000 0
ion C  14.002929535680002   8.084599422210001   0.000000000000000 0
ion C   0.000015117840000   2.694858915150000   0.000000000000000 0
ion C  11.669118654869999  22.906358415540002   0.000000000000000 0
ion C -11.669114875410003  22.906358415540002   0.000000000000000 0
ion C  -2.333810880810000   6.737157681389999   0.000000000000000 0
ion C   9.335292656219996  18.864057759569999   0.000000000000000 0
ion C  -7.001462878110001  22.906358415540002   0.000000000000000 0
ion C   7.001466657569997  22.906358415540002   0.000000000000000 0
ion C   2.333812770540000   6.737157681389999   0.000000000000000 0
ion C  -9.335288876760000  18.864057759569999   0.000000000000000 0
ion C  -4.667636879460000  10.779458337359999   0.000000000000000 0
ion C   7.001466657569999  14.821757103600000   0.000000000000000 0
ion C  -2.333837337030001  22.906358415540002   0.000000000000000 0
ion C   2.333814660269999  22.906358415540002   0.000000000000000 0
ion C   4.667638769190000  10.779458337359999   0.000000000000000 0
ion C  -7.001462878110000  14.821757103600000   0.000000000000000 0
ion C   4.667638769189999   2.694858915150000   0.000000000000000 0
ion C  23.338220302169997   2.694858915150000   0.000000000000000 0
ion C  14.002918197300000  18.864057759569999   0.000000000000000 0
ion C   0.000015117839999  10.779458337359999   0.000000000000000 0
ion C   4.667640658920000  18.864057759569999   0.000000000000000 0
ion C  -4.667636879460000  18.864057759569999   0.000000000000000 0
ion C  -2.333810880810001  14.821757103600000   0.000000000000000 0
ion C   2.333814660269999  14.821757103600000   0.000000000000000 0
ion C  -0.000011338380000  18.864057759569999   0.000000000000000 0
ion C   9.335290766490001   2.694858915150000   0.000000000000000 0
ion C  21.004394303519998   6.737157681389999   0.000000000000000 0
ion C  11.669116765139997  14.821757103600000   0.000000000000000 0
ion C  16.336742306220000  14.821757103600000   0.000000000000000 0
ion C  18.670566415139998   2.694858915150000   0.000000000000000 0
ion C   7.001464767840000   6.737157681389999   0.000000000000000 0
ion C  14.002942763789999   2.694858915150000   0.000000000000000 0
ion C  18.670568304869999  10.779458337359999   0.000000000000000 0
ion C   9.335290766490001  10.779458337359999   0.000000000000000 0
ion C  11.669116765139997   6.737157681389999   0.000000000000000 0
ion C  16.336740416489995   6.737157681389999   0.000000000000000 0
ion C  14.002942763789999  10.779458337359999   0.000000000000000 0
ion S   8.104525985968245  12.378112139089655   7.952625860470743 1
ion S   5.031397475874711  10.100310379241767   6.488472334609066 1
ion Na   9.533449027274237   7.769268057222271   6.425710592534053 1
ion Na   5.131092330229151  14.828778396071176   4.689185521145122 1

# Forces in Cartesian coordinates:
force C   0.000034223569295  -0.000002718956936   0.000002631645292 0
force C   0.000074306070423  -0.000092520689705  -0.000000386313933 0
force C   0.000072537247782  -0.000046543441284   0.000005937226949 0
force C  -0.000003120775288  -0.000046210228945  -0.000004829845424 0
force C   0.000073397297193  -0.000005711683170  -0.000003213561667 0
force C   0.000078394393398  -0.000056331406431   0.000037203033244 0
force C   0.000057338666482   0.000024228504926   0.000004814326197 0
force C   0.000041530380024   0.000022603964137   0.000001693901864 0
force C   0.000630970238725   0.000298835430562  -0.000395232745117 0
force C   0.000008838610596  -0.000063318208239   0.000004798602212 0
[...]
SCF: Cycle: 10   F: -527.365572915760481   dF: +4.371e-07   |Residual|: 5.466e-04   |deigs|: 5.385e-05  t[s]: 1099546.31
	Linear fluid (dielectric constant: 64) occupying 0.889441 of unit cell:	Completed after 2 iterations at t[s]: 1099548.73
	FillingsUpdate:  mu: -0.102557040  nElectrons: 318.000000
	Linear fluid (dielectric constant: 64) occupying 0.889437 of unit cell:	Completed after 4 iterations at t[s]: 1100008.61
SCF: Cycle: 11   F: -527.365572568291782   dF: +3.475e-07   |Residual|: 6.330e-04   |deigs|: 1.390e-04  t[s]: 1100009.68
	Linear fluid (dielectric constant: 64) occupying 0.889442 of unit cell:	Completed after 3 iterations at t[s]: 1100011.95
	FillingsUpdate:  mu: -0.102561506  nElectrons: 318.000000
	Linear fluid (dielectric constant: 64) occupying 0.889437 of unit cell:	Completed after 3 iterations at t[s]: 1100307.64
SCF: Cycle: 12   F: -527.365573345401799   dF: -7.771e-07   |Residual|: 4.491e-04   |deigs|: 4.943e-05  t[s]: 1100308.71
	Linear fluid (dielectric constant: 64) occupying 0.889442 of unit cell:	Completed after 4 iterations at t[s]: 1100311.28
	FillingsUpdate:  mu: -0.102559117  nElectrons: 318.000000
	Linear fluid (dielectric constant: 64) occupying 0.889437 of unit cell:	Completed after 2 iterations at t[s]: 1100608.07
SCF: Cycle: 13   F: -527.365573421616773   dF: -7.621e-08   |Residual|: 3.862e-04   |deigs|: 4.888e-05  t[s]: 1100609.19
	Linear fluid (dielectric constant: 64) occupying 0.889442 of unit cell:	Completed after 4 iterations at t[s]: 1100611.71
	FillingsUpdate:  mu: -0.102555550  nElectrons: 318.000000
	Linear fluid (dielectric constant: 64) occupying 0.889437 of unit cell:	Completed after 2 iterations at t[s]: 1100907.44
SCF: Cycle: 14   F: -527.365572879023489   dF: +5.426e-07   |Residual|: 5.283e-04   |deigs|: 2.786e-05  t[s]: 1100908.47
	Linear fluid (dielectric constant: 64) occupying 0.889440 of unit cell:	Completed after 4 iterations at t[s]: 1100911.23
	FillingsUpdate:  mu: -0.102571110  nElectrons: 318.000000
	Linear fluid (dielectric constant: 64) occupying 0.889438 of unit cell:	Completed after 0 iterations at t[s]: 1101346.34
SCF: Cycle: 15   F: -527.365574003303891   dF: -1.124e-06   |Residual|: 1.394e-04   |deigs|: 8.067e-05  t[s]: 1101347.41
	Linear fluid (dielectric constant: 64) occupying 0.889441 of unit cell:	Completed after 0 iterations at t[s]: 1101348.95
	FillingsUpdate:  mu: -0.102574687  nElectrons: 318.000000
	Linear fluid (dielectric constant: 64) occupying 0.889438 of unit cell:	Completed after 0 iterations at t[s]: 1101642.60
SCF: Cycle: 16   F: -527.365574004995324   dF: -1.691e-09   |Residual|: 8.540e-05   |deigs|: 5.196e-05  t[s]: 1101643.67
	Linear fluid (dielectric constant: 64) occupying 0.889441 of unit cell:	Completed after 0 iterations at t[s]: 1101644.78
	FillingsUpdate:  mu: -0.102574861  nElectrons: 318.000000
	Linear fluid (dielectric constant: 64) occupying 0.889438 of unit cell:	Completed after 0 iterations at t[s]: 1102084.52
SCF: Cycle: 17   F: -527.365574011796298   dF: -6.801e-09   |Residual|: 8.423e-05   |deigs|: 8.706e-06  t[s]: 1102085.74
SCF: Converged (|Delta E|<1.000000e-08 for 2 iters).

Setting wave functions to eigenvectors of Hamiltonian

-------- Electronic minimization -----------
Will mix electronic density at each iteration.
	FillingsUpdate:  mu: -0.102574861  nElectrons: 318.000000
	Linear fluid (dielectric constant: 64) occupying 0.889441 of unit cell:	Completed after 3 iterations at t[s]: 1102249.15
	FillingsUpdate:  mu: -0.102524579  nElectrons: 318.000000
	Linear fluid (dielectric constant: 64) occupying 0.889445 of unit cell:	Completed after 7 iterations at t[s]: 1102729.12
SCF: Cycle:  0   F: -527.365573218271265   dF: +1.127e-07   |Residual|: 8.551e-04   |deigs|: 2.009e-05  t[s]: 1102730.11
	Linear fluid (dielectric constant: 64) occupying 0.889439 of unit cell:	Completed after 4 iterations at t[s]: 1102732.31
	FillingsUpdate:  mu: -0.102550211  nElectrons: 318.000000
	Linear fluid (dielectric constant: 64) occupying 0.889443 of unit cell:	Completed after 4 iterations at t[s]: 1103171.23
SCF: Cycle:  1   F: -527.365574370278182   dF: -1.152e-06   |Residual|: 4.084e-04   |deigs|: 3.005e-05  t[s]: 1103172.27
	Linear fluid (dielectric constant: 64) occupying 0.889440 of unit cell:	Completed after 2 iterations at t[s]: 1103173.99
	FillingsUpdate:  mu: -0.102520374  nElectrons: 318.000000
	Linear fluid (dielectric constant: 64) occupying 0.889444 of unit cell:	Completed after 7 iterations at t[s]: 1103471.45
SCF: Cycle:  2   F: -527.365572840888376   dF: +1.529e-06   |Residual|: 6.110e-04   |deigs|: 3.290e-05  t[s]: 1103472.61
	Linear fluid (dielectric constant: 64) occupying 0.889439 of unit cell:	Completed after 4 iterations at t[s]: 1103474.97
	FillingsUpdate:  mu: -0.102547527  nElectrons: 318.000000
	Linear fluid (dielectric constant: 64) occupying 0.889443 of unit cell:	Completed after 4 iterations at t[s]: 1103770.74
SCF: Cycle:  3   F: -527.365574575718142   dF: -1.735e-06   |Residual|: 3.156e-04   |deigs|: 3.359e-05  t[s]: 1103771.81
	Linear fluid (dielectric constant: 64) occupying 0.889441 of unit cell:	Completed after 2 iterations at t[s]: 1103773.67
	FillingsUpdate:  mu: -0.102518557  nElectrons: 318.000000
	Linear fluid (dielectric constant: 64) occupying 0.889444 of unit cell:	Completed after 7 iterations at t[s]: 1104069.84
SCF: Cycle:  4   F: -527.365572224551443   dF: +2.351e-06   |Residual|: 6.688e-04   |deigs|: 3.647e-05  t[s]: 1104070.88
	Linear fluid (dielectric constant: 64) occupying 0.889442 of unit cell:	Completed after 7 iterations at t[s]: 1104074.51
	FillingsUpdate:  mu: -0.102524055  nElectrons: 318.000000
	Linear fluid (dielectric constant: 64) occupying 0.889443 of unit cell:	Completed after 3 iterations at t[s]: 1104369.70
SCF: Cycle:  5   F: -527.365574518122116   dF: -2.294e-06   |Residual|: 3.664e-04   |deigs|: 2.059e-05  t[s]: 1104370.73
	Linear fluid (dielectric constant: 64) occupying 0.889442 of unit cell:	Completed after 4 iterations at t[s]: 1104373.19
	FillingsUpdate:  mu: -0.102534246  nElectrons: 318.000000
	Linear fluid (dielectric constant: 64) occupying 0.889444 of unit cell:	Completed after 2 iterations at t[s]: 1104668.20
SCF: Cycle:  6   F: -527.365574986992101   dF: -4.689e-07   |Residual|: 2.198e-04   |deigs|: 1.183e-05  t[s]: 1104669.24
	Linear fluid (dielectric constant: 64) occupying 0.889443 of unit cell:	Completed after 2 iterations at t[s]: 1104671.08
	FillingsUpdate:  mu: -0.102539559  nElectrons: 318.000000
	Linear fluid (dielectric constant: 64) occupying 0.889444 of unit cell:	Completed after 0 iterations at t[s]: 1104965.61
SCF: Cycle:  7   F: -527.365575185610282   dF: -1.986e-07   |Residual|: 5.907e-05   |deigs|: 2.265e-05  t[s]: 1104966.65
	Linear fluid (dielectric constant: 64) occupying 0.889443 of unit cell:	Completed after 0 iterations at t[s]: 1104967.70
	FillingsUpdate:  mu: -0.102539649  nElectrons: 318.000000
	Linear fluid (dielectric constant: 64) occupying 0.889444 of unit cell:	Completed after 0 iterations at t[s]: 1105261.55
SCF: Cycle:  8   F: -527.365575186053889   dF: -4.436e-10   |Residual|: 5.946e-05   |deigs|: 3.589e-06  t[s]: 1105262.63
	Linear fluid (dielectric constant: 64) occupying 0.889443 of unit cell:	Completed after 0 iterations at t[s]: 1105263.71
	FillingsUpdate:  mu: -0.102540222  nElectrons: 318.000000
	Linear fluid (dielectric constant: 64) occupying 0.889444 of unit cell:	Completed after 0 iterations at t[s]: 1105757.91
SCF: Cycle:  9   F: -527.365575187014429   dF: -9.605e-10   |Residual|: 6.761e-05   |deigs|: 1.016e-05  t[s]: 1105758.97
SCF: Converged (|Delta E|<1.000000e-08 for 2 iters).

Setting wave functions to eigenvectors of Hamiltonian

# Ionic positions in cartesian coordinates:
ion C -14.002925756219998  24.253749133649997   0.000000000000000 0
ion C  -2.333825998650000   4.042300655969999   0.000000000000000 0
ion C  11.669105426759998  20.211497610660000   0.000000000000000 0
ion C  -9.335273758920000  24.253749133649997   0.000000000000000 0
ion C   9.335307774059999  24.253749133649997   0.000000000000000 0
ion C   2.333825998650000   4.042300655969999   0.000000000000000 0
ion C -11.669128103519999  20.211497610660000   0.000000000000000 0
ion C  -4.667651997299998   8.084599422210001   0.000000000000000 0
ion C   9.335277538380002  16.169198844420002   0.000000000000000 0
ion C  -4.667621761620000  24.253749133649997   0.000000000000000 0
ion C   4.667653887029999  24.253749133649997   0.000000000000000 0
ion C   4.667653887029999   8.084599422210001   0.000000000000000 0
ion C  -9.335302104870001  16.169198844420002   0.000000000000000 0
ion C  -7.001477995949999  12.126900078179998   0.000000000000000 0
ion C   7.001451539730000  12.126900078179998   0.000000000000000 0
ion C   0.000030235680001  24.253749133649997   0.000000000000000 0
ion C   0.000000000000001   8.084599422210001   0.000000000000000 0
ion C   7.001451539729999  20.211497610660000   0.000000000000000 0
ion C  -7.001476106220001  20.211497610660000   0.000000000000000 0
ion C  -2.333825998649999  12.126900078179998   0.000000000000000 0
ion C   4.667625541080000  16.169198844420002   0.000000000000000 0
ion C  -2.333824108920000  20.211497610660000   0.000000000000000 0
ion C   2.333827888379998  20.211497610660000   0.000000000000000 0
ion C   2.333827888380001  12.126900078179998   0.000000000000000 0
ion C  -4.667650107569999  16.169198844420002   0.000000000000000 0
ion C   7.001449649999998   4.042300655969999   0.000000000000000 0
ion C  21.004379185680005   4.042300655969999   0.000000000000000 0
ion C  14.002931425410001  16.169198844420002   0.000000000000000 0
ion C   0.000001889730001  16.169198844420002   0.000000000000000 0
ion C  11.669103537030001   4.042300655969999   0.000000000000000 0
ion C  18.670583422709996   8.084599422210001   0.000000000000000 0
ion C  11.669103537029997  12.126900078179998   0.000000000000000 0
ion C  16.336757424060000  12.126900078179998   0.000000000000000 0
ion C  16.336755534330003   4.042300655969999   0.000000000000000 0
ion C   9.335277538380002   8.084599422210001   0.000000000000000 0
ion C  14.002929535680002   8.084599422210001   0.000000000000000 0
ion C   0.000015117840000   2.694858915150000   0.000000000000000 0
ion C  11.669118654869999  22.906358415540002   0.000000000000000 0
ion C -11.669114875410003  22.906358415540002   0.000000000000000 0
ion C  -2.333810880810000   6.737157681389999   0.000000000000000 0
ion C   9.335292656219996  18.864057759569999   0.000000000000000 0
ion C  -7.001462878110001  22.906358415540002   0.000000000000000 0
ion C   7.001466657569997  22.906358415540002   0.000000000000000 0
ion C   2.333812770540000   6.737157681389999   0.000000000000000 0
ion C  -9.335288876760000  18.864057759569999   0.000000000000000 0
ion C  -4.667636879460000  10.779458337359999   0.000000000000000 0
ion C   7.001466657569999  14.821757103600000   0.000000000000000 0
ion C  -2.333837337030001  22.906358415540002   0.000000000000000 0
ion C   2.333814660269999  22.906358415540002   0.000000000000000 0
ion C   4.667638769190000  10.779458337359999   0.000000000000000 0
ion C  -7.001462878110000  14.821757103600000   0.000000000000000 0
ion C   4.667638769189999   2.694858915150000   0.000000000000000 0
ion C  23.338220302169997   2.694858915150000   0.000000000000000 0
ion C  14.002918197300000  18.864057759569999   0.000000000000000 0
ion C   0.000015117839999  10.779458337359999   0.000000000000000 0
ion C   4.667640658920000  18.864057759569999   0.000000000000000 0
ion C  -4.667636879460000  18.864057759569999   0.000000000000000 0
ion C  -2.333810880810001  14.821757103600000   0.000000000000000 0
ion C   2.333814660269999  14.821757103600000   0.000000000000000 0
ion C  -0.000011338380000  18.864057759569999   0.000000000000000 0
ion C   9.335290766490001   2.694858915150000   0.000000000000000 0
ion C  21.004394303519998   6.737157681389999   0.000000000000000 0
ion C  11.669116765139997  14.821757103600000   0.000000000000000 0
ion C  16.336742306220000  14.821757103600000   0.000000000000000 0
ion C  18.670566415139998   2.694858915150000   0.000000000000000 0
ion C   7.001464767840000   6.737157681389999   0.000000000000000 0
ion C  14.002942763789999   2.694858915150000   0.000000000000000 0
ion C  18.670568304869999  10.779458337359999   0.000000000000000 0
ion C   9.335290766490001  10.779458337359999   0.000000000000000 0
ion C  11.669116765139997   6.737157681389999   0.000000000000000 0
ion C  16.336740416489995   6.737157681389999   0.000000000000000 0
ion C  14.002942763789999  10.779458337359999   0.000000000000000 0
ion S   7.949073202434353  11.852105462229513   9.377927100824451 1
ion S   4.765188230756397   9.915765730167873   8.370345191003075 1
ion Na  11.382828448136543   5.528242341716226   7.625906378180514 1
ion Na   3.713009859785425  17.764228834021033   7.599153183940007 1

# Forces in Cartesian coordinates:
force C   0.000020735904874   0.000039079813605  -0.000001882122531 0
force C   0.000044019972674   0.000013384142332  -0.000001934637271 0
force C   0.000010910703461   0.000018202797131   0.000000227429093 0
force C  -0.000026909862575   0.000016871425217  -0.000004091323088 0
force C   0.000017936285249   0.000026089418847  -0.000002891667371 0
force C  -0.000015474343535   0.000026507898809   0.000009259557467 0
force C   0.000025090358030   0.000021895735776  -0.000002713248962 0
force C   0.000048015555977   0.000004670095631  -0.000001447226803 0
force C   0.000008703075892  -0.000037766946965   0.000001251850242 0
force C  -0.000021127510411  -0.000020235058422  -0.000000412980557 0
force C   0.000005598322273   0.000024945629715  -0.000007567533442 0
force C  -0.000047160277037   0.000039497061315  -0.000035216003719 0
force C   0.000039401654897  -0.000003648504377  -0.000003111081687 0
force C   0.000043864786316  -0.000010399791518  -0.000002121203249 0
force C  -0.000064905839072  -0.000073734959845   0.000020829503477 0
force C  -0.000023401881669  -0.000009357843367  -0.000000977738306 0
force C   0.000028210709604   0.000001239768540   0.000039154372246 0
force C   0.000046178039973   0.000015912467301   0.000000561702860 0
force C   0.000005902428353  -0.000003256120733  -0.000002410090779 0
force C   0.000019900167728  -0.000039275060951   0.000000959212695 0
force C   0.000027869892305  -0.000070325139197  -0.000023956890248 0
force C  -0.000029892204927   0.000005650805977   0.000000472374647 0
force C  -0.000029513318728   0.000016652454938   0.000000723481827 0
force C   0.000052546781009  -0.000093708669583  -0.000032861228291 0
force C   0.000001596367299  -0.000021874156297  -0.000003618048652 0
force C  -0.000044120476149   0.000029960486864  -0.000007636379618 0
force C   0.000032108462023   0.000001610237603  -0.000003784589811 0
force C  -0.000009752055659  -0.000004693199647   0.000000403224879 0
force C  -0.000023192059470  -0.000041179763694  -0.000002407029362 0
force C  -0.000001600087669  -0.000023076750219  -0.000013199615844 0
force C   0.000023803489316   0.000006427715014  -0.000001923348528 0
force C  -0.000038089715718  -0.000003739211684  -0.000000121525259 0
force C   0.000014448297041  -0.000005321233510   0.000001328953646 0
force C   0.000026541719508  -0.000009066371348  -0.000004437897499 0
force C  -0.000067409395572   0.000049645226652   0.000003707237062 0
force C   0.000019764985024   0.000025665328993  -0.000000595068174 0
force C  -0.000004629823229  -0.000004109262817   0.000000178576522 0
force C   0.000007736825262  -0.000027331308452  -0.000004055461133 0
force C  -0.000003587907126  -0.000025487153891  -0.000000984797138 0
force C  -0.000004828476516   0.000011109198217  -0.000002149776596 0
force C   0.000044087893906  -0.000017062194125   0.000000185838001 0
force C  -0.000026045986590  -0.000030991200245  -0.000002878642908 0
force C   0.000034394171161   0.000009746936597  -0.000003450072368 0
force C   0.000077016539213   0.000046010593088  -0.000018249720652 0
force C  -0.000025424515898  -0.000008427600963  -0.000001359152425 0
force C  -0.000024930769349   0.000016780047633   0.000000603691932 0
force C   0.000045321090970  -0.000080799762190   0.000017883825024 0
force C   0.000007065791942  -0.000022910698953  -0.000008228867170 0
force C   0.000015277988503   0.000022001190216   0.000001584758347 0
force C   0.000040426695062  -0.000004664704208  -0.000026026145225 0
force C  -0.000026425637518  -0.000001801323271  -0.000001696709808 0
force C  -0.000036015849407   0.000001438750576   0.000013709792834 0
force C  -0.000009449491285   0.000004443051757  -0.000003931966164 0
force C  -0.000006242025295  -0.000014303875057   0.000001127845143 0
force C   0.000020116818214   0.000008840139159   0.000009055177383 0
force C   0.000028638358786  -0.000009282140658  -0.000018571009691 0
force C  -0.000038326180271  -0.000011600211394  -0.000003882573245 0
force C  -0.000049600225161  -0.000022450649715   0.000005298917658 0
force C   0.000007691495677  -0.000080533582876  -0.000021245377386 0
force C  -0.000030530042220   0.000004065960471  -0.000002644401673 0
force C  -0.000044430956021  -0.000009773621381  -0.000002076510008 0
force C  -0.000013026149140   0.000015019064510  -0.000003807062436 0
force C  -0.000004344816884  -0.000006277437335   0.000010345685447 0
force C  -0.000017664606020   0.000002984728505   0.000002489730613 0
force C   0.000022276413343   0.000017317850807  -0.000001584959629 0
force C  -0.000086575892510   0.000066162216173  -0.000022542844225 0
force C   0.000024869629472  -0.000010929559043   0.000001225289181 0
force C  -0.000008301661540   0.000025126952759  -0.000003916408075 0
force C  -0.000047517004599   0.000064602502142   0.000051618026456 0
force C  -0.000026269295734   0.000059106825537  -0.000026267980487 0
force C   0.000045738684369   0.000031621532492  -0.000003888903554 0
force C  -0.000010885115923   0.000065583585185   0.000003915291374 0
force S   0.000041196741675   0.000103797305899   0.000005233488628 1
force S  -0.000016896559834  -0.000018786101784   0.000015252472530 1
force Na   0.000027518341831  -0.000124457270706   0.000052687444265 1
force Na  -0.000056328768494   0.000046776633564   0.000060857032912 1

# Energy components:
   A_diel =       -0.3315534655954363
   Eewald =     4582.9046106077203149
       EH =     5003.1175135052544647
     Eloc =   -10144.2786249819964723
      Enl =      -82.3419832489103669
      Exc =     -153.5460649837258131
 Exc_core =        5.9601297543793050
       KE =      261.2263703597554354
-------------------------------------
     Etot =     -527.2896024531189596
       TS =        0.0759727338954429
-------------------------------------
        F =     -527.3655751870144286

IonicMinimize: Iter:  30  F: -527.365575187014429  |grad|_K:  5.878e-05  alpha:  3.528e+00  linmin:  1.521e-01  t[s]: 1105850.13
IonicMinimize: Converged (|grad|_K<1.000000e-04).

#--- Lowdin population analysis ---
# oxidation-state C +0.030 +0.031 +0.030 +0.030 +0.030 +0.031 +0.030 +0.031 +0.030 +0.029 +0.029 +0.031 +0.030 +0.030 +0.031 +0.029 +0.031 +0.029 +0.030 +0.030 +0.029 +0.030 +0.028 +0.030 +0.030 +0.029 +0.030 +0.031 +0.029 +0.028 +0.030 +0.030 +0.030 +0.029 +0.029 +0.029 +0.031 +0.030 +0.030 +0.031 +0.030 +0.030 +0.030 +0.031 +0.030 +0.031 +0.030 +0.029 +0.029 +0.031 +0.030 +0.030 +0.030 +0.030 +0.031 +0.028 +0.030 +0.030 +0.029 +0.029 +0.029 +0.030 +0.030 +0.030 +0.030 +0.030 +0.029 +0.030 +0.030 +0.028 +0.029 +0.030
# oxidation-state S -0.487 -0.498
# oxidation-state Na +0.977 +0.977


Dumping 'Na2S2@graphene_6x6x1-PC.fillings' ... done
Dumping 'Na2S2@graphene_6x6x1-PC.wfns' ... done
Dumping 'Na2S2@graphene_6x6x1-PC.fluidState' ... done
Dumping 'Na2S2@graphene_6x6x1-PC.ionpos' ... done
Dumping 'Na2S2@graphene_6x6x1-PC.eigenvals' ... done
End date and time: Fri Sep 29 17:34:40 2023  (Duration: 12-19:11:45.75)
Done!
