
*************** JDFTx 1.7.0  ***************

Start date and time: Tue Sep 24 18:34:10 2024
Executable jdftx_gpu with command-line: -i /home/akim2/JDFTx/Na2S8@graphene/Na2S8@graphene.in -o /home/akim2/JDFTx/Na2S8@graphene/Na2S8@graphene.out
Running on hosts (process indices):  exp-2-58 (0)
Divided in process groups (process indices):  0 (0)
gpuInit: Found compatible cuda device 0 'Tesla V100-SXM2-32GB'
gpuInit: Selected device 0
Resource initialization completed at t[s]:      0.67
Run totals: 1 processes, 1 threads, 1 GPUs


Input parsed successfully to the following command list (including defaults):

basis kpoint-dependent
coords-type Cartesian
core-overlap-check vector
coulomb-interaction Slab 001
coulomb-truncation-embed 0 0 6
davidson-band-ratio 1.1
dump End State
dump Ionic State
dump-interval Ionic 5
dump-name Na2S8@graphene.$VAR
elec-cutoff 20 100
elec-eigen-algo Davidson
elec-ex-corr gga-PBE
elec-smearing Fermi 0.01
electronic-minimize  \
	dirUpdateScheme      FletcherReeves \
	linminMethod         DirUpdateRecommended \
	nIterations          100 \
	history              15 \
	knormThreshold       0 \
	energyDiffThreshold  1e-08 \
	nEnergyDiff          2 \
	alphaTstart          1 \
	alphaTmin            1e-10 \
	updateTestStepSize   yes \
	alphaTreduceFactor   0.1 \
	alphaTincreaseFactor 3 \
	nAlphaAdjustMax      3 \
	wolfeEnergy          0.0001 \
	wolfeGradient        0.9 \
	fdTest               no
electronic-scf  \
	nIterations	50 \
	energyDiffThreshold	1e-08 \
	residualThreshold	1e-07 \
	mixFraction	0.5 \
	qMetric	0.8 \
	history	10 \
	nEigSteps	2 \
	eigDiffThreshold	1e-08 \
	mixedVariable	Density \
	qKerker	0.8 \
	qKappa	-1 \
	verbose	no \
	mixFractionMag	1.5
exchange-regularization WignerSeitzTruncated
fluid None
fluid-ex-corr lda-TF lda-PZ
fluid-gummel-loop 10 1.000000e-05
fluid-minimize  \
	dirUpdateScheme      PolakRibiere \
	linminMethod         DirUpdateRecommended \
	nIterations          100 \
	history              15 \
	knormThreshold       0 \
	energyDiffThreshold  0 \
	nEnergyDiff          2 \
	alphaTstart          1 \
	alphaTmin            1e-10 \
	updateTestStepSize   yes \
	alphaTreduceFactor   0.1 \
	alphaTincreaseFactor 3 \
	nAlphaAdjustMax      3 \
	wolfeEnergy          0.0001 \
	wolfeGradient        0.9 \
	fdTest               no
fluid-solvent H2O 55.338 ScalarEOS \
	epsBulk 78.4 \
	pMol 0.92466 \
	epsInf 1.77 \
	Pvap 1.06736e-10 \
	sigmaBulk 4.62e-05 \
	Rvdw 2.61727 \
	Res 1.42 \
	tauNuc 343133 \
	poleEl 15 7 1
forces-output-coords Positions
ion C  28.005798599999999   0.000000000000000   0.897300000000001 0
ion C  16.336715849999997  20.211437139299999   0.897300000000001 0
ion C   2.333816549999999   4.042283648400000   0.897300000000001 0
ion C  23.338165499999999   0.000000000000000   0.897300000000001 0
ion C   4.667633100000000   0.000000000000000   0.897300000000001 0
ion C  11.669082749999999  20.211437139299999   0.897300000000001 0
ion C  25.671982050000000   4.042283648400000   0.897300000000001 0
ion C  18.670532399999999  16.169153490900001   0.897300000000001 0
ion C   4.667633099999997   8.084586194100000   0.897300000000001 0
ion C  18.670532399999999   0.000000000000000   0.897300000000001 0
ion C   9.335266200000000   0.000000000000000   0.897300000000001 0
ion C   9.335266200000001  16.169153490900001   0.897300000000001 0
ion C  23.338165500000002   8.084586194100000   0.897300000000001 0
ion C  21.004348950000001  12.126869842500000   0.897300000000001 0
ion C   7.001449649999998  12.126869842500000   0.897300000000001 0
ion C  14.002899299999999   0.000000000000000   0.897300000000001 0
ion C  14.002899299999997  16.169153490900001   0.897300000000001 0
ion C   7.001449650000000   4.042283648400000   0.897300000000001 0
ion C  21.004348950000001   4.042283648400000   0.897300000000001 0
ion C  16.336715849999997  12.126869842500000   0.897300000000001 0
ion C   9.335266200000000   8.084586194100000   0.897300000000001 0
ion C  16.336715849999994   4.042283648400000   0.897300000000001 0
ion C  11.669082749999999   4.042283648400000   0.897300000000001 0
ion C  11.669082749999999  12.126869842500000   0.897300000000001 0
ion C  18.670532399999992   8.084586194100000   0.897300000000001 0
ion C   7.001449650000000  20.211437139299999   0.897300000000001 0
ion C  -7.001449650000000  20.211437139299999   0.897300000000001 0
ion C   0.000000000000000   8.084586194100000   0.897300000000001 0
ion C  14.002899299999999   8.084586194100000   0.897300000000001 0
ion C   2.333816550000000  20.211437139299999   0.897300000000001 0
ion C  -4.667633100000000  16.169153490900001   0.897300000000001 0
ion C   2.333816550000000  12.126869842500000   0.897300000000001 0
ion C  -2.333816549999999  12.126869842500000   0.897300000000001 0
ion C  -2.333816549999998  20.211437139299999   0.897300000000001 0
ion C   4.667633099999998  16.169153490900001   0.897300000000001 0
ion C   0.000000000000000  16.169153490900001   0.897300000000001 0
ion C  14.002880402700006  21.558890218500000   0.897300000000001 0
ion C   2.333816549999999   1.347415284600000   0.897300000000001 0
ion C  25.672000947299999   1.347434181900000   0.897300000000001 0
ion C  16.336696952700002  17.516587672800000   0.897300000000001 0
ion C   4.667633100000000   5.389698933000000   0.897300000000001 0
ion C  21.004367847299999   1.347434181900000   0.897300000000001 0
ion C   7.001430752700000   1.347434181900000   0.897300000000001 0
ion C  11.669101647299998  17.516587672800000   0.897300000000001 0
ion C  23.338165499999999   5.389698933000000   0.897300000000001 0
ion C  18.670513502700000  13.474304024400000   0.897300000000001 0
ion C   7.001449649999999   9.432001478699998   0.897300000000001 0
ion C  16.336734747299996   1.347434181900000   0.897300000000001 0
ion C  11.669063852700001   1.347434181900000   0.897300000000001 0
ion C   9.335285097299998  13.474304024400000   0.897300000000001 0
ion C  21.004348950000001   9.432001478699998   0.897300000000001 0
ion C   9.335247302699999  21.558890218500000   0.897300000000001 0
ion C  -9.335266200000000  21.558871321199998   0.897300000000001 0
ion C   0.000018897300000   5.389717830300000   0.897300000000001 0
ion C  14.002880402699994  13.474304024400000   0.897300000000001 0
ion C   9.335266200000000   5.389698933000000   0.897300000000001 0
ion C  18.670551297300001   5.389717830300000   0.897300000000001 0
ion C  16.336696952699999   9.432020376000001   0.897300000000001 0
ion C  11.669082750000001   9.432001478699998   0.897300000000001 0
ion C  14.002918197299994   5.389717830300000   0.897300000000001 0
ion C   4.667614202699999  21.558890218500000   0.897300000000001 0
ion C  -7.001449650000000  17.516568775499998   0.897300000000001 0
ion C   2.333835447300000   9.432020376000001   0.897300000000001 0
ion C  -2.333835447300000   9.432020376000001   0.897300000000001 0
ion C  -4.667614202700001  21.558890218500000   0.897300000000001 0
ion C   7.001449650000000  17.516568775499998   0.897300000000001 0
ion C  -0.000018897300000  21.558890218500000   0.897300000000001 0
ion C  -4.667633100000000  13.474285127100000   0.897300000000001 0
ion C   4.667651997299996  13.474304024400000   0.897300000000001 0
ion C   2.333797652700000  17.516587672800000   0.897300000000001 0
ion C  -2.333816549999999  17.516568775499998   0.897300000000001 0
ion C   0.000018897299999  13.474304024400000   0.897300000000001 0
ion S   3.998082863699999  12.409743526200000   8.091464315400000 1
ion S   5.205091209300000   8.712203321699999  10.294058014200001 1
ion S   8.761033944899999   9.084083288400000  11.385622754100002 1
ion S  10.655148118500001   6.186957122700000   8.245571796899998 1
ion S  14.426293306500002   5.965178409899999   8.147494809900000 1
ion S  16.206097712399998   8.629508736900000   6.117093308699999 1
ion S   7.116628693499999  14.384586965400000   7.343924921999998 1
ion S   8.807086665000000  13.311390401099999   3.984665284799998 1
ion Na  12.370701704399995  11.757597703200000   7.315446690900000 1
ion Na   6.937879132799999   8.664525433800000   5.034939424200001 1
ion-species GBRV/$ID_pbe.uspp
ion-width 0
ionic-minimize  \
	dirUpdateScheme      FletcherReeves \
	linminMethod         DirUpdateRecommended \
	nIterations          200 \
	history              15 \
	knormThreshold       0.0001 \
	energyDiffThreshold  1e-06 \
	nEnergyDiff          2 \
	alphaTstart          1 \
	alphaTmin            1e-10 \
	updateTestStepSize   yes \
	alphaTreduceFactor   0.1 \
	alphaTincreaseFactor 3 \
	nAlphaAdjustMax      3 \
	wolfeEnergy          0.0001 \
	wolfeGradient        0.9 \
	fdTest               no
kpoint   0.000000000000   0.000000000000   0.000000000000  1.00000000000000
kpoint-folding 1 1 1 
latt-move-scale 1 1 1
latt-scale 1 1 1 
lattice Triclinic 28.0058 28.0058 37.7946 90 90 120
lattice-minimize  \
	dirUpdateScheme      L-BFGS \
	linminMethod         DirUpdateRecommended \
	nIterations          0 \
	history              15 \
	knormThreshold       0 \
	energyDiffThreshold  1e-06 \
	nEnergyDiff          2 \
	alphaTstart          1 \
	alphaTmin            1e-10 \
	updateTestStepSize   yes \
	alphaTreduceFactor   0.1 \
	alphaTincreaseFactor 3 \
	nAlphaAdjustMax      3 \
	wolfeEnergy          0.0001 \
	wolfeGradient        0.9 \
	fdTest               no
lcao-params -1 1e-06 0.01
pcm-variant GLSSA13
spintype no-spin
subspace-rotation-factor 1 yes
symmetries automatic
symmetry-threshold 0.0001



---------- Setting up symmetries ----------

Found 24 point-group symmetries of the bravais lattice
Found 1 space-group symmetries with basis
Applied RMS atom displacement 0 bohrs to make symmetries exact.

---------- Initializing the Grid ----------
R = 
[      28.0058     -14.0029            0  ]
[            0      24.2537            0  ]
[            0            0      37.7946  ]
unit cell volume = 25671.8
G =
[   0.224353    0.12953         -0  ]
[          0   0.259061          0  ]
[          0         -0   0.166246  ]
Minimum fftbox size, Smin = [  128  128  172  ]
Chosen fftbox size, S = [  128  128  180  ]

---------- Initializing tighter grid for wavefunction operations ----------
R = 
[      28.0058     -14.0029            0  ]
[            0      24.2537            0  ]
[            0            0      37.7946  ]
unit cell volume = 25671.8
G =
[   0.224353    0.12953         -0  ]
[          0   0.259061          0  ]
[          0         -0   0.166246  ]
Minimum fftbox size, Smin = [  116  116  156  ]
Chosen fftbox size, S = [  120  120  160  ]

---------- Exchange Correlation functional ----------
Initalized PBE GGA exchange.
Initalized PBE GGA correlation.

---------- Setting up pseudopotentials ----------
Width of ionic core gaussian charges (only for fluid interactions / plotting) set to 0

Reading pseudopotential file '/home/akim2/jdftx_install/build/pseudopotentials/GBRV/c_pbe.uspp':
  Title: C.  Created by USPP 7.3.6 on 3-2-2014
  Reference state energy: -5.406344.  4 valence electrons in orbitals:
    |200>  occupation: 2  eigenvalue: -0.504890
    |210>  occupation: 2  eigenvalue: -0.194356
  lMax: 1  lLocal: 2  QijEcut: 5
  4 projectors sampled on a log grid with 503 points:
    l: 0  eig: -0.504890  rCut: 1.3
    l: 0  eig: 0.000000  rCut: 1.3
    l: 1  eig: -0.194357  rCut: 1.3
    l: 1  eig: 0.000000  rCut: 1.3
  Partial core density with radius 1.1
  Transforming core density to a uniform radial grid of dG=0.02 with 1625 points.
  Transforming local potential to a uniform radial grid of dG=0.02 with 1625 points.
  Transforming nonlocal projectors to a uniform radial grid of dG=0.02 with 432 points.
  Transforming density augmentations to a uniform radial grid of dG=0.02 with 1625 points.
  Transforming atomic orbitals to a uniform radial grid of dG=0.02 with 432 points.
  Core radius for overlap checks: 1.30 bohrs.

Reading pseudopotential file '/home/akim2/jdftx_install/build/pseudopotentials/GBRV/s_pbe.uspp':
  Title: S.  Created by USPP 7.3.6 on 1-4-15
  Reference state energy: -11.898476.  6 valence electrons in orbitals:
    |300>  occupation: 2  eigenvalue: -0.634167
    |310>  occupation: 4  eigenvalue: -0.257568
  lMax: 2  lLocal: 3  QijEcut: 6
  6 projectors sampled on a log grid with 635 points:
    l: 0  eig: -0.634161  rCut: 1.5
    l: 0  eig: 1.500000  rCut: 1.5
    l: 1  eig: -0.257567  rCut: 1.5
    l: 1  eig: 1.500000  rCut: 1.5
    l: 2  eig: -1.000000  rCut: 1.5
    l: 2  eig: 1.500000  rCut: 1.5
  Partial core density with radius 1.15
  Transforming core density to a uniform radial grid of dG=0.02 with 1625 points.
  Transforming local potential to a uniform radial grid of dG=0.02 with 1625 points.
  Transforming nonlocal projectors to a uniform radial grid of dG=0.02 with 432 points.
  Transforming density augmentations to a uniform radial grid of dG=0.02 with 1625 points.
  Transforming atomic orbitals to a uniform radial grid of dG=0.02 with 432 points.
  Core radius for overlap checks: 1.50 bohrs.

Reading pseudopotential file '/home/akim2/jdftx_install/build/pseudopotentials/GBRV/na_pbe.uspp':
  Title: Na.  Created by USPP 7.3.6 on 23-9-15
  Reference state energy: -47.625620.  9 valence electrons in orbitals:
    |200>  occupation: 2  eigenvalue: -2.085638
    |210>  occupation: 6  eigenvalue: -1.053708
    |300>  occupation: 1  eigenvalue: -0.100838
  lMax: 2  lLocal: 0  QijEcut: 6
  5 projectors sampled on a log grid with 657 points:
    l: 0  eig: -2.085640  rCut: 1.37
    l: 0  eig: -0.100839  rCut: 1.37
    l: 1  eig: -1.053708  rCut: 1.47
    l: 1  eig: 0.500000  rCut: 1.47
    l: 2  eig: 0.750000  rCut: 2
  Transforming local potential to a uniform radial grid of dG=0.02 with 1625 points.
  Transforming nonlocal projectors to a uniform radial grid of dG=0.02 with 432 points.
  Transforming density augmentations to a uniform radial grid of dG=0.02 with 1625 points.
  Transforming atomic orbitals to a uniform radial grid of dG=0.02 with 432 points.
  Core radius for overlap checks: 2.00 bohrs.

Initialized 3 species with 82 total atoms.

Folded 1 k-points by 1x1x1 to 1 k-points.

---------- Setting up k-points, bands, fillings ----------
No reducable k-points. 
Computing the number of bands and number of electrons
Calculating initial fillings.
nElectrons: 354.000000   nBands: 330   nStates: 1

----- Setting up reduced wavefunction bases (one per k-point) -----
average nbasis = 109673.000 , ideal nbasis = 109671.883

---------- Setting up coulomb interaction ----------
Setting up double-sized grid for truncated Coulomb potentials:
R = 
[      28.0058     -14.0029            0  ]
[            0      24.2537            0  ]
[            0            0      75.5892  ]
unit cell volume = 51343.6
G =
[   0.224353    0.12953         -0  ]
[          0   0.259061          0  ]
[          0         -0  0.0831228  ]
Chosen fftbox size, S = [  128  128  360  ]
Integer grid location selected as the embedding center:
   Grid: [  0  0  29  ]
   Lattice: [  0  0  0.158753  ]
   Cartesian: [  0  0  6  ]
Constructing Wigner-Seitz cell: 8 faces (6 quadrilaterals, 2 hexagons)
Range-separation parameter for embedded mesh potentials due to point charges: 0.590105 bohrs.
Initialized slab truncation along lattice direction 001

---------- Setting up 2D ewald sum ----------
Optimum gaussian width for ewald sums = 15.547689 bohr.
Real space sums over 289 unit cells with max indices [  8  8  0  ]
Reciprocal space sums over 81 terms with max indices [  4  4  0  ]

---------- Allocating electronic variables ----------
Initializing wave functions:  linear combination of atomic orbitals
C pseudo-atom occupations:   s ( 2 )  p ( 2 )
S pseudo-atom occupations:   s ( 2 )  p ( 4 )
Na pseudo-atom occupations:   s ( 2 1 )  p ( 6 )
	FillingsUpdate:  mu: -0.165925617  nElectrons: 354.000000
LCAOMinimize: Iter:   0  F: -582.4797487612548821  |grad|_K:  1.531e-02  alpha:  1.000e+00
	FillingsUpdate:  mu: -0.322100131  nElectrons: 354.000000
LCAOMinimize: Iter:   1  F: -582.5478748588232065  |grad|_K:  1.597e-02  alpha:  2.225e-01  linmin:  1.293e-01  cgtest: -9.387e-01  t[s]:     11.62
LCAOMinimize: 	Bad step direction: g.d > 0.
LCAOMinimize: 	Undoing step.
LCAOMinimize: 	Step failed: resetting search direction.
	FillingsUpdate:  mu: -0.322100131  nElectrons: 354.000000
LCAOMinimize: Iter:   2  F: -582.5478748588232065  |grad|_K:  1.597e-02  alpha:  0.000e+00
	FillingsUpdate:  mu: -0.281962417  nElectrons: 354.000000
LCAOMinimize: Iter:   3  F: -583.8217754980635164  |grad|_K:  1.505e-03  alpha:  1.063e-01  linmin:  1.489e-01  cgtest: -1.228e+00  t[s]:     14.53
	FillingsUpdate:  mu: -0.282869398  nElectrons: 354.000000
LCAOMinimize: Iter:   4  F: -583.8224858023559136  |grad|_K:  1.562e-03  alpha:  4.365e-02  linmin: -7.667e-04  cgtest:  9.726e-01  t[s]:     18.76
LCAOMinimize: 	Predicted alpha/alphaT>3.000000, increasing alphaT to 1.309431e-01.
	FillingsUpdate:  mu: -0.280328338  nElectrons: 354.000000
LCAOMinimize: Iter:   5  F: -583.8429653522049421  |grad|_K:  5.317e-04  alpha:  1.577e-01  linmin:  7.217e-02  cgtest: -3.407e-01  t[s]:     25.69
	FillingsUpdate:  mu: -0.282458254  nElectrons: 354.000000
LCAOMinimize: Iter:   6  F: -583.8462203894084723  |grad|_K:  5.216e-04  alpha:  2.811e-01  linmin:  5.034e-03  cgtest:  4.642e-01  t[s]:     27.37
	FillingsUpdate:  mu: -0.279486570  nElectrons: 354.000000
LCAOMinimize: Iter:   7  F: -583.8485430044509030  |grad|_K:  2.305e-04  alpha:  1.588e-01  linmin:  7.700e-05  cgtest: -2.888e-02  t[s]:     29.09
	FillingsUpdate:  mu: -0.278401635  nElectrons: 354.000000
LCAOMinimize: Iter:   8  F: -583.8492087541375213  |grad|_K:  1.198e-04  alpha:  2.290e-01  linmin:  9.386e-04  cgtest:  3.763e-02  t[s]:     30.82
	FillingsUpdate:  mu: -0.279297990  nElectrons: 354.000000
LCAOMinimize: Iter:   9  F: -583.8493542566480983  |grad|_K:  5.879e-05  alpha:  1.853e-01  linmin:  3.552e-04  cgtest:  2.594e-03  t[s]:     32.63
	FillingsUpdate:  mu: -0.279217446  nElectrons: 354.000000
LCAOMinimize: Iter:  10  F: -583.8493934310760096  |grad|_K:  3.572e-05  alpha:  2.072e-01  linmin:  2.721e-04  cgtest: -2.706e-03  t[s]:     34.36
	FillingsUpdate:  mu: -0.278968609  nElectrons: 354.000000
LCAOMinimize: Iter:  11  F: -583.8494087488492141  |grad|_K:  1.743e-05  alpha:  2.195e-01  linmin:  2.431e-04  cgtest:  8.179e-03  t[s]:     36.08
	FillingsUpdate:  mu: -0.279064729  nElectrons: 354.000000
LCAOMinimize: Iter:  12  F: -583.8494128565885148  |grad|_K:  1.013e-05  alpha:  2.471e-01  linmin:  2.297e-04  cgtest: -2.980e-04  t[s]:     37.77
	FillingsUpdate:  mu: -0.279065316  nElectrons: 354.000000
LCAOMinimize: Iter:  13  F: -583.8494138682248149  |grad|_K:  5.258e-06  alpha:  1.801e-01  linmin: -3.895e-06  cgtest:  2.402e-03  t[s]:     39.46
	FillingsUpdate:  mu: -0.279044564  nElectrons: 354.000000
LCAOMinimize: Iter:  14  F: -583.8494142198185273  |grad|_K:  2.817e-06  alpha:  2.321e-01  linmin: -4.168e-06  cgtest: -3.368e-04  t[s]:     41.17
	FillingsUpdate:  mu: -0.279053764  nElectrons: 354.000000
LCAOMinimize: Iter:  15  F: -583.8494143147165687  |grad|_K:  1.810e-06  alpha:  2.183e-01  linmin: -7.479e-06  cgtest:  1.368e-04  t[s]:     42.87
LCAOMinimize: Converged (|Delta F|<1.000000e-06 for 2 iters).


---- Citations for features of the code used in this run ----

   Software package:
      R. Sundararaman, K. Letchworth-Weaver, K.A. Schwarz, D. Gunceler, Y. Ozhabes and T.A. Arias, 'JDFTx: software for joint density-functional theory', SoftwareX 6, 278 (2017)

   gga-PBE exchange-correlation functional:
      J.P. Perdew, K. Burke and M. Ernzerhof, Phys. Rev. Lett. 77, 3865 (1996)

   Pseudopotentials:
      KF Garrity, JW Bennett, KM Rabe and D Vanderbilt, Comput. Mater. Sci. 81, 446 (2014)

   Truncated Coulomb potentials:
      R. Sundararaman and T.A. Arias, Phys. Rev. B 87, 165122 (2013)

This list may not be complete. Please suggest additional citations or
report any other bugs at https://github.com/shankar1729/jdftx/issues

Initialization completed successfully at t[s]:     43.08


-------- Electronic minimization -----------
Will mix electronic density at each iteration.
	FillingsUpdate:  mu: -0.279053764  nElectrons: 354.000000
	FillingsUpdate:  mu: -0.292712674  nElectrons: 354.000000
SCF: Cycle:  0   F: -587.569631081790021   dF: -3.720e+00   |Residual|: 9.806e-01   |deigs|: 1.273e-01  t[s]:     47.73
	FillingsUpdate:  mu: -0.265385075  nElectrons: 354.000000
SCF: Cycle:  1   F: -588.242795077328992   dF: -6.732e-01   |Residual|: 4.981e-01   |deigs|: 3.176e-02  t[s]:     51.36
	FillingsUpdate:  mu: -0.233826364  nElectrons: 354.000000
SCF: Cycle:  2   F: -588.527120113341880   dF: -2.843e-01   |Residual|: 1.186e-01   |deigs|: 3.285e-02  t[s]:     55.00
	FillingsUpdate:  mu: -0.227717045  nElectrons: 354.000000
SCF: Cycle:  3   F: -588.590425781869612   dF: -6.331e-02   |Residual|: 7.187e-02   |deigs|: 7.420e-03  t[s]:     58.52
	FillingsUpdate:  mu: -0.218558590  nElectrons: 354.000000
SCF: Cycle:  4   F: -588.620540223863600   dF: -3.011e-02   |Residual|: 4.053e-02   |deigs|: 8.660e-03  t[s]:     62.01
	FillingsUpdate:  mu: -0.210713540  nElectrons: 354.000000
SCF: Cycle:  5   F: -588.640090781195454   dF: -1.955e-02   |Residual|: 3.003e-02   |deigs|: 7.228e-03  t[s]:     65.49
	FillingsUpdate:  mu: -0.204653029  nElectrons: 354.000000
SCF: Cycle:  6   F: -588.649130017998800   dF: -9.039e-03   |Residual|: 1.971e-02   |deigs|: 5.589e-03  t[s]:     69.01
	FillingsUpdate:  mu: -0.200706945  nElectrons: 354.000000
SCF: Cycle:  7   F: -588.652767732454890   dF: -3.638e-03   |Residual|: 1.417e-02   |deigs|: 4.122e-03  t[s]:     72.46
	FillingsUpdate:  mu: -0.196791359  nElectrons: 354.000000
SCF: Cycle:  8   F: -588.653945949013178   dF: -1.178e-03   |Residual|: 1.197e-02   |deigs|: 4.544e-03  t[s]:     75.74
	FillingsUpdate:  mu: -0.194241893  nElectrons: 354.000000
SCF: Cycle:  9   F: -588.654211793040076   dF: -2.658e-04   |Residual|: 9.312e-03   |deigs|: 2.841e-03  t[s]:     78.86
	FillingsUpdate:  mu: -0.191710482  nElectrons: 354.000000
SCF: Cycle: 10   F: -588.653918483635607   dF: +2.933e-04   |Residual|: 7.633e-03   |deigs|: 2.589e-03  t[s]:     81.93
	FillingsUpdate:  mu: -0.187578307  nElectrons: 354.000000
SCF: Cycle: 11   F: -588.653811804234124   dF: +1.067e-04   |Residual|: 6.037e-03   |deigs|: 3.923e-03  t[s]:     84.95
	FillingsUpdate:  mu: -0.183310591  nElectrons: 354.000000
SCF: Cycle: 12   F: -588.654088506250332   dF: -2.767e-04   |Residual|: 5.769e-03   |deigs|: 4.127e-03  t[s]:     87.98
	FillingsUpdate:  mu: -0.178648923  nElectrons: 354.000000
SCF: Cycle: 13   F: -588.654797553625826   dF: -7.090e-04   |Residual|: 4.725e-03   |deigs|: 4.912e-03  t[s]:     90.98
	FillingsUpdate:  mu: -0.174341685  nElectrons: 354.000000
SCF: Cycle: 14   F: -588.655167160051974   dF: -3.696e-04   |Residual|: 4.270e-03   |deigs|: 4.379e-03  t[s]:     94.11
	FillingsUpdate:  mu: -0.170331733  nElectrons: 354.000000
SCF: Cycle: 15   F: -588.655441290219528   dF: -2.741e-04   |Residual|: 3.673e-03   |deigs|: 3.666e-03  t[s]:     97.13
	FillingsUpdate:  mu: -0.166426264  nElectrons: 354.000000
SCF: Cycle: 16   F: -588.655554417157873   dF: -1.131e-04   |Residual|: 3.170e-03   |deigs|: 3.217e-03  t[s]:    100.25
	FillingsUpdate:  mu: -0.163270119  nElectrons: 354.000000
SCF: Cycle: 17   F: -588.655591932296943   dF: -3.752e-05   |Residual|: 2.773e-03   |deigs|: 3.059e-03  t[s]:    103.26
	FillingsUpdate:  mu: -0.161111390  nElectrons: 354.000000
SCF: Cycle: 18   F: -588.655613059662869   dF: -2.113e-05   |Residual|: 2.002e-03   |deigs|: 2.240e-03  t[s]:    106.29
	FillingsUpdate:  mu: -0.159975737  nElectrons: 354.000000
SCF: Cycle: 19   F: -588.655626549636622   dF: -1.349e-05   |Residual|: 1.451e-03   |deigs|: 1.302e-03  t[s]:    109.29
	FillingsUpdate:  mu: -0.159565302  nElectrons: 354.000000
SCF: Cycle: 20   F: -588.655628738351652   dF: -2.189e-06   |Residual|: 1.180e-03   |deigs|: 6.755e-04  t[s]:    112.29
	FillingsUpdate:  mu: -0.159331181  nElectrons: 354.000000
SCF: Cycle: 21   F: -588.655624925571487   dF: +3.813e-06   |Residual|: 8.241e-04   |deigs|: 5.769e-04  t[s]:    115.27
	FillingsUpdate:  mu: -0.159370016  nElectrons: 354.000000
SCF: Cycle: 22   F: -588.655623462080939   dF: +1.463e-06   |Residual|: 5.570e-04   |deigs|: 7.846e-04  t[s]:    118.34
	FillingsUpdate:  mu: -0.159183843  nElectrons: 354.000000
SCF: Cycle: 23   F: -588.655626899476260   dF: -3.437e-06   |Residual|: 4.439e-04   |deigs|: 3.029e-04  t[s]:    121.36
	FillingsUpdate:  mu: -0.158931656  nElectrons: 354.000000
SCF: Cycle: 24   F: -588.655634753663662   dF: -7.854e-06   |Residual|: 3.695e-04   |deigs|: 4.910e-04  t[s]:    124.37
	FillingsUpdate:  mu: -0.158924495  nElectrons: 354.000000
SCF: Cycle: 25   F: -588.655637971422948   dF: -3.218e-06   |Residual|: 2.269e-04   |deigs|: 5.540e-04  t[s]:    127.37
	FillingsUpdate:  mu: -0.158905184  nElectrons: 354.000000
SCF: Cycle: 26   F: -588.655638464968433   dF: -4.935e-07   |Residual|: 1.693e-04   |deigs|: 3.289e-04  t[s]:    130.37
	FillingsUpdate:  mu: -0.158892491  nElectrons: 354.000000
SCF: Cycle: 27   F: -588.655638621624576   dF: -1.567e-07   |Residual|: 1.263e-04   |deigs|: 1.345e-04  t[s]:    133.32
	FillingsUpdate:  mu: -0.158892964  nElectrons: 354.000000
SCF: Cycle: 28   F: -588.655638763762909   dF: -1.421e-07   |Residual|: 8.497e-05   |deigs|: 2.129e-04  t[s]:    136.54
	FillingsUpdate:  mu: -0.158917055  nElectrons: 354.000000
SCF: Cycle: 29   F: -588.655638857239296   dF: -9.348e-08   |Residual|: 6.060e-05   |deigs|: 6.123e-05  t[s]:    139.60
	FillingsUpdate:  mu: -0.158920598  nElectrons: 354.000000
SCF: Cycle: 30   F: -588.655638904469129   dF: -4.723e-08   |Residual|: 4.070e-05   |deigs|: 8.746e-05  t[s]:    142.63
	FillingsUpdate:  mu: -0.158911287  nElectrons: 354.000000
SCF: Cycle: 31   F: -588.655638919277180   dF: -1.481e-08   |Residual|: 2.962e-05   |deigs|: 1.262e-04  t[s]:    145.64
	FillingsUpdate:  mu: -0.158905645  nElectrons: 354.000000
SCF: Cycle: 32   F: -588.655638930713053   dF: -1.144e-08   |Residual|: 2.191e-05   |deigs|: 1.038e-04  t[s]:    148.70
	FillingsUpdate:  mu: -0.158908349  nElectrons: 354.000000
SCF: Cycle: 33   F: -588.655638937546769   dF: -6.834e-09   |Residual|: 1.651e-05   |deigs|: 4.687e-05  t[s]:    151.73
	FillingsUpdate:  mu: -0.158915208  nElectrons: 354.000000
SCF: Cycle: 34   F: -588.655638942364703   dF: -4.818e-09   |Residual|: 1.237e-05   |deigs|: 3.601e-05  t[s]:    154.82
SCF: Converged (|Delta E|<1.000000e-08 for 2 iters).

Setting wave functions to eigenvectors of Hamiltonian

# Ionic positions in cartesian coordinates:
ion C  28.005798599999999   0.000000000000000   0.897300000000001 0
ion C  16.336715849999997  20.211437139299999   0.897300000000001 0
ion C   2.333816549999999   4.042283648400000   0.897300000000001 0
ion C  23.338165499999999   0.000000000000000   0.897300000000001 0
ion C   4.667633100000000   0.000000000000000   0.897300000000001 0
ion C  11.669082749999999  20.211437139299999   0.897300000000001 0
ion C  25.671982050000000   4.042283648400000   0.897300000000001 0
ion C  18.670532399999999  16.169153490900001   0.897300000000001 0
ion C   4.667633099999997   8.084586194100000   0.897300000000001 0
ion C  18.670532399999999   0.000000000000000   0.897300000000001 0
ion C   9.335266200000000   0.000000000000000   0.897300000000001 0
ion C   9.335266200000001  16.169153490900001   0.897300000000001 0
ion C  23.338165500000002   8.084586194100000   0.897300000000001 0
ion C  21.004348950000001  12.126869842500000   0.897300000000001 0
ion C   7.001449649999998  12.126869842500000   0.897300000000001 0
ion C  14.002899299999999   0.000000000000000   0.897300000000001 0
ion C  14.002899299999997  16.169153490900001   0.897300000000001 0
ion C   7.001449650000000   4.042283648400000   0.897300000000001 0
ion C  21.004348950000001   4.042283648400000   0.897300000000001 0
ion C  16.336715849999997  12.126869842500000   0.897300000000001 0
ion C   9.335266200000000   8.084586194100000   0.897300000000001 0
ion C  16.336715849999994   4.042283648400000   0.897300000000001 0
ion C  11.669082749999999   4.042283648400000   0.897300000000001 0
ion C  11.669082749999999  12.126869842500000   0.897300000000001 0
ion C  18.670532399999992   8.084586194100000   0.897300000000001 0
ion C   7.001449650000000  20.211437139299999   0.897300000000001 0
ion C  -7.001449650000000  20.211437139299999   0.897300000000001 0
ion C   0.000000000000000   8.084586194100000   0.897300000000001 0
ion C  14.002899299999999   8.084586194100000   0.897300000000001 0
ion C   2.333816550000000  20.211437139299999   0.897300000000001 0
ion C  -4.667633100000000  16.169153490900001   0.897300000000001 0
ion C   2.333816550000000  12.126869842500000   0.897300000000001 0
ion C  -2.333816549999999  12.126869842500000   0.897300000000001 0
ion C  -2.333816549999998  20.211437139299999   0.897300000000001 0
ion C   4.667633099999998  16.169153490900001   0.897300000000001 0
ion C   0.000000000000000  16.169153490900001   0.897300000000001 0
ion C  14.002880402700006  21.558890218500000   0.897300000000001 0
ion C   2.333816549999999   1.347415284600000   0.897300000000001 0
ion C  25.672000947299999   1.347434181900000   0.897300000000001 0
ion C  16.336696952700002  17.516587672800000   0.897300000000001 0
ion C   4.667633100000000   5.389698933000000   0.897300000000001 0
ion C  21.004367847299999   1.347434181900000   0.897300000000001 0
ion C   7.001430752700000   1.347434181900000   0.897300000000001 0
ion C  11.669101647299998  17.516587672800000   0.897300000000001 0
ion C  23.338165499999999   5.389698933000000   0.897300000000001 0
ion C  18.670513502700000  13.474304024400000   0.897300000000001 0
ion C   7.001449649999999   9.432001478699998   0.897300000000001 0
ion C  16.336734747299996   1.347434181900000   0.897300000000001 0
ion C  11.669063852700001   1.347434181900000   0.897300000000001 0
ion C   9.335285097299998  13.474304024400000   0.897300000000001 0
ion C  21.004348950000001   9.432001478699998   0.897300000000001 0
ion C   9.335247302699999  21.558890218500000   0.897300000000001 0
ion C  -9.335266200000000  21.558871321199998   0.897300000000001 0
ion C   0.000018897300000   5.389717830300000   0.897300000000001 0
ion C  14.002880402699994  13.474304024400000   0.897300000000001 0
ion C   9.335266200000000   5.389698933000000   0.897300000000001 0
ion C  18.670551297300001   5.389717830300000   0.897300000000001 0
ion C  16.336696952699999   9.432020376000001   0.897300000000001 0
ion C  11.669082750000001   9.432001478699998   0.897300000000001 0
ion C  14.002918197299994   5.389717830300000   0.897300000000001 0
ion C   4.667614202699999  21.558890218500000   0.897300000000001 0
ion C  -7.001449650000000  17.516568775499998   0.897300000000001 0
ion C   2.333835447300000   9.432020376000001   0.897300000000001 0
ion C  -2.333835447300000   9.432020376000001   0.897300000000001 0
ion C  -4.667614202700001  21.558890218500000   0.897300000000001 0
ion C   7.001449650000000  17.516568775499998   0.897300000000001 0
ion C  -0.000018897300000  21.558890218500000   0.897300000000001 0
ion C  -4.667633100000000  13.474285127100000   0.897300000000001 0
ion C   4.667651997299996  13.474304024400000   0.897300000000001 0
ion C   2.333797652700000  17.516587672800000   0.897300000000001 0
ion C  -2.333816549999999  17.516568775499998   0.897300000000001 0
ion C   0.000018897299999  13.474304024400000   0.897300000000001 0
ion S   3.998082863699999  12.409743526200000   8.091464315400000 1
ion S   5.205091209300000   8.712203321699999  10.294058014200001 1
ion S   8.761033944899999   9.084083288400000  11.385622754100002 1
ion S  10.655148118500001   6.186957122700000   8.245571796899998 1
ion S  14.426293306500002   5.965178409899999   8.147494809900000 1
ion S  16.206097712399998   8.629508736900000   6.117093308699999 1
ion S   7.116628693499999  14.384586965400000   7.343924921999998 1
ion S   8.807086665000000  13.311390401099999   3.984665284799998 1
ion Na  12.370701704399995  11.757597703200000   7.315446690900000 1
ion Na   6.937879132799999   8.664525433800000   5.034939424200001 1

# Forces in Cartesian coordinates:
force C  -0.001422425246573   0.000114861735235   0.000007311115328 0
force C  -0.000366930399554   0.003544421608163   0.000013446638822 0
force C  -0.001840953466851   0.000702009407882   0.000261964057948 0
force C  -0.000233521380322   0.000386910710803  -0.000070049493655 0
force C  -0.002826474493160   0.001510845418507  -0.000000347840684 0
force C  -0.004332914811819   0.000565730270534   0.001139174828346 0
force C  -0.000843921894695   0.000842501871126   0.000035385824902 0
force C   0.002111511972238  -0.001830699464454   0.000011438707743 0
force C  -0.002588661098402   0.004568854079398  -0.004811118223341 0
force C   0.001157900185727   0.000017593101259  -0.000029960506619 0
force C   0.000101852230962   0.000368152449608  -0.000042543887095 0
force C   0.001922984245815   0.058028412108903  -0.039372966131419 0
force C   0.000009257987995  -0.000614954599634   0.000112253674669 0
force C   0.000500562727359  -0.001051930528814   0.000096131914632 0
force C  -0.047903119613390  -0.024173530273926  -0.029822091934729 0
force C   0.002495661916148   0.001510044783217   0.000021239235696 0
force C   0.009034401866712   0.002086283714152  -0.000214978406424 0
force C  -0.002142546843708  -0.003020520184196  -0.000205971852871 0
force C  -0.000172273167249   0.001148440119507   0.000018964522374 0
force C  -0.000811949561674  -0.002434176967516  -0.001556100253601 0
force C   0.004070186615281  -0.008169874385072  -0.006698982000176 0
force C   0.000634375030649   0.000971681423614   0.000237693558624 0
force C   0.003672657146967  -0.001165117922564   0.000317931475236 0
force C   0.027446715861635  -0.014702508730565  -0.029348455666120 0
force C  -0.000188611415442   0.000435052787086  -0.004101736763698 0
force C   0.003294812631327  -0.000431833302856   0.001153677866072 0
force C   0.000288784398305   0.000256535105165   0.000019873457488 0
force C   0.002183574906751   0.000668502641140  -0.000021911183784 0
force C  -0.005578642531961   0.001477976526712  -0.004786163580623 0
force C   0.000236337058853   0.002758728735596   0.000060853712004 0
force C   0.000232495431580  -0.002023021898639   0.000040152309074 0
force C   0.003927392434280  -0.000287518442970   0.000763960351772 0
force C   0.000069959643302  -0.001422454644846  -0.000024622728584 0
force C   0.000288718065471   0.000000383319051   0.000023578967668 0
force C  -0.008043422414939   0.000605113056044  -0.002689059769716 0
force C  -0.001448547951417  -0.001552483413716  -0.000052311733314 0
force C   0.002205567844836  -0.000184208647231  -0.000062260540979 0
force C   0.002483393284371  -0.001442352703710  -0.000032085934443 0
force C   0.000219714238855  -0.000708908976852   0.000042461726789 0
force C  -0.006057910395842  -0.004524940151862  -0.000085425569044 0
force C   0.000226754388591  -0.003888489699378   0.000317751200937 0
force C  -0.000176430352434  -0.000939494493654   0.000056790130930 0
force C   0.001590862140273   0.000692720227858   0.000158095129521 0
force C  -0.009010837471651  -0.002006538591178  -0.001567715463608 0
force C   0.000225618243975  -0.000103769204213   0.000099707162924 0
force C   0.000535152242241   0.002044335876631  -0.000074811685265 0
force C  -0.003531795887677  -0.006016847778341  -0.033296792712411 0
force C  -0.001891792779531  -0.000934413112756  -0.000016583679690 0
force C  -0.001536188135801   0.001159347101556  -0.000071828451703 0
force C   0.036570600330823   0.010088304262530  -0.102268899775548 0
force C  -0.000222438301481   0.000618953703044  -0.000503393937789 0
force C   0.000643931708901  -0.000316778503963   0.000011715112774 0
force C  -0.000592188425243  -0.001869039942923   0.000031320257417 0
force C   0.000071689087362  -0.000675066964251  -0.000157845093731 0
force C  -0.001306529476925  -0.000301895487181   0.001439199063605 0
force C   0.001171293432238   0.005630014993528   0.000090163567634 0
force C  -0.000055431881950  -0.000275697986643  -0.000890861482795 0
force C   0.003853872638472   0.001402835781279  -0.006215271640225 0
force C   0.005602294938183  -0.002774463131384  -0.002464165421770 0
force C  -0.001521144151366  -0.001195538750175  -0.001672084024399 0
force C  -0.001739166679849   0.000178841075443  -0.000087291507181 0
force C  -0.001332892656077   0.000376351502508   0.000039882719626 0
force C  -0.005325687424142  -0.001202197674598   0.001181317146625 0
force C  -0.000875899778721   0.001118759122471  -0.000069720254249 0
force C  -0.000221442511701  -0.000386953542340   0.000014738153716 0
force C   0.006645322121901   0.001437470308789  -0.004307049333491 0
force C   0.000247985780848  -0.002075320306774   0.000007595886065 0
force C  -0.000131024916121   0.001501827311006   0.000038811697624 0
force C  -0.013420560198580   0.005360865306716  -0.012509283818842 0
force C   0.005360432126859  -0.003959427410453   0.000206689059093 0
force C   0.001147491377416   0.000645760672767   0.000017672357976 0
force C  -0.000314638633546   0.002024676499359  -0.000212415860769 0
force S  -0.007793275206599  -0.003806177241368   0.005849530393830 1
force S   0.000323287401038   0.001708315476446   0.000922697974116 1
force S  -0.002294839379798   0.001672528434679   0.002992579940660 1
force S  -0.000569517962199  -0.000011490718698  -0.002847426854177 1
force S   0.003829659737178  -0.004512231008070   0.003897771882674 1
force S  -0.000343340847422   0.002321016249482   0.016325581988658 1
force S  -0.024342348627720   0.019280008126775   0.039516507467553 1
force S   0.030826582873195  -0.023652669351627   0.181982516161418 1
force Na   0.000986725538348  -0.001084335566276   0.003325884622931 1
force Na  -0.003122479355670  -0.010142092616187   0.030981501294319 1

# Energy components:
   Eewald =    -1883.2455369794829494
       EH =    -1433.4598582636911033
     Eloc =     2677.0679182303701964
      Enl =      -71.4593631323219540
      Exc =     -179.0140883215418626
 Exc_core =       16.5665101090066109
       KE =      284.9663548084420199
-------------------------------------
     Etot =     -588.5780635492193369
       TS =        0.0775753931453919
-------------------------------------
        F =     -588.6556389423647033

IonicMinimize: Iter:   0  F: -588.655638942364703  |grad|_K:  3.592e-02  alpha:  1.000e+00

#--- Lowdin population analysis ---
# oxidation-state C +0.042 +0.042 +0.037 +0.043 +0.043 +0.045 +0.042 +0.041 -0.011 +0.043 +0.043 +0.048 +0.045 +0.043 +0.046 +0.045 +0.033 +0.028 +0.046 +0.034 -0.012 +0.044 +0.040 +0.022 +0.048 +0.047 +0.043 +0.043 +0.053 +0.043 +0.043 +0.041 +0.043 +0.041 +0.033 +0.045 +0.041 +0.041 +0.041 +0.036 +0.017 +0.041 +0.038 +0.023 +0.041 +0.040 -0.072 +0.043 +0.042 -0.050 +0.043 +0.037 +0.039 +0.038 +0.018 +0.021 +0.046 +0.045 +0.014 +0.044 +0.043 +0.040 +0.018 +0.040 +0.038 +0.019 +0.042 +0.042 +0.008 +0.042 +0.041 +0.043
# oxidation-state S -0.048 +0.013 -0.052 -0.151 +0.251 -0.363 +0.037 +0.151
# oxidation-state Na +0.726 +0.737


-------- Electronic minimization -----------
Will mix electronic density at each iteration.
	FillingsUpdate:  mu: -0.158915208  nElectrons: 354.000000
	FillingsUpdate:  mu: -0.154905425  nElectrons: 354.000000
SCF: Cycle:  0   F: -588.506856793808652   dF: +1.387e-01   |Residual|: 1.334e-01   |deigs|: 2.880e-04  t[s]:    160.93
	FillingsUpdate:  mu: -0.155548697  nElectrons: 354.000000
SCF: Cycle:  1   F: -588.661064781814844   dF: -1.542e-01   |Residual|: 4.512e-02   |deigs|: 2.888e-03  t[s]:    164.49
	FillingsUpdate:  mu: -0.155869154  nElectrons: 354.000000
SCF: Cycle:  2   F: -588.669716273761651   dF: -8.651e-03   |Residual|: 1.955e-02   |deigs|: 8.419e-04  t[s]:    168.00
	FillingsUpdate:  mu: -0.156253062  nElectrons: 354.000000
SCF: Cycle:  3   F: -588.672423312857404   dF: -2.707e-03   |Residual|: 1.004e-02   |deigs|: 5.633e-04  t[s]:    171.58
	FillingsUpdate:  mu: -0.156536126  nElectrons: 354.000000
SCF: Cycle:  4   F: -588.673602496286435   dF: -1.179e-03   |Residual|: 4.721e-03   |deigs|: 5.311e-04  t[s]:    174.61
	FillingsUpdate:  mu: -0.156827286  nElectrons: 354.000000
SCF: Cycle:  5   F: -588.674284137382074   dF: -6.816e-04   |Residual|: 3.097e-03   |deigs|: 5.232e-04  t[s]:    177.01
	FillingsUpdate:  mu: -0.157096857  nElectrons: 354.000000
SCF: Cycle:  6   F: -588.674619976799931   dF: -3.358e-04   |Residual|: 2.253e-03   |deigs|: 5.034e-04  t[s]:    180.08
	FillingsUpdate:  mu: -0.157377778  nElectrons: 354.000000
SCF: Cycle:  7   F: -588.674804730915980   dF: -1.848e-04   |Residual|: 1.648e-03   |deigs|: 5.081e-04  t[s]:    183.08
	FillingsUpdate:  mu: -0.157619512  nElectrons: 354.000000
SCF: Cycle:  8   F: -588.674886399725665   dF: -8.167e-05   |Residual|: 1.329e-03   |deigs|: 4.018e-04  t[s]:    186.07
	FillingsUpdate:  mu: -0.157952890  nElectrons: 354.000000
SCF: Cycle:  9   F: -588.674959098370095   dF: -7.270e-05   |Residual|: 1.119e-03   |deigs|: 4.856e-04  t[s]:    189.21
	FillingsUpdate:  mu: -0.158127856  nElectrons: 354.000000
SCF: Cycle: 10   F: -588.674978002882767   dF: -1.890e-05   |Residual|: 9.323e-04   |deigs|: 1.934e-04  t[s]:    192.29
	FillingsUpdate:  mu: -0.158362195  nElectrons: 354.000000
SCF: Cycle: 11   F: -588.674995046238678   dF: -1.704e-05   |Residual|: 7.096e-04   |deigs|: 2.723e-04  t[s]:    195.34
	FillingsUpdate:  mu: -0.158532637  nElectrons: 354.000000
SCF: Cycle: 12   F: -588.675001900986103   dF: -6.855e-06   |Residual|: 4.931e-04   |deigs|: 2.821e-04  t[s]:    198.39
	FillingsUpdate:  mu: -0.158609475  nElectrons: 354.000000
SCF: Cycle: 13   F: -588.675003489242158   dF: -1.588e-06   |Residual|: 3.225e-04   |deigs|: 3.055e-04  t[s]:    201.39
	FillingsUpdate:  mu: -0.158654979  nElectrons: 354.000000
SCF: Cycle: 14   F: -588.675003931976107   dF: -4.427e-07   |Residual|: 1.981e-04   |deigs|: 4.274e-04  t[s]:    204.38
	FillingsUpdate:  mu: -0.158676894  nElectrons: 354.000000
SCF: Cycle: 15   F: -588.675004030371269   dF: -9.840e-08   |Residual|: 1.296e-04   |deigs|: 4.362e-04  t[s]:    207.48
	FillingsUpdate:  mu: -0.158690748  nElectrons: 354.000000
SCF: Cycle: 16   F: -588.675004115865818   dF: -8.549e-08   |Residual|: 8.967e-05   |deigs|: 2.231e-04  t[s]:    210.53
	FillingsUpdate:  mu: -0.158704030  nElectrons: 354.000000
SCF: Cycle: 17   F: -588.675004178969516   dF: -6.310e-08   |Residual|: 6.805e-05   |deigs|: 7.987e-05  t[s]:    213.58
	FillingsUpdate:  mu: -0.158722136  nElectrons: 354.000000
SCF: Cycle: 18   F: -588.675004228111902   dF: -4.914e-08   |Residual|: 5.133e-05   |deigs|: 7.929e-05  t[s]:    216.63
	FillingsUpdate:  mu: -0.158747283  nElectrons: 354.000000
SCF: Cycle: 19   F: -588.675004249862013   dF: -2.175e-08   |Residual|: 4.036e-05   |deigs|: 1.059e-04  t[s]:    219.67
	FillingsUpdate:  mu: -0.158767438  nElectrons: 354.000000
SCF: Cycle: 20   F: -588.675004256025204   dF: -6.163e-09   |Residual|: 3.255e-05   |deigs|: 6.166e-05  t[s]:    222.71
	FillingsUpdate:  mu: -0.158788359  nElectrons: 354.000000
SCF: Cycle: 21   F: -588.675004259214347   dF: -3.189e-09   |Residual|: 2.730e-05   |deigs|: 5.741e-05  t[s]:    225.91
SCF: Converged (|Delta E|<1.000000e-08 for 2 iters).

Setting wave functions to eigenvectors of Hamiltonian
IonicMinimize: 	Predicted alpha/alphaT>3.000000, increasing alphaT to 1.612173e+00.

-------- Electronic minimization -----------
Will mix electronic density at each iteration.
	FillingsUpdate:  mu: -0.158788359  nElectrons: 354.000000
	FillingsUpdate:  mu: -0.152098245  nElectrons: 354.000000
SCF: Cycle:  0   F: -587.943494518547482   dF: +6.468e-01   |Residual|: 2.667e-01   |deigs|: 1.313e-03  t[s]:    231.18
	FillingsUpdate:  mu: -0.151580598  nElectrons: 354.000000
SCF: Cycle:  1   F: -588.659535303547045   dF: -7.160e-01   |Residual|: 9.922e-02   |deigs|: 4.796e-03  t[s]:    234.72
	FillingsUpdate:  mu: -0.152532297  nElectrons: 354.000000
SCF: Cycle:  2   F: -588.683874632296579   dF: -2.434e-02   |Residual|: 4.106e-02   |deigs|: 1.409e-03  t[s]:    238.29
	FillingsUpdate:  mu: -0.153277428  nElectrons: 354.000000
SCF: Cycle:  3   F: -588.696100495130622   dF: -1.223e-02   |Residual|: 2.051e-02   |deigs|: 1.158e-03  t[s]:    241.86
	FillingsUpdate:  mu: -0.153868489  nElectrons: 354.000000
SCF: Cycle:  4   F: -588.700725272425757   dF: -4.625e-03   |Residual|: 9.718e-03   |deigs|: 9.966e-04  t[s]:    245.40
	FillingsUpdate:  mu: -0.154447011  nElectrons: 354.000000
SCF: Cycle:  5   F: -588.703429784012428   dF: -2.705e-03   |Residual|: 6.264e-03   |deigs|: 9.003e-04  t[s]:    248.42
	FillingsUpdate:  mu: -0.154968074  nElectrons: 354.000000
SCF: Cycle:  6   F: -588.704692834722096   dF: -1.263e-03   |Residual|: 4.751e-03   |deigs|: 7.503e-04  t[s]:    251.47
	FillingsUpdate:  mu: -0.155610550  nElectrons: 354.000000
SCF: Cycle:  7   F: -588.705636302948164   dF: -9.435e-04   |Residual|: 3.420e-03   |deigs|: 8.703e-04  t[s]:    254.52
	FillingsUpdate:  mu: -0.156077757  nElectrons: 354.000000
SCF: Cycle:  8   F: -588.705960639999148   dF: -3.243e-04   |Residual|: 2.774e-03   |deigs|: 5.867e-04  t[s]:    260.54
	FillingsUpdate:  mu: -0.156746868  nElectrons: 354.000000
SCF: Cycle:  9   F: -588.706266094597254   dF: -3.055e-04   |Residual|: 2.252e-03   |deigs|: 7.872e-04  t[s]:    265.93
	FillingsUpdate:  mu: -0.157178253  nElectrons: 354.000000
SCF: Cycle: 10   F: -588.706371073193736   dF: -1.050e-04   |Residual|: 1.953e-03   |deigs|: 4.256e-04  t[s]:    273.12
	FillingsUpdate:  mu: -0.157678167  nElectrons: 354.000000
SCF: Cycle: 11   F: -588.706441774141240   dF: -7.070e-05   |Residual|: 1.459e-03   |deigs|: 4.701e-04  t[s]:    276.18
	FillingsUpdate:  mu: -0.158044187  nElectrons: 354.000000
SCF: Cycle: 12   F: -588.706469946627635   dF: -2.817e-05   |Residual|: 9.908e-04   |deigs|: 4.204e-04  t[s]:    279.28
	FillingsUpdate:  mu: -0.158193824  nElectrons: 354.000000
SCF: Cycle: 13   F: -588.706475460809770   dF: -5.514e-06   |Residual|: 6.669e-04   |deigs|: 4.027e-04  t[s]:    282.29
	FillingsUpdate:  mu: -0.158303137  nElectrons: 354.000000
SCF: Cycle: 14   F: -588.706476901907081   dF: -1.441e-06   |Residual|: 4.019e-04   |deigs|: 6.467e-04  t[s]:    285.30
	FillingsUpdate:  mu: -0.158353809  nElectrons: 354.000000
SCF: Cycle: 15   F: -588.706477440459480   dF: -5.386e-07   |Residual|: 2.580e-04   |deigs|: 5.792e-04  t[s]:    288.33
	FillingsUpdate:  mu: -0.158392571  nElectrons: 354.000000
SCF: Cycle: 16   F: -588.706477828195716   dF: -3.877e-07   |Residual|: 1.853e-04   |deigs|: 2.975e-04  t[s]:    291.34
	FillingsUpdate:  mu: -0.158430058  nElectrons: 354.000000
SCF: Cycle: 17   F: -588.706478062676524   dF: -2.345e-07   |Residual|: 1.378e-04   |deigs|: 1.153e-04  t[s]:    294.37
	FillingsUpdate:  mu: -0.158471462  nElectrons: 354.000000
SCF: Cycle: 18   F: -588.706478185197057   dF: -1.225e-07   |Residual|: 1.066e-04   |deigs|: 1.197e-04  t[s]:    297.39
	FillingsUpdate:  mu: -0.158526441  nElectrons: 354.000000
SCF: Cycle: 19   F: -588.706478239623266   dF: -5.443e-08   |Residual|: 8.233e-05   |deigs|: 2.112e-04  t[s]:    300.47
	FillingsUpdate:  mu: -0.158576225  nElectrons: 354.000000
SCF: Cycle: 20   F: -588.706478260864628   dF: -2.124e-08   |Residual|: 6.962e-05   |deigs|: 1.233e-04  t[s]:    303.54
	FillingsUpdate:  mu: -0.158633295  nElectrons: 354.000000
SCF: Cycle: 21   F: -588.706478262683049   dF: -1.818e-09   |Residual|: 5.468e-05   |deigs|: 1.043e-04  t[s]:    306.58
	FillingsUpdate:  mu: -0.158682948  nElectrons: 354.000000
SCF: Cycle: 22   F: -588.706478282010835   dF: -1.933e-08   |Residual|: 4.350e-05   |deigs|: 9.200e-05  t[s]:    309.63
	FillingsUpdate:  mu: -0.158725687  nElectrons: 354.000000
SCF: Cycle: 23   F: -588.706478305802079   dF: -2.379e-08   |Residual|: 3.682e-05   |deigs|: 1.282e-04  t[s]:    312.78
	FillingsUpdate:  mu: -0.158768984  nElectrons: 354.000000
SCF: Cycle: 24   F: -588.706478324981163   dF: -1.918e-08   |Residual|: 3.059e-05   |deigs|: 1.172e-04  t[s]:    315.86
	FillingsUpdate:  mu: -0.158803604  nElectrons: 354.000000
SCF: Cycle: 25   F: -588.706478332390589   dF: -7.409e-09   |Residual|: 2.533e-05   |deigs|: 6.983e-05  t[s]:    318.89
	FillingsUpdate:  mu: -0.158829361  nElectrons: 354.000000
SCF: Cycle: 26   F: -588.706478333842938   dF: -1.452e-09   |Residual|: 1.954e-05   |deigs|: 4.965e-05  t[s]:    321.95
SCF: Converged (|Delta E|<1.000000e-08 for 2 iters).

Setting wave functions to eigenvectors of Hamiltonian

-------- Electronic minimization -----------
Will mix electronic density at each iteration.
	FillingsUpdate:  mu: -0.158829361  nElectrons: 354.000000
	FillingsUpdate:  mu: -0.149775469  nElectrons: 354.000000
SCF: Cycle:  0   F: -583.784850181076649   dF: +4.237e+00   |Residual|: 6.437e-01   |deigs|: 1.056e-02  t[s]:    327.21
	FillingsUpdate:  mu: -0.138908893  nElectrons: 354.000000
SCF: Cycle:  1   F: -588.457330443519595   dF: -4.672e+00   |Residual|: 2.500e-01   |deigs|: 1.100e-02  t[s]:    330.69
	FillingsUpdate:  mu: -0.142007021  nElectrons: 354.000000
SCF: Cycle:  2   F: -588.599393352370498   dF: -1.421e-01   |Residual|: 1.025e-01   |deigs|: 3.591e-03  t[s]:    334.16
	FillingsUpdate:  mu: -0.143545839  nElectrons: 354.000000
SCF: Cycle:  3   F: -588.692565308660051   dF: -9.317e-02   |Residual|: 5.262e-02   |deigs|: 3.060e-03  t[s]:    337.69
	FillingsUpdate:  mu: -0.145197592  nElectrons: 354.000000
SCF: Cycle:  4   F: -588.716886963089792   dF: -2.432e-02   |Residual|: 2.295e-02   |deigs|: 2.354e-03  t[s]:    341.24
	FillingsUpdate:  mu: -0.146735759  nElectrons: 354.000000
SCF: Cycle:  5   F: -588.734427586517427   dF: -1.754e-02   |Residual|: 1.614e-02   |deigs|: 2.031e-03  t[s]:    344.74
	FillingsUpdate:  mu: -0.148128292  nElectrons: 354.000000
SCF: Cycle:  6   F: -588.741889771170349   dF: -7.462e-03   |Residual|: 1.179e-02   |deigs|: 1.551e-03  t[s]:    348.29
	FillingsUpdate:  mu: -0.149981364  nElectrons: 354.000000
SCF: Cycle:  7   F: -588.748445533448034   dF: -6.556e-03   |Residual|: 8.981e-03   |deigs|: 1.896e-03  t[s]:    351.52
	FillingsUpdate:  mu: -0.151412733  nElectrons: 354.000000
SCF: Cycle:  8   F: -588.750995140908458   dF: -2.550e-03   |Residual|: 6.992e-03   |deigs|: 1.343e-03  t[s]:    354.60
	FillingsUpdate:  mu: -0.153086862  nElectrons: 354.000000
SCF: Cycle:  9   F: -588.752817874391326   dF: -1.823e-03   |Residual|: 5.885e-03   |deigs|: 1.556e-03  t[s]:    357.67
	FillingsUpdate:  mu: -0.154467013  nElectrons: 354.000000
SCF: Cycle: 10   F: -588.753610260035543   dF: -7.924e-04   |Residual|: 4.783e-03   |deigs|: 1.193e-03  t[s]:    360.69
	FillingsUpdate:  mu: -0.155730389  nElectrons: 354.000000
SCF: Cycle: 11   F: -588.754016301995421   dF: -4.060e-04   |Residual|: 3.681e-03   |deigs|: 1.075e-03  t[s]:    363.72
	FillingsUpdate:  mu: -0.156655415  nElectrons: 354.000000
SCF: Cycle: 12   F: -588.754160949804373   dF: -1.446e-04   |Residual|: 2.445e-03   |deigs|: 9.129e-04  t[s]:    366.84
	FillingsUpdate:  mu: -0.157092566  nElectrons: 354.000000
SCF: Cycle: 13   F: -588.754187006508346   dF: -2.606e-05   |Residual|: 1.559e-03   |deigs|: 8.770e-04  t[s]:    369.89
	FillingsUpdate:  mu: -0.157398564  nElectrons: 354.000000
SCF: Cycle: 14   F: -588.754195662008669   dF: -8.656e-06   |Residual|: 9.546e-04   |deigs|: 1.150e-03  t[s]:    372.93
	FillingsUpdate:  mu: -0.157587280  nElectrons: 354.000000
SCF: Cycle: 15   F: -588.754199726813113   dF: -4.065e-06   |Residual|: 6.165e-04   |deigs|: 8.257e-04  t[s]:    375.95
	FillingsUpdate:  mu: -0.157686189  nElectrons: 354.000000
SCF: Cycle: 16   F: -588.754201619992045   dF: -1.893e-06   |Residual|: 4.583e-04   |deigs|: 2.593e-04  t[s]:    378.96
	FillingsUpdate:  mu: -0.157858683  nElectrons: 354.000000
SCF: Cycle: 17   F: -588.754202655808740   dF: -1.036e-06   |Residual|: 3.463e-04   |deigs|: 2.586e-04  t[s]:    382.01
	FillingsUpdate:  mu: -0.157999269  nElectrons: 354.000000
SCF: Cycle: 18   F: -588.754203086890129   dF: -4.311e-07   |Residual|: 2.833e-04   |deigs|: 2.472e-04  t[s]:    385.14
	FillingsUpdate:  mu: -0.158194330  nElectrons: 354.000000
SCF: Cycle: 19   F: -588.754203516912526   dF: -4.300e-07   |Residual|: 2.356e-04   |deigs|: 4.136e-04  t[s]:    388.19
	FillingsUpdate:  mu: -0.158384979  nElectrons: 354.000000
SCF: Cycle: 20   F: -588.754203714570394   dF: -1.977e-07   |Residual|: 1.860e-04   |deigs|: 2.609e-04  t[s]:    391.22
	FillingsUpdate:  mu: -0.158523759  nElectrons: 354.000000
SCF: Cycle: 21   F: -588.754203807864201   dF: -9.329e-08   |Residual|: 1.524e-04   |deigs|: 1.970e-04  t[s]:    394.25
	FillingsUpdate:  mu: -0.158666556  nElectrons: 354.000000
SCF: Cycle: 22   F: -588.754203929845517   dF: -1.220e-07   |Residual|: 1.268e-04   |deigs|: 2.469e-04  t[s]:    397.27
	FillingsUpdate:  mu: -0.158806425  nElectrons: 354.000000
SCF: Cycle: 23   F: -588.754204023748343   dF: -9.390e-08   |Residual|: 1.047e-04   |deigs|: 2.996e-04  t[s]:    400.31
	FillingsUpdate:  mu: -0.158924660  nElectrons: 354.000000
SCF: Cycle: 24   F: -588.754204145335507   dF: -1.216e-07   |Residual|: 8.599e-05   |deigs|: 1.828e-04  t[s]:    403.37
	FillingsUpdate:  mu: -0.159032655  nElectrons: 354.000000
SCF: Cycle: 25   F: -588.754204229833476   dF: -8.450e-08   |Residual|: 6.251e-05   |deigs|: 1.362e-04  t[s]:    406.41
	FillingsUpdate:  mu: -0.159093823  nElectrons: 354.000000
SCF: Cycle: 26   F: -588.754204247386497   dF: -1.755e-08   |Residual|: 4.342e-05   |deigs|: 9.617e-05  t[s]:    409.48
	FillingsUpdate:  mu: -0.159115291  nElectrons: 354.000000
SCF: Cycle: 27   F: -588.754204261989230   dF: -1.460e-08   |Residual|: 3.136e-05   |deigs|: 8.101e-05  t[s]:    412.50
	FillingsUpdate:  mu: -0.159124052  nElectrons: 354.000000
SCF: Cycle: 28   F: -588.754204285854939   dF: -2.387e-08   |Residual|: 2.379e-05   |deigs|: 1.023e-04  t[s]:    415.49
	FillingsUpdate:  mu: -0.159125336  nElectrons: 354.000000
SCF: Cycle: 29   F: -588.754204299264757   dF: -1.341e-08   |Residual|: 1.683e-05   |deigs|: 7.375e-05  t[s]:    418.61
	FillingsUpdate:  mu: -0.159129980  nElectrons: 354.000000
SCF: Cycle: 30   F: -588.754204304559835   dF: -5.295e-09   |Residual|: 1.148e-05   |deigs|: 8.116e-05  t[s]:    421.65
	FillingsUpdate:  mu: -0.159132019  nElectrons: 354.000000
SCF: Cycle: 31   F: -588.754204307368241   dF: -2.808e-09   |Residual|: 6.757e-06   |deigs|: 7.907e-05  t[s]:    424.70
SCF: Converged (|Delta E|<1.000000e-08 for 2 iters).

Setting wave functions to eigenvectors of Hamiltonian

# Ionic positions in cartesian coordinates:
ion C  28.005798599999999   0.000000000000000   0.897300000000001 0
ion C  16.336715849999997  20.211437139299999   0.897300000000001 0
ion C   2.333816549999999   4.042283648400000   0.897300000000001 0
ion C  23.338165499999999   0.000000000000000   0.897300000000001 0
ion C   4.667633100000000   0.000000000000000   0.897300000000001 0
ion C  11.669082749999999  20.211437139299999   0.897300000000001 0
ion C  25.671982050000000   4.042283648400000   0.897300000000001 0
ion C  18.670532399999999  16.169153490900001   0.897300000000001 0
ion C   4.667633099999997   8.084586194100000   0.897300000000001 0
ion C  18.670532399999999   0.000000000000000   0.897300000000001 0
ion C   9.335266200000000   0.000000000000000   0.897300000000001 0
ion C   9.335266200000001  16.169153490900001   0.897300000000001 0
ion C  23.338165500000002   8.084586194100000   0.897300000000001 0
ion C  21.004348950000001  12.126869842500000   0.897300000000001 0
ion C   7.001449649999998  12.126869842500000   0.897300000000001 0
ion C  14.002899299999999   0.000000000000000   0.897300000000001 0
ion C  14.002899299999997  16.169153490900001   0.897300000000001 0
ion C   7.001449650000000   4.042283648400000   0.897300000000001 0
ion C  21.004348950000001   4.042283648400000   0.897300000000001 0
ion C  16.336715849999997  12.126869842500000   0.897300000000001 0
ion C   9.335266200000000   8.084586194100000   0.897300000000001 0
ion C  16.336715849999994   4.042283648400000   0.897300000000001 0
ion C  11.669082749999999   4.042283648400000   0.897300000000001 0
ion C  11.669082749999999  12.126869842500000   0.897300000000001 0
ion C  18.670532399999992   8.084586194100000   0.897300000000001 0
ion C   7.001449650000000  20.211437139299999   0.897300000000001 0
ion C  -7.001449650000000  20.211437139299999   0.897300000000001 0
ion C   0.000000000000000   8.084586194100000   0.897300000000001 0
ion C  14.002899299999999   8.084586194100000   0.897300000000001 0
ion C   2.333816550000000  20.211437139299999   0.897300000000001 0
ion C  -4.667633100000000  16.169153490900001   0.897300000000001 0
ion C   2.333816550000000  12.126869842500000   0.897300000000001 0
ion C  -2.333816549999999  12.126869842500000   0.897300000000001 0
ion C  -2.333816549999998  20.211437139299999   0.897300000000001 0
ion C   4.667633099999998  16.169153490900001   0.897300000000001 0
ion C   0.000000000000000  16.169153490900001   0.897300000000001 0
ion C  14.002880402700006  21.558890218500000   0.897300000000001 0
ion C   2.333816549999999   1.347415284600000   0.897300000000001 0
ion C  25.672000947299999   1.347434181900000   0.897300000000001 0
ion C  16.336696952700002  17.516587672800000   0.897300000000001 0
ion C   4.667633100000000   5.389698933000000   0.897300000000001 0
ion C  21.004367847299999   1.347434181900000   0.897300000000001 0
ion C   7.001430752700000   1.347434181900000   0.897300000000001 0
ion C  11.669101647299998  17.516587672800000   0.897300000000001 0
ion C  23.338165499999999   5.389698933000000   0.897300000000001 0
ion C  18.670513502700000  13.474304024400000   0.897300000000001 0
ion C   7.001449649999999   9.432001478699998   0.897300000000001 0
ion C  16.336734747299996   1.347434181900000   0.897300000000001 0
ion C  11.669063852700001   1.347434181900000   0.897300000000001 0
ion C   9.335285097299998  13.474304024400000   0.897300000000001 0
ion C  21.004348950000001   9.432001478699998   0.897300000000001 0
ion C   9.335247302699999  21.558890218500000   0.897300000000001 0
ion C  -9.335266200000000  21.558871321199998   0.897300000000001 0
ion C   0.000018897300000   5.389717830300000   0.897300000000001 0
ion C  14.002880402699994  13.474304024400000   0.897300000000001 0
ion C   9.335266200000000   5.389698933000000   0.897300000000001 0
ion C  18.670551297300001   5.389717830300000   0.897300000000001 0
ion C  16.336696952699999   9.432020376000001   0.897300000000001 0
ion C  11.669082750000001   9.432001478699998   0.897300000000001 0
ion C  14.002918197299994   5.389717830300000   0.897300000000001 0
ion C   4.667614202699999  21.558890218500000   0.897300000000001 0
ion C  -7.001449650000000  17.516568775499998   0.897300000000001 0
ion C   2.333835447300000   9.432020376000001   0.897300000000001 0
ion C  -2.333835447300000   9.432020376000001   0.897300000000001 0
ion C  -4.667614202700001  21.558890218500000   0.897300000000001 0
ion C   7.001449650000000  17.516568775499998   0.897300000000001 0
ion C  -0.000018897300000  21.558890218500000   0.897300000000001 0
ion C  -4.667633100000000  13.474285127100000   0.897300000000001 0
ion C   4.667651997299996  13.474304024400000   0.897300000000001 0
ion C   2.333797652700000  17.516587672800000   0.897300000000001 0
ion C  -2.333816549999999  17.516568775499998   0.897300000000001 0
ion C   0.000018897299999  13.474304024400000   0.897300000000001 0
ion S   3.964152798731480  12.393172336596432   8.116931778185084 1
ion S   5.206498725681745   8.719640920599810  10.298075221520172 1
ion S   8.751042760553918   9.091365079039486  11.398651734742712 1
ion S  10.652668572873051   6.186907094846289   8.233174778240436 1
ion S  14.442966733300040   5.945533230280632   8.164464780766627 1
ion S  16.204602888086661   8.639613889104970   6.188171006181413 1
ion S   7.010647902557887  14.468527530950816   7.515970388143391 1
ion S   8.941298268198526  13.208412309539716   4.776973837084041 1
ion Na  12.374997672492324  11.752876764283297   7.329926800782212 1
ion Na   6.924284601028425   8.620369176993799   5.169825505323940 1

# Forces in Cartesian coordinates:
force C  -0.001188443990561  -0.000033513722778   0.000007394439304 0
force C  -0.000229651734960   0.001657429635748  -0.000017079113799 0
force C  -0.001354764595294   0.000105091073552   0.000183537895607 0
force C  -0.000228306123188   0.000540186242051  -0.000029572991499 0
force C  -0.001738040181749   0.000967406419757  -0.000013643879517 0
force C  -0.002355895548249   0.000905750412946   0.000389683330485 0
force C  -0.001045076881387   0.000668285755804   0.000040858677961 0
force C   0.000491761735071  -0.000597056796965  -0.000010335154633 0
force C  -0.004493947660461   0.001656893075173  -0.003201392552981 0
force C   0.000191974355307   0.000275311302889  -0.000007251018495 0
force C   0.000075670447082   0.000092831006302  -0.000040932196115 0
force C   0.002464925984743   0.024606590290295  -0.022321830609597 0
force C  -0.000171773787221  -0.000544919394874   0.000102145885973 0
force C   0.000155086711814  -0.000579776329829   0.000103188940366 0
force C  -0.026892045440233  -0.013903935283441  -0.028597825251126 0
force C   0.000750427600172   0.000575511506724   0.000015764807836 0
force C   0.004020145440684  -0.000255754282542   0.000716932752439 0
force C  -0.001304247059827  -0.002691482751281  -0.000173608020700 0
force C  -0.000961938802301   0.000379019998059   0.000005156327812 0
force C  -0.000063177527460  -0.000542180884695  -0.002113704607399 0
force C   0.005807618413057  -0.005902239117880  -0.003758001566746 0
force C   0.000386619153766   0.000356760802540   0.000246785897885 0
force C   0.002038667645543  -0.000433491656618   0.000255125809003 0
force C   0.007391743723143  -0.002909979704255  -0.013148165950250 0
force C   0.000465840576080   0.000164732533072  -0.003684990708141 0
force C   0.001103396854421   0.000176348040491   0.000462209218613 0
force C  -0.000415841609509  -0.000146198569682   0.000013120154036 0
force C  -0.000525040755722  -0.000434545224075  -0.000095269904527 0
force C  -0.005016895068622  -0.000764529981199  -0.005053822099191 0
force C   0.000195229928679   0.001403047008746   0.000044261370784 0
force C   0.000130964823320  -0.000824050599788   0.000021367346670 0
force C   0.000396944309697  -0.000830580759569   0.000251972164980 0
force C  -0.000145558795221  -0.000509393856201  -0.000016487298945 0
force C  -0.000097128531791   0.000343137388225   0.000017766872363 0
force C  -0.003628187315200   0.001576965208347   0.000088795610631 0
force C  -0.000947095899760  -0.000718852051252   0.000034461680340 0
force C   0.001198485870863   0.000038281776482  -0.000013600532689 0
force C   0.001744850564331  -0.000822733541614  -0.000047162787782 0
force C   0.000263834784205  -0.000726561849368   0.000017116978492 0
force C  -0.001545246358969  -0.002096733545295  -0.000053852740127 0
force C  -0.000313838108621  -0.003192136483204   0.000255078346983 0
force C   0.000079553763248  -0.000269180604498   0.000055081663822 0
force C   0.000920786211957   0.000350011375440   0.000151904931574 0
force C  -0.006194390472013  -0.002334002961410  -0.001410162770591 0
force C   0.000834969335431   0.000229353033047   0.000110031360055 0
force C   0.000463691918532   0.000898704453771   0.000012525135516 0
force C  -0.002289994713495   0.007104473302827  -0.022575776211388 0
force C  -0.000441138502901  -0.000222009259555  -0.000024547845077 0
force C  -0.000444425113038   0.000337571572667  -0.000055363431012 0
force C   0.012518010156597   0.004702542551740  -0.024843895508493 0
force C  -0.000391411996921   0.000358184756032  -0.000524792267159 0
force C   0.000810922465141  -0.000688057755009   0.000033569383680 0
force C   0.000071958489066  -0.001198362673733   0.000023031715086 0
force C   0.000191073920929   0.000175408721149  -0.000142234504143 0
force C   0.001081931664026   0.002091809593158   0.000524310977968 0
force C   0.001843871370073   0.002521336075697  -0.000155998034777 0
force C   0.000239573604762  -0.000214880728737  -0.000889740065746 0
force C   0.002646858343706   0.001257647155342  -0.005241370105897 0
force C   0.003324349676927  -0.004155232703409  -0.001849308255062 0
force C  -0.001071898486284   0.000060550560960  -0.001370545948462 0
force C  -0.000687640392126  -0.000145441683980  -0.000003823963138 0
force C  -0.000304623774852   0.000403254177221   0.000037716054315 0
force C  -0.001953950933666   0.000979034922886   0.000961944733252 0
force C   0.000086467679782   0.000412940845759  -0.000059571852541 0
force C   0.000519290209951  -0.000052317858407   0.000010749259328 0
force C   0.004907522875935  -0.000466352061906  -0.001441215696508 0
force C   0.000215638765096  -0.000699448598192   0.000023622814308 0
force C   0.000082694387133   0.000599699559060   0.000025144534822 0
force C   0.000145117562572  -0.001945311798514  -0.005517291448354 0
force C   0.003017546471512  -0.001877464907490  -0.000041801409510 0
force C   0.000599799391115  -0.000111149997124   0.000011313163988 0
force C  -0.000058354968791   0.000516078580025  -0.000139015674288 0
force S  -0.017451711711205  -0.005890045822492   0.001464489000684 1
force S  -0.001243464141764  -0.001397623194980   0.003353475684817 1
force S   0.001126901157620   0.001285573086399   0.004707007348755 1
force S   0.002819265417518  -0.001147461034209  -0.000753681669356 1
force S  -0.001255422921571  -0.004760998448756   0.004245547191885 1
force S   0.002588028551514   0.003041551041931   0.013404114954903 1
force S  -0.026764057428988   0.033305681315064   0.059323080934208 1
force S   0.029957379415106  -0.010991196255129   0.021531522649631 1
force Na   0.019110931260741  -0.008530275334228   0.016608718099086 1
force Na  -0.004262784996482  -0.010580313146785   0.020099451673250 1

# Energy components:
   Eewald =    -1899.3013451491044634
       EH =    -1449.0182652177961700
     Eloc =     2708.8304655130914398
      Enl =      -71.5096134744648282
      Exc =     -178.9431063152259185
 Exc_core =       16.5665130193624144
       KE =      284.6971817611529900
-------------------------------------
     Etot =     -588.6781698629845323
       TS =        0.0760344443837426
-------------------------------------
        F =     -588.7542043073682407

IonicMinimize: Iter:   1  F: -588.754204307368241  |grad|_K:  1.703e-02  alpha:  4.354e+00  linmin: -4.353e-01  t[s]:    425.88

#--- Lowdin population analysis ---
# oxidation-state C +0.042 +0.041 +0.037 +0.042 +0.042 +0.042 +0.041 +0.040 -0.011 +0.043 +0.043 +0.045 +0.044 +0.042 +0.040 +0.043 +0.030 +0.026 +0.044 +0.033 -0.010 +0.044 +0.040 +0.000 +0.047 +0.043 +0.043 +0.040 +0.049 +0.043 +0.042 +0.041 +0.043 +0.042 +0.038 +0.044 +0.042 +0.041 +0.042 +0.040 +0.017 +0.042 +0.039 +0.034 +0.043 +0.040 -0.050 +0.044 +0.043 +0.031 +0.044 +0.041 +0.041 +0.040 +0.029 +0.023 +0.048 +0.051 +0.028 +0.044 +0.043 +0.041 +0.027 +0.041 +0.041 +0.032 +0.043 +0.043 +0.024 +0.041 +0.042 +0.043
# oxidation-state S -0.081 +0.005 -0.057 -0.161 +0.255 -0.362 +0.227 -0.167
# oxidation-state Na +0.731 +0.730


-------- Electronic minimization -----------
Will mix electronic density at each iteration.
	FillingsUpdate:  mu: -0.159132019  nElectrons: 354.000000
	FillingsUpdate:  mu: -0.149196155  nElectrons: 354.000000
SCF: Cycle:  0   F: -588.444198593125520   dF: +2.364e-01   |Residual|: 1.947e-01   |deigs|: 8.471e-04  t[s]:    430.90
	FillingsUpdate:  mu: -0.150396108  nElectrons: 354.000000
SCF: Cycle:  1   F: -588.741439053739668   dF: -2.972e-01   |Residual|: 8.151e-02   |deigs|: 3.061e-03  t[s]:    434.42
	FillingsUpdate:  mu: -0.151109016  nElectrons: 354.000000
SCF: Cycle:  2   F: -588.752256631194314   dF: -1.082e-02   |Residual|: 3.430e-02   |deigs|: 1.020e-03  t[s]:    437.94
	FillingsUpdate:  mu: -0.151927394  nElectrons: 354.000000
SCF: Cycle:  3   F: -588.760643399936612   dF: -8.387e-03   |Residual|: 1.424e-02   |deigs|: 1.062e-03  t[s]:    441.49
	FillingsUpdate:  mu: -0.152546006  nElectrons: 354.000000
SCF: Cycle:  4   F: -588.762488682071307   dF: -1.845e-03   |Residual|: 7.762e-03   |deigs|: 7.237e-04  t[s]:    444.52
	FillingsUpdate:  mu: -0.153219866  nElectrons: 354.000000
SCF: Cycle:  5   F: -588.763957554842477   dF: -1.469e-03   |Residual|: 5.185e-03   |deigs|: 8.146e-04  t[s]:    447.56
	FillingsUpdate:  mu: -0.154019405  nElectrons: 354.000000
SCF: Cycle:  6   F: -588.764788821269235   dF: -8.313e-04   |Residual|: 3.678e-03   |deigs|: 9.551e-04  t[s]:    450.58
	FillingsUpdate:  mu: -0.154788367  nElectrons: 354.000000
SCF: Cycle:  7   F: -588.765331365156271   dF: -5.425e-04   |Residual|: 2.953e-03   |deigs|: 8.995e-04  t[s]:    453.70
	FillingsUpdate:  mu: -0.155573626  nElectrons: 354.000000
SCF: Cycle:  8   F: -588.765631423504374   dF: -3.001e-04   |Residual|: 2.228e-03   |deigs|: 9.532e-04  t[s]:    460.56
	FillingsUpdate:  mu: -0.156080813  nElectrons: 354.000000
SCF: Cycle:  9   F: -588.765733985882321   dF: -1.026e-04   |Residual|: 1.807e-03   |deigs|: 5.804e-04  t[s]:    472.81
	FillingsUpdate:  mu: -0.156802119  nElectrons: 354.000000
SCF: Cycle: 10   F: -588.765843460448878   dF: -1.095e-04   |Residual|: 1.539e-03   |deigs|: 7.544e-04  t[s]:    475.82
	FillingsUpdate:  mu: -0.157182886  nElectrons: 354.000000
SCF: Cycle: 11   F: -588.765877413118915   dF: -3.395e-05   |Residual|: 1.245e-03   |deigs|: 3.427e-04  t[s]:    478.84
	FillingsUpdate:  mu: -0.157573422  nElectrons: 354.000000
SCF: Cycle: 12   F: -588.765896113652275   dF: -1.870e-05   |Residual|: 8.520e-04   |deigs|: 4.421e-04  t[s]:    481.93
	FillingsUpdate:  mu: -0.157863670  nElectrons: 354.000000
SCF: Cycle: 13   F: -588.765900886230952   dF: -4.773e-06   |Residual|: 5.663e-04   |deigs|: 6.448e-04  t[s]:    484.92
	FillingsUpdate:  mu: -0.158068997  nElectrons: 354.000000
SCF: Cycle: 14   F: -588.765901934031149   dF: -1.048e-06   |Residual|: 3.737e-04   |deigs|: 8.445e-04  t[s]:    487.95
	FillingsUpdate:  mu: -0.158198128  nElectrons: 354.000000
SCF: Cycle: 15   F: -588.765902805644942   dF: -8.716e-07   |Residual|: 2.662e-04   |deigs|: 3.206e-04  t[s]:    491.05
	FillingsUpdate:  mu: -0.158313769  nElectrons: 354.000000
SCF: Cycle: 16   F: -588.765903432660593   dF: -6.270e-07   |Residual|: 2.115e-04   |deigs|: 2.782e-04  t[s]:    494.07
	FillingsUpdate:  mu: -0.158442167  nElectrons: 354.000000
SCF: Cycle: 17   F: -588.765903704921243   dF: -2.723e-07   |Residual|: 1.859e-04   |deigs|: 1.711e-04  t[s]:    497.11
	FillingsUpdate:  mu: -0.158574845  nElectrons: 354.000000
SCF: Cycle: 18   F: -588.765903858523643   dF: -1.536e-07   |Residual|: 1.623e-04   |deigs|: 3.692e-04  t[s]:    500.21
	FillingsUpdate:  mu: -0.158720257  nElectrons: 354.000000
SCF: Cycle: 19   F: -588.765903912926888   dF: -5.440e-08   |Residual|: 1.449e-04   |deigs|: 3.772e-04  t[s]:    503.27
	FillingsUpdate:  mu: -0.158890805  nElectrons: 354.000000
SCF: Cycle: 20   F: -588.765904006017308   dF: -9.309e-08   |Residual|: 1.165e-04   |deigs|: 2.935e-04  t[s]:    506.32
	FillingsUpdate:  mu: -0.158996108  nElectrons: 354.000000
SCF: Cycle: 21   F: -588.765904078761878   dF: -7.274e-08   |Residual|: 7.843e-05   |deigs|: 1.854e-04  t[s]:    509.37
	FillingsUpdate:  mu: -0.159046941  nElectrons: 354.000000
SCF: Cycle: 22   F: -588.765904101240949   dF: -2.248e-08   |Residual|: 6.689e-05   |deigs|: 8.842e-05  t[s]:    512.41
	FillingsUpdate:  mu: -0.159092458  nElectrons: 354.000000
SCF: Cycle: 23   F: -588.765904124891108   dF: -2.365e-08   |Residual|: 5.125e-05   |deigs|: 9.579e-05  t[s]:    515.48
	FillingsUpdate:  mu: -0.159144709  nElectrons: 354.000000
SCF: Cycle: 24   F: -588.765904163847154   dF: -3.896e-08   |Residual|: 3.886e-05   |deigs|: 1.104e-04  t[s]:    518.51
	FillingsUpdate:  mu: -0.159176334  nElectrons: 354.000000
SCF: Cycle: 25   F: -588.765904188669197   dF: -2.482e-08   |Residual|: 2.790e-05   |deigs|: 6.641e-05  t[s]:    521.52
	FillingsUpdate:  mu: -0.159200995  nElectrons: 354.000000
SCF: Cycle: 26   F: -588.765904201367562   dF: -1.270e-08   |Residual|: 2.018e-05   |deigs|: 6.989e-05  t[s]:    524.66
	FillingsUpdate:  mu: -0.159210714  nElectrons: 354.000000
SCF: Cycle: 27   F: -588.765904207299968   dF: -5.932e-09   |Residual|: 1.277e-05   |deigs|: 5.217e-05  t[s]:    527.76
	FillingsUpdate:  mu: -0.159213691  nElectrons: 354.000000
SCF: Cycle: 28   F: -588.765904210737745   dF: -3.438e-09   |Residual|: 8.845e-06   |deigs|: 3.766e-05  t[s]:    530.79
SCF: Converged (|Delta E|<1.000000e-08 for 2 iters).

Setting wave functions to eigenvectors of Hamiltonian
IonicMinimize: 	Predicted alpha/alphaT>3.000000, increasing alphaT to 3.558122e+00.

-------- Electronic minimization -----------
Will mix electronic density at each iteration.
	FillingsUpdate:  mu: -0.159213691  nElectrons: 354.000000
	FillingsUpdate:  mu: -0.141259157  nElectrons: 354.000000
SCF: Cycle:  0   F: -587.325258256267603   dF: +1.114e+00   |Residual|: 3.999e-01   |deigs|: 3.763e-03  t[s]:    536.00
	FillingsUpdate:  mu: -0.141547979  nElectrons: 354.000000
SCF: Cycle:  1   F: -588.693592077584867   dF: -1.368e+00   |Residual|: 1.741e-01   |deigs|: 5.695e-03  t[s]:    539.54
	FillingsUpdate:  mu: -0.143169368  nElectrons: 354.000000
SCF: Cycle:  2   F: -588.727899837865607   dF: -3.431e-02   |Residual|: 7.219e-02   |deigs|: 1.936e-03  t[s]:    543.04
	FillingsUpdate:  mu: -0.144701429  nElectrons: 354.000000
SCF: Cycle:  3   F: -588.759891104975736   dF: -3.199e-02   |Residual|: 2.932e-02   |deigs|: 2.079e-03  t[s]:    546.60
	FillingsUpdate:  mu: -0.145890795  nElectrons: 354.000000
SCF: Cycle:  4   F: -588.768155943139277   dF: -8.265e-03   |Residual|: 1.644e-02   |deigs|: 1.292e-03  t[s]:    550.10
	FillingsUpdate:  mu: -0.147200705  nElectrons: 354.000000
SCF: Cycle:  5   F: -588.774144491073230   dF: -5.989e-03   |Residual|: 1.051e-02   |deigs|: 1.440e-03  t[s]:    553.38
	FillingsUpdate:  mu: -0.148673146  nElectrons: 354.000000
SCF: Cycle:  6   F: -588.777000077719890   dF: -2.856e-03   |Residual|: 8.061e-03   |deigs|: 1.470e-03  t[s]:    556.56
	FillingsUpdate:  mu: -0.150323798  nElectrons: 354.000000
SCF: Cycle:  7   F: -588.779572677800957   dF: -2.573e-03   |Residual|: 5.949e-03   |deigs|: 1.636e-03  t[s]:    559.71
	FillingsUpdate:  mu: -0.151828887  nElectrons: 354.000000
SCF: Cycle:  8   F: -588.780983569285013   dF: -1.411e-03   |Residual|: 4.813e-03   |deigs|: 1.503e-03  t[s]:    562.75
	FillingsUpdate:  mu: -0.152883015  nElectrons: 354.000000
SCF: Cycle:  9   F: -588.781465316208823   dF: -4.817e-04   |Residual|: 3.760e-03   |deigs|: 1.045e-03  t[s]:    565.77
	FillingsUpdate:  mu: -0.154389628  nElectrons: 354.000000
SCF: Cycle: 10   F: -588.781942056071784   dF: -4.767e-04   |Residual|: 3.175e-03   |deigs|: 1.400e-03  t[s]:    568.86
	FillingsUpdate:  mu: -0.155328875  nElectrons: 354.000000
SCF: Cycle: 11   F: -588.782115281216647   dF: -1.732e-04   |Residual|: 2.567e-03   |deigs|: 7.966e-04  t[s]:    571.88
	FillingsUpdate:  mu: -0.155997562  nElectrons: 354.000000
SCF: Cycle: 12   F: -588.782177296752252   dF: -6.202e-05   |Residual|: 1.761e-03   |deigs|: 6.979e-04  t[s]:    574.90
	FillingsUpdate:  mu: -0.156571571  nElectrons: 354.000000
SCF: Cycle: 13   F: -588.782197712462789   dF: -2.042e-05   |Residual|: 1.261e-03   |deigs|: 8.190e-04  t[s]:    578.04
	FillingsUpdate:  mu: -0.157090609  nElectrons: 354.000000
SCF: Cycle: 14   F: -588.782205206072376   dF: -7.494e-06   |Residual|: 7.660e-04   |deigs|: 1.230e-03  t[s]:    581.09
	FillingsUpdate:  mu: -0.157318695  nElectrons: 354.000000
SCF: Cycle: 15   F: -588.782207884214472   dF: -2.678e-06   |Residual|: 5.827e-04   |deigs|: 4.031e-04  t[s]:    584.09
	FillingsUpdate:  mu: -0.157607913  nElectrons: 354.000000
SCF: Cycle: 16   F: -588.782210155746043   dF: -2.272e-06   |Residual|: 4.473e-04   |deigs|: 3.940e-04  t[s]:    587.14
	FillingsUpdate:  mu: -0.157812524  nElectrons: 354.000000
SCF: Cycle: 17   F: -588.782211128765880   dF: -9.730e-07   |Residual|: 3.765e-04   |deigs|: 2.668e-04  t[s]:    590.20
	FillingsUpdate:  mu: -0.158122206  nElectrons: 354.000000
SCF: Cycle: 18   F: -588.782211806881605   dF: -6.781e-07   |Residual|: 3.386e-04   |deigs|: 6.284e-04  t[s]:    593.27
	FillingsUpdate:  mu: -0.158422402  nElectrons: 354.000000
SCF: Cycle: 19   F: -588.782212417172786   dF: -6.103e-07   |Residual|: 2.991e-04   |deigs|: 5.075e-04  t[s]:    596.38
	FillingsUpdate:  mu: -0.158724714  nElectrons: 354.000000
SCF: Cycle: 20   F: -588.782212661743870   dF: -2.446e-07   |Residual|: 2.365e-04   |deigs|: 4.403e-04  t[s]:    599.47
	FillingsUpdate:  mu: -0.158900399  nElectrons: 354.000000
SCF: Cycle: 21   F: -588.782212499448406   dF: +1.623e-07   |Residual|: 1.806e-04   |deigs|: 2.486e-04  t[s]:    602.55
	FillingsUpdate:  mu: -0.159063345  nElectrons: 354.000000
SCF: Cycle: 22   F: -588.782212727875503   dF: -2.284e-07   |Residual|: 1.412e-04   |deigs|: 1.999e-04  t[s]:    605.59
	FillingsUpdate:  mu: -0.159251378  nElectrons: 354.000000
SCF: Cycle: 23   F: -588.782213133220807   dF: -4.053e-07   |Residual|: 1.020e-04   |deigs|: 2.923e-04  t[s]:    608.67
	FillingsUpdate:  mu: -0.159359318  nElectrons: 354.000000
SCF: Cycle: 24   F: -588.782213249428878   dF: -1.162e-07   |Residual|: 7.944e-05   |deigs|: 1.689e-04  t[s]:    611.72
	FillingsUpdate:  mu: -0.159419325  nElectrons: 354.000000
SCF: Cycle: 25   F: -588.782213251409075   dF: -1.980e-09   |Residual|: 5.199e-05   |deigs|: 1.067e-04  t[s]:    614.75
	FillingsUpdate:  mu: -0.159447158  nElectrons: 354.000000
SCF: Cycle: 26   F: -588.782213275896652   dF: -2.449e-08   |Residual|: 3.704e-05   |deigs|: 1.009e-04  t[s]:    618.26
	FillingsUpdate:  mu: -0.159453194  nElectrons: 354.000000
SCF: Cycle: 27   F: -588.782213301853290   dF: -2.596e-08   |Residual|: 2.988e-05   |deigs|: 1.437e-04  t[s]:    621.30
	FillingsUpdate:  mu: -0.159456477  nElectrons: 354.000000
SCF: Cycle: 28   F: -588.782213324308373   dF: -2.246e-08   |Residual|: 1.920e-05   |deigs|: 1.114e-04  t[s]:    624.32
	FillingsUpdate:  mu: -0.159455950  nElectrons: 354.000000
SCF: Cycle: 29   F: -588.782213329484193   dF: -5.176e-09   |Residual|: 1.315e-05   |deigs|: 6.216e-05  t[s]:    627.35
	FillingsUpdate:  mu: -0.159453312  nElectrons: 354.000000
SCF: Cycle: 30   F: -588.782213330812738   dF: -1.329e-09   |Residual|: 8.671e-06   |deigs|: 5.675e-05  t[s]:    636.33
SCF: Converged (|Delta E|<1.000000e-08 for 2 iters).

Setting wave functions to eigenvectors of Hamiltonian

-------- Electronic minimization -----------
Will mix electronic density at each iteration.
	FillingsUpdate:  mu: -0.159453312  nElectrons: 354.000000
	FillingsUpdate:  mu: -0.138474998  nElectrons: 354.000000
SCF: Cycle:  0   F: -586.786712037104849   dF: +1.535e+00   |Residual|: 4.691e-01   |deigs|: 5.087e-03  t[s]:    644.09
	FillingsUpdate:  mu: -0.138628946  nElectrons: 354.000000
SCF: Cycle:  1   F: -588.661075184564083   dF: -1.874e+00   |Residual|: 2.106e-01   |deigs|: 6.544e-03  t[s]:    648.42
	FillingsUpdate:  mu: -0.140532718  nElectrons: 354.000000
SCF: Cycle:  2   F: -588.715184073971045   dF: -5.411e-02   |Residual|: 8.666e-02   |deigs|: 2.412e-03  t[s]:    651.98
	FillingsUpdate:  mu: -0.142252218  nElectrons: 354.000000
SCF: Cycle:  3   F: -588.759574096996062   dF: -4.439e-02   |Residual|: 3.571e-02   |deigs|: 2.579e-03  t[s]:    655.53
	FillingsUpdate:  mu: -0.143674321  nElectrons: 354.000000
SCF: Cycle:  4   F: -588.771590623058273   dF: -1.202e-02   |Residual|: 1.974e-02   |deigs|: 1.500e-03  t[s]:    659.09
	FillingsUpdate:  mu: -0.145102050  nElectrons: 354.000000
SCF: Cycle:  5   F: -588.779544806940976   dF: -7.954e-03   |Residual|: 1.261e-02   |deigs|: 1.551e-03  t[s]:    662.48
	FillingsUpdate:  mu: -0.146791415  nElectrons: 354.000000
SCF: Cycle:  6   F: -588.783483367440226   dF: -3.939e-03   |Residual|: 1.017e-02   |deigs|: 1.689e-03  t[s]:    665.73
[...]
force C  -0.000019845464064   0.000135049436006   0.000031753960646 0
force C   0.000007250904059   0.000094727284554   0.000051922639031 0
force C  -0.001612608332456   0.000219126448889   0.000228496265441 0
force C  -0.000182410292986  -0.000072177673201   0.000038574691366 0
force C  -0.000156088000249   0.000035528253925   0.000003112231638 0
force C   0.000120395205696   0.001223094176977  -0.000125884777193 0
force C  -0.000022722384294   0.000212657014627   0.000028241656653 0
force C   0.000039628377615  -0.000127812944895   0.000044076124145 0
force C   0.000088575361868  -0.000078452037860   0.000031365382034 0
force C  -0.000000754904794   0.000062369261688   0.000024943314956 0
force C   0.000890365519569   0.000528007243055   0.000134708964044 0
force C   0.000201532043567  -0.002369347768604   0.000051936633741 0
force C  -0.000083986721124   0.000131031138396   0.000048600150939 0
force C   0.000101747971683   0.000109539087532  -0.000055211358686 0
force C   0.001837420112294   0.000301965847299   0.000257160927122 0
force C   0.000022668234158  -0.000162830150559  -0.000141131652183 0
force C  -0.000132528360334  -0.000101426353976   0.000035516499584 0
force C   0.000046855774748  -0.000029741339652   0.000033101824961 0
force C  -0.000215977447575   0.000190850536300  -0.000016826660720 0
force C  -0.000051384270732   0.000211995003095   0.000032928051068 0
force C  -0.000032583640432  -0.000020709022552   0.000033229287927 0
force C   0.000150462037374  -0.000103175498062  -0.000007562194160 0
force C  -0.000094301348687  -0.000032609009633   0.000035224887399 0
force C  -0.000035357403389   0.000075586506176   0.000031705163317 0
force C  -0.001058601138104   0.000614746857343   0.000091645581429 0
force C  -0.000108745390081  -0.000141185916190   0.000031471587461 0
force C  -0.000073219690340  -0.000019978388174   0.000033056790406 0
force C   0.000014330429212   0.000087716059755   0.000041444240002 0
force S   0.000014239970702   0.000113655541557   0.000097680669480 1
force S   0.000046086124181  -0.000100773075948  -0.000186085856007 1
force S  -0.000140456924223   0.000015155482573   0.000342818937319 1
force S   0.000276526189769   0.000065562505675   0.000072901058802 1
force S  -0.000162118113552  -0.000223929247827  -0.000379535790008 1
force S   0.000099325157457   0.000150594266766   0.000202490984154 1
force S  -0.000000286339930   0.000187974588674  -0.000235999180041 1
force S  -0.000050927194784   0.000115648441458  -0.000035293232444 1
force Na   0.000013182452593  -0.000130164381876   0.000040718138148 1
force Na  -0.000054621060612  -0.000065215670138  -0.000066099628741 1

# Energy components:
   Eewald =    -2359.4501587659569850
       EH =    -1909.9018410518476685
     Eloc =     3630.2827449982955841
      Enl =      -71.5384886272725424
      Exc =     -178.5968737455165467
 Exc_core =       16.5665104194848034
       KE =      283.8455401744585629
-------------------------------------
     Etot =     -588.7925665983545969
       TS =        0.0918263693602270
-------------------------------------
        F =     -588.8843929677148026

IonicMinimize: Iter: 116  F: -588.884392967714803  |grad|_K:  1.555e-04  alpha:  1.963e+00  linmin:  1.149e-02  t[s]:  14514.85

#--- Lowdin population analysis ---
# oxidation-state C +0.045 +0.045 +0.043 +0.045 +0.045 +0.046 +0.045 +0.046 +0.035 +0.045 +0.046 +0.046 +0.045 +0.046 +0.022 +0.046 +0.046 +0.041 +0.045 +0.045 +0.002 +0.045 +0.046 +0.026 +0.046 +0.046 +0.045 +0.044 +0.039 +0.046 +0.045 +0.044 +0.046 +0.045 +0.045 +0.046 +0.046 +0.045 +0.045 +0.046 +0.040 +0.045 +0.045 +0.047 +0.045 +0.045 +0.006 +0.046 +0.047 +0.030 +0.046 +0.046 +0.045 +0.044 +0.043 +0.037 +0.046 +0.044 +0.014 +0.044 +0.046 +0.045 +0.042 +0.045 +0.045 +0.046 +0.045 +0.045 +0.042 +0.046 +0.045 +0.045
# oxidation-state S -0.064 +0.109 -0.230 -0.389 +0.321 -0.277 +0.216 -0.435
# oxidation-state Na +0.698 +0.722


-------- Electronic minimization -----------
Will mix electronic density at each iteration.
	FillingsUpdate:  mu: -0.167830970  nElectrons: 354.000000
	FillingsUpdate:  mu: -0.167866422  nElectrons: 354.000000
SCF: Cycle:  0   F: -588.884390466304808   dF: +2.047e-07   |Residual|: 6.788e-04   |deigs|: 8.821e-08  t[s]:  14518.64
	FillingsUpdate:  mu: -0.167875599  nElectrons: 354.000000
SCF: Cycle:  1   F: -588.884393419107141   dF: -2.953e-06   |Residual|: 3.287e-04   |deigs|: 1.582e-05  t[s]:  14520.97
	FillingsUpdate:  mu: -0.167871422  nElectrons: 354.000000
SCF: Cycle:  2   F: -588.884393442142596   dF: -2.304e-08   |Residual|: 1.368e-04   |deigs|: 4.637e-06  t[s]:  14523.29
	FillingsUpdate:  mu: -0.167871748  nElectrons: 354.000000
SCF: Cycle:  3   F: -588.884393584167128   dF: -1.420e-07   |Residual|: 5.378e-05   |deigs|: 7.692e-06  t[s]:  14525.61
	FillingsUpdate:  mu: -0.167871126  nElectrons: 354.000000
SCF: Cycle:  4   F: -588.884393593144068   dF: -8.977e-09   |Residual|: 2.950e-05   |deigs|: 7.402e-06  t[s]:  14527.94
	FillingsUpdate:  mu: -0.167870544  nElectrons: 354.000000
SCF: Cycle:  5   F: -588.884393607299558   dF: -1.416e-08   |Residual|: 1.382e-05   |deigs|: 9.312e-06  t[s]:  14530.27
	FillingsUpdate:  mu: -0.167869975  nElectrons: 354.000000
SCF: Cycle:  6   F: -588.884393613621114   dF: -6.322e-09   |Residual|: 1.022e-05   |deigs|: 9.549e-06  t[s]:  14532.60
	FillingsUpdate:  mu: -0.167868738  nElectrons: 354.000000
SCF: Cycle:  7   F: -588.884393619749403   dF: -6.128e-09   |Residual|: 6.799e-06   |deigs|: 1.782e-05  t[s]:  14535.57
SCF: Converged (|Delta E|<1.000000e-08 for 2 iters).

Setting wave functions to eigenvectors of Hamiltonian

-------- Electronic minimization -----------
Will mix electronic density at each iteration.
	FillingsUpdate:  mu: -0.167868738  nElectrons: 354.000000
	FillingsUpdate:  mu: -0.167866936  nElectrons: 354.000000
SCF: Cycle:  0   F: -588.884392977310881   dF: +2.243e-07   |Residual|: 2.451e-04   |deigs|: 2.695e-07  t[s]:  14539.61
	FillingsUpdate:  mu: -0.167863835  nElectrons: 354.000000
SCF: Cycle:  1   F: -588.884393484874408   dF: -5.076e-07   |Residual|: 9.337e-05   |deigs|: 6.605e-06  t[s]:  14541.93
	FillingsUpdate:  mu: -0.167865371  nElectrons: 354.000000
SCF: Cycle:  2   F: -588.884393476351647   dF: +8.523e-09   |Residual|: 4.594e-05   |deigs|: 2.593e-06  t[s]:  14544.25
	FillingsUpdate:  mu: -0.167865495  nElectrons: 354.000000
SCF: Cycle:  3   F: -588.884393503750516   dF: -2.740e-08   |Residual|: 2.064e-05   |deigs|: 3.265e-06  t[s]:  14546.58
	FillingsUpdate:  mu: -0.167865869  nElectrons: 354.000000
SCF: Cycle:  4   F: -588.884393507086997   dF: -3.336e-09   |Residual|: 1.253e-05   |deigs|: 3.073e-06  t[s]:  14548.86
	FillingsUpdate:  mu: -0.167866356  nElectrons: 354.000000
SCF: Cycle:  5   F: -588.884393511519079   dF: -4.432e-09   |Residual|: 6.240e-06   |deigs|: 5.113e-06  t[s]:  14551.16
SCF: Converged (|Delta E|<1.000000e-08 for 2 iters).

Setting wave functions to eigenvectors of Hamiltonian

# Ionic positions in cartesian coordinates:
ion C  28.005798599999999   0.000000000000000   0.897300000000001 0
ion C  16.336715849999997  20.211437139299999   0.897300000000001 0
ion C   2.333816549999999   4.042283648400000   0.897300000000001 0
ion C  23.338165499999999   0.000000000000000   0.897300000000001 0
ion C   4.667633100000000   0.000000000000000   0.897300000000001 0
ion C  11.669082749999999  20.211437139299999   0.897300000000001 0
ion C  25.671982050000000   4.042283648400000   0.897300000000001 0
ion C  18.670532399999999  16.169153490900001   0.897300000000001 0
ion C   4.667633099999997   8.084586194100000   0.897300000000001 0
ion C  18.670532399999999   0.000000000000000   0.897300000000001 0
ion C   9.335266200000000   0.000000000000000   0.897300000000001 0
ion C   9.335266200000001  16.169153490900001   0.897300000000001 0
ion C  23.338165500000002   8.084586194100000   0.897300000000001 0
ion C  21.004348950000001  12.126869842500000   0.897300000000001 0
ion C   7.001449649999998  12.126869842500000   0.897300000000001 0
ion C  14.002899299999999   0.000000000000000   0.897300000000001 0
ion C  14.002899299999997  16.169153490900001   0.897300000000001 0
ion C   7.001449650000000   4.042283648400000   0.897300000000001 0
ion C  21.004348950000001   4.042283648400000   0.897300000000001 0
ion C  16.336715849999997  12.126869842500000   0.897300000000001 0
ion C   9.335266200000000   8.084586194100000   0.897300000000001 0
ion C  16.336715849999994   4.042283648400000   0.897300000000001 0
ion C  11.669082749999999   4.042283648400000   0.897300000000001 0
ion C  11.669082749999999  12.126869842500000   0.897300000000001 0
ion C  18.670532399999992   8.084586194100000   0.897300000000001 0
ion C   7.001449650000000  20.211437139299999   0.897300000000001 0
ion C  -7.001449650000000  20.211437139299999   0.897300000000001 0
ion C   0.000000000000000   8.084586194100000   0.897300000000001 0
ion C  14.002899299999999   8.084586194100000   0.897300000000001 0
ion C   2.333816550000000  20.211437139299999   0.897300000000001 0
ion C  -4.667633100000000  16.169153490900001   0.897300000000001 0
ion C   2.333816550000000  12.126869842500000   0.897300000000001 0
ion C  -2.333816549999999  12.126869842500000   0.897300000000001 0
ion C  -2.333816549999998  20.211437139299999   0.897300000000001 0
ion C   4.667633099999998  16.169153490900001   0.897300000000001 0
ion C   0.000000000000000  16.169153490900001   0.897300000000001 0
ion C  14.002880402700006  21.558890218500000   0.897300000000001 0
ion C   2.333816549999999   1.347415284600000   0.897300000000001 0
ion C  25.672000947299999   1.347434181900000   0.897300000000001 0
ion C  16.336696952700002  17.516587672800000   0.897300000000001 0
ion C   4.667633100000000   5.389698933000000   0.897300000000001 0
ion C  21.004367847299999   1.347434181900000   0.897300000000001 0
ion C   7.001430752700000   1.347434181900000   0.897300000000001 0
ion C  11.669101647299998  17.516587672800000   0.897300000000001 0
ion C  23.338165499999999   5.389698933000000   0.897300000000001 0
ion C  18.670513502700000  13.474304024400000   0.897300000000001 0
ion C   7.001449649999999   9.432001478699998   0.897300000000001 0
ion C  16.336734747299996   1.347434181900000   0.897300000000001 0
ion C  11.669063852700001   1.347434181900000   0.897300000000001 0
ion C   9.335285097299998  13.474304024400000   0.897300000000001 0
ion C  21.004348950000001   9.432001478699998   0.897300000000001 0
ion C   9.335247302699999  21.558890218500000   0.897300000000001 0
ion C  -9.335266200000000  21.558871321199998   0.897300000000001 0
ion C   0.000018897300000   5.389717830300000   0.897300000000001 0
ion C  14.002880402699994  13.474304024400000   0.897300000000001 0
ion C   9.335266200000000   5.389698933000000   0.897300000000001 0
ion C  18.670551297300001   5.389717830300000   0.897300000000001 0
ion C  16.336696952699999   9.432020376000001   0.897300000000001 0
ion C  11.669082750000001   9.432001478699998   0.897300000000001 0
ion C  14.002918197299994   5.389717830300000   0.897300000000001 0
ion C   4.667614202699999  21.558890218500000   0.897300000000001 0
ion C  -7.001449650000000  17.516568775499998   0.897300000000001 0
ion C   2.333835447300000   9.432020376000001   0.897300000000001 0
ion C  -2.333835447300000   9.432020376000001   0.897300000000001 0
ion C  -4.667614202700001  21.558890218500000   0.897300000000001 0
ion C   7.001449650000000  17.516568775499998   0.897300000000001 0
ion C  -0.000018897300000  21.558890218500000   0.897300000000001 0
ion C  -4.667633100000000  13.474285127100000   0.897300000000001 0
ion C   4.667651997299996  13.474304024400000   0.897300000000001 0
ion C   2.333797652700000  17.516587672800000   0.897300000000001 0
ion C  -2.333816549999999  17.516568775499998   0.897300000000001 0
ion C   0.000018897299999  13.474304024400000   0.897300000000001 0
ion S   4.449104293970800  11.462992905480981   8.674214740549475 1
ion S   4.967234593340783   8.145870437991139  11.463835063486414 1
ion S   6.223121967217237   9.607348830851933  14.625366516119843 1
ion S  11.321734681986749   5.890406970961506   8.996354369662413 1
ion S  14.996500152864943   6.831207125344372   8.551942688508746 1
ion S  16.311055088028333   9.045156214394455  11.280577488389619 1
ion S   6.583687050503215  14.239634229436117  10.182798887371305 1
ion S  10.319470191335972  13.795756203366127   9.279273454853577 1
ion Na  11.214039145585122   9.817404191830846  12.753743155532616 1
ion Na   9.080575753304295   9.786984084390392   6.207309018664454 1

# Forces in Cartesian coordinates:
force C  -0.000099622431151   0.000049279053385   0.000031010479636 0
force C  -0.000201742251185   0.000111484164504   0.000038830517582 0
force C  -0.000237566777918  -0.000004546290212   0.000063262683339 0
force C  -0.000023086078061   0.000037114749214   0.000032764281925 0
force C  -0.000109078426675   0.000077024813814   0.000017252642554 0
force C  -0.000160053512588  -0.000042596699019   0.000030436520887 0
force C  -0.000043246322917  -0.000076400015179   0.000036178443053 0
force C  -0.000094185912474  -0.000030444709532   0.000037621304325 0
force C  -0.001728526105441  -0.000896707653654   0.000194258169919 0
force C   0.000046188425336   0.000063891154948   0.000034202694474 0
force C   0.000090429966554   0.000151277232446   0.000048642964636 0
force C   0.000009086387324   0.000869332306587   0.000103562394380 0
force C  -0.000031516267388  -0.000133871529457   0.000031463061703 0
force C  -0.000000015071764  -0.000185142694477   0.000035279304244 0
force C  -0.000587385590398   0.001630774403768   0.000030355784332 0
force C   0.000099328277962   0.000140860576205   0.000037064068286 0
force C  -0.000175711704594   0.000017058447139   0.000014707591072 0
force C   0.000118777027038  -0.000262447645959  -0.000098286237066 0
force C  -0.000009544893926  -0.000057334666246   0.000034030469702 0
force C  -0.000025232157447   0.000029993362552  -0.000056904143250 0
force C   0.000336324075593  -0.001547828156408   0.000185981428721 0
force C   0.000059431937312   0.000075327551449   0.000063174922364 0
force C   0.000158500262599  -0.000223199329906  -0.000130644919764 0
force C   0.000667801726032   0.001197958386663   0.000019025417299 0
force C  -0.000027145617429  -0.000230102426908   0.000032905150629 0
force C   0.000115588997008  -0.000008921259841   0.000045801048198 0
force C  -0.000024709337961   0.000042367784900   0.000036163998249 0
force C  -0.000014831309710  -0.000190879307532   0.000017102834082 0
force C   0.001399437577506  -0.000895243063309   0.000138239205712 0
force C   0.000140040481042   0.000112165654521   0.000037730371055 0
force C   0.000012020529033  -0.000019240934272   0.000037077910620 0
force C   0.000011452659652   0.000173106948662  -0.000061159566338 0
force C   0.000001188342857  -0.000141659581747   0.000033827145092 0
force C   0.000102770922613   0.000066678869954   0.000037842928449 0
force C   0.000102448842003  -0.000005245707011  -0.000020925796718 0
force C   0.000123907600512   0.000003913413930   0.000043577710675 0
force C   0.000164385875011  -0.000133751490532   0.000036712249001 0
force C   0.000107409938421  -0.000130829929364   0.000025273309870 0
force C   0.000020631957257  -0.000036615654173   0.000034526609844 0
force C   0.000081369963798  -0.000153484853584   0.000025350006836 0
force C  -0.000197408868414  -0.000179972734825  -0.000075663137470 0
force C  -0.000021017672930  -0.000009184760164   0.000039812258057 0
force C   0.000224528758902  -0.000213252932767   0.000072932968984 0
force C  -0.000080952141925  -0.000142008609205   0.000002730139602 0
force C  -0.000020252891250   0.000135981118433   0.000034142126528 0
force C   0.000003897079931   0.000091766220323   0.000055076150341 0
force C  -0.001610437749632   0.000215003974534   0.000233370000926 0
force C  -0.000185762696703  -0.000067600951572   0.000040482090156 0
force C  -0.000159613317731   0.000041765121961   0.000007993084824 0
force C   0.000121652875159   0.001216257803462  -0.000122085038187 0
force C  -0.000026085196966   0.000211552683869   0.000031557373394 0
force C   0.000041081807696  -0.000127694494209   0.000045384295141 0
force C   0.000089326535686  -0.000075084505293   0.000034299395633 0
force C   0.000003445287466   0.000062626686914   0.000028410455398 0
force C   0.000888602987827   0.000522669459619   0.000138859524562 0
force C   0.000200577846834  -0.002367945640860   0.000061141109856 0
force C  -0.000087631961858   0.000133591430457   0.000052054205940 0
force C   0.000097175694285   0.000108169775587  -0.000049996264790 0
force C   0.001836354673656   0.000299293051198   0.000262903414838 0
force C   0.000018084548875  -0.000159386068784  -0.000135843207653 0
force C  -0.000132669236125  -0.000099455535433   0.000035545027043 0
force C   0.000044891890129  -0.000029062184790   0.000034598578780 0
force C  -0.000210275895770   0.000186762291140  -0.000013169760069 0
force C  -0.000050571106176   0.000209655727509   0.000034624635301 0
force C  -0.000034172542831  -0.000015365543690   0.000035663754032 0
force C   0.000153252064273  -0.000106676963852  -0.000006855612346 0
force C  -0.000096570428661  -0.000028163961216   0.000035776595771 0
force C  -0.000037693670259   0.000073580403068   0.000032599535258 0
force C  -0.001054146867465   0.000608429531036   0.000093301783560 0
force C  -0.000107728216380  -0.000142015026244   0.000029969691865 0
force C  -0.000074986082281  -0.000018817921068   0.000032627813642 0
force C   0.000015843454338   0.000084186960525   0.000040800876377 0
force S  -0.000028724317090   0.000102763780521   0.000046646270381 1
force S   0.000216381774499   0.000066457346382   0.000208751082484 1
force S  -0.000275582087073  -0.000191414594877  -0.000019700785518 1
force S   0.000340952041066   0.000043987824604  -0.000019539499468 1
force S  -0.000167245589494   0.000022801502030  -0.000033538790444 1
force S  -0.000015937672624  -0.000063344176108  -0.000112117953940 1
force S  -0.000074856278831   0.000219600490730  -0.000248691272129 1
force S   0.000080039687761   0.000145959352564  -0.000028728531704 1
force Na   0.000037876424427  -0.000114706401853   0.000035813572184 1
force Na  -0.000055576371257  -0.000101015298195  -0.000075353686909 1

# Energy components:
   Eewald =    -2359.2335200528641508
       EH =    -1909.6913872280142641
     Eloc =     3629.8568823739437903
      Enl =      -71.5388532328329774
      Exc =     -178.5964174831075297
 Exc_core =       16.5665103591864948
       KE =      283.8442319900978532
-------------------------------------
     Etot =     -588.7925532735903289
       TS =        0.0918402379287771
-------------------------------------
        F =     -588.8843935115190789

IonicMinimize: Iter: 117  F: -588.884393511519079  |grad|_K:  1.373e-04  alpha:  2.596e+00  linmin:  2.226e-02  t[s]:  14552.31
IonicMinimize: Converged (|Delta F|<1.000000e-06 for 2 iters).

#--- Lowdin population analysis ---
# oxidation-state C +0.045 +0.045 +0.043 +0.045 +0.045 +0.046 +0.045 +0.046 +0.035 +0.045 +0.046 +0.046 +0.045 +0.046 +0.022 +0.046 +0.047 +0.041 +0.045 +0.045 +0.002 +0.045 +0.046 +0.026 +0.046 +0.046 +0.045 +0.044 +0.039 +0.046 +0.045 +0.044 +0.046 +0.045 +0.045 +0.046 +0.046 +0.045 +0.045 +0.046 +0.040 +0.045 +0.045 +0.047 +0.045 +0.045 +0.006 +0.046 +0.047 +0.030 +0.046 +0.046 +0.045 +0.045 +0.043 +0.037 +0.046 +0.044 +0.014 +0.044 +0.046 +0.045 +0.042 +0.045 +0.045 +0.046 +0.045 +0.045 +0.042 +0.046 +0.045 +0.045
# oxidation-state S -0.064 +0.109 -0.231 -0.389 +0.320 -0.277 +0.217 -0.435
# oxidation-state Na +0.698 +0.722


Dumping 'Na2S8@graphene.fillings' ... done
Dumping 'Na2S8@graphene.wfns' ... done
Dumping 'Na2S8@graphene.ionpos' ... done
Dumping 'Na2S8@graphene.eigenvals' ... done
End date and time: Tue Sep 24 22:36:45 2024  (Duration: 0-4:02:34.31)
Done!
