
*************** JDFTx 1.7.0  ***************

Start date and time: Tue Mar 28 00:43:00 2023
Executable jdftx with command-line: -i Na2S6@graphene_6x6x1.in -o Na2S6@graphene_6x6x1.out
Running on hosts (process indices):  rqtUbuntuMac (0)
Divided in process groups (process indices):  0 (0)
Resource initialization completed at t[s]:      0.00
Run totals: 1 processes, 8 threads, 0 GPUs


Input parsed successfully to the following command list (including defaults):

basis kpoint-dependent
coords-type Cartesian
core-overlap-check vector
coulomb-interaction Slab 001
coulomb-truncation-embed 0 0 18.8973
davidson-band-ratio 1.1
dump End State
dump-name Na2S6@graphene_6x6x1.$VAR
elec-cutoff 15 75
elec-eigen-algo Davidson
elec-ex-corr gga-PBE
elec-smearing Fermi 0.01
electronic-minimize  \
	dirUpdateScheme      FletcherReeves \
	linminMethod         DirUpdateRecommended \
	nIterations          100 \
	history              15 \
	knormThreshold       0 \
	energyDiffThreshold  1e-08 \
	nEnergyDiff          2 \
	alphaTstart          1 \
	alphaTmin            1e-10 \
	updateTestStepSize   yes \
	alphaTreduceFactor   0.1 \
	alphaTincreaseFactor 3 \
	nAlphaAdjustMax      3 \
	wolfeEnergy          0.0001 \
	wolfeGradient        0.9 \
	fdTest               no
electronic-scf  \
	nIterations	50 \
	energyDiffThreshold	1e-08 \
	residualThreshold	1e-07 \
	mixFraction	0.5 \
	qMetric	0.8 \
	history	10 \
	nEigSteps	2 \
	eigDiffThreshold	1e-08 \
	mixedVariable	Density \
	qKerker	0.8 \
	qKappa	-1 \
	verbose	no \
	mixFractionMag	1.5
exchange-regularization WignerSeitzTruncated
fluid None
fluid-ex-corr lda-TF lda-PZ
fluid-gummel-loop 10 1.000000e-05
fluid-minimize  \
	dirUpdateScheme      PolakRibiere \
	linminMethod         DirUpdateRecommended \
	nIterations          100 \
	history              15 \
	knormThreshold       0 \
	energyDiffThreshold  0 \
	nEnergyDiff          2 \
	alphaTstart          1 \
	alphaTmin            1e-10 \
	updateTestStepSize   yes \
	alphaTreduceFactor   0.1 \
	alphaTincreaseFactor 3 \
	nAlphaAdjustMax      3 \
	wolfeEnergy          0.0001 \
	wolfeGradient        0.9 \
	fdTest               no
fluid-solvent H2O 55.338 ScalarEOS \
	epsBulk 78.4 \
	pMol 0.92466 \
	epsInf 1.77 \
	Pvap 1.06736e-10 \
	sigmaBulk 4.62e-05 \
	Rvdw 2.61727 \
	Res 1.42 \
	tauNuc 343133 \
	poleEl 15 7 1
forces-output-coords Positions
ion C  28.005800489730003   0.000000000000000  18.897299999999998 1
ion C  16.336715849999997  20.211444698219999  18.897299999999998 1
ion C   2.333816549999999   4.042289317590000  18.897299999999998 1
ion C  23.338167389730000   0.000000000000000  18.897299999999998 1
ion C   4.667633100000000   0.000000000000000  18.897299999999998 1
ion C  11.669082749999999  20.211444698219999  18.897299999999998 1
ion C  25.671983939729994   4.042289317590000  18.897299999999998 1
ion C  18.670532399999995  16.169155380629999  18.897299999999998 1
ion C   4.667633099999999   8.084578635180000  18.897299999999998 1
ion C  18.670532399999999   0.000000000000000  18.897299999999998 1
ion C   9.335266200000000   0.000000000000000  18.897299999999998 1
ion C   9.335266199999996  16.169155380629999  18.897299999999998 1
ion C  23.338167389730000   8.084578635180000  18.897299999999998 1
ion C  21.004348950000001  12.126867952769999  18.897299999999998 1
ion C   7.001449650000001  12.126867952769999  18.897299999999998 1
ion C  14.002899299999999   0.000000000000000  18.897299999999998 1
ion C  14.002899299999999  16.169155380629999  18.897299999999998 1
ion C   7.001449650000000   4.042289317590000  18.897299999999998 1
ion C  21.004348950000001   4.042289317590000  18.897299999999998 1
ion C  16.336715849999997  12.126867952769999  18.897299999999998 1
ion C   9.335266200000000   8.084578635180000  18.897299999999998 1
ion C  16.336715849999994   4.042289317590000  18.897299999999998 1
ion C  11.669082750000001   4.042289317590000  18.897299999999998 1
ion C  11.669082749999998  12.126867952769999  18.897299999999998 1
ion C  18.670532399999999   8.084578635180000  18.897299999999998 1
ion C   7.001449650000000  20.211444698219999  18.897299999999998 1
ion C  -7.001449650000000  20.211444698219999  18.897299999999998 1
ion C   0.000000000000000   8.084578635180000  18.897299999999998 1
ion C  14.002899299999999   8.084578635180000  18.897299999999998 1
ion C   2.333816550000000  20.211444698219999  18.897299999999998 1
ion C  -4.667633100000001  16.169155380629999  18.897299999999998 1
ion C   2.333816549999999  12.126867952769999  18.897299999999998 1
ion C  -2.333816549999999  12.126867952769999  18.897299999999998 1
ion C  -2.333816550000000  20.211444698219999  18.897299999999998 1
ion C   4.667633099999998  16.169155380629999  18.897299999999998 1
ion C   0.000000000000000  16.169155380629999  18.897299999999998 1
ion C  14.002887961620001  21.558880769849999  18.897299999999998 1
ion C   2.333816550000000   1.347415284600000  18.897299999999998 1
ion C  25.671995278109993   1.347436071630000  18.897299999999998 1
ion C  16.336704511619999  17.516593341989999  18.897299999999998 1
ion C   4.667633099999999   5.389704602190000  18.897299999999998 1
ion C  21.004362178109997   1.347436071630000  18.897299999999998 1
ion C   7.001438311619999   1.347436071630000  18.897299999999998 1
ion C  11.669094088380000  17.516593341989999  18.897299999999998 1
ion C  23.338167389730000   5.389704602190000  18.897299999999998 1
ion C  18.670521061620004  13.474304024399999  18.897299999999998 1
ion C   7.001449650000000   9.431993919780000  18.897299999999998 1
ion C  16.336729078110000   1.347436071630000  18.897299999999998 1
ion C  11.669071411620001   1.347436071630000  18.897299999999998 1
ion C   9.335277538380002  13.474304024399999  18.897299999999998 1
ion C  21.004350839729998   9.431993919780000  18.897299999999998 1
ion C   9.335254861620001  21.558880769849999  18.897299999999998 1
ion C  -9.335266200000000  21.558861872550001  18.897299999999998 1
ion C   0.000011338380000   5.389725389220000  18.897299999999998 1
ion C  14.002887961620001  13.474304024399999  18.897299999999998 1
ion C   9.335266200000000   5.389704602190000  18.897299999999998 1
ion C  18.670545628110006   5.389725389220000  18.897299999999998 1
ion C  16.336704511619999   9.432014706810000  18.897299999999998 1
ion C  11.669082749999998   9.431993919780000  18.897299999999998 1
ion C  14.002912528110002   5.389725389220000  18.897299999999998 1
ion C   4.667621761620001  21.558880769849999  18.897299999999998 1
ion C  -7.001449650000000  17.516572554960000  18.897299999999998 1
ion C   2.333827888380001   9.432014706810000  18.897299999999998 1
ion C  -2.333827888379999   9.432014706810000  18.897299999999998 1
ion C  -4.667621761619999  21.558880769849999  18.897299999999998 1
ion C   7.001449650000001  17.516572554960000  18.897299999999998 1
ion C  -0.000011338380000  21.558880769849999  18.897299999999998 1
ion C  -4.667633099999998  13.474283237369997  18.897299999999998 1
ion C   4.667644438379999  13.474304024399999  18.897299999999998 1
ion C   2.333805211620000  17.516593341989999  18.897299999999998 1
ion C  -2.333816549999999  17.516572554960000  18.897299999999998 1
ion C   0.000011338380001  13.474304024399999  18.897299999999998 1
ion S   3.921331479749998  14.782809768299998  26.798176092150001 1
ion S   7.567480476899998  13.941020091150000  26.341277172750001 1
ion S   8.668781105760001  14.471149827509999  22.702244898779998 1
ion S   6.502139520210000   8.005535008739999  22.969411146719999 1
ion S   7.556913106740001   8.846158722479998  26.563144702860001 1
ion S  11.194673592419999   8.036226113669999  27.138476780820000 1
ion Na   3.832890226020001  12.440438410589998  22.242254381100000 1
ion Na  11.349661688100003   9.995736283650000  22.410264606209999 1
ion-species GBRV/$ID_pbe.uspp
ion-width 0
ionic-minimize  \
	dirUpdateScheme      FletcherReeves \
	linminMethod         DirUpdateRecommended \
	nIterations          200 \
	history              15 \
	knormThreshold       0.0001 \
	energyDiffThreshold  1e-06 \
	nEnergyDiff          2 \
	alphaTstart          1 \
	alphaTmin            1e-10 \
	updateTestStepSize   yes \
	alphaTreduceFactor   0.1 \
	alphaTincreaseFactor 3 \
	nAlphaAdjustMax      3 \
	wolfeEnergy          0.0001 \
	wolfeGradient        0.9 \
	fdTest               no
kpoint   0.000000000000   0.000000000000   0.000000000000  1.00000000000000
kpoint-folding 1 1 1 
latt-move-scale 1 1 1
latt-scale 1 1 1 
lattice Triclinic 28.0058 28.0058 37.7946 90 90 120
lattice-minimize  \
	dirUpdateScheme      L-BFGS \
	linminMethod         DirUpdateRecommended \
	nIterations          0 \
	history              15 \
	knormThreshold       0 \
	energyDiffThreshold  1e-06 \
	nEnergyDiff          2 \
	alphaTstart          1 \
	alphaTmin            1e-10 \
	updateTestStepSize   yes \
	alphaTreduceFactor   0.1 \
	alphaTincreaseFactor 3 \
	nAlphaAdjustMax      3 \
	wolfeEnergy          0.0001 \
	wolfeGradient        0.9 \
	fdTest               no
lcao-params -1 1e-06 0.01
pcm-variant GLSSA13
spintype no-spin
subspace-rotation-factor 1 yes
symmetries automatic
symmetry-threshold 0.0001



---------- Setting up symmetries ----------

Found 24 point-group symmetries of the bravais lattice
Found 1 space-group symmetries with basis
Applied RMS atom displacement 0 bohrs to make symmetries exact.

---------- Initializing the Grid ----------
R = 
[      28.0058     -14.0029            0  ]
[            0      24.2537            0  ]
[            0            0      37.7946  ]
unit cell volume = 25671.8
G =
[   0.224353    0.12953         -0  ]
[          0   0.259061          0  ]
[          0         -0   0.166246  ]
Minimum fftbox size, Smin = [  112  112  148  ]
Chosen fftbox size, S = [  112  112  150  ]

---------- Initializing tighter grid for wavefunction operations ----------
R = 
[      28.0058     -14.0029            0  ]
[            0      24.2537            0  ]
[            0            0      37.7946  ]
unit cell volume = 25671.8
G =
[   0.224353    0.12953         -0  ]
[          0   0.259061          0  ]
[          0         -0   0.166246  ]
Minimum fftbox size, Smin = [  100  100  132  ]
Chosen fftbox size, S = [  100  100  140  ]

---------- Exchange Correlation functional ----------
Initalized PBE GGA exchange.
Initalized PBE GGA correlation.

---------- Setting up pseudopotentials ----------
Width of ionic core gaussian charges (only for fluid interactions / plotting) set to 0

Reading pseudopotential file '/home/andrewkim/jdftx_install/build/pseudopotentials/GBRV/c_pbe.uspp':
  Title: C.  Created by USPP 7.3.6 on 3-2-2014
  Reference state energy: -5.406344.  4 valence electrons in orbitals:
    |200>  occupation: 2  eigenvalue: -0.504890
    |210>  occupation: 2  eigenvalue: -0.194356
  lMax: 1  lLocal: 2  QijEcut: 5
  4 projectors sampled on a log grid with 503 points:
    l: 0  eig: -0.504890  rCut: 1.3
    l: 0  eig: 0.000000  rCut: 1.3
    l: 1  eig: -0.194357  rCut: 1.3
    l: 1  eig: 0.000000  rCut: 1.3
  Partial core density with radius 1.1
  Transforming core density to a uniform radial grid of dG=0.02 with 1408 points.
  Transforming local potential to a uniform radial grid of dG=0.02 with 1408 points.
  Transforming nonlocal projectors to a uniform radial grid of dG=0.02 with 375 points.
  Transforming density augmentations to a uniform radial grid of dG=0.02 with 1408 points.
  Transforming atomic orbitals to a uniform radial grid of dG=0.02 with 375 points.
  Core radius for overlap checks: 1.30 bohrs.

Reading pseudopotential file '/home/andrewkim/jdftx_install/build/pseudopotentials/GBRV/s_pbe.uspp':
  Title: S.  Created by USPP 7.3.6 on 1-4-15
  Reference state energy: -11.898476.  6 valence electrons in orbitals:
    |300>  occupation: 2  eigenvalue: -0.634167
    |310>  occupation: 4  eigenvalue: -0.257568
  lMax: 2  lLocal: 3  QijEcut: 6
  6 projectors sampled on a log grid with 635 points:
    l: 0  eig: -0.634161  rCut: 1.5
    l: 0  eig: 1.500000  rCut: 1.5
    l: 1  eig: -0.257567  rCut: 1.5
    l: 1  eig: 1.500000  rCut: 1.5
    l: 2  eig: -1.000000  rCut: 1.5
    l: 2  eig: 1.500000  rCut: 1.5
  Partial core density with radius 1.15
  Transforming core density to a uniform radial grid of dG=0.02 with 1408 points.
  Transforming local potential to a uniform radial grid of dG=0.02 with 1408 points.
  Transforming nonlocal projectors to a uniform radial grid of dG=0.02 with 375 points.
  Transforming density augmentations to a uniform radial grid of dG=0.02 with 1408 points.
  Transforming atomic orbitals to a uniform radial grid of dG=0.02 with 375 points.
  Core radius for overlap checks: 1.50 bohrs.

Reading pseudopotential file '/home/andrewkim/jdftx_install/build/pseudopotentials/GBRV/na_pbe.uspp':
  Title: Na.  Created by USPP 7.3.6 on 23-9-15
  Reference state energy: -47.625620.  9 valence electrons in orbitals:
    |200>  occupation: 2  eigenvalue: -2.085638
    |210>  occupation: 6  eigenvalue: -1.053708
    |300>  occupation: 1  eigenvalue: -0.100838
  lMax: 2  lLocal: 0  QijEcut: 6
  5 projectors sampled on a log grid with 657 points:
    l: 0  eig: -2.085640  rCut: 1.37
    l: 0  eig: -0.100839  rCut: 1.37
    l: 1  eig: -1.053708  rCut: 1.47
    l: 1  eig: 0.500000  rCut: 1.47
    l: 2  eig: 0.750000  rCut: 2
  Transforming local potential to a uniform radial grid of dG=0.02 with 1408 points.
  Transforming nonlocal projectors to a uniform radial grid of dG=0.02 with 375 points.
  Transforming density augmentations to a uniform radial grid of dG=0.02 with 1408 points.
  Transforming atomic orbitals to a uniform radial grid of dG=0.02 with 375 points.
  Core radius for overlap checks: 2.00 bohrs.

Initialized 3 species with 80 total atoms.

Folded 1 k-points by 1x1x1 to 1 k-points.

---------- Setting up k-points, bands, fillings ----------
No reducable k-points. 
Computing the number of bands and number of electrons
Calculating initial fillings.
nElectrons: 342.000000   nBands: 322   nStates: 1

----- Setting up reduced wavefunction bases (one per k-point) -----
average nbasis = 71207.000 , ideal nbasis = 71233.977

---------- Setting up coulomb interaction ----------
Setting up double-sized grid for truncated Coulomb potentials:
R = 
[      28.0058     -14.0029            0  ]
[            0      24.2537            0  ]
[            0            0      75.5892  ]
unit cell volume = 51343.6
G =
[   0.224353    0.12953         -0  ]
[          0   0.259061          0  ]
[          0         -0  0.0831228  ]
Chosen fftbox size, S = [  112  112  300  ]
Integer grid location selected as the embedding center:
   Grid: [  0  0  75  ]
   Lattice: [  0  0  0.5  ]
   Cartesian: [  0  0  18.8973  ]
Constructing Wigner-Seitz cell: 8 faces (6 quadrilaterals, 2 hexagons)
Range-separation parameter for embedded mesh potentials due to point charges: 0.633256 bohrs.
Initialized slab truncation along lattice direction 001

---------- Setting up 2D ewald sum ----------
Optimum gaussian width for ewald sums = 15.547689 bohr.
Real space sums over 289 unit cells with max indices [  8  8  0  ]
Reciprocal space sums over 81 terms with max indices [  4  4  0  ]

---------- Allocating electronic variables ----------

*************** JDFTx 1.7.0  ***************

Start date and time: Tue Mar 28 00:43:42 2023
Executable jdftx with command-line: -i Na2S6@graphene_6x6x1.in -o Na2S6@graphene_6x6x1.out
Running on hosts (process indices):  rqtUbuntuMac (0)
Divided in process groups (process indices):  0 (0)
Resource initialization completed at t[s]:      0.00
Run totals: 1 processes, 8 threads, 0 GPUs


Input parsed successfully to the following command list (including defaults):

basis kpoint-dependent
coords-type Cartesian
core-overlap-check vector
coulomb-interaction Slab 001
coulomb-truncation-embed 0 0 18.8973
davidson-band-ratio 1.1
dump End State
dump-name Na2S6@graphene_6x6x1.$VAR
elec-cutoff 20 100
elec-eigen-algo Davidson
elec-ex-corr gga-PBE
elec-smearing Fermi 0.01
electronic-minimize  \
	dirUpdateScheme      FletcherReeves \
	linminMethod         DirUpdateRecommended \
	nIterations          100 \
	history              15 \
	knormThreshold       0 \
	energyDiffThreshold  1e-08 \
	nEnergyDiff          2 \
	alphaTstart          1 \
	alphaTmin            1e-10 \
	updateTestStepSize   yes \
	alphaTreduceFactor   0.1 \
	alphaTincreaseFactor 3 \
	nAlphaAdjustMax      3 \
	wolfeEnergy          0.0001 \
	wolfeGradient        0.9 \
	fdTest               no
electronic-scf  \
	nIterations	50 \
	energyDiffThreshold	1e-08 \
	residualThreshold	1e-07 \
	mixFraction	0.5 \
	qMetric	0.8 \
	history	10 \
	nEigSteps	2 \
	eigDiffThreshold	1e-08 \
	mixedVariable	Density \
	qKerker	0.8 \
	qKappa	-1 \
	verbose	no \
	mixFractionMag	1.5
exchange-regularization WignerSeitzTruncated
fluid None
fluid-ex-corr lda-TF lda-PZ
fluid-gummel-loop 10 1.000000e-05
fluid-minimize  \
	dirUpdateScheme      PolakRibiere \
	linminMethod         DirUpdateRecommended \
	nIterations          100 \
	history              15 \
	knormThreshold       0 \
	energyDiffThreshold  0 \
	nEnergyDiff          2 \
	alphaTstart          1 \
	alphaTmin            1e-10 \
	updateTestStepSize   yes \
	alphaTreduceFactor   0.1 \
	alphaTincreaseFactor 3 \
	nAlphaAdjustMax      3 \
	wolfeEnergy          0.0001 \
	wolfeGradient        0.9 \
	fdTest               no
fluid-solvent H2O 55.338 ScalarEOS \
	epsBulk 78.4 \
	pMol 0.92466 \
	epsInf 1.77 \
	Pvap 1.06736e-10 \
	sigmaBulk 4.62e-05 \
	Rvdw 2.61727 \
	Res 1.42 \
	tauNuc 343133 \
	poleEl 15 7 1
forces-output-coords Positions
ion C  28.005800489730003   0.000000000000000  18.897299999999998 1
ion C  16.336715849999997  20.211444698219999  18.897299999999998 1
ion C   2.333816549999999   4.042289317590000  18.897299999999998 1
ion C  23.338167389730000   0.000000000000000  18.897299999999998 1
ion C   4.667633100000000   0.000000000000000  18.897299999999998 1
ion C  11.669082749999999  20.211444698219999  18.897299999999998 1
ion C  25.671983939729994   4.042289317590000  18.897299999999998 1
ion C  18.670532399999995  16.169155380629999  18.897299999999998 1
ion C   4.667633099999999   8.084578635180000  18.897299999999998 1
ion C  18.670532399999999   0.000000000000000  18.897299999999998 1
ion C   9.335266200000000   0.000000000000000  18.897299999999998 1
ion C   9.335266199999996  16.169155380629999  18.897299999999998 1
ion C  23.338167389730000   8.084578635180000  18.897299999999998 1
ion C  21.004348950000001  12.126867952769999  18.897299999999998 1
ion C   7.001449650000001  12.126867952769999  18.897299999999998 1
ion C  14.002899299999999   0.000000000000000  18.897299999999998 1
ion C  14.002899299999999  16.169155380629999  18.897299999999998 1
ion C   7.001449650000000   4.042289317590000  18.897299999999998 1
ion C  21.004348950000001   4.042289317590000  18.897299999999998 1
ion C  16.336715849999997  12.126867952769999  18.897299999999998 1
ion C   9.335266200000000   8.084578635180000  18.897299999999998 1
ion C  16.336715849999994   4.042289317590000  18.897299999999998 1
ion C  11.669082750000001   4.042289317590000  18.897299999999998 1
ion C  11.669082749999998  12.126867952769999  18.897299999999998 1
ion C  18.670532399999999   8.084578635180000  18.897299999999998 1
ion C   7.001449650000000  20.211444698219999  18.897299999999998 1
ion C  -7.001449650000000  20.211444698219999  18.897299999999998 1
ion C   0.000000000000000   8.084578635180000  18.897299999999998 1
ion C  14.002899299999999   8.084578635180000  18.897299999999998 1
ion C   2.333816550000000  20.211444698219999  18.897299999999998 1
ion C  -4.667633100000001  16.169155380629999  18.897299999999998 1
ion C   2.333816549999999  12.126867952769999  18.897299999999998 1
ion C  -2.333816549999999  12.126867952769999  18.897299999999998 1
ion C  -2.333816550000000  20.211444698219999  18.897299999999998 1
ion C   4.667633099999998  16.169155380629999  18.897299999999998 1
ion C   0.000000000000000  16.169155380629999  18.897299999999998 1
ion C  14.002887961620001  21.558880769849999  18.897299999999998 1
ion C   2.333816550000000   1.347415284600000  18.897299999999998 1
ion C  25.671995278109993   1.347436071630000  18.897299999999998 1
ion C  16.336704511619999  17.516593341989999  18.897299999999998 1
ion C   4.667633099999999   5.389704602190000  18.897299999999998 1
ion C  21.004362178109997   1.347436071630000  18.897299999999998 1
ion C   7.001438311619999   1.347436071630000  18.897299999999998 1
ion C  11.669094088380000  17.516593341989999  18.897299999999998 1
ion C  23.338167389730000   5.389704602190000  18.897299999999998 1
ion C  18.670521061620004  13.474304024399999  18.897299999999998 1
ion C   7.001449650000000   9.431993919780000  18.897299999999998 1
ion C  16.336729078110000   1.347436071630000  18.897299999999998 1
ion C  11.669071411620001   1.347436071630000  18.897299999999998 1
ion C   9.335277538380002  13.474304024399999  18.897299999999998 1
ion C  21.004350839729998   9.431993919780000  18.897299999999998 1
ion C   9.335254861620001  21.558880769849999  18.897299999999998 1
ion C  -9.335266200000000  21.558861872550001  18.897299999999998 1
ion C   0.000011338380000   5.389725389220000  18.897299999999998 1
ion C  14.002887961620001  13.474304024399999  18.897299999999998 1
ion C   9.335266200000000   5.389704602190000  18.897299999999998 1
ion C  18.670545628110006   5.389725389220000  18.897299999999998 1
ion C  16.336704511619999   9.432014706810000  18.897299999999998 1
ion C  11.669082749999998   9.431993919780000  18.897299999999998 1
ion C  14.002912528110002   5.389725389220000  18.897299999999998 1
ion C   4.667621761620001  21.558880769849999  18.897299999999998 1
ion C  -7.001449650000000  17.516572554960000  18.897299999999998 1
ion C   2.333827888380001   9.432014706810000  18.897299999999998 1
ion C  -2.333827888379999   9.432014706810000  18.897299999999998 1
ion C  -4.667621761619999  21.558880769849999  18.897299999999998 1
ion C   7.001449650000001  17.516572554960000  18.897299999999998 1
ion C  -0.000011338380000  21.558880769849999  18.897299999999998 1
ion C  -4.667633099999998  13.474283237369997  18.897299999999998 1
ion C   4.667644438379999  13.474304024399999  18.897299999999998 1
ion C   2.333805211620000  17.516593341989999  18.897299999999998 1
ion C  -2.333816549999999  17.516572554960000  18.897299999999998 1
ion C   0.000011338380001  13.474304024399999  18.897299999999998 1
ion S   3.921331479749998  14.782809768299998  26.798176092150001 1
ion S   7.567480476899998  13.941020091150000  26.341277172750001 1
ion S   8.668781105760001  14.471149827509999  22.702244898779998 1
ion S   6.502139520210000   8.005535008739999  22.969411146719999 1
ion S   7.556913106740001   8.846158722479998  26.563144702860001 1
ion S  11.194673592419999   8.036226113669999  27.138476780820000 1
ion Na   3.832890226020001  12.440438410589998  22.242254381100000 1
ion Na  11.349661688100003   9.995736283650000  22.410264606209999 1
ion-species GBRV/$ID_pbe.uspp
ion-width 0
ionic-minimize  \
	dirUpdateScheme      FletcherReeves \
	linminMethod         DirUpdateRecommended \
	nIterations          200 \
	history              15 \
	knormThreshold       0.0001 \
	energyDiffThreshold  1e-06 \
	nEnergyDiff          2 \
	alphaTstart          1 \
	alphaTmin            1e-10 \
	updateTestStepSize   yes \
	alphaTreduceFactor   0.1 \
	alphaTincreaseFactor 3 \
	nAlphaAdjustMax      3 \
	wolfeEnergy          0.0001 \
	wolfeGradient        0.9 \
	fdTest               no
kpoint   0.000000000000   0.000000000000   0.000000000000  1.00000000000000
kpoint-folding 1 1 1 
latt-move-scale 1 1 1
latt-scale 1 1 1 
lattice Triclinic 28.0058 28.0058 37.7946 90 90 120
lattice-minimize  \
	dirUpdateScheme      L-BFGS \
	linminMethod         DirUpdateRecommended \
	nIterations          0 \
	history              15 \
	knormThreshold       0 \
	energyDiffThreshold  1e-06 \
	nEnergyDiff          2 \
	alphaTstart          1 \
	alphaTmin            1e-10 \
	updateTestStepSize   yes \
	alphaTreduceFactor   0.1 \
	alphaTincreaseFactor 3 \
	nAlphaAdjustMax      3 \
	wolfeEnergy          0.0001 \
	wolfeGradient        0.9 \
	fdTest               no
lcao-params -1 1e-06 0.01
pcm-variant GLSSA13
spintype no-spin
subspace-rotation-factor 1 yes
symmetries automatic
symmetry-threshold 0.0001



---------- Setting up symmetries ----------

Found 24 point-group symmetries of the bravais lattice
Found 1 space-group symmetries with basis
Applied RMS atom displacement 0 bohrs to make symmetries exact.

---------- Initializing the Grid ----------
R = 
[      28.0058     -14.0029            0  ]
[            0      24.2537            0  ]
[            0            0      37.7946  ]
unit cell volume = 25671.8
G =
[   0.224353    0.12953         -0  ]
[          0   0.259061          0  ]
[          0         -0   0.166246  ]
Minimum fftbox size, Smin = [  128  128  172  ]
Chosen fftbox size, S = [  128  128  180  ]

---------- Initializing tighter grid for wavefunction operations ----------
R = 
[      28.0058     -14.0029            0  ]
[            0      24.2537            0  ]
[            0            0      37.7946  ]
unit cell volume = 25671.8
G =
[   0.224353    0.12953         -0  ]
[          0   0.259061          0  ]
[          0         -0   0.166246  ]
Minimum fftbox size, Smin = [  116  116  156  ]
Chosen fftbox size, S = [  120  120  160  ]

---------- Exchange Correlation functional ----------
Initalized PBE GGA exchange.
Initalized PBE GGA correlation.

---------- Setting up pseudopotentials ----------
Width of ionic core gaussian charges (only for fluid interactions / plotting) set to 0

Reading pseudopotential file '/home/andrewkim/jdftx_install/build/pseudopotentials/GBRV/c_pbe.uspp':
  Title: C.  Created by USPP 7.3.6 on 3-2-2014
  Reference state energy: -5.406344.  4 valence electrons in orbitals:
    |200>  occupation: 2  eigenvalue: -0.504890
    |210>  occupation: 2  eigenvalue: -0.194356
  lMax: 1  lLocal: 2  QijEcut: 5
  4 projectors sampled on a log grid with 503 points:
    l: 0  eig: -0.504890  rCut: 1.3
    l: 0  eig: 0.000000  rCut: 1.3
    l: 1  eig: -0.194357  rCut: 1.3
    l: 1  eig: 0.000000  rCut: 1.3
  Partial core density with radius 1.1
  Transforming core density to a uniform radial grid of dG=0.02 with 1625 points.
  Transforming local potential to a uniform radial grid of dG=0.02 with 1625 points.
  Transforming nonlocal projectors to a uniform radial grid of dG=0.02 with 432 points.
  Transforming density augmentations to a uniform radial grid of dG=0.02 with 1625 points.
  Transforming atomic orbitals to a uniform radial grid of dG=0.02 with 432 points.
  Core radius for overlap checks: 1.30 bohrs.

Reading pseudopotential file '/home/andrewkim/jdftx_install/build/pseudopotentials/GBRV/s_pbe.uspp':
  Title: S.  Created by USPP 7.3.6 on 1-4-15
  Reference state energy: -11.898476.  6 valence electrons in orbitals:
    |300>  occupation: 2  eigenvalue: -0.634167
    |310>  occupation: 4  eigenvalue: -0.257568
  lMax: 2  lLocal: 3  QijEcut: 6
  6 projectors sampled on a log grid with 635 points:
    l: 0  eig: -0.634161  rCut: 1.5
    l: 0  eig: 1.500000  rCut: 1.5
    l: 1  eig: -0.257567  rCut: 1.5
    l: 1  eig: 1.500000  rCut: 1.5
    l: 2  eig: -1.000000  rCut: 1.5
    l: 2  eig: 1.500000  rCut: 1.5
  Partial core density with radius 1.15
  Transforming core density to a uniform radial grid of dG=0.02 with 1625 points.
  Transforming local potential to a uniform radial grid of dG=0.02 with 1625 points.
  Transforming nonlocal projectors to a uniform radial grid of dG=0.02 with 432 points.
  Transforming density augmentations to a uniform radial grid of dG=0.02 with 1625 points.
  Transforming atomic orbitals to a uniform radial grid of dG=0.02 with 432 points.
  Core radius for overlap checks: 1.50 bohrs.

Reading pseudopotential file '/home/andrewkim/jdftx_install/build/pseudopotentials/GBRV/na_pbe.uspp':
  Title: Na.  Created by USPP 7.3.6 on 23-9-15
  Reference state energy: -47.625620.  9 valence electrons in orbitals:
    |200>  occupation: 2  eigenvalue: -2.085638
    |210>  occupation: 6  eigenvalue: -1.053708
    |300>  occupation: 1  eigenvalue: -0.100838
  lMax: 2  lLocal: 0  QijEcut: 6
  5 projectors sampled on a log grid with 657 points:
    l: 0  eig: -2.085640  rCut: 1.37
    l: 0  eig: -0.100839  rCut: 1.37
    l: 1  eig: -1.053708  rCut: 1.47
    l: 1  eig: 0.500000  rCut: 1.47
    l: 2  eig: 0.750000  rCut: 2
  Transforming local potential to a uniform radial grid of dG=0.02 with 1625 points.
  Transforming nonlocal projectors to a uniform radial grid of dG=0.02 with 432 points.
  Transforming density augmentations to a uniform radial grid of dG=0.02 with 1625 points.
  Transforming atomic orbitals to a uniform radial grid of dG=0.02 with 432 points.
  Core radius for overlap checks: 2.00 bohrs.

Initialized 3 species with 80 total atoms.

Folded 1 k-points by 1x1x1 to 1 k-points.

---------- Setting up k-points, bands, fillings ----------
No reducable k-points. 
Computing the number of bands and number of electrons
Calculating initial fillings.
nElectrons: 342.000000   nBands: 322   nStates: 1

----- Setting up reduced wavefunction bases (one per k-point) -----
average nbasis = 109673.000 , ideal nbasis = 109671.883

---------- Setting up coulomb interaction ----------
Setting up double-sized grid for truncated Coulomb potentials:
R = 
[      28.0058     -14.0029            0  ]
[            0      24.2537            0  ]
[            0            0      75.5892  ]
unit cell volume = 51343.6
G =
[   0.224353    0.12953         -0  ]
[          0   0.259061          0  ]
[          0         -0  0.0831228  ]
Chosen fftbox size, S = [  128  128  360  ]
Integer grid location selected as the embedding center:
   Grid: [  0  0  90  ]
   Lattice: [  0  0  0.5  ]
   Cartesian: [  0  0  18.8973  ]
Constructing Wigner-Seitz cell: 8 faces (6 quadrilaterals, 2 hexagons)
Range-separation parameter for embedded mesh potentials due to point charges: 0.590105 bohrs.
Initialized slab truncation along lattice direction 001

---------- Setting up 2D ewald sum ----------
Optimum gaussian width for ewald sums = 15.547689 bohr.
Real space sums over 289 unit cells with max indices [  8  8  0  ]
Reciprocal space sums over 81 terms with max indices [  4  4  0  ]

---------- Allocating electronic variables ----------
Initializing wave functions:  linear combination of atomic orbitals
C pseudo-atom occupations:   s ( 2 )  p ( 2 )
S pseudo-atom occupations:   s ( 2 )  p ( 4 )
Na pseudo-atom occupations:   s ( 2 1 )  p ( 6 )
	FillingsUpdate:  mu: -0.214562966  nElectrons: 342.000000
LCAOMinimize: Iter:   0  F: -562.2768523482142200  |grad|_K:  1.274e-02  alpha:  1.000e+00
LCAOMinimize: 	Step increased F by 1.071808e-01, reducing alpha to 2.456796e-02.
	FillingsUpdate:  mu: -0.247945970  nElectrons: 342.000000
LCAOMinimize: Iter:   1  F: -562.6597374087951948  |grad|_K:  1.050e-02  alpha:  2.457e-02  linmin: -1.486e-01  cgtest:  9.612e-01  t[s]:    570.70
LCAOMinimize: Encountered beta<0, resetting CG.
LCAOMinimize: 	Predicted alpha/alphaT>3.000000, increasing alphaT to 7.370387e-02.
	FillingsUpdate:  mu: -0.282815953  nElectrons: 342.000000
LCAOMinimize: Iter:   2  F: -563.2538766061870774  |grad|_K:  4.524e-03  alpha:  1.425e-01  linmin:  1.293e-01  cgtest: -9.181e-01  t[s]:    747.31
LCAOMinimize: 	Bad step direction: g.d > 0.
LCAOMinimize: 	Undoing step.
LCAOMinimize: 	Step failed: resetting search direction.
	FillingsUpdate:  mu: -0.282815953  nElectrons: 342.000000
LCAOMinimize: Iter:   3  F: -563.2538766061870774  |grad|_K:  4.524e-03  alpha:  0.000e+00
	FillingsUpdate:  mu: -0.300266787  nElectrons: 342.000000
LCAOMinimize: Iter:   4  F: -563.3855030440691962  |grad|_K:  9.638e-04  alpha:  1.083e-01  linmin:  9.683e-02  cgtest: -3.943e-01  t[s]:    983.18
	FillingsUpdate:  mu: -0.297950584  nElectrons: 342.000000
LCAOMinimize: Iter:   5  F: -563.3911879308536754  |grad|_K:  1.076e-03  alpha:  1.474e-01  linmin:  1.110e-02  cgtest:  6.350e-01  t[s]:   1125.72
	FillingsUpdate:  mu: -0.297507522  nElectrons: 342.000000
LCAOMinimize: Iter:   6  F: -563.3976266788079101  |grad|_K:  3.033e-04  alpha:  1.092e-01  linmin:  3.392e-04  cgtest: -6.942e-02  t[s]:   1268.10
LCAOMinimize: 	Predicted alpha/alphaT>3.000000, increasing alphaT to 3.277059e-01.
	FillingsUpdate:  mu: -0.298258502  nElectrons: 342.000000
LCAOMinimize: Iter:   7  F: -563.3998085351742020  |grad|_K:  2.232e-04  alpha:  4.625e-01  linmin:  9.755e-03  cgtest: -1.096e-01  t[s]:   1443.90
	FillingsUpdate:  mu: -0.296984523  nElectrons: 342.000000
LCAOMinimize: Iter:   8  F: -563.4002744388708379  |grad|_K:  8.969e-05  alpha:  1.892e-01  linmin:  1.059e-04  cgtest:  2.026e-01  t[s]:   1586.54
	FillingsUpdate:  mu: -0.296709774  nElectrons: 342.000000
LCAOMinimize: Iter:   9  F: -563.4003418489135129  |grad|_K:  5.662e-05  alpha:  1.607e-01  linmin: -2.205e-04  cgtest: -6.168e-03  t[s]:   1728.56
	FillingsUpdate:  mu: -0.296886878  nElectrons: 342.000000
LCAOMinimize: Iter:  10  F: -563.4003682537456825  |grad|_K:  1.983e-05  alpha:  1.578e-01  linmin:  2.438e-04  cgtest: -6.482e-03  t[s]:   1870.79
	FillingsUpdate:  mu: -0.296914787  nElectrons: 342.000000
LCAOMinimize: Iter:  11  F: -563.4003752488088139  |grad|_K:  1.518e-05  alpha:  3.410e-01  linmin: -3.075e-04  cgtest:  6.991e-04  t[s]:   2013.51
	FillingsUpdate:  mu: -0.296925942  nElectrons: 342.000000
LCAOMinimize: Iter:  12  F: -563.4003775612737854  |grad|_K:  8.500e-06  alpha:  1.922e-01  linmin: -2.748e-05  cgtest: -1.637e-03  t[s]:   2155.28
	FillingsUpdate:  mu: -0.296926337  nElectrons: 342.000000
LCAOMinimize: Iter:  13  F: -563.4003785590265352  |grad|_K:  3.466e-06  alpha:  2.648e-01  linmin:  1.058e-04  cgtest:  2.563e-04  t[s]:   2297.84
	FillingsUpdate:  mu: -0.296944553  nElectrons: 342.000000
LCAOMinimize: Iter:  14  F: -563.4003786608840301  |grad|_K:  1.624e-06  alpha:  1.623e-01  linmin: -2.135e-04  cgtest:  1.999e-03  t[s]:   2440.44
LCAOMinimize: Converged (|Delta F|<1.000000e-06 for 2 iters).


---- Citations for features of the code used in this run ----

   Software package:
      R. Sundararaman, K. Letchworth-Weaver, K.A. Schwarz, D. Gunceler, Y. Ozhabes and T.A. Arias, 'JDFTx: software for joint density-functional theory', SoftwareX 6, 278 (2017)

   gga-PBE exchange-correlation functional:
      J.P. Perdew, K. Burke and M. Ernzerhof, Phys. Rev. Lett. 77, 3865 (1996)

   Pseudopotentials:
      KF Garrity, JW Bennett, KM Rabe and D Vanderbilt, Comput. Mater. Sci. 81, 446 (2014)

   Truncated Coulomb potentials:
      R. Sundararaman and T.A. Arias, Phys. Rev. B 87, 165122 (2013)

This list may not be complete. Please suggest additional citations or
report any other bugs at https://github.com/shankar1729/jdftx/issues

Initialization completed successfully at t[s]:   2540.82


-------- Electronic minimization -----------
Will mix electronic density at each iteration.
	FillingsUpdate:  mu: -0.296944553  nElectrons: 342.000000
	FillingsUpdate:  mu: -0.308226359  nElectrons: 342.000000
SCF: Cycle:  0   F: -567.022877345968482   dF: -3.622e+00   |Residual|: 9.674e-01   |deigs|: 1.222e-01  t[s]:   3289.94
	FillingsUpdate:  mu: -0.282141583  nElectrons: 342.000000
SCF: Cycle:  1   F: -567.613911911919104   dF: -5.910e-01   |Residual|: 4.899e-01   |deigs|: 3.317e-02  t[s]:   3966.56
	FillingsUpdate:  mu: -0.249780695  nElectrons: 342.000000
SCF: Cycle:  2   F: -567.936776288557780   dF: -3.229e-01   |Residual|: 1.143e-01   |deigs|: 3.282e-02  t[s]:   4639.03
	FillingsUpdate:  mu: -0.242167715  nElectrons: 342.000000
SCF: Cycle:  3   F: -567.981081712310129   dF: -4.431e-02   |Residual|: 7.223e-02   |deigs|: 7.548e-03  t[s]:   5314.67
	FillingsUpdate:  mu: -0.229943648  nElectrons: 342.000000
SCF: Cycle:  4   F: -568.015407238422313   dF: -3.433e-02   |Residual|: 3.802e-02   |deigs|: 1.109e-02  t[s]:   5987.81
	FillingsUpdate:  mu: -0.220899955  nElectrons: 342.000000
SCF: Cycle:  5   F: -568.026717399214590   dF: -1.131e-02   |Residual|: 2.590e-02   |deigs|: 8.200e-03  t[s]:   6664.27
	FillingsUpdate:  mu: -0.214847481  nElectrons: 342.000000
SCF: Cycle:  6   F: -568.031650128536171   dF: -4.933e-03   |Residual|: 1.854e-02   |deigs|: 5.529e-03  t[s]:   7327.09
	FillingsUpdate:  mu: -0.208291229  nElectrons: 342.000000
SCF: Cycle:  7   F: -568.034137338225605   dF: -2.487e-03   |Residual|: 1.253e-02   |deigs|: 6.602e-03  t[s]:   7945.61
	FillingsUpdate:  mu: -0.204451539  nElectrons: 342.000000
SCF: Cycle:  8   F: -568.035409533927350   dF: -1.272e-03   |Residual|: 1.044e-02   |deigs|: 3.600e-03  t[s]:   8525.67
	FillingsUpdate:  mu: -0.200565146  nElectrons: 342.000000
SCF: Cycle:  9   F: -568.037147258064465   dF: -1.738e-03   |Residual|: 8.611e-03   |deigs|: 3.500e-03  t[s]:   9144.10
	FillingsUpdate:  mu: -0.197516814  nElectrons: 342.000000
SCF: Cycle: 10   F: -568.038242035166263   dF: -1.095e-03   |Residual|: 7.144e-03   |deigs|: 2.653e-03  t[s]:   9719.15
	FillingsUpdate:  mu: -0.193862913  nElectrons: 342.000000
SCF: Cycle: 11   F: -568.038961578916769   dF: -7.195e-04   |Residual|: 5.810e-03   |deigs|: 2.949e-03  t[s]:  10301.51
	FillingsUpdate:  mu: -0.191162821  nElectrons: 342.000000
SCF: Cycle: 12   F: -568.039166990348235   dF: -2.054e-04   |Residual|: 4.997e-03   |deigs|: 2.313e-03  t[s]:  10872.61
	FillingsUpdate:  mu: -0.187706806  nElectrons: 342.000000
SCF: Cycle: 13   F: -568.039160722862107   dF: +6.267e-06   |Residual|: 3.890e-03   |deigs|: 3.106e-03  t[s]:  11440.51
	FillingsUpdate:  mu: -0.184657161  nElectrons: 342.000000
SCF: Cycle: 14   F: -568.039099942133134   dF: +6.078e-05   |Residual|: 3.453e-03   |deigs|: 3.125e-03  t[s]:  12008.93
	FillingsUpdate:  mu: -0.179832761  nElectrons: 342.000000
SCF: Cycle: 15   F: -568.039078004650264   dF: +2.194e-05   |Residual|: 2.558e-03   |deigs|: 4.589e-03  t[s]:  12577.79
	FillingsUpdate:  mu: -0.178124184  nElectrons: 342.000000
SCF: Cycle: 16   F: -568.039151689625101   dF: -7.368e-05   |Residual|: 2.256e-03   |deigs|: 1.641e-03  t[s]:  13145.42
	FillingsUpdate:  mu: -0.176253975  nElectrons: 342.000000
SCF: Cycle: 17   F: -568.039228156062450   dF: -7.647e-05   |Residual|: 1.868e-03   |deigs|: 1.923e-03  t[s]:  13713.74
	FillingsUpdate:  mu: -0.173750972  nElectrons: 342.000000
SCF: Cycle: 18   F: -568.039284544015800   dF: -5.639e-05   |Residual|: 1.696e-03   |deigs|: 2.598e-03  t[s]:  14280.83
	FillingsUpdate:  mu: -0.173048533  nElectrons: 342.000000
SCF: Cycle: 19   F: -568.039304317158098   dF: -1.977e-05   |Residual|: 1.372e-03   |deigs|: 9.213e-04  t[s]:  14848.17
	FillingsUpdate:  mu: -0.172088489  nElectrons: 342.000000
SCF: Cycle: 20   F: -568.039321876270037   dF: -1.756e-05   |Residual|: 9.873e-04   |deigs|: 1.041e-03  t[s]:  15412.58
	FillingsUpdate:  mu: -0.171477843  nElectrons: 342.000000
SCF: Cycle: 21   F: -568.039325587243184   dF: -3.711e-06   |Residual|: 6.172e-04   |deigs|: 1.103e-03  t[s]:  15976.39
	FillingsUpdate:  mu: -0.171468027  nElectrons: 342.000000
SCF: Cycle: 22   F: -568.039326608159172   dF: -1.021e-06   |Residual|: 4.594e-04   |deigs|: 4.899e-04  t[s]:  16545.43
	FillingsUpdate:  mu: -0.171125057  nElectrons: 342.000000
SCF: Cycle: 23   F: -568.039327382005013   dF: -7.738e-07   |Residual|: 3.054e-04   |deigs|: 1.046e-03  t[s]:  17113.71
	FillingsUpdate:  mu: -0.170889603  nElectrons: 342.000000
SCF: Cycle: 24   F: -568.039327833151333   dF: -4.511e-07   |Residual|: 1.962e-04   |deigs|: 3.327e-04  t[s]:  17683.75
	FillingsUpdate:  mu: -0.170878882  nElectrons: 342.000000
SCF: Cycle: 25   F: -568.039328229046191   dF: -3.959e-07   |Residual|: 1.274e-04   |deigs|: 2.175e-04  t[s]:  18251.88
	FillingsUpdate:  mu: -0.170875023  nElectrons: 342.000000
SCF: Cycle: 26   F: -568.039328357425006   dF: -1.284e-07   |Residual|: 8.365e-05   |deigs|: 1.980e-04  t[s]:  18816.96
	FillingsUpdate:  mu: -0.170855304  nElectrons: 342.000000
SCF: Cycle: 27   F: -568.039328382640292   dF: -2.522e-08   |Residual|: 6.392e-05   |deigs|: 2.001e-04  t[s]:  19384.88
	FillingsUpdate:  mu: -0.170854184  nElectrons: 342.000000
SCF: Cycle: 28   F: -568.039328409974701   dF: -2.733e-08   |Residual|: 3.725e-05   |deigs|: 2.758e-04  t[s]:  20044.04
	FillingsUpdate:  mu: -0.170852417  nElectrons: 342.000000
SCF: Cycle: 29   F: -568.039328415903015   dF: -5.928e-09   |Residual|: 2.965e-05   |deigs|: 1.378e-04  t[s]:  20610.88
	FillingsUpdate:  mu: -0.170845808  nElectrons: 342.000000
SCF: Cycle: 30   F: -568.039328426425982   dF: -1.052e-08   |Residual|: 2.108e-05   |deigs|: 1.260e-04  t[s]:  21245.31
	FillingsUpdate:  mu: -0.170833043  nElectrons: 342.000000
SCF: Cycle: 31   F: -568.039328433428864   dF: -7.003e-09   |Residual|: 1.573e-05   |deigs|: 2.125e-04  t[s]:  21817.95
	FillingsUpdate:  mu: -0.170829639  nElectrons: 342.000000
SCF: Cycle: 32   F: -568.039328439168457   dF: -5.740e-09   |Residual|: 1.155e-05   |deigs|: 1.365e-04  t[s]:  22385.52
SCF: Converged (|Delta E|<1.000000e-08 for 2 iters).

Setting wave functions to eigenvectors of Hamiltonian

# Ionic positions in cartesian coordinates:
ion C  28.005800489730003   0.000000000000000  18.897299999999998 1
ion C  16.336715849999997  20.211444698219999  18.897299999999998 1
ion C   2.333816549999999   4.042289317590000  18.897299999999998 1
ion C  23.338167389730000   0.000000000000000  18.897299999999998 1
ion C   4.667633100000000   0.000000000000000  18.897299999999998 1
ion C  11.669082749999999  20.211444698219999  18.897299999999998 1
ion C  25.671983939729994   4.042289317590000  18.897299999999998 1
ion C  18.670532399999995  16.169155380629999  18.897299999999998 1
ion C   4.667633099999999   8.084578635180000  18.897299999999998 1
ion C  18.670532399999999   0.000000000000000  18.897299999999998 1
ion C   9.335266200000000   0.000000000000000  18.897299999999998 1
ion C   9.335266199999996  16.169155380629999  18.897299999999998 1
ion C  23.338167389730000   8.084578635180000  18.897299999999998 1
ion C  21.004348950000001  12.126867952769999  18.897299999999998 1
ion C   7.001449650000001  12.126867952769999  18.897299999999998 1
ion C  14.002899299999999   0.000000000000000  18.897299999999998 1
ion C  14.002899299999999  16.169155380629999  18.897299999999998 1
ion C   7.001449650000000   4.042289317590000  18.897299999999998 1
ion C  21.004348950000001   4.042289317590000  18.897299999999998 1
ion C  16.336715849999997  12.126867952769999  18.897299999999998 1
ion C   9.335266200000000   8.084578635180000  18.897299999999998 1
ion C  16.336715849999994   4.042289317590000  18.897299999999998 1
ion C  11.669082750000001   4.042289317590000  18.897299999999998 1
ion C  11.669082749999998  12.126867952769999  18.897299999999998 1
ion C  18.670532399999999   8.084578635180000  18.897299999999998 1
ion C   7.001449650000000  20.211444698219999  18.897299999999998 1
ion C  -7.001449650000000  20.211444698219999  18.897299999999998 1
ion C   0.000000000000000   8.084578635180000  18.897299999999998 1
ion C  14.002899299999999   8.084578635180000  18.897299999999998 1
ion C   2.333816550000000  20.211444698219999  18.897299999999998 1
ion C  -4.667633100000001  16.169155380629999  18.897299999999998 1
ion C   2.333816549999999  12.126867952769999  18.897299999999998 1
ion C  -2.333816549999999  12.126867952769999  18.897299999999998 1
ion C  -2.333816550000000  20.211444698219999  18.897299999999998 1
ion C   4.667633099999998  16.169155380629999  18.897299999999998 1
ion C   0.000000000000000  16.169155380629999  18.897299999999998 1
ion C  14.002887961620001  21.558880769849999  18.897299999999998 1
ion C   2.333816550000000   1.347415284600000  18.897299999999998 1
ion C  25.671995278109993   1.347436071630000  18.897299999999998 1
ion C  16.336704511619999  17.516593341989999  18.897299999999998 1
ion C   4.667633099999999   5.389704602190000  18.897299999999998 1
ion C  21.004362178109997   1.347436071630000  18.897299999999998 1
ion C   7.001438311619999   1.347436071630000  18.897299999999998 1
ion C  11.669094088380000  17.516593341989999  18.897299999999998 1
ion C  23.338167389730000   5.389704602190000  18.897299999999998 1
ion C  18.670521061620004  13.474304024399999  18.897299999999998 1
ion C   7.001449650000000   9.431993919780000  18.897299999999998 1
ion C  16.336729078110000   1.347436071630000  18.897299999999998 1
ion C  11.669071411620001   1.347436071630000  18.897299999999998 1
ion C   9.335277538380002  13.474304024399999  18.897299999999998 1
ion C  21.004350839729998   9.431993919780000  18.897299999999998 1
ion C   9.335254861620001  21.558880769849999  18.897299999999998 1
ion C  -9.335266200000000  21.558861872550001  18.897299999999998 1
ion C   0.000011338380000   5.389725389220000  18.897299999999998 1
ion C  14.002887961620001  13.474304024399999  18.897299999999998 1
ion C   9.335266200000000   5.389704602190000  18.897299999999998 1
ion C  18.670545628110006   5.389725389220000  18.897299999999998 1
ion C  16.336704511619999   9.432014706810000  18.897299999999998 1
ion C  11.669082749999998   9.431993919780000  18.897299999999998 1
ion C  14.002912528110002   5.389725389220000  18.897299999999998 1
ion C   4.667621761620001  21.558880769849999  18.897299999999998 1
ion C  -7.001449650000000  17.516572554960000  18.897299999999998 1
ion C   2.333827888380001   9.432014706810000  18.897299999999998 1
ion C  -2.333827888379999   9.432014706810000  18.897299999999998 1
ion C  -4.667621761619999  21.558880769849999  18.897299999999998 1
ion C   7.001449650000001  17.516572554960000  18.897299999999998 1
ion C  -0.000011338380000  21.558880769849999  18.897299999999998 1
ion C  -4.667633099999998  13.474283237369997  18.897299999999998 1
ion C   4.667644438379999  13.474304024399999  18.897299999999998 1
ion C   2.333805211620000  17.516593341989999  18.897299999999998 1
ion C  -2.333816549999999  17.516572554960000  18.897299999999998 1
ion C   0.000011338380001  13.474304024399999  18.897299999999998 1
ion S   3.921331479749998  14.782809768299998  26.798176092150001 1
ion S   7.567480476899998  13.941020091150000  26.341277172750001 1
ion S   8.668781105760001  14.471149827509999  22.702244898779998 1
ion S   6.502139520210000   8.005535008739999  22.969411146719999 1
ion S   7.556913106740001   8.846158722479998  26.563144702860001 1
ion S  11.194673592419999   8.036226113669999  27.138476780820000 1
ion Na   3.832890226020001  12.440438410589998  22.242254381100000 1
ion Na  11.349661688100003   9.995736283650000  22.410264606209999 1

# Forces in Cartesian coordinates:
force C  -0.001172526105425   0.000793211679190  -0.000004938234873 1
force C  -0.001095286156286   0.000469768552053  -0.000008217917243 1
force C  -0.000026244472026   0.000861921715819  -0.000241442834341 1
force C  -0.000330899190074  -0.001580639707766   0.000000944115996 1
force C  -0.001722000717449  -0.000424733960834   0.000151671150215 1
force C  -0.000978296069869  -0.000384292377744   0.000147485680708 1
force C   0.000030531353546   0.000639797281728  -0.000101566777440 1
force C   0.000606918794323  -0.000556586059600  -0.000040070026699 1
force C  -0.012477122643189  -0.004857755755441  -0.021445277793811 1
force C   0.000349330591016   0.000168644325869   0.000026979124178 1
force C   0.001370954299417  -0.000309779426335   0.000086947250465 1
force C   0.005203682332026   0.016191829888043  -0.022718331944990 1
force C  -0.000249105742909  -0.001413050154070   0.000028721526542 1
force C  -0.000734160410040  -0.001466140800853  -0.000071068271678 1
force C  -0.014596910578011  -0.004390385809054  -0.031643907231288 1
force C   0.000317659838579   0.000855107160560   0.000010856413887 1
force C  -0.000165830247801   0.003300440986445   0.000208582432119 1
force C   0.000326455965279  -0.005370650009681  -0.003843207831493 1
force C  -0.000101523437402  -0.000586271160013   0.000029687964912 1
force C   0.000852029937240  -0.000541367354120   0.000130636104414 1
force C   0.012911923754603  -0.010514636184867  -0.026958368611814 1
force C   0.000139149989744   0.000168654394966  -0.000121071616404 1
force C  -0.001581602943421   0.001612319607267  -0.000350580398482 1
force C   0.010491723910783   0.011722204157194  -0.033406621341053 1
force C  -0.000000629790420  -0.001011492239407  -0.000007071144448 1
force C  -0.000669767154992  -0.004843905494870  -0.000705171597344 1
force C  -0.000545099784121  -0.000098242409595   0.000000673669522 1
force C  -0.000794890287095   0.000088728897733   0.000600390247465 1
force C   0.002560235559731  -0.002943291887692  -0.002034946858414 1
force C   0.000906996046158   0.000868882040172   0.000096288341530 1
force C   0.000199891685041  -0.001420073507140  -0.000025996403214 1
force C  -0.024060652099456  -0.005232552608146  -0.063654071400342 1
force C  -0.000997254997232  -0.001718305056307   0.000337855897407 1
force C   0.000859242692342   0.000824291156974  -0.000046111645009 1
force C  -0.001323493179319   0.004403005347056  -0.003895535705227 1
force C  -0.001775052459038   0.001729183285916  -0.000057433072785 1
force C   0.001105967695544  -0.001145943218252   0.000015394336281 1
force C   0.001508076412513  -0.000436602329624   0.000202527396784 1
force C   0.001344688953277  -0.000468756600542  -0.000002362425996 1
force C  -0.001491287746263  -0.000612201514993  -0.000067970434953 1
force C  -0.001746515153168  -0.004692756191706  -0.007495156757073 1
force C  -0.000442749069919   0.000211368816664  -0.000018657399780 1
force C   0.000436296174953   0.004160327432314  -0.000335525603279 1
force C   0.004960867648269   0.000654445974607  -0.004327723657695 1
force C   0.000343196364134   0.000876934489362  -0.000015084760511 1
force C   0.000577748934432   0.000996279096472   0.000087955904837 1
force C   0.002062151291445   0.011568295719036  -0.018934893019739 1
force C  -0.000664749435660  -0.000246675375619  -0.000060675942225 1
force C  -0.000642563037316  -0.001481825368277   0.000210487737032 1
force C   0.009256086632032  -0.010532969809199  -0.029926647741177 1
force C  -0.000036753594534   0.001276862418380  -0.000040817598090 1
force C   0.001638359341725   0.001744906268376   0.000399758776584 1
force C   0.000636935832365   0.000176009771521   0.000007445120830 1
force C   0.000233776546911  -0.000800457620037   0.000229565461727 1
force C  -0.001728756493061  -0.001373999513775  -0.000502687724167 1
force C   0.004904915838319  -0.000398203076540  -0.006737639910812 1
force C  -0.000044191790058   0.000366124032622  -0.000067424456657 1
force C   0.002064331370596   0.001261066752904   0.000126808222326 1
force C   0.001465655300912  -0.014803448542584  -0.086504100360363 1
force C   0.000113041234431  -0.001796905283086   0.000555836167299 1
force C  -0.001403061110189  -0.000638097262988   0.000294071574346 1
force C  -0.000764794296009   0.000562200968254   0.000013426619489 1
force C  -0.002944280172135  -0.002440467092258  -0.006511906365197 1
force C   0.000429623045201   0.000584750353021  -0.000192836731255 1
force C   0.000150492299783   0.000653443032468  -0.000013922939337 1
force C  -0.006791705605915   0.007994203103724  -0.011928462727893 1
force C  -0.000795371999738  -0.001042443553352  -0.000032369922623 1
force C   0.000670794139584   0.001877561340472  -0.000043973157907 1
force C   0.016723597491452   0.017175240426665  -0.083130615666820 1
force C   0.001464741309307   0.000483353283509  -0.000199423921039 1
force C   0.000728417064662  -0.000523733199881   0.000022374172538 1
force C  -0.001224407800694   0.000879739174771  -0.000617427336042 1
force S   0.000679676919855  -0.000003106670391   0.001202625511022 1
force S  -0.004479449304037   0.006923002989663   0.025682934960397 1
force S   0.004055428071636   0.003760958133514   0.084131609471039 1
force S  -0.008191233424377   0.003555560659393   0.072851199349334 1
force S   0.002956721444187  -0.008980958552088   0.012431718892390 1
force S   0.000125425638811  -0.001053646768169   0.002452259137348 1
force Na   0.001287321442731  -0.013871124316359   0.147383072989036 1
force Na  -0.000271302771091   0.004559526758175   0.117711473963890 1

# Energy components:
   Eewald =    -1504.1596750038661412
       EH =    -1073.7927931241777060
     Eloc =     1965.4316063270723589
      Enl =      -75.2873469959815793
      Exc =     -170.7165148037066444
 Exc_core =       13.0310482970312194
       KE =      277.5306830334212123
-------------------------------------
     Etot =     -567.9629922702069962
       TS =        0.0763361689614488
-------------------------------------
        F =     -568.0393284391684574

IonicMinimize: Iter:   0  F: -568.039328439168457  |grad|_K:  1.785e-02  alpha:  1.000e+00

#--- Lowdin population analysis ---
# oxidation-state C +0.044 +0.042 +0.042 +0.043 +0.044 +0.045 +0.043 +0.043 +0.023 +0.044 +0.045 +0.035 +0.042 +0.043 +0.019 +0.045 +0.038 +0.043 +0.042 +0.031 +0.009 +0.043 +0.041 -0.031 +0.040 +0.043 +0.043 +0.041 +0.007 +0.044 +0.044 -0.056 +0.039 +0.043 +0.023 +0.034 +0.045 +0.046 +0.045 +0.045 +0.048 +0.045 +0.045 +0.046 +0.044 +0.042 +0.030 +0.044 +0.045 +0.029 +0.044 +0.045 +0.044 +0.044 +0.028 +0.040 +0.044 +0.030 -0.068 +0.038 +0.046 +0.043 +0.006 +0.040 +0.044 +0.054 +0.046 +0.042 -0.055 +0.039 +0.043 +0.023
# oxidation-state S -0.318 +0.325 -0.186 -0.239 +0.357 -0.331
# oxidation-state Na +0.740 +0.750


-------- Electronic minimization -----------
Will mix electronic density at each iteration.
	FillingsUpdate:  mu: -0.170829639  nElectrons: 342.000000
	FillingsUpdate:  mu: -0.158778082  nElectrons: 342.000000
SCF: Cycle:  0   F: -567.668761311737967   dF: +2.988e-02   |Residual|: 3.330e-01   |deigs|: 4.519e-03  t[s]:  23444.24
	FillingsUpdate:  mu: -0.160050802  nElectrons: 342.000000
SCF: Cycle:  1   F: -568.047471563272666   dF: -3.787e-01   |Residual|: 1.429e-01   |deigs|: 3.668e-03  t[s]:  24116.81
	FillingsUpdate:  mu: -0.161210634  nElectrons: 342.000000
SCF: Cycle:  2   F: -568.078945974564022   dF: -3.147e-02   |Residual|: 4.715e-02   |deigs|: 1.663e-03  t[s]:  24788.66
	FillingsUpdate:  mu: -0.162049482  nElectrons: 342.000000
SCF: Cycle:  3   F: -568.083090539312252   dF: -4.145e-03   |Residual|: 1.764e-02   |deigs|: 1.058e-03  t[s]:  25466.20
	FillingsUpdate:  mu: -0.162761021  nElectrons: 342.000000
SCF: Cycle:  4   F: -568.083732010706512   dF: -6.415e-04   |Residual|: 6.346e-03   |deigs|: 7.874e-04  t[s]:  26143.64
	FillingsUpdate:  mu: -0.163413550  nElectrons: 342.000000
SCF: Cycle:  5   F: -568.084136862649530   dF: -4.049e-04   |Residual|: 3.525e-03   |deigs|: 7.074e-04  t[s]:  26710.31
	FillingsUpdate:  mu: -0.164141479  nElectrons: 342.000000
SCF: Cycle:  6   F: -568.084317615125087   dF: -1.808e-04   |Residual|: 2.372e-03   |deigs|: 8.517e-04  t[s]:  27280.72
	FillingsUpdate:  mu: -0.164872234  nElectrons: 342.000000
SCF: Cycle:  7   F: -568.084440096430626   dF: -1.225e-04   |Residual|: 1.882e-03   |deigs|: 9.514e-04  t[s]:  27851.32
	FillingsUpdate:  mu: -0.165540121  nElectrons: 342.000000
SCF: Cycle:  8   F: -568.084485747367808   dF: -4.565e-05   |Residual|: 1.470e-03   |deigs|: 1.023e-03  t[s]:  28421.97
	FillingsUpdate:  mu: -0.166156374  nElectrons: 342.000000
SCF: Cycle:  9   F: -568.084499654941396   dF: -1.391e-05   |Residual|: 1.147e-03   |deigs|: 1.105e-03  t[s]:  28991.75
	FillingsUpdate:  mu: -0.166837635  nElectrons: 342.000000
SCF: Cycle: 10   F: -568.084501741434110   dF: -2.086e-06   |Residual|: 9.538e-04   |deigs|: 1.255e-03  t[s]:  29558.13
	FillingsUpdate:  mu: -0.167594326  nElectrons: 342.000000
SCF: Cycle: 11   F: -568.084502547570651   dF: -8.061e-07   |Residual|: 7.712e-04   |deigs|: 1.245e-03  t[s]:  30125.08
	FillingsUpdate:  mu: -0.168203718  nElectrons: 342.000000
SCF: Cycle: 12   F: -568.084503258437621   dF: -7.109e-07   |Residual|: 6.703e-04   |deigs|: 7.123e-04  t[s]:  30693.50
	FillingsUpdate:  mu: -0.168824361  nElectrons: 342.000000
SCF: Cycle: 13   F: -568.084505090040466   dF: -1.832e-06   |Residual|: 5.371e-04   |deigs|: 5.621e-04  t[s]:  31261.59
	FillingsUpdate:  mu: -0.169396965  nElectrons: 342.000000
SCF: Cycle: 14   F: -568.084506668667814   dF: -1.579e-06   |Residual|: 4.557e-04   |deigs|: 7.462e-04  t[s]:  31828.15
	FillingsUpdate:  mu: -0.169923384  nElectrons: 342.000000
SCF: Cycle: 15   F: -568.084507852763750   dF: -1.184e-06   |Residual|: 3.586e-04   |deigs|: 5.601e-04  t[s]:  32397.28
	FillingsUpdate:  mu: -0.170326581  nElectrons: 342.000000
SCF: Cycle: 16   F: -568.084508323652130   dF: -4.709e-07   |Residual|: 2.598e-04   |deigs|: 4.320e-04  t[s]:  32963.26
	FillingsUpdate:  mu: -0.170547736  nElectrons: 342.000000
SCF: Cycle: 17   F: -568.084508580574948   dF: -2.569e-07   |Residual|: 1.955e-04   |deigs|: 3.548e-04  t[s]:  33531.53
	FillingsUpdate:  mu: -0.170681870  nElectrons: 342.000000
SCF: Cycle: 18   F: -568.084508742027310   dF: -1.615e-07   |Residual|: 1.271e-04   |deigs|: 1.788e-04  t[s]:  34099.34
	FillingsUpdate:  mu: -0.170719665  nElectrons: 342.000000
SCF: Cycle: 19   F: -568.084508861022869   dF: -1.190e-07   |Residual|: 8.152e-05   |deigs|: 2.158e-04  t[s]:  34665.23
	FillingsUpdate:  mu: -0.170744719  nElectrons: 342.000000
SCF: Cycle: 20   F: -568.084508941454942   dF: -8.043e-08   |Residual|: 5.334e-05   |deigs|: 2.121e-04  t[s]:  35230.61
	FillingsUpdate:  mu: -0.170743327  nElectrons: 342.000000
SCF: Cycle: 21   F: -568.084508965959571   dF: -2.450e-08   |Residual|: 3.565e-05   |deigs|: 2.198e-04  t[s]:  35796.69
	FillingsUpdate:  mu: -0.170752767  nElectrons: 342.000000
SCF: Cycle: 22   F: -568.084508980901774   dF: -1.494e-08   |Residual|: 2.356e-05   |deigs|: 9.391e-05  t[s]:  36364.80
	FillingsUpdate:  mu: -0.170760030  nElectrons: 342.000000
SCF: Cycle: 23   F: -568.084508992519318   dF: -1.162e-08   |Residual|: 1.599e-05   |deigs|: 6.916e-05  t[s]:  36932.97
	FillingsUpdate:  mu: -0.170764889  nElectrons: 342.000000
SCF: Cycle: 24   F: -568.084508999263448   dF: -6.744e-09   |Residual|: 1.064e-05   |deigs|: 1.056e-04  t[s]:  37500.65
	FillingsUpdate:  mu: -0.170771135  nElectrons: 342.000000
SCF: Cycle: 25   F: -568.084509000650655   dF: -1.387e-09   |Residual|: 6.980e-06   |deigs|: 5.351e-05  t[s]:  38065.35
SCF: Converged (|Delta E|<1.000000e-08 for 2 iters).

Setting wave functions to eigenvectors of Hamiltonian
IonicMinimize: 	Predicted alpha/alphaT>3.000000, increasing alphaT to 2.026272e+00.

-------- Electronic minimization -----------
Will mix electronic density at each iteration.
	FillingsUpdate:  mu: -0.170771135  nElectrons: 342.000000
	FillingsUpdate:  mu: -0.144082600  nElectrons: 342.000000
SCF: Cycle:  0   F: -566.588632384780453   dF: -4.139e-02   |Residual|: 7.115e-01   |deigs|: 1.748e-02  t[s]:  38989.72
	FillingsUpdate:  mu: -0.148151508  nElectrons: 342.000000
SCF: Cycle:  1   F: -567.969586341669128   dF: -1.381e+00   |Residual|: 2.974e-01   |deigs|: 9.786e-03  t[s]:  39665.90
	FillingsUpdate:  mu: -0.150534019  nElectrons: 342.000000
SCF: Cycle:  2   F: -568.120612392323665   dF: -1.510e-01   |Residual|: 9.194e-02   |deigs|: 3.277e-03  t[s]:  40346.18
	FillingsUpdate:  mu: -0.152189904  nElectrons: 342.000000
SCF: Cycle:  3   F: -568.135486922529594   dF: -1.487e-02   |Residual|: 3.554e-02   |deigs|: 2.107e-03  t[s]:  41017.82
	FillingsUpdate:  mu: -0.153699221  nElectrons: 342.000000
SCF: Cycle:  4   F: -568.138782918915354   dF: -3.296e-03   |Residual|: 1.380e-02   |deigs|: 1.751e-03  t[s]:  41694.86
	FillingsUpdate:  mu: -0.155133965  nElectrons: 342.000000
SCF: Cycle:  5   F: -568.140638846402339   dF: -1.856e-03   |Residual|: 7.380e-03   |deigs|: 1.482e-03  t[s]:  42282.41
	FillingsUpdate:  mu: -0.156435630  nElectrons: 342.000000
SCF: Cycle:  6   F: -568.141338170768108   dF: -6.993e-04   |Residual|: 5.294e-03   |deigs|: 1.391e-03  t[s]:  42862.77
	FillingsUpdate:  mu: -0.158227567  nElectrons: 342.000000
SCF: Cycle:  7   F: -568.141944302731758   dF: -6.061e-04   |Residual|: 4.032e-03   |deigs|: 2.025e-03  t[s]:  43445.08
	FillingsUpdate:  mu: -0.159732350  nElectrons: 342.000000
SCF: Cycle:  8   F: -568.142148776848217   dF: -2.045e-04   |Residual|: 3.017e-03   |deigs|: 1.913e-03  t[s]:  44013.84
	FillingsUpdate:  mu: -0.161036887  nElectrons: 342.000000
SCF: Cycle:  9   F: -568.142199577087126   dF: -5.080e-05   |Residual|: 2.359e-03   |deigs|: 1.803e-03  t[s]:  44583.60
	FillingsUpdate:  mu: -0.162215566  nElectrons: 342.000000
SCF: Cycle: 10   F: -568.142205915455406   dF: -6.338e-06   |Residual|: 1.966e-03   |deigs|: 1.667e-03  t[s]:  45151.52
	FillingsUpdate:  mu: -0.163744840  nElectrons: 342.000000
SCF: Cycle: 11   F: -568.142207418096632   dF: -1.503e-06   |Residual|: 1.614e-03   |deigs|: 1.954e-03  t[s]:  45725.45
	FillingsUpdate:  mu: -0.165136396  nElectrons: 342.000000
SCF: Cycle: 12   F: -568.142211652776723   dF: -4.235e-06   |Residual|: 1.406e-03   |deigs|: 1.473e-03  t[s]:  46300.81
	FillingsUpdate:  mu: -0.166578378  nElectrons: 342.000000
SCF: Cycle: 13   F: -568.142218544832076   dF: -6.892e-06   |Residual|: 1.103e-03   |deigs|: 1.216e-03  t[s]:  46869.49
	FillingsUpdate:  mu: -0.167789425  nElectrons: 342.000000
SCF: Cycle: 14   F: -568.142225700232643   dF: -7.155e-06   |Residual|: 9.325e-04   |deigs|: 1.060e-03  t[s]:  47438.65
	FillingsUpdate:  mu: -0.168898469  nElectrons: 342.000000
SCF: Cycle: 15   F: -568.142230245665928   dF: -4.545e-06   |Residual|: 7.233e-04   |deigs|: 1.100e-03  t[s]:  48007.24
	FillingsUpdate:  mu: -0.169521304  nElectrons: 342.000000
SCF: Cycle: 16   F: -568.142232202372156   dF: -1.957e-06   |Residual|: 5.701e-04   |deigs|: 6.482e-04  t[s]:  48570.78
	FillingsUpdate:  mu: -0.170106766  nElectrons: 342.000000
SCF: Cycle: 17   F: -568.142232981455663   dF: -7.791e-07   |Residual|: 3.905e-04   |deigs|: 6.898e-04  t[s]:  49137.29
	FillingsUpdate:  mu: -0.170331739  nElectrons: 342.000000
SCF: Cycle: 18   F: -568.142233352472886   dF: -3.710e-07   |Residual|: 2.715e-04   |deigs|: 2.250e-04  t[s]:  49702.35
	FillingsUpdate:  mu: -0.170424907  nElectrons: 342.000000
SCF: Cycle: 19   F: -568.142233922839068   dF: -5.704e-07   |Residual|: 1.881e-04   |deigs|: 3.122e-04  t[s]:  50266.99
	FillingsUpdate:  mu: -0.170473427  nElectrons: 342.000000
SCF: Cycle: 20   F: -568.142234363313150   dF: -4.405e-07   |Residual|: 1.024e-04   |deigs|: 3.358e-04  t[s]:  50831.41
	FillingsUpdate:  mu: -0.170487199  nElectrons: 342.000000
SCF: Cycle: 21   F: -568.142234472544715   dF: -1.092e-07   |Residual|: 7.646e-05   |deigs|: 2.031e-04  t[s]:  51401.97
	FillingsUpdate:  mu: -0.170530256  nElectrons: 342.000000
SCF: Cycle: 22   F: -568.142234545184010   dF: -7.264e-08   |Residual|: 4.713e-05   |deigs|: 1.533e-04  t[s]:  51971.07
	FillingsUpdate:  mu: -0.170542681  nElectrons: 342.000000
SCF: Cycle: 23   F: -568.142234569033121   dF: -2.385e-08   |Residual|: 3.403e-05   |deigs|: 1.224e-04  t[s]:  52542.13
	FillingsUpdate:  mu: -0.170543402  nElectrons: 342.000000
SCF: Cycle: 24   F: -568.142234583399613   dF: -1.437e-08   |Residual|: 2.227e-05   |deigs|: 1.298e-04  t[s]:  53111.43
	FillingsUpdate:  mu: -0.170547927  nElectrons: 342.000000
SCF: Cycle: 25   F: -568.142234592752288   dF: -9.353e-09   |Residual|: 1.534e-05   |deigs|: 9.508e-05  t[s]:  53679.47
	FillingsUpdate:  mu: -0.170548121  nElectrons: 342.000000
SCF: Cycle: 26   F: -568.142234597132983   dF: -4.381e-09   |Residual|: 1.026e-05   |deigs|: 5.202e-05  t[s]:  54251.04
SCF: Converged (|Delta E|<1.000000e-08 for 2 iters).

Setting wave functions to eigenvectors of Hamiltonian

-------- Electronic minimization -----------
Will mix electronic density at each iteration.
	FillingsUpdate:  mu: -0.170548121  nElectrons: 342.000000
	FillingsUpdate:  mu: -0.151143577  nElectrons: 342.000000
SCF: Cycle:  0   F: -567.350372624851616   dF: -1.875e-02   |Residual|: 4.930e-01   |deigs|: 9.592e-03  t[s]:  55174.90
	FillingsUpdate:  mu: -0.153549790  nElectrons: 342.000000
SCF: Cycle:  1   F: -568.068635843259926   dF: -7.183e-01   |Residual|: 2.110e-01   |deigs|: 5.961e-03  t[s]:  55850.36
	FillingsUpdate:  mu: -0.155183241  nElectrons: 342.000000
SCF: Cycle:  2   F: -568.151470417916926   dF: -8.283e-02   |Residual|: 6.544e-02   |deigs|: 2.284e-03  t[s]:  56524.92
	FillingsUpdate:  mu: -0.156389283  nElectrons: 342.000000
SCF: Cycle:  3   F: -568.159427670518880   dF: -7.957e-03   |Residual|: 2.564e-02   |deigs|: 1.554e-03  t[s]:  57195.99
	FillingsUpdate:  mu: -0.157526916  nElectrons: 342.000000
SCF: Cycle:  4   F: -568.161213330123701   dF: -1.786e-03   |Residual|: 9.935e-03   |deigs|: 1.337e-03  t[s]:  57879.80
	FillingsUpdate:  mu: -0.158611268  nElectrons: 342.000000
SCF: Cycle:  5   F: -568.162145161056060   dF: -9.318e-04   |Residual|: 5.384e-03   |deigs|: 1.140e-03  t[s]:  58449.88
	FillingsUpdate:  mu: -0.159620960  nElectrons: 342.000000
SCF: Cycle:  6   F: -568.162503088780795   dF: -3.579e-04   |Residual|: 3.818e-03   |deigs|: 1.112e-03  t[s]:  59015.23
	FillingsUpdate:  mu: -0.160887536  nElectrons: 342.000000
SCF: Cycle:  7   F: -568.162781694690580   dF: -2.786e-04   |Residual|: 2.958e-03   |deigs|: 1.492e-03  t[s]:  59585.06
	FillingsUpdate:  mu: -0.162052942  nElectrons: 342.000000
SCF: Cycle:  8   F: -568.162888292620437   dF: -1.066e-04   |Residual|: 2.240e-03   |deigs|: 1.566e-03  t[s]:  60154.54
	FillingsUpdate:  mu: -0.163038775  nElectrons: 342.000000
SCF: Cycle:  9   F: -568.162910011025360   dF: -2.172e-05   |Residual|: 1.764e-03   |deigs|: 1.481e-03  t[s]:  60726.42
	FillingsUpdate:  mu: -0.164037644  nElectrons: 342.000000
SCF: Cycle: 10   F: -568.162911900721042   dF: -1.890e-06   |Residual|: 1.456e-03   |deigs|: 1.535e-03  t[s]:  61293.69
	FillingsUpdate:  mu: -0.165231429  nElectrons: 342.000000
SCF: Cycle: 11   F: -568.162911355697474   dF: +5.450e-07   |Residual|: 1.202e-03   |deigs|: 1.637e-03  t[s]:  61865.16
	FillingsUpdate:  mu: -0.166275892  nElectrons: 342.000000
SCF: Cycle: 12   F: -568.162916140484072   dF: -4.785e-06   |Residual|: 1.055e-03   |deigs|: 1.144e-03  t[s]:  62429.87
	FillingsUpdate:  mu: -0.167337764  nElectrons: 342.000000
SCF: Cycle: 13   F: -568.162920994090996   dF: -4.854e-06   |Residual|: 8.488e-04   |deigs|: 9.003e-04  t[s]:  63000.49
	FillingsUpdate:  mu: -0.168291197  nElectrons: 342.000000
SCF: Cycle: 14   F: -568.162925815260678   dF: -4.821e-06   |Residual|: 6.854e-04   |deigs|: 8.859e-04  t[s]:  63566.39
	FillingsUpdate:  mu: -0.169143527  nElectrons: 342.000000
SCF: Cycle: 15   F: -568.162928165520725   dF: -2.350e-06   |Residual|: 5.423e-04   |deigs|: 8.532e-04  t[s]:  64132.01
	FillingsUpdate:  mu: -0.169675284  nElectrons: 342.000000
SCF: Cycle: 16   F: -568.162929079462401   dF: -9.139e-07   |Residual|: 3.983e-04   |deigs|: 5.521e-04  t[s]:  64699.51
	FillingsUpdate:  mu: -0.170013116  nElectrons: 342.000000
SCF: Cycle: 17   F: -568.162929468479433   dF: -3.890e-07   |Residual|: 2.872e-04   |deigs|: 4.546e-04  t[s]:  65267.54
	FillingsUpdate:  mu: -0.170170234  nElectrons: 342.000000
SCF: Cycle: 18   F: -568.162929810794594   dF: -3.423e-07   |Residual|: 1.761e-04   |deigs|: 1.821e-04  t[s]:  65837.04
	FillingsUpdate:  mu: -0.170225055  nElectrons: 342.000000
SCF: Cycle: 19   F: -568.162929995505806   dF: -1.847e-07   |Residual|: 1.145e-04   |deigs|: 2.589e-04  t[s]:  66407.70
	FillingsUpdate:  mu: -0.170259306  nElectrons: 342.000000
SCF: Cycle: 20   F: -568.162930095765887   dF: -1.003e-07   |Residual|: 6.766e-05   |deigs|: 3.040e-04  t[s]:  66971.76
	FillingsUpdate:  mu: -0.170268945  nElectrons: 342.000000
SCF: Cycle: 21   F: -568.162930131389999   dF: -3.562e-08   |Residual|: 4.537e-05   |deigs|: 2.414e-04  t[s]:  67539.17
	FillingsUpdate:  mu: -0.170279030  nElectrons: 342.000000
SCF: Cycle: 22   F: -568.162930155611434   dF: -2.422e-08   |Residual|: 2.909e-05   |deigs|: 1.255e-04  t[s]:  68110.65
	FillingsUpdate:  mu: -0.170278419  nElectrons: 342.000000
SCF: Cycle: 23   F: -568.162930168317075   dF: -1.271e-08   |Residual|: 1.909e-05   |deigs|: 1.242e-04  t[s]:  68680.91
	FillingsUpdate:  mu: -0.170278865  nElectrons: 342.000000
SCF: Cycle: 24   F: -568.162930174747316   dF: -6.430e-09   |Residual|: 1.246e-05   |deigs|: 9.423e-05  t[s]:  69252.84
	FillingsUpdate:  mu: -0.170279170  nElectrons: 342.000000
SCF: Cycle: 25   F: -568.162930177723183   dF: -2.976e-09   |Residual|: 8.665e-06   |deigs|: 7.359e-05  t[s]:  69823.35
SCF: Converged (|Delta E|<1.000000e-08 for 2 iters).

Setting wave functions to eigenvectors of Hamiltonian

# Ionic positions in cartesian coordinates:
ion C  28.002267365150800   0.002390732118186  18.897331039678125 1
ion C  16.333415495332218  20.212860703802335  18.897321156044292 1
ion C   2.333737853825346   4.044887113919366  18.896618310639813 1
ion C  23.337170587671995  -0.004763094149580  18.897348766700297 1
ion C   4.662444081570594  -0.001279662566247  18.897802996911416 1
ion C  11.666134956051852  20.210286910199489  18.897790383602146 1
ion C  25.672076342889778   4.044217720873094  18.897039840401781 1
ion C  18.672361801371579  16.167478369260539  18.897225166691900 1
ion C   4.630032501735319   8.069939641050665  18.832718543222203 1
ion C  18.671585534893740   0.000508539171010  18.897427225666362 1
ion C   9.339398094819947  -0.000933236175354  18.897607945301729 1
ion C   9.350948384205180  16.217951308977035  18.828882073813443 1
ion C  23.337417079981524   8.080320588043060  18.897432476561118 1
ion C  21.002136882014224  12.122449911934373  18.897131750541078 1
ion C   6.957460869773487  12.113637422294959  18.801984006272690 1
ion C  14.003856992077921   0.002577260020867  18.897378638349981 1
ion C  14.002399948853077  16.179101886027048  18.897974504456343 1
ion C   7.002433850039875   4.026104667987567  18.885764050264232 1
ion C  21.004043393524455   4.040522847355398  18.897435389014792 1
ion C  16.339283917044742  12.125236804412699  18.897739605806130 1
ion C   9.374177900707405   8.052892095432597  18.816104321233777 1
ion C  16.337135585720304   4.042797887105187  18.896981060719913 1
ion C  11.664316833576599   4.047148509125746  18.896289414240723 1
ion C  11.700700948969644  12.162194240120916  18.796671900144108 1
ion C  18.670530896097411   8.081530720898778  18.897324611952861 1
ion C   6.999431637194739  20.196847443164323  18.895220820036940 1
ion C  -7.003091965860886  20.211148948904722  18.897347951684203 1
ion C  -0.002395083229321   8.084846341629913  18.899155254463164 1
ion C  14.010615206677873   8.075709059465419  18.891213416184645 1
ion C   2.336550262626430  20.214063470146854  18.897636095565467 1
ion C  -4.667030313420757  16.164876167952556  18.897267578890879 1
ion C   2.261307887248620  12.111099472782918  18.705518341013939 1
ion C  -2.336821478473637  12.121689991037735  18.898364082303043 1
ion C  -2.331226746633766  20.213929091291767  18.897206959702192 1
ion C   4.663645021827358  16.182424568284326  18.885606355254467 1
ion C  -0.005348894883596  16.174366751943573  18.897172841505974 1
ion C  14.006221294180406  21.555427674793993  18.897392313809441 1
ion C   2.338361675311102   1.346099855578924  18.897956257033162 1
ion C  25.676048019818598   1.346023742664310  18.897338802122441 1
ion C  16.332210768607858  17.514748728171678  18.897141086165821 1
ion C   4.662370204993843   5.375562849892949  18.874758555861376 1
ion C  21.003028305832316   1.348073365105598  18.897289695673685 1
ion C   7.002753525547912   1.359973926375018  18.896334783293717 1
ion C  11.684044527509482  17.518565890498223  18.884303915875165 1
ion C  23.339202038549320   5.392347640936103  18.897300462160921 1
ion C  18.672262556852623  13.477306719437120  18.897610984977327 1
ion C   7.007664532501881   9.466856389457334  18.840283825799556 1
ion C  16.334726186677784   1.346693005495660  18.897163068811395 1
ion C  11.667135381003135   1.342970763863069  18.897980246273381 1
ion C   9.363172027234203  13.442562234537087  18.807159130594474 1
ion C  21.004240473318081   9.435842179265510  18.897222913814620 1
ion C   9.340192606893062  21.564139523862238  18.898550632499710 1
ion C  -9.333346339437746  21.559392608189949  18.897368358094859 1
ion C   0.000716240203799   5.387313447776736  18.898037738805900 1
ion C  13.997678584020134  13.470163660070773  18.895831024390379 1
ion C   9.350048023044266   5.388504892959507  18.877041404713179 1
ion C  18.670412845990509   5.390829052214379  18.897142731523189 1
ion C  16.342925963997139   9.435815364559689  18.897728070120461 1
ion C  11.673500035268482   9.387382637283009  18.636657611866504 1
ion C  14.003253582620275   5.384310558250649  18.899020986517506 1
ion C   4.663393897942230  21.556958116739395  18.898232134093412 1
ion C  -7.003754036106169  17.518267114393954  18.897386383908291 1
ion C   2.324955414904701   9.424660441299515  18.877721674159282 1
ion C  -2.332532784561411   9.433777220953314  18.896764789740796 1
ion C  -4.667167844772795  21.560850295896977  18.897303963419201 1
ion C   6.980982595127276  17.540664157608607  18.861398367906322 1
ion C  -0.002407873296054  21.555739580849082  18.897248371685734 1
ion C  -4.665611204218143  13.479941760021722  18.897213404235867 1
ion C   4.718042979355786  13.526063553662343  18.646823927899256 1
ion C   2.338219742488109  17.518050286448815  18.896744938619719 1
ion C  -2.331621002069022  17.514994548798750  18.897413348207905 1
ion C  -0.003678136607849  13.476955515331552  18.895485245689191 1
ion S   3.923380144632556  14.782800719556569  26.801846239690082 1
ion S   7.553981625665072  13.961883530672599  26.418721054292270 1
ion S   8.681002916862134  14.482484145000749  22.955829403668780 1
ion S   6.477454855538615   8.016250341464568  23.189001065981703 1
ion S   7.565823861229581   8.819094065718174  26.600654788163780 1
ion S  11.195051968507283   8.033051162718824  27.145912817796223 1
ion Na   3.836770085295393  12.398636775561377  22.686453169459163 1
ion Na  11.348844485502152  10.009477163419712  22.765045217138546 1

# Forces in Cartesian coordinates:
force C   0.003014813317794  -0.001988639136559   0.000261529401245 1
force C   0.002215292673880  -0.001217550310865  -0.000166624913784 1
force C  -0.001716382994206  -0.005427828649826  -0.001033142854633 1
force C   0.001078835705324   0.003156971274509   0.000193718258033 1
force C   0.003269840120013   0.001599341258168  -0.000005497299013 1
force C   0.004702565475484   0.004919502255638  -0.000219943094157 1
force C   0.000194845385657  -0.001080927955840   0.000146782493666 1
force C  -0.001777761039259   0.001724103035388   0.000037027334992 1
force C   0.019331364537976   0.005751094902286  -0.012052066977848 1
force C  -0.001579992411000  -0.001039521614848  -0.000018052243079 1
force C  -0.001909888718407   0.001070044999613   0.000090895024178 1
force C  -0.007403352753923  -0.022702365012423  -0.014933589058439 1
force C  -0.000032844814515   0.002868484769286  -0.000279471721830 1
force C   0.001418626674727   0.003201253010520  -0.000025916352541 1
force C   0.028778183455635   0.013586526171566  -0.028851330793481 1
force C  -0.001470265313621  -0.002183096685013   0.000108390978169 1
force C   0.004091617027544  -0.006364061510119   0.001202035896246 1
force C   0.002171581651207   0.008469681782939  -0.001593383879220 1
force C  -0.000147542607330   0.000740608572581  -0.000150633594704 1
force C   0.000477950189704   0.001639723017853  -0.000288549114482 1
force C  -0.015621506842306   0.015480861999184  -0.023228052903785 1
force C  -0.000032820336792  -0.002141136104254   0.001374165384498 1
force C   0.004810397284204  -0.005682765505734  -0.001603644562430 1
force C  -0.012714296491673  -0.029271838811526  -0.022077526025972 1
force C   0.000975006099289   0.002225242344002   0.001232475498108 1
force C  -0.001804002773869   0.014201128785094  -0.000414337564484 1
force C   0.000753968285836   0.000554182872433   0.000029169553926 1
force C  -0.004447019329674  -0.004942871779656   0.001476925498595 1
force C   0.001397525702161  -0.002386584193149  -0.013971848387362 1
force C  -0.001864383962899  -0.001037510904586   0.001083242922520 1
force C  -0.000535238304622   0.003265951034280  -0.000135127940358 1
force C   0.042591885493623   0.014250390253624  -0.006632004935964 1
force C  -0.003694828557951   0.003398716167336   0.002018942224957 1
force C  -0.001638692192391  -0.000738905827198   0.000051471084531 1
force C   0.004589152728207   0.005943204951728  -0.015319744515838 1
force C   0.003451064269267   0.001535500616085  -0.000046451887934 1
force C  -0.003282718126817   0.002542141135291   0.000461836268891 1
force C  -0.003375877345159   0.000611154539557   0.000256925919841 1
force C  -0.002755504197388   0.000488675300484  -0.000107905004218 1
force C   0.002594055410612   0.001521357487071   0.000840155373533 1
force C   0.000501389718595   0.002688283798986  -0.004930840768524 1
force C   0.000859173404876  -0.000740403690996   0.000020717769233 1
force C  -0.000223131015408  -0.008585390800355  -0.000030409816491 1
force C  -0.003343029217227   0.007055656370751  -0.004968953203778 1
force C  -0.000188973530632  -0.001862841860107   0.000049241336769 1
force C  -0.000612975557729  -0.002077786706064   0.000275369462148 1
force C  -0.010153922512047  -0.029282931609712  -0.018153426280710 1
force C   0.001955633504696   0.000832482318631   0.000019007644802 1
force C   0.001238147278265   0.002042674924455   0.000241909468721 1
force C  -0.010053742824838   0.024489171131115  -0.020895088204478 1
force C   0.000517849620343  -0.003027085343376   0.000073325725443 1
force C  -0.002511691969832  -0.006037006131631   0.000023617061076 1
force C  -0.001587284311563  -0.000234302158867  -0.000019519232585 1
force C  -0.001248211932876   0.001672986780364   0.001092488874102 1
force C   0.014238197464499   0.011771538338551  -0.003611218606530 1
force C  -0.006119212182452  -0.009512186656464  -0.004553408747434 1
force C   0.000477395400731  -0.001472335959979  -0.000259379091106 1
force C   0.000987929704405  -0.002147640668331   0.000795730066817 1
force C   0.009854327796580   0.019096468121743   0.000995787838384 1
force C   0.002114522030139  -0.001247014242036   0.001358724171245 1
force C   0.002939841873594   0.001290191646980   0.000295231603594 1
force C   0.001294355596897  -0.001061992369249  -0.000155024946649 1
force C  -0.008899587371912   0.001074016375508  -0.014943732069384 1
force C  -0.001695741734158  -0.002297330349658  -0.000376763734764 1
force C   0.000356894014313  -0.000795880076426   0.000012004006506 1
force C   0.012477856211545  -0.003797799287151  -0.005270500290743 1
force C   0.001608542040777   0.002346885475574   0.000077481486280 1
force C  -0.001560435435000  -0.004937742537931   0.000933218747061 1
force C  -0.044124334197805  -0.024635237391009  -0.005679015195350 1
force C  -0.006217543975210   0.001795123201153   0.000304150291572 1
force C  -0.001429279422819   0.001084594131903   0.000737032656120 1
force C  -0.012583991976294   0.001181267546279  -0.008906388309439 1
force S  -0.008283734383817   0.006989892118934   0.012682247350696 1
force S  -0.000038132936590   0.003049030257477   0.041306218035278 1
force S   0.008545147594571   0.004853206297854   0.035051860991452 1
force S  -0.011514853288214  -0.006390133180809   0.026371964733023 1
force S   0.001531354813600  -0.001748864501277   0.036446567163659 1
force S   0.006424801997305  -0.005478843473145   0.011175694461102 1
force Na  -0.005560158135246  -0.006173458235375   0.027359124798892 1
force Na   0.005905477968374   0.003677254680447   0.027436337162665 1

# Energy components:
   Eewald =    -1534.5869968953102216
       EH =    -1103.5857914770467687
     Eloc =     2025.5135514912130930
      Enl =      -75.0985232165208743
      Exc =     -170.6376606352488636
 Exc_core =       13.0310524796414811
       KE =      277.2752985052372310
-------------------------------------
     Etot =     -568.0890697480349445
       TS =        0.0738604296882071
-------------------------------------
[...]
	FillingsUpdate:  mu: -0.292650565  nElectrons: 342.000000
LCAOMinimize: Iter:  14  F: -563.6658182421824677  |grad|_K:  2.440e-06  alpha:  1.265e-01  linmin:  2.837e-05  cgtest:  7.021e-03  t[s]:   2364.57
LCAOMinimize: Converged (|Delta F|<1.000000e-06 for 2 iters).


---- Citations for features of the code used in this run ----

   Software package:
      R. Sundararaman, K. Letchworth-Weaver, K.A. Schwarz, D. Gunceler, Y. Ozhabes and T.A. Arias, 'JDFTx: software for joint density-functional theory', SoftwareX 6, 278 (2017)

   gga-PBE exchange-correlation functional:
      J.P. Perdew, K. Burke and M. Ernzerhof, Phys. Rev. Lett. 77, 3865 (1996)

   Pseudopotentials:
      KF Garrity, JW Bennett, KM Rabe and D Vanderbilt, Comput. Mater. Sci. 81, 446 (2014)

   Truncated Coulomb potentials:
      R. Sundararaman and T.A. Arias, Phys. Rev. B 87, 165122 (2013)

This list may not be complete. Please suggest additional citations or
report any other bugs at https://github.com/shankar1729/jdftx/issues

Initialization completed successfully at t[s]:   2469.57


-------- Electronic minimization -----------
Will mix electronic density at each iteration.
	FillingsUpdate:  mu: -0.292650565  nElectrons: 342.000000
	FillingsUpdate:  mu: -0.301279019  nElectrons: 342.000000
SCF: Cycle:  0   F: -567.287885476744464   dF: -3.622e+00   |Residual|: 9.868e-01   |deigs|: 1.266e-01  t[s]:   3297.41
	FillingsUpdate:  mu: -0.272879120  nElectrons: 342.000000
SCF: Cycle:  1   F: -567.956130321753676   dF: -6.682e-01   |Residual|: 4.998e-01   |deigs|: 3.435e-02  t[s]:   4079.19
	FillingsUpdate:  mu: -0.240562023  nElectrons: 342.000000
SCF: Cycle:  2   F: -568.218560788156424   dF: -2.624e-01   |Residual|: 1.144e-01   |deigs|: 3.359e-02  t[s]:   4858.87
	FillingsUpdate:  mu: -0.234100734  nElectrons: 342.000000
SCF: Cycle:  3   F: -568.260372933994972   dF: -4.181e-02   |Residual|: 7.031e-02   |deigs|: 6.405e-03  t[s]:   5641.52
	FillingsUpdate:  mu: -0.223583680  nElectrons: 342.000000
SCF: Cycle:  4   F: -568.288867068904892   dF: -2.849e-02   |Residual|: 3.702e-02   |deigs|: 9.945e-03  t[s]:   6438.20
	FillingsUpdate:  mu: -0.215274576  nElectrons: 342.000000
SCF: Cycle:  5   F: -568.302743527844655   dF: -1.388e-02   |Residual|: 2.526e-02   |deigs|: 7.956e-03  t[s]:   7228.21
	FillingsUpdate:  mu: -0.209947206  nElectrons: 342.000000
SCF: Cycle:  6   F: -568.310705859665177   dF: -7.962e-03   |Residual|: 1.799e-02   |deigs|: 5.363e-03  t[s]:   7997.30
	FillingsUpdate:  mu: -0.203622138  nElectrons: 342.000000
SCF: Cycle:  7   F: -568.315952993646306   dF: -5.247e-03   |Residual|: 1.248e-02   |deigs|: 6.889e-03  t[s]:   8708.97
	FillingsUpdate:  mu: -0.201402212  nElectrons: 342.000000
SCF: Cycle:  8   F: -568.317399626960878   dF: -1.447e-03   |Residual|: 9.788e-03   |deigs|: 2.245e-03  t[s]:   9380.36
	FillingsUpdate:  mu: -0.198284469  nElectrons: 342.000000
SCF: Cycle:  9   F: -568.319478479584291   dF: -2.079e-03   |Residual|: 7.983e-03   |deigs|: 2.864e-03  t[s]:  10114.69
	FillingsUpdate:  mu: -0.194771119  nElectrons: 342.000000
SCF: Cycle: 10   F: -568.320349041453710   dF: -8.706e-04   |Residual|: 8.867e-03   |deigs|: 3.001e-03  t[s]:  10797.07
	FillingsUpdate:  mu: -0.192933727  nElectrons: 342.000000
SCF: Cycle: 11   F: -568.320580279622845   dF: -2.312e-04   |Residual|: 5.220e-03   |deigs|: 1.482e-03  t[s]:  11481.48
	FillingsUpdate:  mu: -0.190297797  nElectrons: 342.000000
SCF: Cycle: 12   F: -568.320667421468556   dF: -8.714e-05   |Residual|: 4.453e-03   |deigs|: 2.302e-03  t[s]:  12146.53
	FillingsUpdate:  mu: -0.186067353  nElectrons: 342.000000
SCF: Cycle: 13   F: -568.320651075824571   dF: +1.635e-05   |Residual|: 3.833e-03   |deigs|: 4.066e-03  t[s]:  12824.24
	FillingsUpdate:  mu: -0.183703130  nElectrons: 342.000000
SCF: Cycle: 14   F: -568.320663765282120   dF: -1.269e-05   |Residual|: 3.440e-03   |deigs|: 2.265e-03  t[s]:  13502.98
	FillingsUpdate:  mu: -0.178221347  nElectrons: 342.000000
SCF: Cycle: 15   F: -568.320746351775483   dF: -8.259e-05   |Residual|: 2.657e-03   |deigs|: 5.155e-03  t[s]:  14177.56
	FillingsUpdate:  mu: -0.176572417  nElectrons: 342.000000
SCF: Cycle: 16   F: -568.320780183063562   dF: -3.383e-05   |Residual|: 2.259e-03   |deigs|: 1.565e-03  t[s]:  14850.04
	FillingsUpdate:  mu: -0.174208930  nElectrons: 342.000000
SCF: Cycle: 17   F: -568.320834577049595   dF: -5.439e-05   |Residual|: 1.625e-03   |deigs|: 2.448e-03  t[s]:  15532.66
	FillingsUpdate:  mu: -0.172730831  nElectrons: 342.000000
SCF: Cycle: 18   F: -568.320853853841754   dF: -1.928e-05   |Residual|: 1.398e-03   |deigs|: 1.839e-03  t[s]:  16210.83
	FillingsUpdate:  mu: -0.171485938  nElectrons: 342.000000
SCF: Cycle: 19   F: -568.320868357285804   dF: -1.450e-05   |Residual|: 9.403e-04   |deigs|: 1.306e-03  t[s]:  16879.30
	FillingsUpdate:  mu: -0.171265147  nElectrons: 342.000000
SCF: Cycle: 20   F: -568.320871927387543   dF: -3.570e-06   |Residual|: 6.769e-04   |deigs|: 6.095e-04  t[s]:  17550.71
	FillingsUpdate:  mu: -0.170969029  nElectrons: 342.000000
SCF: Cycle: 21   F: -568.320875028355431   dF: -3.101e-06   |Residual|: 4.212e-04   |deigs|: 9.929e-04  t[s]:  18224.64
	FillingsUpdate:  mu: -0.171059007  nElectrons: 342.000000
SCF: Cycle: 22   F: -568.320878171343793   dF: -3.143e-06   |Residual|: 2.967e-04   |deigs|: 3.606e-04  t[s]:  18897.77
	FillingsUpdate:  mu: -0.171047988  nElectrons: 342.000000
SCF: Cycle: 23   F: -568.320879833456388   dF: -1.662e-06   |Residual|: 2.311e-04   |deigs|: 2.848e-04  t[s]:  19571.86
	FillingsUpdate:  mu: -0.171005920  nElectrons: 342.000000
SCF: Cycle: 24   F: -568.320880238976088   dF: -4.055e-07   |Residual|: 1.512e-04   |deigs|: 2.294e-04  t[s]:  20245.21
	FillingsUpdate:  mu: -0.170999704  nElectrons: 342.000000
SCF: Cycle: 25   F: -568.320880276203638   dF: -3.723e-08   |Residual|: 1.163e-04   |deigs|: 1.105e-04  t[s]:  20925.66
	FillingsUpdate:  mu: -0.171035264  nElectrons: 342.000000
SCF: Cycle: 26   F: -568.320880368566463   dF: -9.236e-08   |Residual|: 7.679e-05   |deigs|: 3.288e-04  t[s]:  21751.84
	FillingsUpdate:  mu: -0.170990203  nElectrons: 342.000000
SCF: Cycle: 27   F: -568.320880442319435   dF: -7.375e-08   |Residual|: 5.365e-05   |deigs|: 3.738e-04  t[s]:  22429.78
	FillingsUpdate:  mu: -0.170949929  nElectrons: 342.000000
SCF: Cycle: 28   F: -568.320880476308162   dF: -3.399e-08   |Residual|: 4.106e-05   |deigs|: 2.022e-04  t[s]:  23104.53
	FillingsUpdate:  mu: -0.170926956  nElectrons: 342.000000
SCF: Cycle: 29   F: -568.320880507070342   dF: -3.076e-08   |Residual|: 2.797e-05   |deigs|: 2.307e-04  t[s]:  23782.86
	FillingsUpdate:  mu: -0.170925203  nElectrons: 342.000000
SCF: Cycle: 30   F: -568.320880521761410   dF: -1.469e-08   |Residual|: 2.047e-05   |deigs|: 1.384e-04  t[s]:  24463.74
	FillingsUpdate:  mu: -0.170923006  nElectrons: 342.000000
SCF: Cycle: 31   F: -568.320880531258467   dF: -9.497e-09   |Residual|: 1.292e-05   |deigs|: 1.308e-04  t[s]:  25142.50
	FillingsUpdate:  mu: -0.170925296  nElectrons: 342.000000
SCF: Cycle: 32   F: -568.320880536093682   dF: -4.835e-09   |Residual|: 8.688e-06   |deigs|: 4.300e-05  t[s]:  25824.57
SCF: Converged (|Delta E|<1.000000e-08 for 2 iters).

Setting wave functions to eigenvectors of Hamiltonian

# Ionic positions in cartesian coordinates:
ion C  28.010542013705631   0.002014969601156  18.635465203747167 1
ion C  16.341968157882285  20.214705522223607  18.636370795694031 1
ion C   2.338532027351695   4.042411505399060  18.630361847754816 1
ion C  23.343313188735969   0.002278716019722  18.640022467239564 1
ion C   4.672620934470559   0.001554156700161  18.632050616002299 1
ion C  11.674116326115334  20.215100669694028  18.619847495055026 1
ion C  25.676530282256284   4.042904097616445  18.653564930084006 1
ion C  18.675851376129700  16.172910511284943  18.662695583431347 1
ion C   4.671777948336020   8.082036709586005  18.612564386226396 1
ion C  18.676336142016090   0.002101964498535  18.651180333522273 1
ion C   9.339850970925752   0.001738039847832  18.641511836963307 1
ion C   9.341212652353347  16.175613291750459  18.599279306155555 1
ion C  23.342941439729614   8.084920466015539  18.683240254571249 1
ion C  21.009110272076708  12.128959849493356  18.688453340004553 1
ion C   7.009085367604252  12.128528685817338  18.597262204671189 1
ion C  14.008105470077210   0.001988816408382  18.654008834012110 1
ion C  14.009120976896664  16.174984627607692  18.629938477890015 1
ion C   7.005550759074101   4.041176716120078  18.616350899393812 1
ion C  21.010101094155832   4.043302536041172  18.668670850704732 1
ion C  16.344445762465487  12.130683361169906  18.668518806438790 1
ion C   9.337643998902923   8.081728763982859  18.614931622729934 1
ion C  16.343783017314891   4.042062713362387  18.668836182024794 1
ion C  11.674085450205249   4.041278849785761  18.642196060576939 1
ion C  11.675597583834264  12.133622242506720  18.630068253549410 1
ion C  18.678074956154809   8.085220585829878  18.685769374381508 1
ion C   7.007175797728255  20.216155157604103  18.619709324068161 1
ion C  -6.996748017889804  20.214440105700564  18.653094683289385 1
ion C   0.002354623270169   8.082966457809835  18.657418822396949 1
ion C  14.012576459862725   8.083203697825988  18.669712893069498 1
ion C   2.339067441062873  20.216465077180068  18.646220757178252 1
ion C  -4.663670527593792  16.172490992184059  18.678596642017759 1
ion C   2.336125814129785  12.127745765919109  18.656417500003109 1
ion C  -2.332224039758668  12.128030282589300  18.685859862245795 1
ion C  -2.329659352792410  20.215194179952768  18.659830322184195 1
ion C   4.673933801454849  16.177740252210711  18.625359734501050 1
ion C   0.002990588629148  16.174656174657997  18.666554428718456 1
ion C  14.008266720144100  21.561374576259510  18.629777200837147 1
ion C   2.338930816614256   1.348570645432834  18.632009758527850 1
ion C  25.677100562977380   1.348988124751942  18.641986895200070 1
ion C  16.342686998612663  17.520648868856785  18.642302048336070 1
ion C   4.672307145938162   5.388219921962990  18.616057256550324 1
ion C  21.010123495302889   1.349044430338556  18.652394834146865 1
ion C   7.005937845436384   1.348033936218268  18.628031389286509 1
ion C  11.674692189550257  17.521226022139913  18.612057705166652 1
ion C  23.343784883173051   5.390651685198355  18.669612389866280 1
ion C  18.676972543384359  13.478483594758318  18.675595907033578 1
ion C   7.004963348139575   9.432115986525979  18.597538283264729 1
ion C  16.342472076605748   1.348066366442404  18.659130179870278 1
ion C  11.673522256343780   1.347802312891912  18.646547034509048 1
ion C   9.340696631175403  13.481256291567631  18.599303874261306 1
ion C  21.010487586627974   9.434228317035956  18.689549670827176 1
ion C   9.340862584041272  21.562275316056120  18.623251203387419 1
ion C  -9.330262385564787  21.561165527783942  18.640491424243258 1
ion C   0.004476893676090   5.389148113018151  18.645932445799481 1
ion C  14.011432130181314  13.480719160062115  18.643556882023976 1
ion C   9.339051356617166   5.386992451363917  18.621078239496772 1
ion C  18.677007069088155   5.390558998944344  18.676741055188348 1
ion C  16.345725884609092   9.434637493571932  18.679131999516674 1
ion C  11.674484029805171   9.432912355349794  18.644194404697451 1
ion C  14.009428395823310   5.387478001177438  18.662736904438848 1
ion C   4.673293824799766  21.561882602550451  18.637519226383223 1
ion C  -6.996841473985320  17.520066852095106  18.666346621047353 1
ion C   2.337134667876788   9.428913976861832  18.643387178107250 1
ion C  -2.330217064543965   9.432650452790400  18.678563548363972 1
ion C  -4.663349535264295  21.561481505082671  18.652392573786173 1
ion C   7.008365318233412  17.523060541264897  18.607450639135720 1
ion C   0.004487123343834  21.561671103490099  18.654109318198202 1
ion C  -4.664147187494721  13.477588422800197  18.688047082736972 1
ion C   4.674619807111760  13.479414560663223  18.625188064189185 1
ion C   2.338448909138405  17.522455183042435  18.645633689115606 1
ion C  -2.330712054942804  17.520790606615741  18.670058696770372 1
ion C   0.000363098194401  13.478789474313887  18.675559226948007 1
ion S   3.709925376947833  14.628009178093668  29.015943876404073 1
ion S   7.415940923267238  14.018998655541603  28.857048407797969 1
ion S   8.767428711454695  14.553695882212178  25.332540457575803 1
ion S   6.289443252208020   7.967851494454469  25.459216526006664 1
ion S   7.641940958070565   8.649158699805735  28.960128157538993 1
ion S  11.349986445517942   8.068564472860933  29.142021369979339 1
ion Na   3.964925834069952  12.615460297249895  24.204396293621482 1
ion Na  11.084649633749951   9.860549429703919  24.244354908709997 1

# Forces in Cartesian coordinates:
force C   0.000077153311129   0.000003534948573  -0.000178551944689 1
force C  -0.000052652685923   0.000047156637522  -0.000020195231814 1
force C  -0.000010800903211   0.000030227214878  -0.000068703118215 1
force C   0.000180418489097   0.000069374326811  -0.000131871625430 1
force C  -0.000208953776463   0.000033409571708  -0.000057378634530 1
force C   0.000134939216948   0.000035119066424  -0.000025986386304 1
force C   0.000123731978992  -0.000006724205193  -0.000056969730715 1
force C  -0.000019098843689  -0.000080458466006  -0.000075632786295 1
force C   0.000147412703886   0.000171624063219  -0.000045787042886 1
force C   0.000054254556724  -0.000019983841129  -0.000138923980283 1
force C  -0.000031340535702   0.000000600475844  -0.000135951873849 1
force C  -0.000040761158988  -0.000052697624382  -0.000010354902595 1
force C  -0.000006179698611   0.000181751111121  -0.000133985271611 1
force C   0.000120642738886   0.000046405959385  -0.000086617161642 1
force C   0.000001425225064  -0.000012332932593  -0.000080137654012 1
force C   0.000009169004374  -0.000043423699705  -0.000010654360950 1
force C  -0.000081124135455  -0.000063583689410   0.000041959868741 1
force C  -0.000036589775607   0.000082299659960  -0.000010579204773 1
force C   0.000090191360390   0.000078066973433  -0.000079539668910 1
force C  -0.000019231811242  -0.000074378315420  -0.000075682021340 1
force C   0.000006371133805   0.000186980023129   0.000007930950822 1
force C   0.000021222011856   0.000038188258861  -0.000080882015820 1
force C  -0.000086208673830   0.000156263229222  -0.000017619567270 1
force C  -0.000015997060293   0.000137931564367  -0.000038992297563 1
force C   0.000053817236991   0.000141043016763  -0.000076295021423 1
force C   0.000101878814022  -0.000075968895429   0.000014969947949 1
force C  -0.000106892497456   0.000006470559284  -0.000079680404185 1
force C   0.000086712076406   0.000037777862175   0.000028791452436 1
force C  -0.000096357513029   0.000095746618279  -0.000011619030352 1
force C   0.000015561219709   0.000023554715027  -0.000066392270036 1
force C  -0.000019478431270  -0.000090879908550  -0.000150831909228 1
force C   0.000158714988522   0.000033745343882   0.000016655193761 1
force C   0.000042399236123   0.000026170210627  -0.000088740237698 1
force C   0.000094416972783  -0.000044550906444  -0.000101445816531 1
force C   0.000177097784332  -0.000069418294002   0.000022851368594 1
force C   0.000103910696040  -0.000011017039636  -0.000100804570591 1
force C  -0.000075488019878   0.000055454444727  -0.000010245820149 1
force C  -0.000022550935808  -0.000129142294737  -0.000000624543563 1
force C  -0.000003095155778  -0.000155789936669   0.000062288734618 1
force C   0.000002636769566   0.000093953123860   0.000018593331404 1
force C  -0.000060887363512  -0.000135343350266   0.000069820300774 1
force C  -0.000151189823405  -0.000047125091084   0.000083713713757 1
force C   0.000083286905077  -0.000075112106619   0.000080878598088 1
force C   0.000118067857648   0.000102174027871   0.000003548052799 1
force C  -0.000198261717441  -0.000047983663505   0.000032220126072 1
force C   0.000073875682116  -0.000061904465834  -0.000000131473182 1
force C  -0.000050576040651  -0.000004989963142  -0.000077141252100 1
force C  -0.000077582138535  -0.000024103220851  -0.000074544894747 1
force C   0.000140127828642  -0.000188303832191  -0.000031086062119 1
force C   0.000012257193631  -0.000089051349283  -0.000001134972732 1
force C  -0.000067848736624  -0.000079625948223  -0.000051519047864 1
force C  -0.000008747373032  -0.000079398033134   0.000055657628460 1
force C   0.000054204519174   0.000046918816284   0.000030542376711 1
force C  -0.000008019897640  -0.000070815890121   0.000034235640248 1
force C   0.000008405145416   0.000046277903234   0.000008167175128 1
force C   0.000081977729504  -0.000182908408383   0.000034433912071 1
force C  -0.000043640526169  -0.000071695405660   0.000074786895368 1
force C   0.000125503479609  -0.000043984284042   0.000011730760275 1
force C   0.000053763081356  -0.000122207420311   0.000028053628607 1
force C   0.000054222243557  -0.000094464079278  -0.000007716929015 1
force C  -0.000113462053928   0.000125396349837   0.000017749917039 1
force C   0.000111845416627  -0.000007892589048   0.000045500295533 1
force C  -0.000111389698909  -0.000111193030954   0.000000659127429 1
force C  -0.000076376196022   0.000087423814573  -0.000048286750919 1
force C   0.000094630069671   0.000004834165655   0.000020897365591 1
force C  -0.000133290491063   0.000046571442719   0.000001139624383 1
force C  -0.000049648694621   0.000135054689053   0.000003932400938 1
force C  -0.000109666340166  -0.000029172936970  -0.000047412929096 1
force C  -0.000039142501659  -0.000005478911088   0.000003833935289 1
force C  -0.000160998767646   0.000031100691018   0.000030201478608 1
force C  -0.000067844144533   0.000117034542609   0.000096156157276 1
force C  -0.000198044651126  -0.000037755249310   0.000102170078444 1
force S   0.000230399852634  -0.000063695864937  -0.000012121627318 1
force S  -0.000130127182145  -0.000185115513636   0.000132175624002 1
force S  -0.000052982778128  -0.000008359399600   0.000076431054960 1
force S   0.000030000848461   0.000094182244617   0.000133038556981 1
force S  -0.000113472033706   0.000179232399541  -0.000059886196867 1
force S  -0.000043313283769  -0.000056980275568  -0.000070201849528 1
force Na  -0.000031682819636  -0.000053358375377   0.000108128248984 1
force Na  -0.000020089513604   0.000067824020417   0.000075496903241 1

# Energy components:
   Eewald =    -1863.1318778216916598
       EH =    -1431.9322565448910609
     Eloc =     2682.7513696513510695
      Enl =      -75.0335186423721154
      Exc =     -170.2722642337473076
 Exc_core =       13.0310491090662861
       KE =      276.3400745979704425
-------------------------------------
     Etot =     -568.2474238843144576
       TS =        0.0734566517791993
-------------------------------------
        F =     -568.3208805360936822

IonicMinimize: Iter:   0  F: -568.320880536093682  |grad|_K:  8.444e-05  alpha:  1.000e+00
IonicMinimize: Converged (|grad|_K<1.000000e-04).

#--- Lowdin population analysis ---
# oxidation-state C +0.045 +0.044 +0.045 +0.044 +0.045 +0.045 +0.044 +0.043 +0.035 +0.044 +0.045 +0.043 +0.042 +0.043 +0.025 +0.044 +0.042 +0.045 +0.043 +0.036 +0.021 +0.041 +0.039 +0.014 +0.041 +0.046 +0.044 +0.039 +0.020 +0.043 +0.043 +0.002 +0.038 +0.044 +0.030 +0.034 +0.045 +0.045 +0.044 +0.044 +0.044 +0.044 +0.045 +0.044 +0.044 +0.041 +0.030 +0.044 +0.044 +0.033 +0.043 +0.046 +0.044 +0.044 +0.033 +0.039 +0.042 +0.033 -0.004 +0.035 +0.044 +0.043 +0.026 +0.040 +0.044 +0.044 +0.044 +0.042 +0.003 +0.036 +0.041 +0.025
# oxidation-state S -0.320 +0.398 -0.416 -0.416 +0.398 -0.319
# oxidation-state Na +0.723 +0.723


Dumping 'Na2S6@graphene_6x6x1.fillings' ... done
Dumping 'Na2S6@graphene_6x6x1.wfns' ... done
Dumping 'Na2S6@graphene_6x6x1.ionpos' ... done
Dumping 'Na2S6@graphene_6x6x1.eigenvals' ... done
End date and time: Mon Apr 10 17:41:56 2023  (Duration: 0-7:14:29.50)
Done!
