
*************** JDFTx 1.7.0  ***************

Start date and time: Mon Jan 29 07:24:13 2024
Executable jdftx with command-line: -i Na2S2@graphene_6x6x1-glyme.in -o Na2S2@graphene_6x6x1-glyme.out
Running on hosts (process indices):  Wolf-Dell (0)
Divided in process groups (process indices):  0 (0)
Resource initialization completed at t[s]:      0.00
Run totals: 1 processes, 6 threads, 0 GPUs


Input parsed successfully to the following command list (including defaults):

basis kpoint-dependent
coords-type Cartesian
core-overlap-check vector
coulomb-interaction Slab 001
coulomb-truncation-embed 0 0 4
davidson-band-ratio 1.1
dump End State
dump-name Na2S2@graphene_6x6x1-glyme.$VAR
elec-cutoff 20 100
elec-eigen-algo Davidson
elec-ex-corr gga-PBE
elec-smearing Fermi 0.01
electronic-minimize  \
	dirUpdateScheme      FletcherReeves \
	linminMethod         DirUpdateRecommended \
	nIterations          100 \
	history              15 \
	knormThreshold       0 \
	energyDiffThreshold  1e-08 \
	nEnergyDiff          2 \
	alphaTstart          1 \
	alphaTmin            1e-10 \
	updateTestStepSize   yes \
	alphaTreduceFactor   0.1 \
	alphaTincreaseFactor 3 \
	nAlphaAdjustMax      3 \
	wolfeEnergy          0.0001 \
	wolfeGradient        0.9 \
	fdTest               no
electronic-scf  \
	nIterations	50 \
	energyDiffThreshold	1e-08 \
	residualThreshold	1e-07 \
	mixFraction	0.5 \
	qMetric	0.8 \
	history	10 \
	nEigSteps	2 \
	eigDiffThreshold	1e-08 \
	mixedVariable	Density \
	qKerker	0.8 \
	qKappa	-1 \
	verbose	no \
	mixFractionMag	1.5
exchange-regularization WignerSeitzTruncated
fluid LinearPCM 298.000000 1.013250
fluid-ex-corr lda-TF lda-PZ
fluid-gummel-loop 10 1.000000e-05
fluid-minimize  \
	dirUpdateScheme      PolakRibiere \
	linminMethod         DirUpdateRecommended \
	nIterations          400 \
	history              15 \
	knormThreshold       1e-11 \
	energyDiffThreshold  0 \
	nEnergyDiff          2 \
	alphaTstart          1 \
	alphaTmin            1e-10 \
	updateTestStepSize   yes \
	alphaTreduceFactor   0.1 \
	alphaTincreaseFactor 3 \
	nAlphaAdjustMax      6 \
	wolfeEnergy          0.0001 \
	wolfeGradient        0.9 \
	fdTest               no
fluid-solvent Glyme 9.62137 ScalarEOS \
	epsBulk 7.2 \
	pMol 0 \
	epsInf 1.9 \
	Pvap 0 \
	sigmaBulk 0 \
	Rvdw 0 \
	Res 0 \
	tauNuc 343133
forces-output-coords Positions
ion C  28.010542013705631   0.002014969601156   0.135465203747167 0
ion C  16.341968157882292  20.214705522223607   0.136370795694031 0
ion C   2.338532027351695   4.042411505399060   0.130361847754816 0
ion C  23.343313188735969   0.002278716019722   0.140022467239564 0
ion C   4.672620934470559   0.001554156700161   0.132050616002296 0
ion C  11.674116326115334  20.215100669694028   0.119847495055023 0
ion C  25.676530282256284   4.042904097616445   0.153564930084009 0
ion C  18.675851376129700  16.172910511284943   0.162695583431347 0
ion C   4.671777948336020   8.082036709586005   0.112564386226399 0
ion C  18.676336142016083   0.002101964498535   0.151180333522280 0
ion C   9.339850970925752   0.001738039847832   0.141511836963307 0
ion C   9.341212652353351  16.175613291750459   0.099279306155555 0
ion C  23.342941439729607   8.084920466015539   0.183240254571249 0
ion C  21.009110272076708  12.128959849493356   0.188453340004560 0
ion C   7.009085367604252  12.128528685817338   0.097262204671189 0
ion C  14.008105470077210   0.001988816408382   0.154008834012117 0
ion C  14.009120976896664  16.174984627607692   0.129938477890011 0
ion C   7.005550759074101   4.041176716120078   0.116350899393808 0
ion C  21.010101094155836   4.043302536041172   0.168670850704729 0
ion C  16.344445762465487  12.130683361169906   0.168518806438797 0
ion C   9.337643998902927   8.081728763982859   0.114931622729934 0
ion C  16.343783017314891   4.042062713362387   0.168836182024801 0
ion C  11.674085450205249   4.041278849785761   0.142196060576936 0
ion C  11.675597583834264  12.133622242506720   0.130068253549407 0
ion C  18.678074956154809   8.085220585829878   0.185769374381508 0
ion C   7.007175797728255  20.216155157604103   0.119709324068161 0
ion C  -6.996748017889803  20.214440105700564   0.153094683289385 0
ion C   0.002354623270169   8.082966457809835   0.157418822396949 0
ion C  14.012576459862725   8.083203697825988   0.169712893069491 0
ion C   2.339067441062872  20.216465077180068   0.146220757178249 0
ion C  -4.663670527593792  16.172490992184059   0.178596642017759 0
ion C   2.336125814129785  12.127745765919109   0.156417500003109 0
ion C  -2.332224039758668  12.128030282589300   0.185859862245795 0
ion C  -2.329659352792410  20.215194179952768   0.159830322184195 0
ion C   4.673933801454849  16.177740252210711   0.125359734501050 0
ion C   0.002990588629148  16.174656174657997   0.166554428718456 0
ion C  14.008266720144102  21.561374576259517   0.129777200837147 0
ion C   2.338930816614256   1.348570645432834   0.132009758527847 0
ion C  25.677100562977380   1.348988124751942   0.141986895200077 0
ion C  16.342686998612663  17.520648868856785   0.142302048336077 0
ion C   4.672307145938162   5.388219921962990   0.116057256550324 0
ion C  21.010123495302889   1.349044430338556   0.152394834146865 0
ion C   7.005937845436384   1.348033936218268   0.128031389286509 0
ion C  11.674692189550257  17.521226022139913   0.112057705166649 0
ion C  23.343784883173043   5.390651685198355   0.169612389866280 0
ion C  18.676972543384359  13.478483594758318   0.175595907033571 0
ion C   7.004963348139576   9.432115986525980   0.097538283264729 0
ion C  16.342472076605748   1.348066366442404   0.159130179870282 0
ion C  11.673522256343780   1.347802312891912   0.146547034509048 0
ion C   9.340696631175403  13.481256291567631   0.099303874261302 0
ion C  21.010487586627971   9.434228317035956   0.189549670827176 0
ion C   9.340862584041272  21.562275316056120   0.123251203387412 0
ion C  -9.330262385564788  21.561165527783945   0.140491424243251 0
ion C   0.004476893676090   5.389148113018151   0.145932445799481 0
ion C  14.011432130181314  13.480719160062115   0.143556882023976 0
ion C   9.339051356617166   5.386992451363917   0.121078239496768 0
ion C  18.677007069088155   5.390558998944344   0.176741055188348 0
ion C  16.345725884609092   9.434637493571932   0.179131999516681 0
ion C  11.674484029805171   9.432912355349794   0.144194404697448 0
ion C  14.009428395823310   5.387478001177438   0.162736904438848 0
ion C   4.673293824799767  21.561882602550448   0.137519226383223 0
ion C  -6.996841473985322  17.520066852095106   0.166346621047360 0
ion C   2.337134667876788   9.428913976861832   0.143387178107247 0
ion C  -2.330217064543965   9.432650452790400   0.178563548363968 0
ion C  -4.663349535264295  21.561481505082671   0.152392573786173 0
ion C   7.008365318233412  17.523060541264897   0.107450639135720 0
ion C   0.004487123343836  21.561671103490092   0.154109318198198 0
ion C  -4.664147187494720  13.477588422800194   0.188047082736968 0
ion C   4.674619807111762  13.479414560663223   0.125188064189185 0
ion C   2.338448909138405  17.522455183042435   0.145633689115609 0
ion C  -2.330712054942804  17.520790606615741   0.170058696770369 0
ion C   0.000363098194401  13.478789474313889   0.175559226948007 0
ion S   8.334406152685510  12.304350680589568   8.503116423280773 1
ion S   5.250369142950842  10.150033864932382   7.315092341390605 1
ion Na   9.674104022242041   7.368116643188890   7.180883587875496 1
ion Na   4.531077050357874  15.163863278789943   6.189257312058275 1
ion-species GBRV/$ID_pbe.uspp
ion-width Ecut
ionic-minimize  \
	dirUpdateScheme      FletcherReeves \
	linminMethod         DirUpdateRecommended \
	nIterations          200 \
	history              15 \
	knormThreshold       0.0001 \
	energyDiffThreshold  1e-06 \
	nEnergyDiff          2 \
	alphaTstart          1 \
	alphaTmin            1e-10 \
	updateTestStepSize   yes \
	alphaTreduceFactor   0.1 \
	alphaTincreaseFactor 3 \
	nAlphaAdjustMax      3 \
	wolfeEnergy          0.0001 \
	wolfeGradient        0.9 \
	fdTest               no
kpoint   0.000000000000   0.000000000000   0.000000000000  1.00000000000000
kpoint-folding 1 1 1 
latt-move-scale 1 1 1
latt-scale 1 1 1 
lattice Triclinic 28.0058 28.0058 37.7946 90 90 120
lattice-minimize  \
	dirUpdateScheme      L-BFGS \
	linminMethod         DirUpdateRecommended \
	nIterations          0 \
	history              15 \
	knormThreshold       0 \
	energyDiffThreshold  1e-06 \
	nEnergyDiff          2 \
	alphaTstart          1 \
	alphaTmin            1e-10 \
	updateTestStepSize   yes \
	alphaTreduceFactor   0.1 \
	alphaTincreaseFactor 3 \
	nAlphaAdjustMax      3 \
	wolfeEnergy          0.0001 \
	wolfeGradient        0.9 \
	fdTest               no
lcao-params -1 1e-06 0.01
pcm-variant GLSSA13
spintype no-spin
subspace-rotation-factor 1 yes
symmetries automatic
symmetry-threshold 0.0001



---------- Setting up symmetries ----------

Found 24 point-group symmetries of the bravais lattice
Found 1 space-group symmetries with basis
Applied RMS atom displacement 0 bohrs to make symmetries exact.

---------- Initializing the Grid ----------
R = 
[      28.0058     -14.0029            0  ]
[            0      24.2537            0  ]
[            0            0      37.7946  ]
unit cell volume = 25671.8
G =
[   0.224353    0.12953         -0  ]
[          0   0.259061          0  ]
[          0         -0   0.166246  ]
Minimum fftbox size, Smin = [  128  128  172  ]
Chosen fftbox size, S = [  128  128  180  ]

---------- Initializing tighter grid for wavefunction operations ----------
R = 
[      28.0058     -14.0029            0  ]
[            0      24.2537            0  ]
[            0            0      37.7946  ]
unit cell volume = 25671.8
G =
[   0.224353    0.12953         -0  ]
[          0   0.259061          0  ]
[          0         -0   0.166246  ]
Minimum fftbox size, Smin = [  116  116  156  ]
Chosen fftbox size, S = [  120  120  160  ]

---------- Exchange Correlation functional ----------
Initalized PBE GGA exchange.
Initalized PBE GGA correlation.

---------- Setting up pseudopotentials ----------
Width of ionic core gaussian charges (only for fluid interactions / plotting) set to 0.397384

Reading pseudopotential file '/home/akakimmykim/jdftx_install/build/pseudopotentials/GBRV/c_pbe.uspp':
  Title: C.  Created by USPP 7.3.6 on 3-2-2014
  Reference state energy: -5.406344.  4 valence electrons in orbitals:
    |200>  occupation: 2  eigenvalue: -0.504890
    |210>  occupation: 2  eigenvalue: -0.194356
  lMax: 1  lLocal: 2  QijEcut: 5
  4 projectors sampled on a log grid with 503 points:
    l: 0  eig: -0.504890  rCut: 1.3
    l: 0  eig: 0.000000  rCut: 1.3
    l: 1  eig: -0.194357  rCut: 1.3
    l: 1  eig: 0.000000  rCut: 1.3
  Partial core density with radius 1.1
  Transforming core density to a uniform radial grid of dG=0.02 with 1625 points.
  Transforming local potential to a uniform radial grid of dG=0.02 with 1625 points.
  Transforming nonlocal projectors to a uniform radial grid of dG=0.02 with 432 points.
  Transforming density augmentations to a uniform radial grid of dG=0.02 with 1625 points.
  Transforming atomic orbitals to a uniform radial grid of dG=0.02 with 432 points.
  Core radius for overlap checks: 1.30 bohrs.

Reading pseudopotential file '/home/akakimmykim/jdftx_install/build/pseudopotentials/GBRV/s_pbe.uspp':
  Title: S.  Created by USPP 7.3.6 on 1-4-15
  Reference state energy: -11.898476.  6 valence electrons in orbitals:
    |300>  occupation: 2  eigenvalue: -0.634167
    |310>  occupation: 4  eigenvalue: -0.257568
  lMax: 2  lLocal: 3  QijEcut: 6
  6 projectors sampled on a log grid with 635 points:
    l: 0  eig: -0.634161  rCut: 1.5
    l: 0  eig: 1.500000  rCut: 1.5
    l: 1  eig: -0.257567  rCut: 1.5
    l: 1  eig: 1.500000  rCut: 1.5
    l: 2  eig: -1.000000  rCut: 1.5
    l: 2  eig: 1.500000  rCut: 1.5
  Partial core density with radius 1.15
  Transforming core density to a uniform radial grid of dG=0.02 with 1625 points.
  Transforming local potential to a uniform radial grid of dG=0.02 with 1625 points.
  Transforming nonlocal projectors to a uniform radial grid of dG=0.02 with 432 points.
  Transforming density augmentations to a uniform radial grid of dG=0.02 with 1625 points.
  Transforming atomic orbitals to a uniform radial grid of dG=0.02 with 432 points.
  Core radius for overlap checks: 1.50 bohrs.

Reading pseudopotential file '/home/akakimmykim/jdftx_install/build/pseudopotentials/GBRV/na_pbe.uspp':
  Title: Na.  Created by USPP 7.3.6 on 23-9-15
  Reference state energy: -47.625620.  9 valence electrons in orbitals:
    |200>  occupation: 2  eigenvalue: -2.085638
    |210>  occupation: 6  eigenvalue: -1.053708
    |300>  occupation: 1  eigenvalue: -0.100838
  lMax: 2  lLocal: 0  QijEcut: 6
  5 projectors sampled on a log grid with 657 points:
    l: 0  eig: -2.085640  rCut: 1.37
    l: 0  eig: -0.100839  rCut: 1.37
    l: 1  eig: -1.053708  rCut: 1.47
    l: 1  eig: 0.500000  rCut: 1.47
    l: 2  eig: 0.750000  rCut: 2
  Transforming local potential to a uniform radial grid of dG=0.02 with 1625 points.
  Transforming nonlocal projectors to a uniform radial grid of dG=0.02 with 432 points.
  Transforming density augmentations to a uniform radial grid of dG=0.02 with 1625 points.
  Transforming atomic orbitals to a uniform radial grid of dG=0.02 with 432 points.
  Core radius for overlap checks: 2.00 bohrs.

Initialized 3 species with 76 total atoms.

Folded 1 k-points by 1x1x1 to 1 k-points.

---------- Setting up k-points, bands, fillings ----------
No reducable k-points. 
Computing the number of bands and number of electrons
Calculating initial fillings.
nElectrons: 318.000000   nBands: 306   nStates: 1

----- Setting up reduced wavefunction bases (one per k-point) -----
average nbasis = 109673.000 , ideal nbasis = 109671.883

---------- Setting up coulomb interaction ----------
Fluid mode embedding: using embedded box, but periodic Coulomb kernel.
(Fluid response is responsible for (approximate) separation between periodic images.)
Setting up double-sized grid for truncated Coulomb potentials:
R = 
[      28.0058     -14.0029            0  ]
[            0      24.2537            0  ]
[            0            0      75.5892  ]
unit cell volume = 51343.6
G =
[   0.224353    0.12953         -0  ]
[          0   0.259061          0  ]
[          0         -0  0.0831228  ]
Chosen fftbox size, S = [  128  128  360  ]
Integer grid location selected as the embedding center:
   Grid: [  0  0  19  ]
   Lattice: [  0  0  0.105835  ]
   Cartesian: [  0  0  4  ]
Constructing Wigner-Seitz cell: 8 faces (6 quadrilaterals, 2 hexagons)
Range-separation parameter for embedded mesh potentials due to point charges: 0.590105 bohrs.

---------- Setting up ewald sum ----------
Optimum gaussian width for ewald sums = 7.204490 bohr.
Real space sum over 405 unit cells with max indices [  4  4  2  ]
Reciprocal space sum over 7875 terms with max indices [  7  7  17  ]

---------- Allocating electronic variables ----------
Initializing wave functions:  linear combination of atomic orbitals
C pseudo-atom occupations:   s ( 2 )  p ( 2 )
S pseudo-atom occupations:   s ( 2 )  p ( 4 )
Na pseudo-atom occupations:   s ( 2 1 )  p ( 6 )
	FillingsUpdate:  mu: -0.158502356  nElectrons: 318.000000
LCAOMinimize: Iter:   0  F: -522.0234332980373892  |grad|_K:  1.144e-02  alpha:  1.000e+00
LCAOMinimize: 	Step increased F by 1.323206e+00, reducing alpha to 3.449570e-02.
	FillingsUpdate:  mu: -0.192550180  nElectrons: 318.000000
LCAOMinimize: Iter:   1  F: -522.5321763044177032  |grad|_K:  9.842e-03  alpha:  3.450e-02  linmin: -1.499e-01  cgtest:  7.046e-01  t[s]:    381.21
	FillingsUpdate:  mu: -0.198331385  nElectrons: 318.000000
LCAOMinimize: Iter:   2  F: -522.8065445876903823  |grad|_K:  3.247e-03  alpha:  6.391e-02  linmin:  1.463e-01  cgtest: -9.751e-01  t[s]:    477.52
LCAOMinimize: 	Bad step direction: g.d > 0.
LCAOMinimize: 	Undoing step.
LCAOMinimize: 	Step failed: resetting search direction.
	FillingsUpdate:  mu: -0.198331385  nElectrons: 318.000000
LCAOMinimize: Iter:   3  F: -522.8065445876903823  |grad|_K:  3.247e-03  alpha:  0.000e+00
	FillingsUpdate:  mu: -0.217678226  nElectrons: 318.000000
LCAOMinimize: Iter:   4  F: -522.8393267272326739  |grad|_K:  5.085e-04  alpha:  6.650e-02  linmin:  1.823e-01  cgtest: -5.707e-01  t[s]:    634.62
LCAOMinimize: 	Predicted alpha/alphaT>3.000000, increasing alphaT to 1.994948e-01.
	FillingsUpdate:  mu: -0.217676738  nElectrons: 318.000000
LCAOMinimize: Iter:   5  F: -522.8420605517957256  |grad|_K:  6.677e-04  alpha:  4.480e-01  linmin:  7.138e-04  cgtest:  7.122e-01  t[s]:    755.26
	FillingsUpdate:  mu: -0.215600837  nElectrons: 318.000000
LCAOMinimize: Iter:   6  F: -522.8434237005632212  |grad|_K:  2.356e-04  alpha:  7.410e-02  linmin:  2.513e-02  cgtest: -3.786e-01  t[s]:    851.66
LCAOMinimize: 	Predicted alpha/alphaT>3.000000, increasing alphaT to 2.222875e-01.
	FillingsUpdate:  mu: -0.215555291  nElectrons: 318.000000
LCAOMinimize: Iter:   7  F: -522.8438960173330088  |grad|_K:  1.667e-04  alpha:  2.339e-01  linmin:  1.262e-04  cgtest:  5.541e-01  t[s]:    971.97
	FillingsUpdate:  mu: -0.216586766  nElectrons: 318.000000
LCAOMinimize: Iter:   8  F: -522.8439797525568338  |grad|_K:  5.274e-05  alpha:  6.338e-02  linmin: -3.914e-03  cgtest:  2.342e-02  t[s]:   1068.26
LCAOMinimize: 	Predicted alpha/alphaT>3.000000, increasing alphaT to 1.901255e-01.
	FillingsUpdate:  mu: -0.216656371  nElectrons: 318.000000
LCAOMinimize: Iter:   9  F: -522.8440255925142992  |grad|_K:  3.392e-05  alpha:  3.474e-01  linmin:  2.191e-04  cgtest: -2.403e-02  t[s]:   1188.59
	FillingsUpdate:  mu: -0.216624693  nElectrons: 318.000000
LCAOMinimize: Iter:  10  F: -522.8440502507469319  |grad|_K:  2.301e-05  alpha:  4.563e-01  linmin:  2.157e-04  cgtest:  1.408e-02  t[s]:   1285.06
	FillingsUpdate:  mu: -0.216756421  nElectrons: 318.000000
LCAOMinimize: Iter:  11  F: -522.8440518334354010  |grad|_K:  5.031e-06  alpha:  6.352e-02  linmin: -1.220e-03  cgtest:  5.071e-02  t[s]:   1381.43
LCAOMinimize: 	Predicted alpha/alphaT>3.000000, increasing alphaT to 1.905744e-01.
	FillingsUpdate:  mu: -0.216760856  nElectrons: 318.000000
LCAOMinimize: Iter:  12  F: -522.8440521617976628  |grad|_K:  2.076e-06  alpha:  2.750e-01  linmin:  7.903e-04  cgtest: -1.213e-02  t[s]:   1501.84
	FillingsUpdate:  mu: -0.216761271  nElectrons: 318.000000
LCAOMinimize: Iter:  13  F: -522.8440522435345201  |grad|_K:  8.678e-07  alpha:  4.028e-01  linmin: -3.380e-04  cgtest:  8.869e-03  t[s]:   1598.42
LCAOMinimize: Converged (|Delta F|<1.000000e-06 for 2 iters).
----- createFluidSolver() ----- (Fluid-side solver setup)
   Initializing fluid molecule 'Glyme'
     Net charge: 0   dipole magnitude: 0
     Initializing spherical shell mfKernel with radius 0 Bohr
     deltaS corrections:

Correction to mu due to finite nuclear width = -0.00614526
   Cavity determined by nc: 8.36e-05 and sigma: 0.6
   Effective cavity tension: -8.03e-06 Eh/bohr^2 to account for cavitation and dispersion.


---- Citations for features of the code used in this run ----

   Software package:
      R. Sundararaman, K. Letchworth-Weaver, K.A. Schwarz, D. Gunceler, Y. Ozhabes and T.A. Arias, 'JDFTx: software for joint density-functional theory', SoftwareX 6, 278 (2017)

   gga-PBE exchange-correlation functional:
      J.P. Perdew, K. Burke and M. Ernzerhof, Phys. Rev. Lett. 77, 3865 (1996)

   Pseudopotentials:
      KF Garrity, JW Bennett, KM Rabe and D Vanderbilt, Comput. Mater. Sci. 81, 446 (2014)

   Truncated Coulomb potentials:
      R. Sundararaman and T.A. Arias, Phys. Rev. B 87, 165122 (2013)

   Linear/nonlinear dielectric/ionic fluid model with effective cavity tension:
      D. Gunceler, K. Letchworth-Weaver, R. Sundararaman, K.A. Schwarz and T.A. Arias, Modelling Simul. Mater. Sci. Eng. 21, 074005 (2013)

This list may not be complete. Please suggest additional citations or
report any other bugs at https://github.com/shankar1729/jdftx/issues

Initialization completed successfully at t[s]:   1660.49

Fluid solver invoked on fresh (random / LCAO) wavefunctions
Running a vacuum solve first:

-------- Initial electronic minimization -----------
Will mix electronic density at each iteration.
	FillingsUpdate:  mu: -0.216761271  nElectrons: 318.000000
	FillingsUpdate:  mu: -0.223781026  nElectrons: 318.000000
SCF: Cycle:  0   F: -526.284252596327178   dF: -3.440e+00   |Residual|: 9.517e-01   |deigs|: 1.282e-01  t[s]:   2190.96
	FillingsUpdate:  mu: -0.197134662  nElectrons: 318.000000
SCF: Cycle:  1   F: -526.803801676799253   dF: -5.195e-01   |Residual|: 4.894e-01   |deigs|: 3.593e-02  t[s]:   2663.33
	FillingsUpdate:  mu: -0.165016502  nElectrons: 318.000000
SCF: Cycle:  2   F: -527.110778987731692   dF: -3.070e-01   |Residual|: 1.238e-01   |deigs|: 3.101e-02  t[s]:   3138.95
	FillingsUpdate:  mu: -0.157132753  nElectrons: 318.000000
SCF: Cycle:  3   F: -527.118853304115532   dF: -8.074e-03   |Residual|: 7.880e-02   |deigs|: 9.252e-03  t[s]:   3614.04
	FillingsUpdate:  mu: -0.146874383  nElectrons: 318.000000
SCF: Cycle:  4   F: -527.141929696069496   dF: -2.308e-02   |Residual|: 4.032e-02   |deigs|: 8.889e-03  t[s]:   4087.43
	FillingsUpdate:  mu: -0.137727120  nElectrons: 318.000000
SCF: Cycle:  5   F: -527.151656075790356   dF: -9.726e-03   |Residual|: 3.159e-02   |deigs|: 8.301e-03  t[s]:   4562.35
	FillingsUpdate:  mu: -0.133036324  nElectrons: 318.000000
SCF: Cycle:  6   F: -527.153693414737404   dF: -2.037e-03   |Residual|: 2.060e-02   |deigs|: 4.336e-03  t[s]:   5020.51
	FillingsUpdate:  mu: -0.125950806  nElectrons: 318.000000
SCF: Cycle:  7   F: -527.156710829638769   dF: -3.017e-03   |Residual|: 2.021e-02   |deigs|: 6.574e-03  t[s]:   5468.19
	FillingsUpdate:  mu: -0.125397411  nElectrons: 318.000000
SCF: Cycle:  8   F: -527.154369496287359   dF: +2.341e-03   |Residual|: 2.061e-02   |deigs|: 1.714e-03  t[s]:   5927.99
	FillingsUpdate:  mu: -0.121594835  nElectrons: 318.000000
SCF: Cycle:  9   F: -527.158905049842701   dF: -4.536e-03   |Residual|: 1.112e-02   |deigs|: 3.159e-03  t[s]:   6350.30
	FillingsUpdate:  mu: -0.120485550  nElectrons: 318.000000
SCF: Cycle: 10   F: -527.159368965004546   dF: -4.639e-04   |Residual|: 1.012e-02   |deigs|: 1.361e-03  t[s]:   6772.10
	FillingsUpdate:  mu: -0.117929516  nElectrons: 318.000000
SCF: Cycle: 11   F: -527.159258847666933   dF: +1.101e-04   |Residual|: 7.320e-03   |deigs|: 2.199e-03  t[s]:   7179.19
	FillingsUpdate:  mu: -0.115178026  nElectrons: 318.000000
SCF: Cycle: 12   F: -527.159631225803878   dF: -3.724e-04   |Residual|: 5.380e-03   |deigs|: 2.738e-03  t[s]:   7586.39
	FillingsUpdate:  mu: -0.113451165  nElectrons: 318.000000
SCF: Cycle: 13   F: -527.159810966924624   dF: -1.797e-04   |Residual|: 3.599e-03   |deigs|: 1.850e-03  t[s]:   7994.86
	FillingsUpdate:  mu: -0.110304933  nElectrons: 318.000000
SCF: Cycle: 14   F: -527.159847294366955   dF: -3.633e-05   |Residual|: 2.778e-03   |deigs|: 3.704e-03  t[s]:   8404.02
	FillingsUpdate:  mu: -0.108286922  nElectrons: 318.000000
SCF: Cycle: 15   F: -527.159862115609940   dF: -1.482e-05   |Residual|: 2.435e-03   |deigs|: 2.038e-03  t[s]:   8813.48
	FillingsUpdate:  mu: -0.107034773  nElectrons: 318.000000
SCF: Cycle: 16   F: -527.159882654481862   dF: -2.054e-05   |Residual|: 1.853e-03   |deigs|: 1.309e-03  t[s]:   9221.57
	FillingsUpdate:  mu: -0.106473563  nElectrons: 318.000000
SCF: Cycle: 17   F: -527.159891837200576   dF: -9.183e-06   |Residual|: 1.343e-03   |deigs|: 5.422e-04  t[s]:   9629.31
	FillingsUpdate:  mu: -0.105712340  nElectrons: 318.000000
SCF: Cycle: 18   F: -527.159895045122539   dF: -3.208e-06   |Residual|: 9.496e-04   |deigs|: 9.089e-04  t[s]:  10038.43
	FillingsUpdate:  mu: -0.105333513  nElectrons: 318.000000
SCF: Cycle: 19   F: -527.159895857713764   dF: -8.126e-07   |Residual|: 6.878e-04   |deigs|: 7.188e-04  t[s]:  10447.64
	FillingsUpdate:  mu: -0.105280304  nElectrons: 318.000000
SCF: Cycle: 20   F: -527.159901233523556   dF: -5.376e-06   |Residual|: 3.767e-04   |deigs|: 5.276e-04  t[s]:  10857.99
	FillingsUpdate:  mu: -0.105272903  nElectrons: 318.000000
SCF: Cycle: 21   F: -527.159903517809994   dF: -2.284e-06   |Residual|: 2.958e-04   |deigs|: 6.865e-04  t[s]:  11267.41
	FillingsUpdate:  mu: -0.105228059  nElectrons: 318.000000
SCF: Cycle: 22   F: -527.159904239315324   dF: -7.215e-07   |Residual|: 2.253e-04   |deigs|: 2.384e-04  t[s]:  11674.23
	FillingsUpdate:  mu: -0.105161379  nElectrons: 318.000000
SCF: Cycle: 23   F: -527.159904548796931   dF: -3.095e-07   |Residual|: 1.484e-04   |deigs|: 4.664e-04  t[s]:  12080.18
	FillingsUpdate:  mu: -0.105094874  nElectrons: 318.000000
SCF: Cycle: 24   F: -527.159904739859599   dF: -1.911e-07   |Residual|: 1.204e-04   |deigs|: 3.547e-04  t[s]:  12489.10
	FillingsUpdate:  mu: -0.105049303  nElectrons: 318.000000
SCF: Cycle: 25   F: -527.159904754434365   dF: -1.457e-08   |Residual|: 9.793e-05   |deigs|: 3.177e-04  t[s]:  12896.12
	FillingsUpdate:  mu: -0.105023088  nElectrons: 318.000000
SCF: Cycle: 26   F: -527.159904874663994   dF: -1.202e-07   |Residual|: 7.087e-05   |deigs|: 2.442e-04  t[s]:  13306.40
	FillingsUpdate:  mu: -0.105026684  nElectrons: 318.000000
SCF: Cycle: 27   F: -527.159905000158233   dF: -1.255e-07   |Residual|: 5.123e-05   |deigs|: 1.619e-04  t[s]:  13714.30
	FillingsUpdate:  mu: -0.105019971  nElectrons: 318.000000
SCF: Cycle: 28   F: -527.159905081692500   dF: -8.153e-08   |Residual|: 4.523e-05   |deigs|: 7.500e-05  t[s]:  14121.37
	FillingsUpdate:  mu: -0.105001207  nElectrons: 318.000000
SCF: Cycle: 29   F: -527.159905122564396   dF: -4.087e-08   |Residual|: 3.367e-05   |deigs|: 1.182e-04  t[s]:  14529.25
	FillingsUpdate:  mu: -0.104987106  nElectrons: 318.000000
SCF: Cycle: 30   F: -527.159905130746665   dF: -8.182e-09   |Residual|: 2.183e-05   |deigs|: 1.938e-04  t[s]:  14937.17
	FillingsUpdate:  mu: -0.104973743  nElectrons: 318.000000
SCF: Cycle: 31   F: -527.159905137068449   dF: -6.322e-09   |Residual|: 1.404e-05   |deigs|: 1.743e-04  t[s]:  15345.46
SCF: Converged (|Delta E|<1.000000e-08 for 2 iters).

Setting wave functions to eigenvectors of Hamiltonian
Vacuum energy after initial minimize, F = -527.159905137068449


-------- Electronic minimization -----------
Will mix electronic density at each iteration.
	FillingsUpdate:  mu: -0.104973743  nElectrons: 318.000000
	Linear fluid (dielectric constant: 7.2) occupying 0.845224 of unit cell:	Completed after 13 iterations at t[s]:  15377.58
	FillingsUpdate:  mu: -0.109710593  nElectrons: 318.000000
	Linear fluid (dielectric constant: 7.2) occupying 0.847049 of unit cell:	Completed after 12 iterations at t[s]:  15892.69
SCF: Cycle:  0   F: -527.198463403241135   dF: +5.986e-03   |Residual|: 3.719e-02   |deigs|: 1.077e-02  t[s]:  15893.80
	Linear fluid (dielectric constant: 7.2) occupying 0.844908 of unit cell:	Completed after 11 iterations at t[s]:  15898.89
	FillingsUpdate:  mu: -0.111096809  nElectrons: 318.000000
	Linear fluid (dielectric constant: 7.2) occupying 0.847153 of unit cell:	Completed after 11 iterations at t[s]:  16377.38
SCF: Cycle:  1   F: -527.213572451878122   dF: -1.511e-02   |Residual|: 2.706e-02   |deigs|: 1.764e-03  t[s]:  16378.51
	Linear fluid (dielectric constant: 7.2) occupying 0.844922 of unit cell:	Completed after 10 iterations at t[s]:  16383.07
	FillingsUpdate:  mu: -0.110355389  nElectrons: 318.000000
	Linear fluid (dielectric constant: 7.2) occupying 0.847148 of unit cell:	Completed after 11 iterations at t[s]:  16845.15
SCF: Cycle:  2   F: -527.216102778922846   dF: -2.530e-03   |Residual|: 7.674e-03   |deigs|: 7.346e-04  t[s]:  16846.29
	Linear fluid (dielectric constant: 7.2) occupying 0.844678 of unit cell:	Completed after 11 iterations at t[s]:  16851.45
	FillingsUpdate:  mu: -0.110002643  nElectrons: 318.000000
	Linear fluid (dielectric constant: 7.2) occupying 0.847288 of unit cell:	Completed after 11 iterations at t[s]:  17332.13
SCF: Cycle:  3   F: -527.216930603122137   dF: -8.278e-04   |Residual|: 6.266e-03   |deigs|: 5.022e-04  t[s]:  17333.23
	Linear fluid (dielectric constant: 7.2) occupying 0.844484 of unit cell:	Completed after 10 iterations at t[s]:  17337.97
	FillingsUpdate:  mu: -0.109470026  nElectrons: 318.000000
	Linear fluid (dielectric constant: 7.2) occupying 0.847564 of unit cell:	Completed after 11 iterations at t[s]:  17813.41
SCF: Cycle:  4   F: -527.218139626611787   dF: -1.209e-03   |Residual|: 3.732e-03   |deigs|: 7.768e-04  t[s]:  17814.53
	Linear fluid (dielectric constant: 7.2) occupying 0.844890 of unit cell:	Completed after 9 iterations at t[s]:  17819.05
	FillingsUpdate:  mu: -0.108560043  nElectrons: 318.000000
	Linear fluid (dielectric constant: 7.2) occupying 0.847800 of unit cell:	Completed after 10 iterations at t[s]:  18298.45
SCF: Cycle:  5   F: -527.218684540801632   dF: -5.449e-04   |Residual|: 6.055e-03   |deigs|: 1.328e-03  t[s]:  18299.57
	Linear fluid (dielectric constant: 7.2) occupying 0.845780 of unit cell:	Completed after 9 iterations at t[s]:  18304.15
	FillingsUpdate:  mu: -0.107867899  nElectrons: 318.000000
	Linear fluid (dielectric constant: 7.2) occupying 0.847876 of unit cell:	Completed after 9 iterations at t[s]:  18782.01
SCF: Cycle:  6   F: -527.219514302384823   dF: -8.298e-04   |Residual|: 3.508e-03   |deigs|: 1.606e-03  t[s]:  18783.16
	Linear fluid (dielectric constant: 7.2) occupying 0.847400 of unit cell:	Completed after 9 iterations at t[s]:  18787.49
	FillingsUpdate:  mu: -0.107247210  nElectrons: 318.000000
	Linear fluid (dielectric constant: 7.2) occupying 0.847636 of unit cell:	Completed after 8 iterations at t[s]:  19264.92
SCF: Cycle:  7   F: -527.220012217866270   dF: -4.979e-04   |Residual|: 1.746e-03   |deigs|: 2.295e-03  t[s]:  19265.97
	Linear fluid (dielectric constant: 7.2) occupying 0.847648 of unit cell:	Completed after 8 iterations at t[s]:  19270.12
	FillingsUpdate:  mu: -0.107276929  nElectrons: 318.000000
	Linear fluid (dielectric constant: 7.2) occupying 0.847633 of unit cell:	Completed after 8 iterations at t[s]:  19749.38
SCF: Cycle:  8   F: -527.220067985700439   dF: -5.577e-05   |Residual|: 1.335e-03   |deigs|: 8.203e-04  t[s]:  19750.52
	Linear fluid (dielectric constant: 7.2) occupying 0.847716 of unit cell:	Completed after 9 iterations at t[s]:  19755.13
	FillingsUpdate:  mu: -0.107130015  nElectrons: 318.000000
	Linear fluid (dielectric constant: 7.2) occupying 0.847606 of unit cell:	Completed after 8 iterations at t[s]:  20232.08
SCF: Cycle:  9   F: -527.220064638973781   dF: +3.347e-06   |Residual|: 1.204e-03   |deigs|: 7.826e-04  t[s]:  20233.22
	Linear fluid (dielectric constant: 7.2) occupying 0.847385 of unit cell:	Completed after 8 iterations at t[s]:  20237.52
	FillingsUpdate:  mu: -0.107354199  nElectrons: 318.000000
	Linear fluid (dielectric constant: 7.2) occupying 0.847640 of unit cell:	Completed after 8 iterations at t[s]:  20719.56
SCF: Cycle: 10   F: -527.220102555279482   dF: -3.792e-05   |Residual|: 1.052e-03   |deigs|: 6.490e-04  t[s]:  20720.67
	Linear fluid (dielectric constant: 7.2) occupying 0.847379 of unit cell:	Completed after 7 iterations at t[s]:  20724.33
	FillingsUpdate:  mu: -0.107290552  nElectrons: 318.000000
	Linear fluid (dielectric constant: 7.2) occupying 0.847589 of unit cell:	Completed after 8 iterations at t[s]:  21140.31
SCF: Cycle: 11   F: -527.220108602594451   dF: -6.047e-06   |Residual|: 1.111e-03   |deigs|: 3.298e-04  t[s]:  21141.34
	Linear fluid (dielectric constant: 7.2) occupying 0.847331 of unit cell:	Completed after 7 iterations at t[s]:  21145.29
	FillingsUpdate:  mu: -0.107400690  nElectrons: 318.000000
	Linear fluid (dielectric constant: 7.2) occupying 0.847590 of unit cell:	Completed after 7 iterations at t[s]:  21623.61
SCF: Cycle: 12   F: -527.220129104282023   dF: -2.050e-05   |Residual|: 8.067e-04   |deigs|: 4.583e-04  t[s]:  21624.74
	Linear fluid (dielectric constant: 7.2) occupying 0.847412 of unit cell:	Completed after 7 iterations at t[s]:  21628.63
	FillingsUpdate:  mu: -0.107425492  nElectrons: 318.000000
	Linear fluid (dielectric constant: 7.2) occupying 0.847589 of unit cell:	Completed after 7 iterations at t[s]:  22034.20
SCF: Cycle: 13   F: -527.220132587433000   dF: -3.483e-06   |Residual|: 7.132e-04   |deigs|: 3.359e-04  t[s]:  22035.30
	Linear fluid (dielectric constant: 7.2) occupying 0.847554 of unit cell:	Completed after 7 iterations at t[s]:  22039.25
	FillingsUpdate:  mu: -0.107430731  nElectrons: 318.000000
	Linear fluid (dielectric constant: 7.2) occupying 0.847580 of unit cell:	Completed after 7 iterations at t[s]:  22445.24
SCF: Cycle: 14   F: -527.220137461566310   dF: -4.874e-06   |Residual|: 4.363e-04   |deigs|: 5.292e-04  t[s]:  22446.33
	Linear fluid (dielectric constant: 7.2) occupying 0.847661 of unit cell:	Completed after 5 iterations at t[s]:  22449.55
	FillingsUpdate:  mu: -0.107346671  nElectrons: 318.000000
	Linear fluid (dielectric constant: 7.2) occupying 0.847559 of unit cell:	Completed after 6 iterations at t[s]:  22853.93
SCF: Cycle: 15   F: -527.220144534935798   dF: -7.073e-06   |Residual|: 2.798e-04   |deigs|: 5.542e-04  t[s]:  22854.96
	Linear fluid (dielectric constant: 7.2) occupying 0.847647 of unit cell:	Completed after 5 iterations at t[s]:  22858.25
	FillingsUpdate:  mu: -0.107335533  nElectrons: 318.000000
	Linear fluid (dielectric constant: 7.2) occupying 0.847557 of unit cell:	Completed after 5 iterations at t[s]:  23265.20
SCF: Cycle: 16   F: -527.220145992827838   dF: -1.458e-06   |Residual|: 2.544e-04   |deigs|: 2.348e-04  t[s]:  23266.32
	Linear fluid (dielectric constant: 7.2) occupying 0.847615 of unit cell:	Completed after 4 iterations at t[s]:  23269.28
	FillingsUpdate:  mu: -0.107330859  nElectrons: 318.000000
	Linear fluid (dielectric constant: 7.2) occupying 0.847558 of unit cell:	Completed after 4 iterations at t[s]:  23673.02
SCF: Cycle: 17   F: -527.220146244434090   dF: -2.516e-07   |Residual|: 1.681e-04   |deigs|: 2.181e-04  t[s]:  23674.12
	Linear fluid (dielectric constant: 7.2) occupying 0.847601 of unit cell:	Completed after 4 iterations at t[s]:  23677.03
	FillingsUpdate:  mu: -0.107301243  nElectrons: 318.000000
	Linear fluid (dielectric constant: 7.2) occupying 0.847558 of unit cell:	Completed after 3 iterations at t[s]:  24152.82
SCF: Cycle: 18   F: -527.220146478359652   dF: -2.339e-07   |Residual|: 1.293e-04   |deigs|: 2.036e-04  t[s]:  24153.88
	Linear fluid (dielectric constant: 7.2) occupying 0.847592 of unit cell:	Completed after 4 iterations at t[s]:  24156.84
	FillingsUpdate:  mu: -0.107284542  nElectrons: 318.000000
	Linear fluid (dielectric constant: 7.2) occupying 0.847559 of unit cell:	Completed after 4 iterations at t[s]:  24561.09
SCF: Cycle: 19   F: -527.220146573257352   dF: -9.490e-08   |Residual|: 9.980e-05   |deigs|: 1.448e-04  t[s]:  24562.17
	Linear fluid (dielectric constant: 7.2) occupying 0.847575 of unit cell:	Completed after 2 iterations at t[s]:  24564.41
	FillingsUpdate:  mu: -0.107280639  nElectrons: 318.000000
	Linear fluid (dielectric constant: 7.2) occupying 0.847560 of unit cell:	Completed after 2 iterations at t[s]:  24969.43
SCF: Cycle: 20   F: -527.220146872271926   dF: -2.990e-07   |Residual|: 9.231e-05   |deigs|: 2.449e-04  t[s]:  24970.44
	Linear fluid (dielectric constant: 7.2) occupying 0.847561 of unit cell:	Completed after 2 iterations at t[s]:  24972.63
	FillingsUpdate:  mu: -0.107282585  nElectrons: 318.000000
	Linear fluid (dielectric constant: 7.2) occupying 0.847560 of unit cell:	Completed after 2 iterations at t[s]:  25379.06
SCF: Cycle: 21   F: -527.220146998297309   dF: -1.260e-07   |Residual|: 5.895e-05   |deigs|: 1.996e-04  t[s]:  25380.16
	Linear fluid (dielectric constant: 7.2) occupying 0.847557 of unit cell:	Completed after 1 iterations at t[s]:  25382.13
	FillingsUpdate:  mu: -0.107279974  nElectrons: 318.000000
	Linear fluid (dielectric constant: 7.2) occupying 0.847559 of unit cell:	Completed after 1 iterations at t[s]:  25787.95
SCF: Cycle: 22   F: -527.220147040299480   dF: -4.200e-08   |Residual|: 5.149e-05   |deigs|: 2.471e-04  t[s]:  25788.99
	Linear fluid (dielectric constant: 7.2) occupying 0.847561 of unit cell:	Completed after 1 iterations at t[s]:  25790.94
	FillingsUpdate:  mu: -0.107276969  nElectrons: 318.000000
	Linear fluid (dielectric constant: 7.2) occupying 0.847558 of unit cell:	Completed after 1 iterations at t[s]:  26193.64
SCF: Cycle: 23   F: -527.220147053951678   dF: -1.365e-08   |Residual|: 4.222e-05   |deigs|: 1.299e-04  t[s]:  26194.82
	Linear fluid (dielectric constant: 7.2) occupying 0.847562 of unit cell:	Completed after 1 iterations at t[s]:  26196.63
	FillingsUpdate:  mu: -0.107279650  nElectrons: 318.000000
	Linear fluid (dielectric constant: 7.2) occupying 0.847558 of unit cell:	Completed after 2 iterations at t[s]:  26601.31
SCF: Cycle: 24   F: -527.220146993710500   dF: +6.024e-08   |Residual|: 8.965e-05   |deigs|: 5.946e-05  t[s]:  26602.31
	Linear fluid (dielectric constant: 7.2) occupying 0.847563 of unit cell:	Completed after 1 iterations at t[s]:  26604.19
	FillingsUpdate:  mu: -0.107279569  nElectrons: 318.000000
	Linear fluid (dielectric constant: 7.2) occupying 0.847558 of unit cell:	Completed after 2 iterations at t[s]:  27006.64
SCF: Cycle: 25   F: -527.220147050957166   dF: -5.725e-08   |Residual|: 5.302e-05   |deigs|: 3.806e-05  t[s]:  27007.78
	Linear fluid (dielectric constant: 7.2) occupying 0.847563 of unit cell:	Completed after 1 iterations at t[s]:  27009.58
	FillingsUpdate:  mu: -0.107278063  nElectrons: 318.000000
	Linear fluid (dielectric constant: 7.2) occupying 0.847558 of unit cell:	Completed after 1 iterations at t[s]:  27412.88
SCF: Cycle: 26   F: -527.220147067593530   dF: -1.664e-08   |Residual|: 5.566e-05   |deigs|: 5.580e-05  t[s]:  27413.83
	Linear fluid (dielectric constant: 7.2) occupying 0.847563 of unit cell:	Completed after 1 iterations at t[s]:  27415.68
	FillingsUpdate:  mu: -0.107278167  nElectrons: 318.000000
	Linear fluid (dielectric constant: 7.2) occupying 0.847557 of unit cell:	Completed after 0 iterations at t[s]:  27819.38
SCF: Cycle: 27   F: -527.220147106614604   dF: -3.902e-08   |Residual|: 1.493e-05   |deigs|: 3.949e-05  t[s]:  27820.40
	Linear fluid (dielectric constant: 7.2) occupying 0.847563 of unit cell:	Completed after 0 iterations at t[s]:  27821.84
	FillingsUpdate:  mu: -0.107281554  nElectrons: 318.000000
	Linear fluid (dielectric constant: 7.2) occupying 0.847557 of unit cell:	Completed after 1 iterations at t[s]:  28224.84
SCF: Cycle: 28   F: -527.220147101324528   dF: +5.290e-09   |Residual|: 2.377e-05   |deigs|: 3.007e-05  t[s]:  28225.87
	Linear fluid (dielectric constant: 7.2) occupying 0.847562 of unit cell:	Completed after 1 iterations at t[s]:  28227.80
	FillingsUpdate:  mu: -0.107279227  nElectrons: 318.000000
	Linear fluid (dielectric constant: 7.2) occupying 0.847558 of unit cell:	Completed after 0 iterations at t[s]:  28632.99
SCF: Cycle: 29   F: -527.220147108774768   dF: -7.450e-09   |Residual|: 1.032e-05   |deigs|: 3.546e-05  t[s]:  28634.06
	Linear fluid (dielectric constant: 7.2) occupying 0.847562 of unit cell:	Completed after 0 iterations at t[s]:  28635.68
	FillingsUpdate:  mu: -0.107280499  nElectrons: 318.000000
	Linear fluid (dielectric constant: 7.2) occupying 0.847558 of unit cell:	Completed after 0 iterations at t[s]:  29041.39
SCF: Cycle: 30   F: -527.220147108705874   dF: +6.889e-11   |Residual|: 5.809e-06   |deigs|: 3.087e-05  t[s]:  29042.49
	Linear fluid (dielectric constant: 7.2) occupying 0.847561 of unit cell:	Completed after 0 iterations at t[s]:  29044.08
	FillingsUpdate:  mu: -0.107279598  nElectrons: 318.000000
	Linear fluid (dielectric constant: 7.2) occupying 0.847558 of unit cell:	Completed after 0 iterations at t[s]:  29460.03
SCF: Cycle: 31   F: -527.220147109120376   dF: -4.145e-10   |Residual|: 1.091e-05   |deigs|: 6.491e-05  t[s]:  29461.12
	Linear fluid (dielectric constant: 7.2) occupying 0.847560 of unit cell:	Completed after 0 iterations at t[s]:  29462.68
	FillingsUpdate:  mu: -0.107279359  nElectrons: 318.000000
	Linear fluid (dielectric constant: 7.2) occupying 0.847558 of unit cell:	Completed after 0 iterations at t[s]:  29833.11
SCF: Cycle: 32   F: -527.220147109631284   dF: -5.109e-10   |Residual|: 6.202e-06   |deigs|: 4.851e-05  t[s]:  29834.18
SCF: Converged (|Delta E|<1.000000e-08 for 2 iters).

Setting wave functions to eigenvectors of Hamiltonian
Single-point solvation energy estimate, DeltaF = -0.060241972562835

# Ionic positions in cartesian coordinates:
ion C  28.010542013705631   0.002014969601156   0.135465203747167 0
ion C  16.341968157882292  20.214705522223607   0.136370795694031 0
ion C   2.338532027351695   4.042411505399060   0.130361847754816 0
ion C  23.343313188735969   0.002278716019722   0.140022467239564 0
ion C   4.672620934470559   0.001554156700161   0.132050616002296 0
ion C  11.674116326115334  20.215100669694028   0.119847495055023 0
ion C  25.676530282256284   4.042904097616445   0.153564930084009 0
ion C  18.675851376129700  16.172910511284943   0.162695583431347 0
ion C   4.671777948336020   8.082036709586005   0.112564386226399 0
ion C  18.676336142016083   0.002101964498535   0.151180333522280 0
ion C   9.339850970925752   0.001738039847832   0.141511836963307 0
ion C   9.341212652353351  16.175613291750459   0.099279306155555 0
ion C  23.342941439729607   8.084920466015539   0.183240254571249 0
ion C  21.009110272076708  12.128959849493356   0.188453340004560 0
ion C   7.009085367604252  12.128528685817338   0.097262204671189 0
ion C  14.008105470077210   0.001988816408382   0.154008834012117 0
ion C  14.009120976896664  16.174984627607692   0.129938477890011 0
ion C   7.005550759074101   4.041176716120078   0.116350899393808 0
ion C  21.010101094155836   4.043302536041172   0.168670850704729 0
ion C  16.344445762465487  12.130683361169906   0.168518806438797 0
ion C   9.337643998902927   8.081728763982859   0.114931622729934 0
ion C  16.343783017314891   4.042062713362387   0.168836182024801 0
ion C  11.674085450205249   4.041278849785761   0.142196060576936 0
ion C  11.675597583834264  12.133622242506720   0.130068253549407 0
ion C  18.678074956154809   8.085220585829878   0.185769374381508 0
ion C   7.007175797728255  20.216155157604103   0.119709324068161 0
ion C  -6.996748017889803  20.214440105700564   0.153094683289385 0
ion C   0.002354623270169   8.082966457809835   0.157418822396949 0
ion C  14.012576459862725   8.083203697825988   0.169712893069491 0
ion C   2.339067441062872  20.216465077180068   0.146220757178249 0
ion C  -4.663670527593792  16.172490992184059   0.178596642017759 0
ion C   2.336125814129785  12.127745765919109   0.156417500003109 0
ion C  -2.332224039758668  12.128030282589300   0.185859862245795 0
ion C  -2.329659352792410  20.215194179952768   0.159830322184195 0
ion C   4.673933801454849  16.177740252210711   0.125359734501050 0
ion C   0.002990588629148  16.174656174657997   0.166554428718456 0
ion C  14.008266720144102  21.561374576259517   0.129777200837147 0
ion C   2.338930816614256   1.348570645432834   0.132009758527847 0
ion C  25.677100562977380   1.348988124751942   0.141986895200077 0
ion C  16.342686998612663  17.520648868856785   0.142302048336077 0
ion C   4.672307145938162   5.388219921962990   0.116057256550324 0
ion C  21.010123495302889   1.349044430338556   0.152394834146865 0
ion C   7.005937845436384   1.348033936218268   0.128031389286509 0
ion C  11.674692189550257  17.521226022139913   0.112057705166649 0
ion C  23.343784883173043   5.390651685198355   0.169612389866280 0
ion C  18.676972543384359  13.478483594758318   0.175595907033571 0
ion C   7.004963348139576   9.432115986525980   0.097538283264729 0
ion C  16.342472076605748   1.348066366442404   0.159130179870282 0
ion C  11.673522256343780   1.347802312891912   0.146547034509048 0
ion C   9.340696631175403  13.481256291567631   0.099303874261302 0
ion C  21.010487586627971   9.434228317035956   0.189549670827176 0
ion C   9.340862584041272  21.562275316056120   0.123251203387412 0
ion C  -9.330262385564788  21.561165527783945   0.140491424243251 0
ion C   0.004476893676090   5.389148113018151   0.145932445799481 0
ion C  14.011432130181314  13.480719160062115   0.143556882023976 0
ion C   9.339051356617166   5.386992451363917   0.121078239496768 0
ion C  18.677007069088155   5.390558998944344   0.176741055188348 0
ion C  16.345725884609092   9.434637493571932   0.179131999516681 0
ion C  11.674484029805171   9.432912355349794   0.144194404697448 0
ion C  14.009428395823310   5.387478001177438   0.162736904438848 0
ion C   4.673293824799767  21.561882602550448   0.137519226383223 0
ion C  -6.996841473985322  17.520066852095106   0.166346621047360 0
ion C   2.337134667876788   9.428913976861832   0.143387178107247 0
ion C  -2.330217064543965   9.432650452790400   0.178563548363968 0
ion C  -4.663349535264295  21.561481505082671   0.152392573786173 0
ion C   7.008365318233412  17.523060541264897   0.107450639135720 0
ion C   0.004487123343836  21.561671103490092   0.154109318198198 0
ion C  -4.664147187494720  13.477588422800194   0.188047082736968 0
ion C   4.674619807111762  13.479414560663223   0.125188064189185 0
ion C   2.338448909138405  17.522455183042435   0.145633689115609 0
ion C  -2.330712054942804  17.520790606615741   0.170058696770369 0
ion C   0.000363098194401  13.478789474313889   0.175559226948007 0
ion S   8.334406152685510  12.304350680589568   8.503116423280773 1
ion S   5.250369142950842  10.150033864932382   7.315092341390605 1
ion Na   9.674104022242041   7.368116643188890   7.180883587875496 1
ion Na   4.531077050357874  15.163863278789943   6.189257312058275 1

# Forces in Cartesian coordinates:
force C   0.000192539116669  -0.000094087748359  -0.000381436860826 0
force C   0.000045098556179  -0.000123906847786  -0.000226322840058 0
force C  -0.000125164690885   0.000068089274835  -0.000283942314668 0
force C   0.000192037189501   0.000075340535190  -0.000372256822890 0
force C  -0.000238542522803  -0.000171783157913  -0.000230099389898 0
force C   0.000335449670207  -0.000085616473752  -0.000113395750543 0
force C   0.000182816316835   0.000005016684123  -0.000393969807872 0
force C  -0.000002108062385  -0.000116619764289  -0.000448444547589 0
force C  -0.000222941604824   0.001298390719143   0.000017593429650 0
force C   0.000036686236833  -0.000034718240452  -0.000435503464580 0
force C  -0.000087287024127  -0.000263188743584  -0.000391658650540 0
force C   0.000328764992672  -0.000662233854569   0.000271308248101 0
force C   0.000053900262406   0.000469615939721  -0.000607924108796 0
force C   0.000128516909633   0.000324286882095  -0.000513536220570 0
force C  -0.000204723856026  -0.000036168376776   0.000543182772487 0
force C   0.000003836289731  -0.000119105767067  -0.000349808750603 0
force C  -0.000081972539138  -0.000545896042657  -0.000140695382351 0
force C  -0.000321889301405  -0.000060819613624  -0.000203172958378 0
force C   0.000095794535508   0.000050600591122  -0.000515054483594 0
force C  -0.000518904655467  -0.000068373729495  -0.000433458142607 0
force C   0.001126400852188   0.002176843403141   0.000463599303762 0
force C  -0.000092489067751   0.000053237101409  -0.000479444436135 0
force C   0.000399540366121   0.000264985717650  -0.000480704168890 0
force C   0.000110032325233  -0.001545882334866  -0.000530214697467 0
force C  -0.000176818422966   0.000529553985058  -0.000555789012661 0
force C   0.000307443305083   0.000293511387492  -0.000143379697308 0
force C  -0.000095602279610  -0.000226648536606  -0.000405237363116 0
force C   0.000873378651159   0.000831753580331  -0.000846238635452 0
force C  -0.001582444769224   0.001518208182465  -0.001435860476878 0
force C  -0.000282498166702   0.000036316616111  -0.000517367164139 0
force C  -0.000068420783036  -0.000138343708172  -0.000581922238200 0
force C   0.000382025300007  -0.000191108046926  -0.001151452027254 0
force C   0.000541204918403   0.000351234924253  -0.000548672036450 0
force C  -0.000076564471803  -0.000208054386157  -0.000483977312292 0
force C  -0.000154825054472  -0.001720494090584   0.000590850072339 0
force C   0.000031735312432  -0.000613860567055  -0.000807652284679 0
force C  -0.000161534692717   0.000197311832227  -0.000148864990497 0
force C  -0.000209712456607   0.000001717869345  -0.000192380362613 0
force C  -0.000070776908059  -0.000011328100524  -0.000198043648121 0
force C  -0.000087232353543   0.000130287381844  -0.000212586498086 0
force C  -0.000274607572498   0.000710758120115  -0.000140198524396 0
force C  -0.000060570542376   0.000150035238609  -0.000246945618459 0
force C   0.000004060504622  -0.000163776737351  -0.000048515534461 0
force C   0.000237870528651   0.000113524108205   0.000103823806312 0
force C  -0.000183123656966  -0.000084730716483  -0.000377452229916 0
force C  -0.000121994407984  -0.000341236352702  -0.000483379951440 0
force C  -0.000405725802569   0.000323924307481   0.000671531686565 0
force C   0.000051931715463   0.000123981918004  -0.000449677292910 0
force C   0.000254382813722  -0.000099536377244  -0.000385875816345 0
force C   0.000498520885435  -0.001667451494352   0.000446557227313 0
force C  -0.000067899963296  -0.000387643795708  -0.000478232579288 0
force C   0.000066763194202   0.000112664974909  -0.000054591994800 0
force C  -0.000016679762958   0.000164787697450  -0.000224557531615 0
force C  -0.000009217848095   0.000123128054512  -0.000295533178314 0
force C  -0.001029887032543  -0.001076940605188  -0.000721393063559 0
force C   0.000160303671106   0.000252730343744  -0.000076257918093 0
force C  -0.000012581396291   0.000013266834309  -0.000344103205949 0
force C  -0.000701404209470  -0.000328969063229  -0.000473208463810 0
force C   0.000620028831592   0.000832468378079  -0.001085156311411 0
force C   0.000054571953721   0.000792384499436  -0.000651435169451 0
force C  -0.000067035173172   0.000501974416077  -0.000309324109650 0
force C   0.000113063388950   0.000038774257844  -0.000377592350832 0
force C   0.000297260195617   0.001397506458064  -0.000513145982424 0
force C   0.000230193689764  -0.000001573820628  -0.000451981843400 0
force C   0.000094479660033   0.000016739562177  -0.000307063673892 0
force C   0.000877392542662   0.000460040939934   0.000130271398127 0
force C  -0.000050534884182   0.000212511544501  -0.000320523305360 0
force C   0.000009663034307  -0.000384094449281  -0.000494740404057 0
force C  -0.001189689431705  -0.002459180248578   0.000304098219718 0
force C  -0.001348079697041   0.000264900844552  -0.000440857262417 0
force C   0.000065564786382   0.000133120494169  -0.000337416214313 0
force C   0.001428657065497  -0.001366619551197  -0.001567983460314 0
force S  -0.004250252637493  -0.002571052459779  -0.001452572781203 1
force S   0.004001673877588   0.002422474357641   0.002010669578176 1
force Na   0.000180050876673  -0.000198963055968   0.002187957803354 1
force Na   0.000152088878219   0.000268598082274   0.000840943105708 1

# Energy components:
   A_diel =       -0.0759116479938385
   Eewald =     4665.6275036999322765
       EH =     5083.9094934287004435
     Eloc =   -10308.1184196395606705
      Enl =      -82.1447707013404766
      Exc =     -153.5548056959719077
 Exc_core =        5.9601301908225590
       KE =      261.2505404306823493
-------------------------------------
     Etot =     -527.1462399347302608
       TS =        0.0739071749010075
-------------------------------------
        F =     -527.2201471096312844

IonicMinimize: Iter:   0  F: -527.220147109631284  |grad|_K:  2.206e-03  alpha:  1.000e+00

#--- Lowdin population analysis ---
# oxidation-state C +0.034 +0.034 +0.035 +0.034 +0.033 +0.034 +0.035 +0.034 +0.040 +0.032 +0.031 +0.031 +0.034 +0.034 +0.034 +0.031 +0.035 +0.030 +0.034 +0.033 +0.022 +0.031 +0.027 +0.035 +0.033 +0.030 +0.033 +0.036 +0.029 +0.028 +0.033 +0.029 +0.033 +0.032 +0.004 +0.026 +0.034 +0.034 +0.034 +0.035 +0.034 +0.033 +0.032 +0.035 +0.034 +0.034 +0.037 +0.032 +0.030 +0.035 +0.034 +0.033 +0.034 +0.035 +0.035 +0.023 +0.032 +0.032 +0.027 +0.028 +0.030 +0.034 +0.038 +0.034 +0.033 +0.023 +0.031 +0.034 +0.014 +0.020 +0.031 +0.029
# oxidation-state S -0.471 -0.461
# oxidation-state Na +0.902 +0.890


-------- Electronic minimization -----------
Will mix electronic density at each iteration.
	FillingsUpdate:  mu: -0.107279359  nElectrons: 318.000000
	Linear fluid (dielectric constant: 7.2) occupying 0.847568 of unit cell:	Completed after 3 iterations at t[s]:  30052.30
	FillingsUpdate:  mu: -0.107170744  nElectrons: 318.000000
	Linear fluid (dielectric constant: 7.2) occupying 0.847578 of unit cell:	Completed after 6 iterations at t[s]:  30495.52
SCF: Cycle:  0   F: -527.220165723678747   dF: +2.346e-05   |Residual|: 2.204e-03   |deigs|: 9.389e-07  t[s]:  30496.58
	Linear fluid (dielectric constant: 7.2) occupying 0.847544 of unit cell:	Completed after 6 iterations at t[s]:  30499.89
	FillingsUpdate:  mu: -0.107250938  nElectrons: 318.000000
	Linear fluid (dielectric constant: 7.2) occupying 0.847580 of unit cell:	Completed after 4 iterations at t[s]:  30769.82
SCF: Cycle:  1   F: -527.220190235722271   dF: -2.451e-05   |Residual|: 1.176e-03   |deigs|: 8.332e-05  t[s]:  30770.93
	Linear fluid (dielectric constant: 7.2) occupying 0.847546 of unit cell:	Completed after 4 iterations at t[s]:  30773.71
	FillingsUpdate:  mu: -0.107215478  nElectrons: 318.000000
	Linear fluid (dielectric constant: 7.2) occupying 0.847578 of unit cell:	Completed after 4 iterations at t[s]:  31043.37
SCF: Cycle:  2   F: -527.220197112635105   dF: -6.877e-06   |Residual|: 3.746e-04   |deigs|: 3.662e-05  t[s]:  31044.45
	Linear fluid (dielectric constant: 7.2) occupying 0.847544 of unit cell:	Completed after 4 iterations at t[s]:  31047.30
	FillingsUpdate:  mu: -0.107216311  nElectrons: 318.000000
	Linear fluid (dielectric constant: 7.2) occupying 0.847576 of unit cell:	Completed after 4 iterations at t[s]:  31317.88
SCF: Cycle:  3   F: -527.220197618203883   dF: -5.056e-07   |Residual|: 1.070e-04   |deigs|: 3.875e-05  t[s]:  31318.93
	Linear fluid (dielectric constant: 7.2) occupying 0.847550 of unit cell:	Completed after 4 iterations at t[s]:  31321.56
	FillingsUpdate:  mu: -0.107214699  nElectrons: 318.000000
	Linear fluid (dielectric constant: 7.2) occupying 0.847575 of unit cell:	Completed after 3 iterations at t[s]:  31593.50
SCF: Cycle:  4   F: -527.220197726694096   dF: -1.085e-07   |Residual|: 5.920e-05   |deigs|: 4.163e-05  t[s]:  31594.58
	Linear fluid (dielectric constant: 7.2) occupying 0.847557 of unit cell:	Completed after 3 iterations at t[s]:  31597.13
	FillingsUpdate:  mu: -0.107210941  nElectrons: 318.000000
	Linear fluid (dielectric constant: 7.2) occupying 0.847575 of unit cell:	Completed after 3 iterations at t[s]:  32001.90
SCF: Cycle:  5   F: -527.220197747146585   dF: -2.045e-08   |Residual|: 5.984e-05   |deigs|: 4.599e-05  t[s]:  32003.03
	Linear fluid (dielectric constant: 7.2) occupying 0.847572 of unit cell:	Completed after 3 iterations at t[s]:  32005.59
	FillingsUpdate:  mu: -0.107207857  nElectrons: 318.000000
	Linear fluid (dielectric constant: 7.2) occupying 0.847574 of unit cell:	Completed after 3 iterations at t[s]:  32426.65
SCF: Cycle:  6   F: -527.220197862963914   dF: -1.158e-07   |Residual|: 5.848e-05   |deigs|: 1.072e-04  t[s]:  32427.64
	Linear fluid (dielectric constant: 7.2) occupying 0.847576 of unit cell:	Completed after 2 iterations at t[s]:  32429.86
	FillingsUpdate:  mu: -0.107209257  nElectrons: 318.000000
	Linear fluid (dielectric constant: 7.2) occupying 0.847574 of unit cell:	Completed after 2 iterations at t[s]:  32832.69
SCF: Cycle:  7   F: -527.220197861860015   dF: +1.104e-09   |Residual|: 6.274e-05   |deigs|: 3.087e-05  t[s]:  32833.82
	Linear fluid (dielectric constant: 7.2) occupying 0.847578 of unit cell:	Completed after 2 iterations at t[s]:  32836.15
	FillingsUpdate:  mu: -0.107202218  nElectrons: 318.000000
	Linear fluid (dielectric constant: 7.2) occupying 0.847574 of unit cell:	Completed after 2 iterations at t[s]:  33313.87
SCF: Cycle:  8   F: -527.220197805395287   dF: +5.646e-08   |Residual|: 1.092e-04   |deigs|: 3.039e-05  t[s]:  33315.02
	Linear fluid (dielectric constant: 7.2) occupying 0.847583 of unit cell:	Completed after 2 iterations at t[s]:  33317.16
	FillingsUpdate:  mu: -0.107198570  nElectrons: 318.000000
	Linear fluid (dielectric constant: 7.2) occupying 0.847574 of unit cell:	Completed after 2 iterations at t[s]:  33720.77
SCF: Cycle:  9   F: -527.220197851939815   dF: -4.654e-08   |Residual|: 9.158e-05   |deigs|: 5.174e-05  t[s]:  33721.84
	Linear fluid (dielectric constant: 7.2) occupying 0.847584 of unit cell:	Completed after 2 iterations at t[s]:  33723.98
	FillingsUpdate:  mu: -0.107196729  nElectrons: 318.000000
	Linear fluid (dielectric constant: 7.2) occupying 0.847575 of unit cell:	Completed after 2 iterations at t[s]:  34127.72
SCF: Cycle: 10   F: -527.220197867936577   dF: -1.600e-08   |Residual|: 7.671e-05   |deigs|: 3.201e-05  t[s]:  34128.77
	Linear fluid (dielectric constant: 7.2) occupying 0.847585 of unit cell:	Completed after 2 iterations at t[s]:  34131.11
	FillingsUpdate:  mu: -0.107196027  nElectrons: 318.000000
	Linear fluid (dielectric constant: 7.2) occupying 0.847575 of unit cell:	Completed after 1 iterations at t[s]:  34533.98
SCF: Cycle: 11   F: -527.220197924123454   dF: -5.619e-08   |Residual|: 3.456e-05   |deigs|: 1.818e-05  t[s]:  34534.98
	Linear fluid (dielectric constant: 7.2) occupying 0.847586 of unit cell:	Completed after 1 iterations at t[s]:  34536.94
	FillingsUpdate:  mu: -0.107193532  nElectrons: 318.000000
	Linear fluid (dielectric constant: 7.2) occupying 0.847575 of unit cell:	Completed after 1 iterations at t[s]:  34943.38
SCF: Cycle: 12   F: -527.220197908829846   dF: +1.529e-08   |Residual|: 5.155e-05   |deigs|: 2.093e-05  t[s]:  34944.47
	Linear fluid (dielectric constant: 7.2) occupying 0.847582 of unit cell:	Completed after 1 iterations at t[s]:  34946.23
	FillingsUpdate:  mu: -0.107189712  nElectrons: 318.000000
	Linear fluid (dielectric constant: 7.2) occupying 0.847576 of unit cell:	Completed after 2 iterations at t[s]:  35350.27
SCF: Cycle: 13   F: -527.220197804513759   dF: +1.043e-07   |Residual|: 1.081e-04   |deigs|: 3.587e-05  t[s]:  35351.41
	Linear fluid (dielectric constant: 7.2) occupying 0.847581 of unit cell:	Completed after 2 iterations at t[s]:  35353.70
	FillingsUpdate:  mu: -0.107192000  nElectrons: 318.000000
	Linear fluid (dielectric constant: 7.2) occupying 0.847575 of unit cell:	Completed after 1 iterations at t[s]:  35757.65
SCF: Cycle: 14   F: -527.220197934529210   dF: -1.300e-07   |Residual|: 3.242e-05   |deigs|: 3.557e-05  t[s]:  35758.77
	Linear fluid (dielectric constant: 7.2) occupying 0.847578 of unit cell:	Completed after 0 iterations at t[s]:  35760.42
	FillingsUpdate:  mu: -0.107192725  nElectrons: 318.000000
	Linear fluid (dielectric constant: 7.2) occupying 0.847575 of unit cell:	Completed after 2 iterations at t[s]:  36163.55
SCF: Cycle: 15   F: -527.220197741997708   dF: +1.925e-07   |Residual|: 1.389e-04   |deigs|: 8.422e-05  t[s]:  36164.68
	Linear fluid (dielectric constant: 7.2) occupying 0.847577 of unit cell:	Completed after 2 iterations at t[s]:  36167.00
	FillingsUpdate:  mu: -0.107189415  nElectrons: 318.000000
	Linear fluid (dielectric constant: 7.2) occupying 0.847576 of unit cell:	Completed after 1 iterations at t[s]:  36435.82
SCF: Cycle: 16   F: -527.220197947504744   dF: -2.055e-07   |Residual|: 1.290e-05   |deigs|: 2.163e-05  t[s]:  36436.90
	Linear fluid (dielectric constant: 7.2) occupying 0.847576 of unit cell:	Completed after 0 iterations at t[s]:  36438.42
	FillingsUpdate:  mu: -0.107190798  nElectrons: 318.000000
	Linear fluid (dielectric constant: 7.2) occupying 0.847575 of unit cell:	Completed after 1 iterations at t[s]:  36841.28
SCF: Cycle: 17   F: -527.220197933706686   dF: +1.380e-08   |Residual|: 3.807e-05   |deigs|: 6.289e-05  t[s]:  36842.35
	Linear fluid (dielectric constant: 7.2) occupying 0.847576 of unit cell:	Completed after 1 iterations at t[s]:  36844.09
	FillingsUpdate:  mu: -0.107190311  nElectrons: 318.000000
	Linear fluid (dielectric constant: 7.2) occupying 0.847575 of unit cell:	Completed after 0 iterations at t[s]:  37246.64
SCF: Cycle: 18   F: -527.220197954137689   dF: -2.043e-08   |Residual|: 1.181e-05   |deigs|: 6.296e-05  t[s]:  37247.72
	Linear fluid (dielectric constant: 7.2) occupying 0.847576 of unit cell:	Completed after 0 iterations at t[s]:  37249.26
	FillingsUpdate:  mu: -0.107191462  nElectrons: 318.000000
	Linear fluid (dielectric constant: 7.2) occupying 0.847574 of unit cell:	Completed after 0 iterations at t[s]:  37655.43
SCF: Cycle: 19   F: -527.220197955015010   dF: -8.773e-10   |Residual|: 6.644e-06   |deigs|: 2.093e-05  t[s]:  37656.54
	Linear fluid (dielectric constant: 7.2) occupying 0.847576 of unit cell:	Completed after 0 iterations at t[s]:  37657.77
	FillingsUpdate:  mu: -0.107189601  nElectrons: 318.000000
	Linear fluid (dielectric constant: 7.2) occupying 0.847574 of unit cell:	Completed after 0 iterations at t[s]:  38061.45
SCF: Cycle: 20   F: -527.220197955331855   dF: -3.168e-10   |Residual|: 6.894e-06   |deigs|: 3.488e-05  t[s]:  38062.48
SCF: Converged (|Delta E|<1.000000e-08 for 2 iters).

Setting wave functions to eigenvectors of Hamiltonian
IonicMinimize: 	Predicted alpha/alphaT>3.000000, increasing alphaT to 3.000000e+00.

-------- Electronic minimization -----------
Will mix electronic density at each iteration.
	FillingsUpdate:  mu: -0.107189601  nElectrons: 318.000000
	Linear fluid (dielectric constant: 7.2) occupying 0.847595 of unit cell:	Completed after 4 iterations at t[s]:  38210.44
	FillingsUpdate:  mu: -0.106987978  nElectrons: 318.000000
	Linear fluid (dielectric constant: 7.2) occupying 0.847617 of unit cell:	Completed after 7 iterations at t[s]:  38708.15
SCF: Cycle:  0   F: -527.220128557400244   dF: +8.936e-05   |Residual|: 4.388e-03   |deigs|: 1.727e-06  t[s]:  38709.03
	Linear fluid (dielectric constant: 7.2) occupying 0.847546 of unit cell:	Completed after 7 iterations at t[s]:  38712.23
	FillingsUpdate:  mu: -0.107142100  nElectrons: 318.000000
	Linear fluid (dielectric constant: 7.2) occupying 0.847619 of unit cell:	Completed after 5 iterations at t[s]:  38981.59
SCF: Cycle:  1   F: -527.220222088597893   dF: -9.353e-05   |Residual|: 2.366e-03   |deigs|: 1.644e-04  t[s]:  38982.49
	Linear fluid (dielectric constant: 7.2) occupying 0.847551 of unit cell:	Completed after 5 iterations at t[s]:  38985.16
	FillingsUpdate:  mu: -0.107071671  nElectrons: 318.000000
	Linear fluid (dielectric constant: 7.2) occupying 0.847616 of unit cell:	Completed after 5 iterations at t[s]:  39255.00
SCF: Cycle:  2   F: -527.220250499676126   dF: -2.841e-05   |Residual|: 7.506e-04   |deigs|: 7.273e-05  t[s]:  39256.00
	Linear fluid (dielectric constant: 7.2) occupying 0.847547 of unit cell:	Completed after 5 iterations at t[s]:  39258.81
	FillingsUpdate:  mu: -0.107071206  nElectrons: 318.000000
	Linear fluid (dielectric constant: 7.2) occupying 0.847612 of unit cell:	Completed after 5 iterations at t[s]:  39530.07
SCF: Cycle:  3   F: -527.220252271897607   dF: -1.772e-06   |Residual|: 2.172e-04   |deigs|: 6.810e-05  t[s]:  39531.03
	Linear fluid (dielectric constant: 7.2) occupying 0.847559 of unit cell:	Completed after 5 iterations at t[s]:  39533.78
	FillingsUpdate:  mu: -0.107068839  nElectrons: 318.000000
	Linear fluid (dielectric constant: 7.2) occupying 0.847611 of unit cell:	Completed after 5 iterations at t[s]:  39805.67
SCF: Cycle:  4   F: -527.220252789191591   dF: -5.173e-07   |Residual|: 1.167e-04   |deigs|: 7.207e-05  t[s]:  39806.68
	Linear fluid (dielectric constant: 7.2) occupying 0.847573 of unit cell:	Completed after 5 iterations at t[s]:  39809.36
	FillingsUpdate:  mu: -0.107063455  nElectrons: 318.000000
	Linear fluid (dielectric constant: 7.2) occupying 0.847610 of unit cell:	Completed after 5 iterations at t[s]:  40211.32
SCF: Cycle:  5   F: -527.220253005279233   dF: -2.161e-07   |Residual|: 9.781e-05   |deigs|: 8.308e-05  t[s]:  40212.33
	Linear fluid (dielectric constant: 7.2) occupying 0.847606 of unit cell:	Completed after 4 iterations at t[s]:  40215.13
	FillingsUpdate:  mu: -0.107050847  nElectrons: 318.000000
	Linear fluid (dielectric constant: 7.2) occupying 0.847608 of unit cell:	Completed after 4 iterations at t[s]:  40619.27
SCF: Cycle:  6   F: -527.220253259508354   dF: -2.542e-07   |Residual|: 1.091e-04   |deigs|: 1.596e-04  t[s]:  40620.34
	Linear fluid (dielectric constant: 7.2) occupying 0.847619 of unit cell:	Completed after 4 iterations at t[s]:  40622.83
	FillingsUpdate:  mu: -0.107046394  nElectrons: 318.000000
	Linear fluid (dielectric constant: 7.2) occupying 0.847608 of unit cell:	Completed after 4 iterations at t[s]:  41026.88
SCF: Cycle:  7   F: -527.220253488844264   dF: -2.293e-07   |Residual|: 5.236e-05   |deigs|: 8.212e-05  t[s]:  41027.95
	Linear fluid (dielectric constant: 7.2) occupying 0.847633 of unit cell:	Completed after 3 iterations at t[s]:  41030.48
	FillingsUpdate:  mu: -0.107035226  nElectrons: 318.000000
	Linear fluid (dielectric constant: 7.2) occupying 0.847610 of unit cell:	Completed after 3 iterations at t[s]:  41435.33
SCF: Cycle:  8   F: -527.220253582941837   dF: -9.410e-08   |Residual|: 4.081e-05   |deigs|: 1.218e-04  t[s]:  41436.40
	Linear fluid (dielectric constant: 7.2) occupying 0.847631 of unit cell:	Completed after 3 iterations at t[s]:  41438.77
	FillingsUpdate:  mu: -0.107028570  nElectrons: 318.000000
	Linear fluid (dielectric constant: 7.2) occupying 0.847610 of unit cell:	Completed after 3 iterations at t[s]:  41842.21
SCF: Cycle:  9   F: -527.220253531645085   dF: +5.130e-08   |Residual|: 9.060e-05   |deigs|: 4.623e-05  t[s]:  41843.16
	Linear fluid (dielectric constant: 7.2) occupying 0.847631 of unit cell:	Completed after 3 iterations at t[s]:  41845.60
	FillingsUpdate:  mu: -0.107022353  nElectrons: 318.000000
	Linear fluid (dielectric constant: 7.2) occupying 0.847611 of unit cell:	Completed after 3 iterations at t[s]:  42249.62
SCF: Cycle: 10   F: -527.220253569723923   dF: -3.808e-08   |Residual|: 5.543e-05   |deigs|: 3.782e-05  t[s]:  42250.59
	Linear fluid (dielectric constant: 7.2) occupying 0.847627 of unit cell:	Completed after 2 iterations at t[s]:  42252.71
	FillingsUpdate:  mu: -0.107026394  nElectrons: 318.000000
	Linear fluid (dielectric constant: 7.2) occupying 0.847611 of unit cell:	Completed after 2 iterations at t[s]:  42657.58
SCF: Cycle: 11   F: -527.220253532831634   dF: +3.689e-08   |Residual|: 1.098e-04   |deigs|: 4.802e-05  t[s]:  42658.62
	Linear fluid (dielectric constant: 7.2) occupying 0.847617 of unit cell:	Completed after 2 iterations at t[s]:  42660.77
	FillingsUpdate:  mu: -0.107021735  nElectrons: 318.000000
	Linear fluid (dielectric constant: 7.2) occupying 0.847611 of unit cell:	Completed after 2 iterations at t[s]:  43062.98
SCF: Cycle: 12   F: -527.220253638609279   dF: -1.058e-07   |Residual|: 2.790e-05   |deigs|: 9.644e-05  t[s]:  43063.98
	Linear fluid (dielectric constant: 7.2) occupying 0.847614 of unit cell:	Completed after 1 iterations at t[s]:  43065.89
	FillingsUpdate:  mu: -0.107021212  nElectrons: 318.000000
	Linear fluid (dielectric constant: 7.2) occupying 0.847610 of unit cell:	Completed after 1 iterations at t[s]:  43469.70
SCF: Cycle: 13   F: -527.220253637412497   dF: +1.197e-09   |Residual|: 4.209e-05   |deigs|: 1.240e-04  t[s]:  43470.73
	Linear fluid (dielectric constant: 7.2) occupying 0.847611 of unit cell:	Completed after 1 iterations at t[s]:  43472.54
	FillingsUpdate:  mu: -0.107019209  nElectrons: 318.000000
	Linear fluid (dielectric constant: 7.2) occupying 0.847610 of unit cell:	Completed after 2 iterations at t[s]:  43948.56
SCF: Cycle: 14   F: -527.220253575636093   dF: +6.178e-08   |Residual|: 8.906e-05   |deigs|: 1.095e-04  t[s]:  43949.63
	Linear fluid (dielectric constant: 7.2) occupying 0.847612 of unit cell:	Completed after 2 iterations at t[s]:  43951.72
	FillingsUpdate:  mu: -0.107025144  nElectrons: 318.000000
	Linear fluid (dielectric constant: 7.2) occupying 0.847609 of unit cell:	Completed after 1 iterations at t[s]:  44354.60
SCF: Cycle: 15   F: -527.220253656011778   dF: -8.038e-08   |Residual|: 4.452e-05   |deigs|: 1.002e-04  t[s]:  44355.65
	Linear fluid (dielectric constant: 7.2) occupying 0.847612 of unit cell:	Completed after 1 iterations at t[s]:  44357.42
	FillingsUpdate:  mu: -0.107022733  nElectrons: 318.000000
	Linear fluid (dielectric constant: 7.2) occupying 0.847609 of unit cell:	Completed after 1 iterations at t[s]:  44761.75
SCF: Cycle: 16   F: -527.220253652429051   dF: +3.583e-09   |Residual|: 4.231e-05   |deigs|: 5.203e-05  t[s]:  44762.76
	Linear fluid (dielectric constant: 7.2) occupying 0.847612 of unit cell:	Completed after 1 iterations at t[s]:  44764.54
	FillingsUpdate:  mu: -0.107022716  nElectrons: 318.000000
	Linear fluid (dielectric constant: 7.2) occupying 0.847609 of unit cell:	Completed after 1 iterations at t[s]:  45168.80
SCF: Cycle: 17   F: -527.220253656190721   dF: -3.762e-09   |Residual|: 4.336e-05   |deigs|: 2.838e-05  t[s]:  45169.87
	Linear fluid (dielectric constant: 7.2) occupying 0.847611 of unit cell:	Completed after 1 iterations at t[s]:  45171.64
	FillingsUpdate:  mu: -0.107020737  nElectrons: 318.000000
	Linear fluid (dielectric constant: 7.2) occupying 0.847609 of unit cell:	Completed after 1 iterations at t[s]:  45575.83
SCF: Cycle: 18   F: -527.220253651539451   dF: +4.651e-09   |Residual|: 5.106e-05   |deigs|: 5.051e-05  t[s]:  45576.84
	Linear fluid (dielectric constant: 7.2) occupying 0.847611 of unit cell:	Completed after 1 iterations at t[s]:  45578.57
	FillingsUpdate:  mu: -0.107021642  nElectrons: 318.000000
	Linear fluid (dielectric constant: 7.2) occupying 0.847609 of unit cell:	Completed after 0 iterations at t[s]:  45983.59
SCF: Cycle: 19   F: -527.220253678725385   dF: -2.719e-08   |Residual|: 1.502e-05   |deigs|: 2.387e-05  t[s]:  45984.68
	Linear fluid (dielectric constant: 7.2) occupying 0.847611 of unit cell:	Completed after 0 iterations at t[s]:  45986.29
	FillingsUpdate:  mu: -0.107020896  nElectrons: 318.000000
	Linear fluid (dielectric constant: 7.2) occupying 0.847609 of unit cell:	Completed after 1 iterations at t[s]:  46391.18
SCF: Cycle: 20   F: -527.220253657476064   dF: +2.125e-08   |Residual|: 4.451e-05   |deigs|: 2.515e-05  t[s]:  46392.26
	Linear fluid (dielectric constant: 7.2) occupying 0.847611 of unit cell:	Completed after 1 iterations at t[s]:  46394.16
	FillingsUpdate:  mu: -0.107021567  nElectrons: 318.000000
	Linear fluid (dielectric constant: 7.2) occupying 0.847609 of unit cell:	Completed after 1 iterations at t[s]:  46802.11
SCF: Cycle: 21   F: -527.220253674314449   dF: -1.684e-08   |Residual|: 2.504e-05   |deigs|: 1.539e-05  t[s]:  46803.19
	Linear fluid (dielectric constant: 7.2) occupying 0.847610 of unit cell:	Completed after 0 iterations at t[s]:  46804.73
	FillingsUpdate:  mu: -0.107020163  nElectrons: 318.000000
	Linear fluid (dielectric constant: 7.2) occupying 0.847609 of unit cell:	Completed after 1 iterations at t[s]:  47207.80
SCF: Cycle: 22   F: -527.220253652296833   dF: +2.202e-08   |Residual|: 4.736e-05   |deigs|: 2.490e-05  t[s]:  47208.95
	Linear fluid (dielectric constant: 7.2) occupying 0.847610 of unit cell:	Completed after 1 iterations at t[s]:  47210.90
	FillingsUpdate:  mu: -0.107021067  nElectrons: 318.000000
	Linear fluid (dielectric constant: 7.2) occupying 0.847609 of unit cell:	Completed after 1 iterations at t[s]:  47613.97
SCF: Cycle: 23   F: -527.220253668450482   dF: -1.615e-08   |Residual|: 3.455e-05   |deigs|: 1.097e-05  t[s]:  47615.04
	Linear fluid (dielectric constant: 7.2) occupying 0.847610 of unit cell:	Completed after 1 iterations at t[s]:  47616.97
	FillingsUpdate:  mu: -0.107021284  nElectrons: 318.000000
	Linear fluid (dielectric constant: 7.2) occupying 0.847609 of unit cell:	Completed after 0 iterations at t[s]:  47993.12
SCF: Cycle: 24   F: -527.220253679801431   dF: -1.135e-08   |Residual|: 1.752e-05   |deigs|: 1.989e-05  t[s]:  47994.21
	Linear fluid (dielectric constant: 7.2) occupying 0.847610 of unit cell:	Completed after 0 iterations at t[s]:  47995.65
	FillingsUpdate:  mu: -0.107019526  nElectrons: 318.000000
	Linear fluid (dielectric constant: 7.2) occupying 0.847609 of unit cell:	Completed after 1 iterations at t[s]:  48395.01
SCF: Cycle: 25   F: -527.220253672703279   dF: +7.098e-09   |Residual|: 2.313e-05   |deigs|: 7.586e-06  t[s]:  48396.09
	Linear fluid (dielectric constant: 7.2) occupying 0.847610 of unit cell:	Completed after 0 iterations at t[s]:  48397.57
	FillingsUpdate:  mu: -0.107023882  nElectrons: 318.000000
	Linear fluid (dielectric constant: 7.2) occupying 0.847609 of unit cell:	Completed after 1 iterations at t[s]:  48800.01
SCF: Cycle: 26   F: -527.220253574384401   dF: +9.832e-08   |Residual|: 9.549e-05   |deigs|: 1.010e-05  t[s]:  48801.03
	Linear fluid (dielectric constant: 7.2) occupying 0.847610 of unit cell:	Completed after 1 iterations at t[s]:  48802.77
	FillingsUpdate:  mu: -0.107021763  nElectrons: 318.000000
	Linear fluid (dielectric constant: 7.2) occupying 0.847609 of unit cell:	Completed after 0 iterations at t[s]:  49072.16
SCF: Cycle: 27   F: -527.220253681462282   dF: -1.071e-07   |Residual|: 9.998e-06   |deigs|: 5.095e-06  t[s]:  49073.22
	Linear fluid (dielectric constant: 7.2) occupying 0.847610 of unit cell:	Completed after 0 iterations at t[s]:  49074.35
	FillingsUpdate:  mu: -0.107017997  nElectrons: 318.000000
	Linear fluid (dielectric constant: 7.2) occupying 0.847610 of unit cell:	Completed after 1 iterations at t[s]:  49345.30
SCF: Cycle: 28   F: -527.220253668521195   dF: +1.294e-08   |Residual|: 2.788e-05   |deigs|: 5.443e-06  t[s]:  49346.27
	Linear fluid (dielectric constant: 7.2) occupying 0.847610 of unit cell:	Completed after 1 iterations at t[s]:  49348.08
	FillingsUpdate:  mu: -0.107020650  nElectrons: 318.000000
	Linear fluid (dielectric constant: 7.2) occupying 0.847609 of unit cell:	Completed after 1 iterations at t[s]:  49621.17
SCF: Cycle: 29   F: -527.220253652676433   dF: +1.584e-08   |Residual|: 5.032e-05   |deigs|: 3.707e-06  t[s]:  49622.22
	Linear fluid (dielectric constant: 7.2) occupying 0.847610 of unit cell:	Completed after 1 iterations at t[s]:  49623.99
	FillingsUpdate:  mu: -0.107021002  nElectrons: 318.000000
	Linear fluid (dielectric constant: 7.2) occupying 0.847609 of unit cell:	Completed after 0 iterations at t[s]:  49878.96
SCF: Cycle: 30   F: -527.220253676644916   dF: -2.397e-08   |Residual|: 2.631e-05   |deigs|: 2.101e-06  t[s]:  49880.10
	Linear fluid (dielectric constant: 7.2) occupying 0.847610 of unit cell:	Completed after 0 iterations at t[s]:  49881.60
	FillingsUpdate:  mu: -0.107017465  nElectrons: 318.000000
	Linear fluid (dielectric constant: 7.2) occupying 0.847609 of unit cell:	Completed after 1 iterations at t[s]:  50153.32
SCF: Cycle: 31   F: -527.220253653400960   dF: +2.324e-08   |Residual|: 4.387e-05   |deigs|: 3.921e-06  t[s]:  50154.36
	Linear fluid (dielectric constant: 7.2) occupying 0.847610 of unit cell:	Completed after 1 iterations at t[s]:  50156.18
	FillingsUpdate:  mu: -0.107020457  nElectrons: 318.000000
	Linear fluid (dielectric constant: 7.2) occupying 0.847609 of unit cell:	Completed after 1 iterations at t[s]:  50426.27
SCF: Cycle: 32   F: -527.220253644305330   dF: +9.096e-09   |Residual|: 5.700e-05   |deigs|: 4.173e-06  t[s]:  50427.35
	Linear fluid (dielectric constant: 7.2) occupying 0.847610 of unit cell:	Completed after 1 iterations at t[s]:  50429.32
	FillingsUpdate:  mu: -0.107021113  nElectrons: 318.000000
	Linear fluid (dielectric constant: 7.2) occupying 0.847609 of unit cell:	Completed after 1 iterations at t[s]:  50812.63
SCF: Cycle: 33   F: -527.220253669607246   dF: -2.530e-08   |Residual|: 3.511e-05   |deigs|: 5.932e-06  t[s]:  50813.73
	Linear fluid (dielectric constant: 7.2) occupying 0.847610 of unit cell:	Completed after 1 iterations at t[s]:  50815.56
	FillingsUpdate:  mu: -0.107021302  nElectrons: 318.000000
	Linear fluid (dielectric constant: 7.2) occupying 0.847609 of unit cell:	Completed after 1 iterations at t[s]:  51040.00
SCF: Cycle: 34   F: -527.220253666922758   dF: +2.684e-09   |Residual|: 3.873e-05   |deigs|: 6.170e-07  t[s]:  51041.01
	Linear fluid (dielectric constant: 7.2) occupying 0.847610 of unit cell:	Completed after 1 iterations at t[s]:  51042.82
	FillingsUpdate:  mu: -0.107021360  nElectrons: 318.000000
	Linear fluid (dielectric constant: 7.2) occupying 0.847609 of unit cell:	Completed after 1 iterations at t[s]:  51252.13
SCF: Cycle: 35   F: -527.220253665759060   dF: +1.164e-09   |Residual|: 3.984e-05   |deigs|: 5.468e-07  t[s]:  51253.24
	Linear fluid (dielectric constant: 7.2) occupying 0.847610 of unit cell:	Completed after 1 iterations at t[s]:  51255.12
	FillingsUpdate:  mu: -0.107021479  nElectrons: 318.000000
	Linear fluid (dielectric constant: 7.2) occupying 0.847609 of unit cell:	Completed after 1 iterations at t[s]:  51606.90
SCF: Cycle: 36   F: -527.220253661884044   dF: +3.875e-09   |Residual|: 4.466e-05   |deigs|: 1.825e-06  t[s]:  51608.00
	Linear fluid (dielectric constant: 7.2) occupying 0.847610 of unit cell:	Completed after 1 iterations at t[s]:  51609.94
	FillingsUpdate:  mu: -0.107021624  nElectrons: 318.000000
	Linear fluid (dielectric constant: 7.2) occupying 0.847609 of unit cell:	Completed after 1 iterations at t[s]:  51963.00
SCF: Cycle: 37   F: -527.220253658176375   dF: +3.708e-09   |Residual|: 4.879e-05   |deigs|: 1.592e-06  t[s]:  51964.03
	Linear fluid (dielectric constant: 7.2) occupying 0.847610 of unit cell:	Completed after 1 iterations at t[s]:  51965.87
	FillingsUpdate:  mu: -0.107021708  nElectrons: 318.000000
	Linear fluid (dielectric constant: 7.2) occupying 0.847609 of unit cell:	Completed after 1 iterations at t[s]:  52173.57
SCF: Cycle: 38   F: -527.220253656796444   dF: +1.380e-09   |Residual|: 5.025e-05   |deigs|: 1.004e-06  t[s]:  52174.51
	Linear fluid (dielectric constant: 7.2) occupying 0.847610 of unit cell:	Completed after 1 iterations at t[s]:  52176.38
	FillingsUpdate:  mu: -0.107021911  nElectrons: 318.000000
	Linear fluid (dielectric constant: 7.2) occupying 0.847609 of unit cell:	Completed after 1 iterations at t[s]:  52539.14
SCF: Cycle: 39   F: -527.220253648726953   dF: +8.069e-09   |Residual|: 5.776e-05   |deigs|: 2.844e-06  t[s]:  52540.28
	Linear fluid (dielectric constant: 7.2) occupying 0.847610 of unit cell:	Completed after 1 iterations at t[s]:  52542.26
	FillingsUpdate:  mu: -0.107022093  nElectrons: 318.000000
	Linear fluid (dielectric constant: 7.2) occupying 0.847609 of unit cell:	Completed after 1 iterations at t[s]:  52756.03
SCF: Cycle: 40   F: -527.220253643654814   dF: +5.072e-09   |Residual|: 6.203e-05   |deigs|: 1.309e-06  t[s]:  52757.17
	Linear fluid (dielectric constant: 7.2) occupying 0.847610 of unit cell:	Completed after 1 iterations at t[s]:  52759.07
	FillingsUpdate:  mu: -0.107022092  nElectrons: 318.000000
	Linear fluid (dielectric constant: 7.2) occupying 0.847609 of unit cell:	Completed after 1 iterations at t[s]:  53105.29
SCF: Cycle: 41   F: -527.220253647774825   dF: -4.120e-09   |Residual|: 5.854e-05   |deigs|: 3.066e-06  t[s]:  53106.37
	Linear fluid (dielectric constant: 7.2) occupying 0.847609 of unit cell:	Completed after 1 iterations at t[s]:  53108.24
	FillingsUpdate:  mu: -0.107021247  nElectrons: 318.000000
	Linear fluid (dielectric constant: 7.2) occupying 0.847609 of unit cell:	Completed after 0 iterations at t[s]:  53509.49
SCF: Cycle: 42   F: -527.220253677758137   dF: -2.998e-08   |Residual|: 2.308e-05   |deigs|: 1.576e-05  t[s]:  53510.63
[...]
	FillingsUpdate:  mu: -0.103900330  nElectrons: 318.000000
	Linear fluid (dielectric constant: 7.2) occupying 0.841725 of unit cell:	Completed after 3 iterations at t[s]: 2226709.94
SCF: Cycle:  0   F: -527.232444929162853   dF: +3.079e-07   |Residual|: 2.954e-04   |deigs|: 5.444e-08  t[s]: 2226711.02
	Linear fluid (dielectric constant: 7.2) occupying 0.841732 of unit cell:	Completed after 3 iterations at t[s]: 2226713.46
	FillingsUpdate:  mu: -0.103893509  nElectrons: 318.000000
	Linear fluid (dielectric constant: 7.2) occupying 0.841724 of unit cell:	Completed after 1 iterations at t[s]: 2226980.97
SCF: Cycle:  1   F: -527.232445441993150   dF: -5.128e-07   |Residual|: 1.438e-04   |deigs|: 1.243e-05  t[s]: 2226982.01
	Linear fluid (dielectric constant: 7.2) occupying 0.841732 of unit cell:	Completed after 1 iterations at t[s]: 2226983.83
	FillingsUpdate:  mu: -0.103895075  nElectrons: 318.000000
	Linear fluid (dielectric constant: 7.2) occupying 0.841724 of unit cell:	Completed after 2 iterations at t[s]: 2227249.23
SCF: Cycle:  2   F: -527.232445423389322   dF: +1.860e-08   |Residual|: 9.428e-05   |deigs|: 7.778e-06  t[s]: 2227250.31
	Linear fluid (dielectric constant: 7.2) occupying 0.841734 of unit cell:	Completed after 2 iterations at t[s]: 2227252.36
	FillingsUpdate:  mu: -0.103891701  nElectrons: 318.000000
	Linear fluid (dielectric constant: 7.2) occupying 0.841724 of unit cell:	Completed after 2 iterations at t[s]: 2227647.69
SCF: Cycle:  3   F: -527.232445475371605   dF: -5.198e-08   |Residual|: 8.802e-05   |deigs|: 9.719e-06  t[s]: 2227648.83
	Linear fluid (dielectric constant: 7.2) occupying 0.841732 of unit cell:	Completed after 1 iterations at t[s]: 2227650.66
	FillingsUpdate:  mu: -0.103896039  nElectrons: 318.000000
	Linear fluid (dielectric constant: 7.2) occupying 0.841724 of unit cell:	Completed after 2 iterations at t[s]: 2227917.31
SCF: Cycle:  4   F: -527.232445404502187   dF: +7.087e-08   |Residual|: 9.318e-05   |deigs|: 8.065e-06  t[s]: 2227918.46
	Linear fluid (dielectric constant: 7.2) occupying 0.841731 of unit cell:	Completed after 2 iterations at t[s]: 2227920.71
	FillingsUpdate:  mu: -0.103894623  nElectrons: 318.000000
	Linear fluid (dielectric constant: 7.2) occupying 0.841725 of unit cell:	Completed after 0 iterations at t[s]: 2228186.80
SCF: Cycle:  5   F: -527.232445530033601   dF: -1.255e-07   |Residual|: 8.482e-06   |deigs|: 7.702e-06  t[s]: 2228187.91
	Linear fluid (dielectric constant: 7.2) occupying 0.841729 of unit cell:	Completed after 0 iterations at t[s]: 2228189.51
	FillingsUpdate:  mu: -0.103894268  nElectrons: 318.000000
	Linear fluid (dielectric constant: 7.2) occupying 0.841725 of unit cell:	Completed after 0 iterations at t[s]: 2228448.68
SCF: Cycle:  6   F: -527.232445530635005   dF: -6.014e-10   |Residual|: 8.654e-06   |deigs|: 7.803e-06  t[s]: 2228449.79
	Linear fluid (dielectric constant: 7.2) occupying 0.841727 of unit cell:	Completed after 0 iterations at t[s]: 2228451.28
	FillingsUpdate:  mu: -0.103895322  nElectrons: 318.000000
	Linear fluid (dielectric constant: 7.2) occupying 0.841725 of unit cell:	Completed after 1 iterations at t[s]: 2228832.36
SCF: Cycle:  7   F: -527.232445525634830   dF: +5.000e-09   |Residual|: 2.910e-05   |deigs|: 7.202e-06  t[s]: 2228833.45
	Linear fluid (dielectric constant: 7.2) occupying 0.841725 of unit cell:	Completed after 1 iterations at t[s]: 2228835.37
	FillingsUpdate:  mu: -0.103898975  nElectrons: 318.000000
	Linear fluid (dielectric constant: 7.2) occupying 0.841725 of unit cell:	Completed after 2 iterations at t[s]: 2229238.90
SCF: Cycle:  8   F: -527.232445486732558   dF: +3.890e-08   |Residual|: 6.799e-05   |deigs|: 6.532e-06  t[s]: 2229240.00
	Linear fluid (dielectric constant: 7.2) occupying 0.841725 of unit cell:	Completed after 1 iterations at t[s]: 2229241.69
	FillingsUpdate:  mu: -0.103898538  nElectrons: 318.000000
	Linear fluid (dielectric constant: 7.2) occupying 0.841725 of unit cell:	Completed after 1 iterations at t[s]: 2229486.30
SCF: Cycle:  9   F: -527.232445512290610   dF: -2.556e-08   |Residual|: 4.506e-05   |deigs|: 3.392e-06  t[s]: 2229487.34
	Linear fluid (dielectric constant: 7.2) occupying 0.841725 of unit cell:	Completed after 1 iterations at t[s]: 2229489.18
	FillingsUpdate:  mu: -0.103898966  nElectrons: 318.000000
	Linear fluid (dielectric constant: 7.2) occupying 0.841725 of unit cell:	Completed after 1 iterations at t[s]: 2229708.94
SCF: Cycle: 10   F: -527.232445520086799   dF: -7.796e-09   |Residual|: 3.700e-05   |deigs|: 1.121e-06  t[s]: 2229710.08
	Linear fluid (dielectric constant: 7.2) occupying 0.841725 of unit cell:	Completed after 1 iterations at t[s]: 2229712.06
	FillingsUpdate:  mu: -0.103898673  nElectrons: 318.000000
	Linear fluid (dielectric constant: 7.2) occupying 0.841725 of unit cell:	Completed after 1 iterations at t[s]: 2229940.15
SCF: Cycle: 11   F: -527.232445513260473   dF: +6.826e-09   |Residual|: 4.406e-05   |deigs|: 2.675e-06  t[s]: 2229941.30
	Linear fluid (dielectric constant: 7.2) occupying 0.841725 of unit cell:	Completed after 1 iterations at t[s]: 2229943.26
	FillingsUpdate:  mu: -0.103898845  nElectrons: 318.000000
	Linear fluid (dielectric constant: 7.2) occupying 0.841725 of unit cell:	Completed after 1 iterations at t[s]: 2230169.28
SCF: Cycle: 12   F: -527.232445518327268   dF: -5.067e-09   |Residual|: 3.905e-05   |deigs|: 1.769e-06  t[s]: 2230170.43
	Linear fluid (dielectric constant: 7.2) occupying 0.841725 of unit cell:	Completed after 1 iterations at t[s]: 2230172.39
	FillingsUpdate:  mu: -0.103899649  nElectrons: 318.000000
	Linear fluid (dielectric constant: 7.2) occupying 0.841725 of unit cell:	Completed after 2 iterations at t[s]: 2230563.48
SCF: Cycle: 13   F: -527.232445483616743   dF: +3.471e-08   |Residual|: 7.024e-05   |deigs|: 3.657e-06  t[s]: 2230564.62
	Linear fluid (dielectric constant: 7.2) occupying 0.841725 of unit cell:	Completed after 1 iterations at t[s]: 2230566.57
	FillingsUpdate:  mu: -0.103899390  nElectrons: 318.000000
	Linear fluid (dielectric constant: 7.2) occupying 0.841725 of unit cell:	Completed after 2 iterations at t[s]: 2230807.19
SCF: Cycle: 14   F: -527.232445478860768   dF: +4.756e-09   |Residual|: 7.345e-05   |deigs|: 3.415e-06  t[s]: 2230808.26
	Linear fluid (dielectric constant: 7.2) occupying 0.841725 of unit cell:	Completed after 2 iterations at t[s]: 2230810.58
	FillingsUpdate:  mu: -0.103897961  nElectrons: 318.000000
	Linear fluid (dielectric constant: 7.2) occupying 0.841726 of unit cell:	Completed after 2 iterations at t[s]: 2231071.82
SCF: Cycle: 15   F: -527.232445425662718   dF: +5.320e-08   |Residual|: 9.789e-05   |deigs|: 3.246e-06  t[s]: 2231072.93
	Linear fluid (dielectric constant: 7.2) occupying 0.841726 of unit cell:	Completed after 2 iterations at t[s]: 2231075.27
	FillingsUpdate:  mu: -0.103897556  nElectrons: 318.000000
	Linear fluid (dielectric constant: 7.2) occupying 0.841726 of unit cell:	Completed after 2 iterations at t[s]: 2231309.95
SCF: Cycle: 16   F: -527.232445426122695   dF: -4.600e-10   |Residual|: 9.907e-05   |deigs|: 5.863e-06  t[s]: 2231311.08
	Linear fluid (dielectric constant: 7.2) occupying 0.841726 of unit cell:	Completed after 2 iterations at t[s]: 2231313.11
	FillingsUpdate:  mu: -0.103897339  nElectrons: 318.000000
	Linear fluid (dielectric constant: 7.2) occupying 0.841726 of unit cell:	Completed after 2 iterations at t[s]: 2231523.91
SCF: Cycle: 17   F: -527.232445433780754   dF: -7.658e-09   |Residual|: 9.530e-05   |deigs|: 1.501e-06  t[s]: 2231524.93
SCF: Converged (|Delta E|<1.000000e-08 for 2 iters).

Setting wave functions to eigenvectors of Hamiltonian

# Ionic positions in cartesian coordinates:
ion C  28.010542013705631   0.002014969601156   0.135465203747167 0
ion C  16.341968157882292  20.214705522223607   0.136370795694031 0
ion C   2.338532027351695   4.042411505399060   0.130361847754816 0
ion C  23.343313188735969   0.002278716019722   0.140022467239564 0
ion C   4.672620934470559   0.001554156700161   0.132050616002296 0
ion C  11.674116326115334  20.215100669694028   0.119847495055023 0
ion C  25.676530282256284   4.042904097616445   0.153564930084009 0
ion C  18.675851376129700  16.172910511284943   0.162695583431347 0
ion C   4.671777948336020   8.082036709586005   0.112564386226399 0
ion C  18.676336142016083   0.002101964498535   0.151180333522280 0
ion C   9.339850970925752   0.001738039847832   0.141511836963307 0
ion C   9.341212652353351  16.175613291750459   0.099279306155555 0
ion C  23.342941439729607   8.084920466015539   0.183240254571249 0
ion C  21.009110272076708  12.128959849493356   0.188453340004560 0
ion C   7.009085367604252  12.128528685817338   0.097262204671189 0
ion C  14.008105470077210   0.001988816408382   0.154008834012117 0
ion C  14.009120976896664  16.174984627607692   0.129938477890011 0
ion C   7.005550759074101   4.041176716120078   0.116350899393808 0
ion C  21.010101094155836   4.043302536041172   0.168670850704729 0
ion C  16.344445762465487  12.130683361169906   0.168518806438797 0
ion C   9.337643998902927   8.081728763982859   0.114931622729934 0
ion C  16.343783017314891   4.042062713362387   0.168836182024801 0
ion C  11.674085450205249   4.041278849785761   0.142196060576936 0
ion C  11.675597583834264  12.133622242506720   0.130068253549407 0
ion C  18.678074956154809   8.085220585829878   0.185769374381508 0
ion C   7.007175797728255  20.216155157604103   0.119709324068161 0
ion C  -6.996748017889803  20.214440105700564   0.153094683289385 0
ion C   0.002354623270169   8.082966457809835   0.157418822396949 0
ion C  14.012576459862725   8.083203697825988   0.169712893069491 0
ion C   2.339067441062872  20.216465077180068   0.146220757178249 0
ion C  -4.663670527593792  16.172490992184059   0.178596642017759 0
ion C   2.336125814129785  12.127745765919109   0.156417500003109 0
ion C  -2.332224039758668  12.128030282589300   0.185859862245795 0
ion C  -2.329659352792410  20.215194179952768   0.159830322184195 0
ion C   4.673933801454849  16.177740252210711   0.125359734501050 0
ion C   0.002990588629148  16.174656174657997   0.166554428718456 0
ion C  14.008266720144102  21.561374576259517   0.129777200837147 0
ion C   2.338930816614256   1.348570645432834   0.132009758527847 0
ion C  25.677100562977380   1.348988124751942   0.141986895200077 0
ion C  16.342686998612663  17.520648868856785   0.142302048336077 0
ion C   4.672307145938162   5.388219921962990   0.116057256550324 0
ion C  21.010123495302889   1.349044430338556   0.152394834146865 0
ion C   7.005937845436384   1.348033936218268   0.128031389286509 0
ion C  11.674692189550257  17.521226022139913   0.112057705166649 0
ion C  23.343784883173043   5.390651685198355   0.169612389866280 0
ion C  18.676972543384359  13.478483594758318   0.175595907033571 0
ion C   7.004963348139576   9.432115986525980   0.097538283264729 0
ion C  16.342472076605748   1.348066366442404   0.159130179870282 0
ion C  11.673522256343780   1.347802312891912   0.146547034509048 0
ion C   9.340696631175403  13.481256291567631   0.099303874261302 0
ion C  21.010487586627971   9.434228317035956   0.189549670827176 0
ion C   9.340862584041272  21.562275316056120   0.123251203387412 0
ion C  -9.330262385564788  21.561165527783945   0.140491424243251 0
ion C   0.004476893676090   5.389148113018151   0.145932445799481 0
ion C  14.011432130181314  13.480719160062115   0.143556882023976 0
ion C   9.339051356617166   5.386992451363917   0.121078239496768 0
ion C  18.677007069088155   5.390558998944344   0.176741055188348 0
ion C  16.345725884609092   9.434637493571932   0.179131999516681 0
ion C  11.674484029805171   9.432912355349794   0.144194404697448 0
ion C  14.009428395823310   5.387478001177438   0.162736904438848 0
ion C   4.673293824799767  21.561882602550448   0.137519226383223 0
ion C  -6.996841473985322  17.520066852095106   0.166346621047360 0
ion C   2.337134667876788   9.428913976861832   0.143387178107247 0
ion C  -2.330217064543965   9.432650452790400   0.178563548363968 0
ion C  -4.663349535264295  21.561481505082671   0.152392573786173 0
ion C   7.008365318233412  17.523060541264897   0.107450639135720 0
ion C   0.004487123343836  21.561671103490092   0.154109318198198 0
ion C  -4.664147187494720  13.477588422800194   0.188047082736968 0
ion C   4.674619807111762  13.479414560663223   0.125188064189185 0
ion C   2.338448909138405  17.522455183042435   0.145633689115609 0
ion C  -2.330712054942804  17.520790606615741   0.170058696770369 0
ion C   0.000363098194401  13.478789474313889   0.175559226948007 0
ion S   8.566144665708677  12.420621451022992  12.728573540844328 1
ion S   5.396452090111852  10.133324384295651  12.506459713618675 1
ion Na   9.904052515256005   7.312258198957887  12.002052523869757 1
ion Na   4.478963263025037  14.971613932146093  10.397430585697897 1

# Forces in Cartesian coordinates:
force C   0.000218209846718  -0.000098351743823  -0.000374206232956 0
force C   0.000065511803706  -0.000065763841952  -0.000219255659365 0
force C  -0.000100557749576   0.000020252076705  -0.000192995694327 0
force C   0.000244751812089   0.000040681500874  -0.000356600562735 0
force C  -0.000175222041615  -0.000119939522868  -0.000223043472513 0
force C   0.000279868733290   0.000026791568754  -0.000086470616173 0
force C   0.000219654694356  -0.000007357432284  -0.000378102169823 0
force C   0.000034939115197  -0.000038285852780  -0.000440484475233 0
force C  -0.000141565840469   0.001145056738282   0.000242149810929 0
force C   0.000019638866179  -0.000054454150621  -0.000451563397440 0
force C  -0.000099146698593  -0.000205643548526  -0.000371108768352 0
force C  -0.000100393227489  -0.000556295236797   0.000524891295085 0
force C   0.000056610745340   0.000416178493048  -0.000600403746915 0
force C   0.000116986207826   0.000338802601776  -0.000508926585414 0
force C  -0.001205126834401   0.000698939658379   0.000877841973595 0
force C  -0.000120304416538  -0.000132370903038  -0.000336621701868 0
force C   0.000013526852766  -0.000452668259541  -0.000085190416472 0
force C   0.000014391696115   0.000064326818618  -0.000012566928271 0
force C   0.000134261361097   0.000070924136776  -0.000503606767562 0
force C  -0.000440548937491  -0.000143389209999  -0.000384746751591 0
force C   0.001581740633722   0.001625388665196   0.000217744331267 0
force C  -0.000252192898323   0.000116381382895  -0.000489182256345 0
force C   0.000096519447098   0.000431431656679  -0.000109210816096 0
force C   0.000103282357446  -0.001825998704617  -0.000644810469872 0
force C  -0.000208442189374   0.000541171443332  -0.000544899742223 0
force C   0.000169012281032   0.000016074096071   0.000039505109714 0
force C  -0.000024120599280  -0.000168664783020  -0.000391126429193 0
force C   0.000633406340258   0.000633037229270  -0.000555547219886 0
force C  -0.001807504059400   0.001383432992797  -0.001036465597374 0
force C  -0.000234736871557  -0.000379746081734  -0.000388237250150 0
force C  -0.000018635272560  -0.000074900785918  -0.000574017907811 0
force C   0.001101710425278   0.000673775484145  -0.001498893790903 0
force C   0.000633035917347   0.000490800535724  -0.000533243593956 0
force C  -0.000021470031061  -0.000199408132280  -0.000466992853729 0
force C  -0.000274151806187  -0.002085969924562  -0.000211403419998 0
force C   0.000435178363773  -0.000609266034718  -0.000423007397495 0
force C  -0.000155463211251   0.000200496575083  -0.000144913922055 0
force C  -0.000188420003755  -0.000056146213176  -0.000172955799489 0
force C  -0.000104819014631  -0.000023540392172  -0.000190399082540 0
force C  -0.000055255020968   0.000091655631209  -0.000195008923433 0
force C  -0.000081569040624   0.000278030343607   0.000033385983824 0
force C  -0.000141861837402   0.000142601427568  -0.000230286271335 0
force C   0.000045889102842  -0.000127087702460   0.000012282074371 0
force C   0.000225641848234   0.000035907895173   0.000125532053350 0
force C  -0.000270934590011  -0.000066117021470  -0.000368198610518 0
force C  -0.000155247139774  -0.000412193628478  -0.000487388455592 0
force C   0.000386885793250  -0.000050869964978   0.000941502430584 0
force C   0.000078731435005   0.000172970110956  -0.000431430755123 0
force C   0.000292082873304   0.000082401953899  -0.000361580968431 0
force C   0.000599413928858  -0.001368628260328   0.000664889176043 0
force C  -0.000098148264484  -0.000384458711384  -0.000467060882008 0
force C   0.000008155565762   0.000124299832769  -0.000038570042068 0
force C  -0.000044133382713   0.000137995465562  -0.000211897777582 0
force C  -0.000142078739959   0.000046521422212  -0.000232904721528 0
force C  -0.000894594284946  -0.001041101829508  -0.000500830990035 0
force C   0.000369895111330   0.000718698145501   0.000130974210878 0
force C  -0.000074022832473   0.000003147115254  -0.000330211745230 0
force C  -0.000802336686195  -0.000398665896819  -0.000443818682923 0
force C   0.000259354667573   0.000333682788897  -0.001137245020884 0
force C  -0.000042841765816   0.000897682828470  -0.000391220313910 0
force C  -0.000044349750426   0.000330507109732  -0.000193453654423 0
force C   0.000056979343715  -0.000015713755269  -0.000368175203456 0
force C   0.000031977355384   0.001678296666898  -0.000662164242596 0
force C   0.000133544826402   0.000012795757568  -0.000398042520061 0
force C   0.000063317254139   0.000068806106621  -0.000305192961893 0
force C  -0.000405232279436  -0.000195854733401   0.000280826852071 0
force C   0.000048365985420   0.000242968972780  -0.000311310708258 0
force C  -0.000005885117645  -0.000386948090204  -0.000477067232574 0
force C  -0.001378336936613  -0.001017881699541  -0.000367191976276 0
force C  -0.000135983659166  -0.000472357722558  -0.000195722580259 0
force C   0.000186060828999  -0.000002166115328  -0.000356625003278 0
force C   0.001530622481119  -0.001074212897362  -0.000934700142681 0
force S  -0.000617629215870  -0.000196699820458  -0.000251732486594 1
force S   0.000568995863643   0.000528600898717  -0.000048486449652 1
force Na  -0.000203779259512   0.000251874288513   0.000365011099015 1
force Na   0.000309950082727  -0.000581136766255   0.000464606774124 1

# Energy components:
   A_diel =       -0.1145084126768631
   Eewald =     4388.8760538910646574
       EH =     4812.7007607298846779
     Eloc =    -9760.0911654036262917
      Enl =      -82.1842922980634967
      Exc =     -153.5499115014709446
 Exc_core =        5.9601307142336539
       KE =      261.2445356842895876
-------------------------------------
     Etot =     -527.1583965963657192
       TS =        0.0740488374149978
-------------------------------------
        F =     -527.2324454337807538

IonicMinimize: Iter:  67  F: -527.232445433780754  |grad|_K:  4.059e-04  alpha:  3.189e+00  linmin: -5.298e-03  t[s]: 2231604.90
IonicMinimize: Converged (|Delta F|<1.000000e-06 for 2 iters).

#--- Lowdin population analysis ---
# oxidation-state C +0.033 +0.033 +0.033 +0.033 +0.033 +0.033 +0.033 +0.033 +0.032 +0.032 +0.032 +0.031 +0.033 +0.032 +0.031 +0.031 +0.033 +0.032 +0.033 +0.032 +0.031 +0.032 +0.031 +0.032 +0.032 +0.031 +0.032 +0.033 +0.031 +0.031 +0.032 +0.030 +0.032 +0.031 +0.029 +0.030 +0.033 +0.033 +0.033 +0.033 +0.032 +0.032 +0.032 +0.032 +0.033 +0.033 +0.032 +0.032 +0.031 +0.032 +0.033 +0.032 +0.033 +0.033 +0.033 +0.031 +0.032 +0.032 +0.031 +0.031 +0.031 +0.033 +0.032 +0.032 +0.032 +0.030 +0.031 +0.032 +0.030 +0.030 +0.031 +0.031
# oxidation-state S -0.483 -0.482
# oxidation-state Na +0.912 +0.912


Dumping 'Na2S2@graphene_6x6x1-glyme.fillings' ... done
Dumping 'Na2S2@graphene_6x6x1-glyme.wfns' ... done
Dumping 'Na2S2@graphene_6x6x1-glyme.fluidState' ... done
Dumping 'Na2S2@graphene_6x6x1-glyme.ionpos' ... done
Dumping 'Na2S2@graphene_6x6x1-glyme.eigenvals' ... done
End date and time: Sat Feb 24 03:18:25 2024  (Duration: 25-19:54:12.79)
Done!
