
*************** JDFTx 1.7.0  ***************

Start date and time: Sat Oct 19 18:04:10 2024
Executable jdftx_gpu with command-line: -i /home/akim2/JDFTx/Na2S8@NiS2/Na2S8@NiS2.in -o /home/akim2/JDFTx/Na2S8@NiS2/Na2S8@NiS2.out
Running on hosts (process indices):  exp-5-58 (0)
Divided in process groups (process indices):  0 (0)
gpuInit: Found compatible cuda device 0 'Tesla V100-SXM2-32GB'
gpuInit: Selected device 0
Resource initialization completed at t[s]:      0.70
Run totals: 1 processes, 1 threads, 1 GPUs


Input parsed successfully to the following command list (including defaults):

basis kpoint-dependent
coords-type Cartesian
core-overlap-check vector
coulomb-interaction Slab 001
coulomb-truncation-embed 0 0 10
davidson-band-ratio 1.1
dump End State
dump Ionic State
dump-interval Ionic 5
dump-name Na2S8@NiS2.$VAR
elec-cutoff 20 100
elec-eigen-algo Davidson
elec-ex-corr gga-PBE
elec-smearing Fermi 0.01
electronic-minimize  \
	dirUpdateScheme      FletcherReeves \
	linminMethod         DirUpdateRecommended \
	nIterations          100 \
	history              15 \
	knormThreshold       0 \
	energyDiffThreshold  1e-08 \
	nEnergyDiff          2 \
	alphaTstart          1 \
	alphaTmin            1e-10 \
	updateTestStepSize   yes \
	alphaTreduceFactor   0.1 \
	alphaTincreaseFactor 3 \
	nAlphaAdjustMax      3 \
	wolfeEnergy          0.0001 \
	wolfeGradient        0.9 \
	fdTest               no
exchange-regularization WignerSeitzTruncated
fluid None
fluid-ex-corr lda-TF lda-PZ
fluid-gummel-loop 10 1.000000e-05
fluid-minimize  \
	dirUpdateScheme      PolakRibiere \
	linminMethod         DirUpdateRecommended \
	nIterations          100 \
	history              15 \
	knormThreshold       0 \
	energyDiffThreshold  0 \
	nEnergyDiff          2 \
	alphaTstart          1 \
	alphaTmin            1e-10 \
	updateTestStepSize   yes \
	alphaTreduceFactor   0.1 \
	alphaTincreaseFactor 3 \
	nAlphaAdjustMax      3 \
	wolfeEnergy          0.0001 \
	wolfeGradient        0.9 \
	fdTest               no
fluid-solvent H2O 55.338 ScalarEOS \
	epsBulk 78.4 \
	pMol 0.92466 \
	epsInf 1.77 \
	Pvap 1.06736e-10 \
	sigmaBulk 4.62e-05 \
	Rvdw 2.61727 \
	Res 1.42 \
	tauNuc 343133 \
	poleEl 15 7 1
forces-output-coords Positions
initial-state Na2S8@NiS2.$VAR
ion Ni  32.181155145269997   0.000000000000000  10.727052344999997 0
ion Ni   5.363526172499999   0.000000000000000   5.363526172499999 0
ion Ni  32.181155145269997   5.363526172499999   5.363526172499999 0
ion Ni   5.363526172499999   5.363526172499999  10.727052344999997 0
ion Ni  32.181155145269997  10.727052344999999  10.727052344999997 0
ion Ni  32.181155145269997  21.454102800270000  10.727052344999997 0
ion Ni   5.363526172499999  21.454102800270000   5.363526172499999 0
ion Ni   5.363526172499999  10.727052344999999   5.363526172499999 0
ion Ni  32.181155145269997  16.090578517499999   5.363526172499999 0
ion Ni  32.181155145269997  26.817628972769999   5.363526172499999 0
ion Ni   5.363526172499999  26.817628972769999  10.727052344999997 0
ion Ni   5.363526172499999  16.090578517499999  10.727052344999997 0
ion Ni  10.727052344999999   0.000000000000000  10.727052344999997 0
ion Ni  21.454102800270000   0.000000000000000  10.727052344999997 0
ion Ni  21.454102800270000   5.363526172499999   5.363526172499999 0
ion Ni  10.727052344999999   5.363526172499999   5.363526172499999 0
ion Ni  16.090578517499999   5.363526172499999  10.727052344999997 0
ion Ni  26.817628972769999   5.363526172499999  10.727052344999997 0
ion Ni  26.817628972769999   0.000000000000000   5.363526172499999 0
ion Ni  16.090578517499999   0.000000000000000   5.363526172499999 0
ion Ni  10.727052344999999  10.727052344999999  10.727052344999997 0
ion Ni  21.454102800270000  21.454102800270000  10.727052344999997 0
ion Ni  26.817628972769999  21.454102800270000   5.363526172499999 0
ion Ni  16.090578517499999  10.727052344999999   5.363526172499999 0
ion Ni  21.454102800270000  16.090578517499999   5.363526172499999 0
ion Ni  10.727052344999999  26.817628972769999   5.363526172499999 0
ion Ni  16.090578517499999  26.817628972769999  10.727052344999997 0
ion Ni  26.817628972769999  16.090578517499999  10.727052344999997 0
ion Ni  10.727052344999999  21.454102800270000  10.727052344999997 0
ion Ni  21.454102800270000  10.727052344999999  10.727052344999985 0
ion Ni  26.817628972769999  10.727052344999999   5.363526172499999 0
ion Ni  16.090578517499999  21.454102800270000   5.363526172499999 0
ion Ni  21.454102800270000  26.817628972769999   5.363526172499999 0
ion Ni  10.727052344999999  16.090578517499999   5.363526172499999 0
ion Ni  16.090578517499999  16.090578517499999  10.727052344999997 0
ion Ni  26.817628972769999  26.817628972769999  10.727052344999997 0
ion S   4.232241197730000   4.232241197730000   4.232250646379995 0
ion S  27.948915837270000  27.948915837270000   6.494801698619992 0
ion S   1.131284974770000  27.948915837270000   9.595776818879992 0
ion S   9.595765480499999   4.232241197730000   1.131275526120000 0
ion S  27.948915837270000   9.595765480499999   1.131275526120000 0
ion S   4.232241197730000   1.131284974770000   9.595776818879992 0
ion S   9.595765480499999   1.131284974770000   6.494801698619992 0
ion S   1.131284974770000   9.595765480499999   4.232250646379995 0
ion S   4.232241197730000  14.959291652999985   4.232250646379995 0
ion S  27.948915837270000  17.221863492269968   6.494801698619992 0
ion S   1.131284974770000  17.221863492269968   9.595776818879992 0
ion S   9.595765480499999  14.959291652999985   1.131275526120000 0
ion S  27.948915837270000  20.322817825500000   1.131275526120000 0
ion S   4.232241197730000  22.585389664769998   9.595776818879992 0
ion S   9.595765480499999  22.585389664769998   6.494801698619992 0
ion S   1.131284974770000  20.322817825500000   4.232250646379995 0
ion S  14.959291652999985   4.232250646380000   4.232241197729999 0
ion S  17.221863492269968  27.948904498889998   6.494811147269997 0
ion S  17.221863492269968   9.595776818879999   1.131284974770000 0
ion S  14.959291652999985   1.131275526120000   9.595765480499992 0
ion S  20.322817825500000   1.131275526120000   6.494811147269997 0
ion S  22.585389664769998   9.595776818879999   4.232241197729999 0
ion S  22.585389664769998  27.948904498889998   9.595765480499992 0
ion S  20.322817825500000   4.232250646380000   1.131284974770000 0
ion S   4.232241197730000  25.686343997999970   4.232250646379995 0
ion S  27.948915837270000   6.494811147269997   6.494801698619992 0
ion S   1.131284974770000   6.494811147269997   9.595776818879992 0
ion S   9.595765480499999  25.686343997999970   1.131275526120000 0
ion S  27.948915837270000  31.049870170499968   1.131275526120000 0
ion S   4.232241197730000  11.858337319769999   9.595776818879992 0
ion S   9.595765480499999  11.858337319769999   6.494801698619992 0
ion S   1.131284974770000  31.049870170499968   4.232250646379995 0
ion S  25.686343997999970   4.232250646380000   4.232241197729999 0
ion S   6.494811147269997  27.948904498889998   6.494811147269997 0
ion S   6.494811147269997   9.595776818879999   1.131284974770000 0
ion S  25.686343997999970   1.131275526120000   9.595765480499992 0
ion S  31.049870170499968   1.131275526120000   6.494811147269997 0
ion S  11.858337319769999   9.595776818879999   4.232241197729999 0
ion S  11.858337319769999  27.948904498889998   9.595765480499992 0
ion S  31.049870170499968   4.232250646380000   1.131284974770000 0
ion S  14.959291652999985  14.959291652999985   4.232250646379995 0
ion S  17.221863492269968  17.221863492269968   6.494801698619992 0
ion S  22.585389664769998  17.221863492269968   9.595776818879992 0
ion S  20.322817825500000  14.959291652999985   1.131275526120000 0
ion S  17.221863492269968  20.322817825500000   1.131275526120000 0
ion S  14.959291652999985  22.585389664769998   9.595776818879992 0
ion S  20.322817825500000  22.585389664769998   6.494801698619992 0
ion S  22.585389664769998  20.322817825500000   4.232250646379995 0
ion S  14.959291652999985  25.686343997999970   4.232250646379995 0
ion S  17.221863492269968   6.494811147269997   6.494801698619992 0
ion S  22.585389664769998   6.494811147269997   9.595776818879992 0
ion S  20.322817825500000  25.686343997999970   1.131275526120000 0
ion S  17.221863492269968  31.049870170499968   1.131275526120000 0
ion S  14.959291652999985  11.858337319769999   9.595776818879992 0
ion S  20.322817825500000  11.858337319769999   6.494801698619992 0
ion S  22.585389664769998  31.049870170499968   4.232250646379995 0
ion S  25.686343997999970  14.959291652999985   4.232250646379995 0
ion S   6.494811147269997  17.221863492269968   6.494801698619992 0
ion S  11.858337319769999  17.221863492269968   9.595776818879992 0
ion S  31.049870170499968  14.959291652999985   1.131275526120000 0
ion S   6.494811147269997  20.322817825500000   1.131275526120000 0
ion S  25.686343997999970  22.585389664769998   9.595776818879992 0
ion S  31.049870170499968  22.585389664769998   6.494801698619992 0
ion S  11.858337319769999  20.322817825500000   4.232250646379995 0
ion S  25.686343997999970  25.686343997999970   4.232250646379995 0
ion S   6.494811147269997   6.494811147269997   6.494801698619992 0
ion S  11.858337319769999   6.494811147269997   9.595776818879992 0
ion S  31.049870170499968  25.686343997999970   1.131275526120000 0
ion S   6.494811147269997  31.049870170499968   1.131275526120000 0
ion S  25.686343997999970  11.858337319769999   9.595776818879992 0
ion S  31.049870170499968  11.858337319769999   6.494801698619992 0
ion S  11.858337319769999  31.049870170499968   4.232250646379995 0
ion S  21.265348981159846  14.043791706425404  13.556761136808257 1
ion S  18.018799832031046  15.919148050876728  14.087914688172022 1
ion S  17.657971347780478   9.076574040572357  11.629371480109471 1
ion S   8.611049409532219  13.670599132561305  12.454135395714159 1
ion S   5.272742468531660  19.981808484726759  12.706593674045061 1
ion S   8.642569128447239  21.542092496854362  14.089071108960695 1
ion S  17.349913179256589  20.334686574626577  11.811535854792035 1
ion S  10.769251155393867  13.092670060978891  15.667962402879226 1
ion Na  13.456298290322824  17.866362233014986  15.063877763970497 1
ion Na  15.312834517556121  10.796483495854423  15.481779896044634 1
ion-species GBRV/$ID_pbe.uspp
ion-width 0
ionic-minimize  \
	dirUpdateScheme      FletcherReeves \
	linminMethod         DirUpdateRecommended \
	nIterations          400 \
	history              15 \
	knormThreshold       0.0001 \
	energyDiffThreshold  1e-06 \
	nEnergyDiff          2 \
	alphaTstart          1 \
	alphaTmin            1e-10 \
	updateTestStepSize   yes \
	alphaTreduceFactor   0.1 \
	alphaTincreaseFactor 3 \
	nAlphaAdjustMax      3 \
	wolfeEnergy          0.0001 \
	wolfeGradient        0.9 \
	fdTest               no
kpoint   0.000000000000   0.000000000000   0.000000000000  1.00000000000000
kpoint-folding 1 1 1 
latt-move-scale 1 1 1
latt-scale 1 1 1 
lattice Triclinic 32.1811 32.1811 37.7946 90 90 90
lattice-minimize  \
	dirUpdateScheme      L-BFGS \
	linminMethod         DirUpdateRecommended \
	nIterations          0 \
	history              15 \
	knormThreshold       0 \
	energyDiffThreshold  1e-06 \
	nEnergyDiff          2 \
	alphaTstart          1 \
	alphaTmin            1e-10 \
	updateTestStepSize   yes \
	alphaTreduceFactor   0.1 \
	alphaTincreaseFactor 3 \
	nAlphaAdjustMax      3 \
	wolfeEnergy          0.0001 \
	wolfeGradient        0.9 \
	fdTest               no
lcao-params -1 1e-06 0.01
pcm-variant GLSSA13
spintype no-spin
subspace-rotation-factor 1 yes
symmetries automatic
symmetry-threshold 0.0001



---------- Setting up symmetries ----------

Found 16 point-group symmetries of the bravais lattice
Found 1 space-group symmetries with basis
Applied RMS atom displacement 0 bohrs to make symmetries exact.

---------- Initializing the Grid ----------
R = 
[      32.1811            0            0  ]
[            0      32.1811            0  ]
[            0            0      37.7946  ]
unit cell volume = 39140.9
G =
[   0.195245          0          0  ]
[          0   0.195245          0  ]
[          0          0   0.166246  ]
Minimum fftbox size, Smin = [  148  148  172  ]
Chosen fftbox size, S = [  150  150  180  ]

---------- Initializing tighter grid for wavefunction operations ----------
R = 
[      32.1811            0            0  ]
[            0      32.1811            0  ]
[            0            0      37.7946  ]
unit cell volume = 39140.9
G =
[   0.195245          0          0  ]
[          0   0.195245          0  ]
[          0          0   0.166246  ]
Minimum fftbox size, Smin = [  132  132  156  ]
Chosen fftbox size, S = [  140  140  160  ]

---------- Exchange Correlation functional ----------
Initalized PBE GGA exchange.
Initalized PBE GGA correlation.

---------- Setting up pseudopotentials ----------
Width of ionic core gaussian charges (only for fluid interactions / plotting) set to 0

Reading pseudopotential file '/home/akim2/jdftx_install/build/pseudopotentials/GBRV/ni_pbe.uspp':
  Title: Ni.  Created by USPP 7.3.6 on 1-4-15
  Reference state energy: -170.398381.  18 valence electrons in orbitals:
    |300>  occupation: 2  eigenvalue: -4.804705
    |310>  occupation: 6  eigenvalue: -3.347751
    |320>  occupation: 8  eigenvalue: -1.042415
    |400>  occupation: 0  eigenvalue: -0.795539
    |410>  occupation: 0  eigenvalue: -0.551375
  lMax: 2  lLocal: 3  QijEcut: 6.5
  6 projectors sampled on a log grid with 611 points:
    l: 0  eig: -4.804708  rCut: 1.44
    l: 0  eig: -0.795541  rCut: 1.44
    l: 1  eig: -3.347753  rCut: 1.55
    l: 1  eig: 0.500000  rCut: 1.55
    l: 2  eig: -1.042418  rCut: 1.5
    l: 2  eig: -0.450000  rCut: 1.5
  Partial core density with radius 0.65
  Transforming core density to a uniform radial grid of dG=0.02 with 1283 points.
  Transforming local potential to a uniform radial grid of dG=0.02 with 1283 points.
  Transforming nonlocal projectors to a uniform radial grid of dG=0.02 with 432 points.
  Transforming density augmentations to a uniform radial grid of dG=0.02 with 1283 points.
  Transforming atomic orbitals to a uniform radial grid of dG=0.02 with 432 points.
  Core radius for overlap checks: 1.55 bohrs.

Reading pseudopotential file '/home/akim2/jdftx_install/build/pseudopotentials/GBRV/s_pbe.uspp':
  Title: S.  Created by USPP 7.3.6 on 1-4-15
  Reference state energy: -11.898476.  6 valence electrons in orbitals:
    |300>  occupation: 2  eigenvalue: -0.634167
    |310>  occupation: 4  eigenvalue: -0.257568
  lMax: 2  lLocal: 3  QijEcut: 6
  6 projectors sampled on a log grid with 635 points:
    l: 0  eig: -0.634161  rCut: 1.5
    l: 0  eig: 1.500000  rCut: 1.5
    l: 1  eig: -0.257567  rCut: 1.5
    l: 1  eig: 1.500000  rCut: 1.5
    l: 2  eig: -1.000000  rCut: 1.5
    l: 2  eig: 1.500000  rCut: 1.5
  Partial core density with radius 1.15
  Transforming core density to a uniform radial grid of dG=0.02 with 1283 points.
  Transforming local potential to a uniform radial grid of dG=0.02 with 1283 points.
  Transforming nonlocal projectors to a uniform radial grid of dG=0.02 with 432 points.
  Transforming density augmentations to a uniform radial grid of dG=0.02 with 1283 points.
  Transforming atomic orbitals to a uniform radial grid of dG=0.02 with 432 points.
  Core radius for overlap checks: 1.50 bohrs.

Reading pseudopotential file '/home/akim2/jdftx_install/build/pseudopotentials/GBRV/na_pbe.uspp':
  Title: Na.  Created by USPP 7.3.6 on 23-9-15
  Reference state energy: -47.625620.  9 valence electrons in orbitals:
    |200>  occupation: 2  eigenvalue: -2.085638
    |210>  occupation: 6  eigenvalue: -1.053708
    |300>  occupation: 1  eigenvalue: -0.100838
  lMax: 2  lLocal: 0  QijEcut: 6
  5 projectors sampled on a log grid with 657 points:
    l: 0  eig: -2.085640  rCut: 1.37
    l: 0  eig: -0.100839  rCut: 1.37
    l: 1  eig: -1.053708  rCut: 1.47
    l: 1  eig: 0.500000  rCut: 1.47
    l: 2  eig: 0.750000  rCut: 2
  Transforming local potential to a uniform radial grid of dG=0.02 with 1283 points.
  Transforming nonlocal projectors to a uniform radial grid of dG=0.02 with 432 points.
  Transforming density augmentations to a uniform radial grid of dG=0.02 with 1283 points.
  Transforming atomic orbitals to a uniform radial grid of dG=0.02 with 432 points.
  Core radius for overlap checks: 2.00 bohrs.

Initialized 3 species with 118 total atoms.

Folded 1 k-points by 1x1x1 to 1 k-points.

---------- Setting up k-points, bands, fillings ----------
No reducable k-points. 
Computing the number of bands and number of electrons
Reading initial fillings from file Na2S8@NiS2.fillings.
nElectrons: 1146.000000   nBands: 798   nStates: 1

----- Setting up reduced wavefunction bases (one per k-point) -----
average nbasis = 167141.000 , ideal nbasis = 167213.066

---------- Setting up coulomb interaction ----------
Setting up double-sized grid for truncated Coulomb potentials:
R = 
[      32.1811            0            0  ]
[            0      32.1811            0  ]
[            0            0      75.5892  ]
unit cell volume = 78281.9
G =
[   0.195245          0          0  ]
[          0   0.195245          0  ]
[          0          0  0.0831228  ]
Chosen fftbox size, S = [  150  150  360  ]
Integer grid location selected as the embedding center:
   Grid: [  0  0  48  ]
   Lattice: [  0  0  0.264588  ]
   Cartesian: [  0  0  10  ]
Constructing Wigner-Seitz cell: 6 faces (6 quadrilaterals, 0 hexagons)
Range-separation parameter for embedded mesh potentials due to point charges: 0.584339 bohrs.
Initialized slab truncation along lattice direction 001

---------- Setting up 2D ewald sum ----------
Optimum gaussian width for ewald sums = 19.197881 bohr.
Real space sums over 225 unit cells with max indices [  7  7  0  ]
Reciprocal space sums over 81 terms with max indices [  4  4  0  ]

---------- Allocating electronic variables ----------
Initializing wave functions:  reading from 'Na2S8@NiS2.wfns'


---- Citations for features of the code used in this run ----

   Software package:
      R. Sundararaman, K. Letchworth-Weaver, K.A. Schwarz, D. Gunceler, Y. Ozhabes and T.A. Arias, 'JDFTx: software for joint density-functional theory', SoftwareX 6, 278 (2017)

   gga-PBE exchange-correlation functional:
      J.P. Perdew, K. Burke and M. Ernzerhof, Phys. Rev. Lett. 77, 3865 (1996)

   Pseudopotentials:
      KF Garrity, JW Bennett, KM Rabe and D Vanderbilt, Comput. Mater. Sci. 81, 446 (2014)

   Truncated Coulomb potentials:
      R. Sundararaman and T.A. Arias, Phys. Rev. B 87, 165122 (2013)

   Total energy minimization with Auxiliary Hamiltonian:
      C. Freysoldt, S. Boeck, and J. Neugebauer, Phys. Rev. B 79, 241103(R) (2009)

This list may not be complete. Please suggest additional citations or
report any other bugs at https://github.com/shankar1729/jdftx/issues

Initialization completed successfully at t[s]:      8.78


-------- Electronic minimization -----------
	FillingsUpdate:  mu: -0.188368224  nElectrons: 1146.000000
ElecMinimize: Iter:   0  F: -7081.757687397901464  |grad|_K:  3.126e-07  alpha:  1.000e+00
	FillingsUpdate:  mu: -0.188376537  nElectrons: 1146.000000
	SubspaceRotationAdjust: set factor to 0.528
ElecMinimize: Iter:   1  F: -7081.757687625326980  |grad|_K:  7.387e-08  alpha:  1.737e-02  linmin: -2.136e-04  t[s]:     26.05
	FillingsUpdate:  mu: -0.188376008  nElectrons: 1146.000000
	SubspaceRotationAdjust: set factor to 0.334
ElecMinimize: Iter:   2  F: -7081.757687645994338  |grad|_K:  2.213e-08  alpha:  2.757e-02  linmin: -3.434e-04  t[s]:     36.80
	FillingsUpdate:  mu: -0.188376085  nElectrons: 1146.000000
	SubspaceRotationAdjust: set factor to 0.259
ElecMinimize: Iter:   3  F: -7081.757687649998843  |grad|_K:  1.279e-08  alpha:  6.289e-02  linmin: -1.934e-04  t[s]:     47.57
	FillingsUpdate:  mu: -0.188374252  nElectrons: 1146.000000
	SubspaceRotationAdjust: set factor to 0.241
ElecMinimize: Iter:   4  F: -7081.757687652654568  |grad|_K:  8.670e-09  alpha:  1.329e-01  linmin:  5.465e-04  t[s]:     58.33
ElecMinimize: Converged (|Delta F|<1.000000e-08 for 2 iters).
Setting wave functions to eigenvectors of Hamiltonian

# Ionic positions in cartesian coordinates:
ion Ni  32.181155145269997   0.000000000000000  10.727052344999997 0
ion Ni   5.363526172499999   0.000000000000000   5.363526172499999 0
ion Ni  32.181155145269997   5.363526172499999   5.363526172499999 0
ion Ni   5.363526172499999   5.363526172499999  10.727052344999997 0
ion Ni  32.181155145269997  10.727052344999999  10.727052344999997 0
ion Ni  32.181155145269997  21.454102800270000  10.727052344999997 0
ion Ni   5.363526172499999  21.454102800270000   5.363526172499999 0
ion Ni   5.363526172499999  10.727052344999999   5.363526172499999 0
ion Ni  32.181155145269997  16.090578517499999   5.363526172499999 0
ion Ni  32.181155145269997  26.817628972769999   5.363526172499999 0
ion Ni   5.363526172499999  26.817628972769999  10.727052344999997 0
ion Ni   5.363526172499999  16.090578517499999  10.727052344999997 0
ion Ni  10.727052344999999   0.000000000000000  10.727052344999997 0
ion Ni  21.454102800270000   0.000000000000000  10.727052344999997 0
ion Ni  21.454102800270000   5.363526172499999   5.363526172499999 0
ion Ni  10.727052344999999   5.363526172499999   5.363526172499999 0
ion Ni  16.090578517499999   5.363526172499999  10.727052344999997 0
ion Ni  26.817628972769999   5.363526172499999  10.727052344999997 0
ion Ni  26.817628972769999   0.000000000000000   5.363526172499999 0
ion Ni  16.090578517499999   0.000000000000000   5.363526172499999 0
ion Ni  10.727052344999999  10.727052344999999  10.727052344999997 0
ion Ni  21.454102800270000  21.454102800270000  10.727052344999997 0
ion Ni  26.817628972769999  21.454102800270000   5.363526172499999 0
ion Ni  16.090578517499999  10.727052344999999   5.363526172499999 0
ion Ni  21.454102800270000  16.090578517499999   5.363526172499999 0
ion Ni  10.727052344999999  26.817628972769999   5.363526172499999 0
ion Ni  16.090578517499999  26.817628972769999  10.727052344999997 0
ion Ni  26.817628972769999  16.090578517499999  10.727052344999997 0
ion Ni  10.727052344999999  21.454102800270000  10.727052344999997 0
ion Ni  21.454102800270000  10.727052344999999  10.727052344999985 0
ion Ni  26.817628972769999  10.727052344999999   5.363526172499999 0
ion Ni  16.090578517499999  21.454102800270000   5.363526172499999 0
ion Ni  21.454102800270000  26.817628972769999   5.363526172499999 0
ion Ni  10.727052344999999  16.090578517499999   5.363526172499999 0
ion Ni  16.090578517499999  16.090578517499999  10.727052344999997 0
ion Ni  26.817628972769999  26.817628972769999  10.727052344999997 0
ion S   4.232241197730000   4.232241197730000   4.232250646379995 0
ion S  27.948915837270000  27.948915837270000   6.494801698619992 0
ion S   1.131284974770000  27.948915837270000   9.595776818879992 0
ion S   9.595765480499999   4.232241197730000   1.131275526120000 0
ion S  27.948915837270000   9.595765480499999   1.131275526120000 0
ion S   4.232241197730000   1.131284974770000   9.595776818879992 0
ion S   9.595765480499999   1.131284974770000   6.494801698619992 0
ion S   1.131284974770000   9.595765480499999   4.232250646379995 0
ion S   4.232241197730000  14.959291652999985   4.232250646379995 0
ion S  27.948915837270000  17.221863492269968   6.494801698619992 0
ion S   1.131284974770000  17.221863492269968   9.595776818879992 0
ion S   9.595765480499999  14.959291652999985   1.131275526120000 0
ion S  27.948915837270000  20.322817825500000   1.131275526120000 0
ion S   4.232241197730000  22.585389664769998   9.595776818879992 0
ion S   9.595765480499999  22.585389664769998   6.494801698619992 0
ion S   1.131284974770000  20.322817825500000   4.232250646379995 0
ion S  14.959291652999985   4.232250646380000   4.232241197729999 0
ion S  17.221863492269968  27.948904498889998   6.494811147269997 0
ion S  17.221863492269968   9.595776818879999   1.131284974770000 0
ion S  14.959291652999985   1.131275526120000   9.595765480499992 0
ion S  20.322817825500000   1.131275526120000   6.494811147269997 0
ion S  22.585389664769998   9.595776818879999   4.232241197729999 0
ion S  22.585389664769998  27.948904498889998   9.595765480499992 0
ion S  20.322817825500000   4.232250646380000   1.131284974770000 0
ion S   4.232241197730000  25.686343997999970   4.232250646379995 0
ion S  27.948915837270000   6.494811147269997   6.494801698619992 0
ion S   1.131284974770000   6.494811147269997   9.595776818879992 0
ion S   9.595765480499999  25.686343997999970   1.131275526120000 0
ion S  27.948915837270000  31.049870170499968   1.131275526120000 0
ion S   4.232241197730000  11.858337319769999   9.595776818879992 0
ion S   9.595765480499999  11.858337319769999   6.494801698619992 0
ion S   1.131284974770000  31.049870170499968   4.232250646379995 0
ion S  25.686343997999970   4.232250646380000   4.232241197729999 0
ion S   6.494811147269997  27.948904498889998   6.494811147269997 0
ion S   6.494811147269997   9.595776818879999   1.131284974770000 0
ion S  25.686343997999970   1.131275526120000   9.595765480499992 0
ion S  31.049870170499968   1.131275526120000   6.494811147269997 0
ion S  11.858337319769999   9.595776818879999   4.232241197729999 0
ion S  11.858337319769999  27.948904498889998   9.595765480499992 0
ion S  31.049870170499968   4.232250646380000   1.131284974770000 0
ion S  14.959291652999985  14.959291652999985   4.232250646379995 0
ion S  17.221863492269968  17.221863492269968   6.494801698619992 0
ion S  22.585389664769998  17.221863492269968   9.595776818879992 0
ion S  20.322817825500000  14.959291652999985   1.131275526120000 0
ion S  17.221863492269968  20.322817825500000   1.131275526120000 0
ion S  14.959291652999985  22.585389664769998   9.595776818879992 0
ion S  20.322817825500000  22.585389664769998   6.494801698619992 0
ion S  22.585389664769998  20.322817825500000   4.232250646379995 0
ion S  14.959291652999985  25.686343997999970   4.232250646379995 0
ion S  17.221863492269968   6.494811147269997   6.494801698619992 0
ion S  22.585389664769998   6.494811147269997   9.595776818879992 0
ion S  20.322817825500000  25.686343997999970   1.131275526120000 0
ion S  17.221863492269968  31.049870170499968   1.131275526120000 0
ion S  14.959291652999985  11.858337319769999   9.595776818879992 0
ion S  20.322817825500000  11.858337319769999   6.494801698619992 0
ion S  22.585389664769998  31.049870170499968   4.232250646379995 0
ion S  25.686343997999970  14.959291652999985   4.232250646379995 0
ion S   6.494811147269997  17.221863492269968   6.494801698619992 0
ion S  11.858337319769999  17.221863492269968   9.595776818879992 0
ion S  31.049870170499968  14.959291652999985   1.131275526120000 0
ion S   6.494811147269997  20.322817825500000   1.131275526120000 0
ion S  25.686343997999970  22.585389664769998   9.595776818879992 0
ion S  31.049870170499968  22.585389664769998   6.494801698619992 0
ion S  11.858337319769999  20.322817825500000   4.232250646379995 0
ion S  25.686343997999970  25.686343997999970   4.232250646379995 0
ion S   6.494811147269997   6.494811147269997   6.494801698619992 0
ion S  11.858337319769999   6.494811147269997   9.595776818879992 0
ion S  31.049870170499968  25.686343997999970   1.131275526120000 0
ion S   6.494811147269997  31.049870170499968   1.131275526120000 0
ion S  25.686343997999970  11.858337319769999   9.595776818879992 0
ion S  31.049870170499968  11.858337319769999   6.494801698619992 0
ion S  11.858337319769999  31.049870170499968   4.232250646379995 0
ion S  21.265348981159846  14.043791706425404  13.556761136808257 1
ion S  18.018799832031046  15.919148050876728  14.087914688172022 1
ion S  17.657971347780478   9.076574040572357  11.629371480109471 1
ion S   8.611049409532219  13.670599132561305  12.454135395714159 1
ion S   5.272742468531660  19.981808484726759  12.706593674045061 1
ion S   8.642569128447239  21.542092496854362  14.089071108960695 1
ion S  17.349913179256589  20.334686574626577  11.811535854792035 1
ion S  10.769251155393867  13.092670060978891  15.667962402879226 1
ion Na  13.456298290322824  17.866362233014986  15.063877763970497 1
ion Na  15.312834517556121  10.796483495854423  15.481779896044634 1

# Forces in Cartesian coordinates:
force Ni   0.023705689479295  -0.011353223911365  -0.039069756202612 0
force Ni  -0.001819686215838  -0.000587728799064  -0.008928138977770 0
force Ni   0.001491620590341  -0.000565090301080  -0.009244727757705 0
force Ni  -0.023393529330636  -0.012083280208612  -0.038997757634997 0
force Ni   0.024042377030219  -0.011269611641383  -0.039697006798709 0
force Ni   0.018522673950552  -0.012410372526065  -0.037676780560205 0
force Ni   0.001126944700223  -0.005489847303285  -0.009662586282564 0
force Ni  -0.002742151995696  -0.000128838379616  -0.007964404833032 0
force Ni   0.001628809962418  -0.000334967693025  -0.009191602650184 0
force Ni   0.001246060934114  -0.000382015484485  -0.009177519004521 0
force Ni  -0.020041698357225  -0.006569521463159  -0.036049058979931 0
force Ni  -0.012728401638542  -0.002021487138571  -0.009410296081650 0
force Ni   0.023398896119809  -0.011661571533753  -0.039136569631719 0
force Ni   0.023242172452195  -0.011789589208581  -0.039090843337136 0
force Ni   0.001758055959640   0.000127177422944  -0.008188874405149 0
force Ni   0.001932566065338  -0.000077410725680  -0.009026534034176 0
force Ni  -0.014861119191135  -0.005981224854925  -0.033773750573270 0
force Ni  -0.024073942786791  -0.011298493808994  -0.040199121250506 0
force Ni  -0.001700211462982  -0.000594283703983  -0.009009572434617 0
force Ni  -0.001988235143224   0.000391918955336  -0.009039761998202 0
force Ni   0.011905586974425  -0.011050948554415  -0.027110696438292 0
force Ni   0.007374582140779  -0.015711774703464  -0.030695769605039 0
force Ni  -0.002329955544460  -0.000457554796268  -0.009159314681606 0
force Ni  -0.001063481566758  -0.000709595818722  -0.012084925682409 0
force Ni   0.001761721215585  -0.001793574761475  -0.007069688820443 0
force Ni   0.001900464308929  -0.000413099786020  -0.008857664287398 0
force Ni  -0.021628130359006  -0.004644972671980  -0.037874345677897 0
force Ni  -0.024358012928845  -0.010803320956992  -0.039396677755915 0
force Ni   0.023547577678153  -0.010030102171300  -0.027514943242082 0
force Ni   0.009861517089503  -0.005613872612180  -0.010551768944163 0
force Ni  -0.002559099512463  -0.000497028635186  -0.008722099635954 0
force Ni   0.000265652585002  -0.001972183834168  -0.012500242373288 0
force Ni   0.001672418884189  -0.001210022841949  -0.009201711956925 0
force Ni   0.001723299063135  -0.000755667423592  -0.007469746759178 0
force Ni  -0.023770807728394   0.008629476325307  -0.038117071397550 0
force Ni  -0.023846297465468  -0.011258843638228  -0.038931927134617 0
force S  -0.004480306620297  -0.004143206732365  -0.003814191239551 0
force S   0.003085433950707   0.000814935304061   0.011099365167810 0
force S  -0.003000551099751   0.007010970614946   0.019937053802997 0
force S  -0.004069215626899   0.008838288333975   0.021584410647135 0
force S   0.004324460583755   0.008665035749981   0.021339747059270 0
force S   0.002387854745974   0.007017648664283   0.019605780505262 0
force S  -0.002908979007262   0.000788674493665   0.011082470702130 0
force S   0.004226921908704  -0.004415958456869  -0.003989925526008 0
force S  -0.004525684909950  -0.004038912665234  -0.004338261050665 0
force S   0.004138785209511   0.000604676546855   0.010776709493149 0
force S  -0.009809793224709   0.002158825905417   0.013533612831423 0
force S  -0.004264129692840   0.008547915581028   0.021229350864079 0
force S   0.003992952448253   0.008585320966855   0.021233306351083 0
force S  -0.006045898032242   0.010179837743679   0.015604330674394 0
force S   0.000014351292044   0.000524042032636   0.010268665880120 0
force S   0.003867707097984  -0.003911493058268  -0.003280049085694 0
force S  -0.003940977685163  -0.004471439193048  -0.006191991921522 0
force S   0.003372311457403   0.000798326357080   0.011533322950088 0
force S   0.004533707978282   0.007851347329793   0.021241908410545 0
force S   0.003122445857220   0.008183376748977   0.019510167733718 0
force S  -0.003267322073005   0.000844996181782   0.011308468747238 0
force S   0.004300005632417  -0.003865547314004  -0.004675101093769 0
force S  -0.002401647297940   0.007057586948577   0.019597886404744 0
force S  -0.004142678842631   0.008588433237645   0.021293991161150 0
force S  -0.004612355033279  -0.006552977516010  -0.000429068077326 0
force S   0.003688534983127   0.000991035856734   0.011256530649173 0
force S  -0.002762506518891   0.007011681067585   0.019590762713409 0
force S  -0.004048722752850   0.008652171496205   0.021021021260743 0
force S   0.004002662644923   0.008545111236594   0.021353056032691 0
force S  -0.009135854144300   0.002443165793823   0.009698260243537 0
force S  -0.000248756917541  -0.003261888707433   0.006314577365717 0
force S   0.004308137954576  -0.003948299853976  -0.003855917817251 0
force S  -0.004342990496896  -0.004146491474496  -0.004218305814890 0
force S   0.003579688009919   0.001479041238453   0.012344007446926 0
force S   0.004345032313949   0.008296027182752   0.021069390218183 0
force S   0.002311303630038   0.007518290125923   0.019827591839701 0
force S  -0.003125871646497   0.001016612473644   0.011127493638946 0
force S   0.004609097439860  -0.004409579589079  -0.004946972791790 0
force S  -0.002358833060065   0.007738147269779   0.018702637008597 0
force S  -0.004088928655242   0.008633439073565   0.021481962645648 0
force S  -0.004982944705562  -0.004795377369656  -0.004894491626784 0
force S   0.000458139693967  -0.001472917550478   0.003150717078351 0
force S   0.014887505788968   0.008168606047068   0.009907097635397 0
force S  -0.004587867217219   0.008406934832242   0.020645535763451 0
force S   0.004613247500514   0.008344430617136   0.020121403647501 0
force S  -0.000464095884372   0.014824765985169   0.006436101114400 0
force S  -0.000261684242073   0.004014068906539   0.006206084292001 0
force S   0.004544793135981  -0.005408022288692  -0.002569561542640 0
force S  -0.004620455670260  -0.004929981968315  -0.002669803887256 0
force S  -0.000961494333734  -0.005368513182879  -0.000336660646244 0
force S   0.008769601388404   0.000499508782265   0.014451276554279 0
force S  -0.004035023339725   0.008395298403715   0.021515289107801 0
force S   0.004276832169925   0.008716081342131   0.021221708187566 0
force S   0.007640942011040  -0.000852416390752   0.011218097681521 0
force S   0.000260723485470   0.002138992586582   0.002183639009313 0
force S   0.004415394556796  -0.004078939095573  -0.003906895326593 0
force S  -0.003934920392998  -0.003818479496964  -0.003594823330636 0
force S   0.002240450201472  -0.000563514004958   0.006314167440146 0
force S   0.002337762882535   0.008408325838464   0.002812103740197 0
force S  -0.004056979787062   0.008678759690820   0.021345695160927 0
force S   0.004514832391843   0.007924410885479   0.019961756685047 0
force S   0.001188374760011   0.005649090262334   0.019554704751155 0
force S  -0.003824267427198   0.000321353876746   0.010588763884139 0
force S   0.004812257261233  -0.004837974101323  -0.004995310578526 0
force S  -0.004246666869674  -0.003745270172894  -0.003874261714400 0
force S   0.003465978252991   0.000677859418437   0.011371233050729 0
force S  -0.006262208507147   0.004887640153762   0.015258279276180 0
force S  -0.004012519662113   0.008549939684754   0.021327857712058 0
force S   0.004114710075409   0.008653783175616   0.021161892754330 0
force S   0.004143369902415   0.003973737361935   0.016613899469092 0
force S  -0.003322178697943   0.001003161987212   0.011397258789521 0
force S   0.004223176706408  -0.004108473329072  -0.003820269576386 0
force S   0.017851057021602  -0.015852442225639  -0.009028447816905 1
force S   0.009942208115826  -0.016334423899365   0.029948523236267 1
force S  -0.001812439205193   0.004516798194277   0.001308328667574 1
force S  -0.001399916271737  -0.001079178476952  -0.003891182121535 1
force S   0.001218629481249  -0.006912352183136  -0.005809682014618 1
force S  -0.002912045477064  -0.000568171154968   0.006804872516374 1
force S   0.004697638723508   0.002831843597652   0.001795297449712 1
force S  -0.002647238624316   0.006969814980191   0.007415261245021 1
force Na  -0.013964635487001   0.003425386761695   0.001170176074299 1
force Na  -0.002169214287817   0.005097766029668   0.004179047655626 1

# Energy components:
   Eewald =   -19426.0892097623000154
       EH =   -13270.3873277129641792
     Eloc =    24375.6276331479712098
      Enl =      919.1638924375620263
      Exc =     -987.2788424315109523
 Exc_core =      155.8560574139010555
       KE =     1152.3579869233305999
-------------------------------------
     Etot =    -7080.7498099840104260
       TS =        1.0078776686439950
-------------------------------------
        F =    -7081.7576876526545675

IonicMinimize: Iter:   0  F: -7081.757687652654568  |grad|_K:  9.121e-03  alpha:  1.000e+00

#--- Lowdin population analysis ---
# oxidation-state Ni -0.000 -0.449 -0.450 +0.012 +0.004 -0.027 -0.463 -0.453 -0.452 -0.453 +0.004 -0.390 +0.002 +0.002 -0.453 -0.451 -0.277 -0.001 -0.449 -0.449 -0.326 -0.193 -0.449 -0.462 -0.456 -0.453 -0.004 -0.003 -0.392 -0.423 -0.451 -0.467 -0.450 -0.458 -0.546 -0.000
# oxidation-state S +0.318 +0.445 +0.070 -0.012 -0.013 +0.087 +0.445 +0.320 +0.317 +0.443 +0.089 -0.013 -0.014 +0.321 +0.424 +0.316 +0.320 +0.440 -0.013 +0.087 +0.445 +0.318 +0.087 -0.013 +0.310 +0.447 +0.083 -0.014 -0.013 +0.134 +0.452 +0.318 +0.319 +0.441 -0.015 +0.085 +0.444 +0.318 +0.077 -0.013 +0.306 +0.442 +0.196 -0.013 -0.014 +0.369 +0.445 +0.322 +0.308 +0.461 +0.120 -0.014 -0.014 +0.320 +0.449 +0.318 +0.318 +0.447 +0.121 -0.013 -0.014 +0.085 +0.434 +0.313 +0.318 +0.445 +0.083 -0.014 -0.016 +0.100 +0.446 +0.319 +0.132 +0.077 +0.168 +0.421 +0.335 -0.008 +0.173 -0.411
# oxidation-state Na +0.727 +0.737


-------- Electronic minimization -----------
	FillingsUpdate:  mu: -0.187192112  nElectrons: 1146.000000
ElecMinimize: Iter:   0  F: -7081.750514608775120  |grad|_K:  1.327e-05  alpha:  1.000e+00
	FillingsUpdate:  mu: -0.187499395  nElectrons: 1146.000000
	SubspaceRotationAdjust: set factor to 0.184
ElecMinimize: Iter:   1  F: -7081.757473260066035  |grad|_K:  8.317e-06  alpha:  2.946e-01  linmin: -1.211e-04  t[s]:     81.47
	FillingsUpdate:  mu: -0.187986947  nElectrons: 1146.000000
	SubspaceRotationAdjust: set factor to 0.122
ElecMinimize: Iter:   2  F: -7081.758455877497909  |grad|_K:  4.501e-06  alpha:  1.060e-01  linmin: -6.767e-06  t[s]:     92.25
	FillingsUpdate:  mu: -0.188167695  nElectrons: 1146.000000
	SubspaceRotationAdjust: set factor to 0.11
ElecMinimize: Iter:   3  F: -7081.759255793906050  |grad|_K:  3.911e-06  alpha:  2.951e-01  linmin: -1.128e-05  t[s]:    103.02
	FillingsUpdate:  mu: -0.188438022  nElectrons: 1146.000000
	SubspaceRotationAdjust: set factor to 0.138
ElecMinimize: Iter:   4  F: -7081.759668276473349  |grad|_K:  1.786e-06  alpha:  2.015e-01  linmin:  1.017e-09  t[s]:    113.79
	FillingsUpdate:  mu: -0.188473484  nElectrons: 1146.000000
	SubspaceRotationAdjust: set factor to 0.134
ElecMinimize: Iter:   5  F: -7081.759795246340218  |grad|_K:  1.748e-06  alpha:  2.977e-01  linmin:  8.609e-08  t[s]:    124.58
	FillingsUpdate:  mu: -0.188429654  nElectrons: 1146.000000
	SubspaceRotationAdjust: set factor to 0.121
ElecMinimize: Iter:   6  F: -7081.759887498373246  |grad|_K:  1.123e-06  alpha:  2.258e-01  linmin: -1.887e-07  t[s]:    135.35
	FillingsUpdate:  mu: -0.188478071  nElectrons: 1146.000000
	SubspaceRotationAdjust: set factor to 0.136
ElecMinimize: Iter:   7  F: -7081.759940749342604  |grad|_K:  1.000e-06  alpha:  3.159e-01  linmin:  5.194e-07  t[s]:    146.11
	FillingsUpdate:  mu: -0.188455284  nElectrons: 1146.000000
	SubspaceRotationAdjust: set factor to 0.133
ElecMinimize: Iter:   8  F: -7081.759975711002880  |grad|_K:  8.095e-07  alpha:  2.613e-01  linmin: -1.798e-07  t[s]:    156.88
	FillingsUpdate:  mu: -0.188446728  nElectrons: 1146.000000
	SubspaceRotationAdjust: set factor to 0.128
ElecMinimize: Iter:   9  F: -7081.760005302813624  |grad|_K:  7.567e-07  alpha:  3.378e-01  linmin:  3.801e-07  t[s]:    167.64
	FillingsUpdate:  mu: -0.188444593  nElectrons: 1146.000000
	SubspaceRotationAdjust: set factor to 0.134
ElecMinimize: Iter:  10  F: -7081.760024898107076  |grad|_K:  6.472e-07  alpha:  2.560e-01  linmin: -3.523e-09  t[s]:    178.42
	FillingsUpdate:  mu: -0.188437535  nElectrons: 1146.000000
	SubspaceRotationAdjust: set factor to 0.134
ElecMinimize: Iter:  11  F: -7081.760042696597338  |grad|_K:  5.158e-07  alpha:  3.178e-01  linmin:  2.284e-07  t[s]:    189.18
	FillingsUpdate:  mu: -0.188466298  nElectrons: 1146.000000
	SubspaceRotationAdjust: set factor to 0.127
ElecMinimize: Iter:  12  F: -7081.760054398934699  |grad|_K:  4.936e-07  alpha:  3.291e-01  linmin:  9.568e-08  t[s]:    199.95
	FillingsUpdate:  mu: -0.188444314  nElectrons: 1146.000000
	SubspaceRotationAdjust: set factor to 0.121
ElecMinimize: Iter:  13  F: -7081.760061665074318  |grad|_K:  3.656e-07  alpha:  2.231e-01  linmin:  4.805e-08  t[s]:    210.72
	FillingsUpdate:  mu: -0.188452568  nElectrons: 1146.000000
	SubspaceRotationAdjust: set factor to 0.124
ElecMinimize: Iter:  14  F: -7081.760069103390379  |grad|_K:  3.737e-07  alpha:  4.162e-01  linmin: -1.641e-07  t[s]:    221.50
	FillingsUpdate:  mu: -0.188471946  nElectrons: 1146.000000
	SubspaceRotationAdjust: set factor to 0.116
ElecMinimize: Iter:  15  F: -7081.760073682709844  |grad|_K:  2.541e-07  alpha:  2.453e-01  linmin: -7.582e-09  t[s]:    232.27
	FillingsUpdate:  mu: -0.188457717  nElectrons: 1146.000000
	SubspaceRotationAdjust: set factor to 0.112
ElecMinimize: Iter:  16  F: -7081.760076288380333  |grad|_K:  2.171e-07  alpha:  3.018e-01  linmin:  5.628e-08  t[s]:    243.03
	FillingsUpdate:  mu: -0.188462834  nElectrons: 1146.000000
	SubspaceRotationAdjust: set factor to 0.0995
ElecMinimize: Iter:  17  F: -7081.760077789128445  |grad|_K:  1.496e-07  alpha:  2.381e-01  linmin: -8.397e-08  t[s]:    253.80
	FillingsUpdate:  mu: -0.188466885  nElectrons: 1146.000000
	SubspaceRotationAdjust: set factor to 0.101
ElecMinimize: Iter:  18  F: -7081.760078747429361  |grad|_K:  1.176e-07  alpha:  3.202e-01  linmin: -4.004e-07  t[s]:    264.57
	FillingsUpdate:  mu: -0.188463461  nElectrons: 1146.000000
	SubspaceRotationAdjust: set factor to 0.0967
ElecMinimize: Iter:  19  F: -7081.760079226185553  |grad|_K:  8.110e-08  alpha:  2.589e-01  linmin: -1.658e-06  t[s]:    275.34
	FillingsUpdate:  mu: -0.188464603  nElectrons: 1146.000000
	SubspaceRotationAdjust: set factor to 0.0937
ElecMinimize: Iter:  20  F: -7081.760079447101816  |grad|_K:  5.648e-08  alpha:  2.511e-01  linmin:  5.308e-06  t[s]:    286.10
	FillingsUpdate:  mu: -0.188463446  nElectrons: 1146.000000
	SubspaceRotationAdjust: set factor to 0.0985
ElecMinimize: Iter:  21  F: -7081.760079592464535  |grad|_K:  4.782e-08  alpha:  3.416e-01  linmin: -1.423e-06  t[s]:    296.87
	FillingsUpdate:  mu: -0.188463943  nElectrons: 1146.000000
	SubspaceRotationAdjust: set factor to 0.105
ElecMinimize: Iter:  22  F: -7081.760079672028041  |grad|_K:  3.449e-08  alpha:  2.595e-01  linmin:  3.405e-06  t[s]:    307.64
	FillingsUpdate:  mu: -0.188464693  nElectrons: 1146.000000
	SubspaceRotationAdjust: set factor to 0.114
ElecMinimize: Iter:  23  F: -7081.760079728057462  |grad|_K:  3.189e-08  alpha:  3.490e-01  linmin: -4.380e-05  t[s]:    318.40
	FillingsUpdate:  mu: -0.188462981  nElectrons: 1146.000000
	SubspaceRotationAdjust: set factor to 0.121
ElecMinimize: Iter:  24  F: -7081.760079769705953  |grad|_K:  2.812e-08  alpha:  3.017e-01  linmin: -2.914e-06  t[s]:    329.15
	FillingsUpdate:  mu: -0.188463782  nElectrons: 1146.000000
	SubspaceRotationAdjust: set factor to 0.129
ElecMinimize: Iter:  25  F: -7081.760079809683702  |grad|_K:  2.828e-08  alpha:  3.737e-01  linmin: -1.794e-05  t[s]:    339.91
	FillingsUpdate:  mu: -0.188464252  nElectrons: 1146.000000
	SubspaceRotationAdjust: set factor to 0.126
ElecMinimize: Iter:  26  F: -7081.760079842095365  |grad|_K:  2.550e-08  alpha:  3.021e-01  linmin: -4.520e-06  t[s]:    350.67
	FillingsUpdate:  mu: -0.188462403  nElectrons: 1146.000000
	SubspaceRotationAdjust: set factor to 0.129
ElecMinimize: Iter:  27  F: -7081.760079869588481  |grad|_K:  2.227e-08  alpha:  3.135e-01  linmin: -3.537e-06  t[s]:    361.50
	FillingsUpdate:  mu: -0.188462634  nElectrons: 1146.000000
	SubspaceRotationAdjust: set factor to 0.12
ElecMinimize: Iter:  28  F: -7081.760079890683301  |grad|_K:  1.982e-08  alpha:  3.126e-01  linmin: -1.161e-05  t[s]:    372.27
	FillingsUpdate:  mu: -0.188462411  nElectrons: 1146.000000
	SubspaceRotationAdjust: set factor to 0.113
ElecMinimize: Iter:  29  F: -7081.760079904167469  |grad|_K:  1.450e-08  alpha:  2.535e-01  linmin: -3.257e-05  t[s]:    383.02
	FillingsUpdate:  mu: -0.188461907  nElectrons: 1146.000000
	SubspaceRotationAdjust: set factor to 0.107
ElecMinimize: Iter:  30  F: -7081.760079912218316  |grad|_K:  1.130e-08  alpha:  2.816e-01  linmin: -6.780e-05  t[s]:    393.79
	FillingsUpdate:  mu: -0.188461750  nElectrons: 1146.000000
	SubspaceRotationAdjust: set factor to 0.1
ElecMinimize: Iter:  31  F: -7081.760079917286021  |grad|_K:  9.650e-09  alpha:  3.086e-01  linmin:  1.288e-04  t[s]:    404.58
ElecMinimize: Converged (|Delta F|<1.000000e-08 for 2 iters).
Setting wave functions to eigenvectors of Hamiltonian
IonicMinimize: 	Predicted alpha/alphaT>3.000000, increasing alphaT to 3.000000e+00.

-------- Electronic minimization -----------
	FillingsUpdate:  mu: -0.186009621  nElectrons: 1146.000000
ElecMinimize: Iter:   0  F: -7081.725925730720519  |grad|_K:  2.586e-05  alpha:  1.000e+00
	FillingsUpdate:  mu: -0.186894897  nElectrons: 1146.000000
	SubspaceRotationAdjust: set factor to 0.0979
ElecMinimize: Iter:   1  F: -7081.755477309735397  |grad|_K:  9.305e-06  alpha:  3.317e-01  linmin:  3.704e-04  t[s]:    424.81
	FillingsUpdate:  mu: -0.187709372  nElectrons: 1146.000000
	SubspaceRotationAdjust: set factor to 0.0867
ElecMinimize: Iter:   2  F: -7081.759866325487565  |grad|_K:  8.404e-06  alpha:  3.803e-01  linmin:  1.597e-06  t[s]:    435.58
	FillingsUpdate:  mu: -0.188028784  nElectrons: 1146.000000
	SubspaceRotationAdjust: set factor to 0.0857
ElecMinimize: Iter:   3  F: -7081.761910609318875  |grad|_K:  3.587e-06  alpha:  2.165e-01  linmin: -1.131e-06  t[s]:    446.34
	FillingsUpdate:  mu: -0.188390814  nElectrons: 1146.000000
	SubspaceRotationAdjust: set factor to 0.0926
ElecMinimize: Iter:   4  F: -7081.762620930452613  |grad|_K:  3.211e-06  alpha:  4.130e-01  linmin:  9.869e-07  t[s]:    457.10
	FillingsUpdate:  mu: -0.188389613  nElectrons: 1146.000000
	SubspaceRotationAdjust: set factor to 0.0981
ElecMinimize: Iter:   5  F: -7081.763033678610554  |grad|_K:  2.304e-06  alpha:  2.995e-01  linmin:  1.106e-07  t[s]:    467.87
	FillingsUpdate:  mu: -0.188545900  nElectrons: 1146.000000
	SubspaceRotationAdjust: set factor to 0.108
ElecMinimize: Iter:   6  F: -7081.763302919460330  |grad|_K:  1.819e-06  alpha:  3.792e-01  linmin:  2.010e-06  t[s]:    478.65
	FillingsUpdate:  mu: -0.188552828  nElectrons: 1146.000000
	SubspaceRotationAdjust: set factor to 0.126
ElecMinimize: Iter:   7  F: -7081.763582600769041  |grad|_K:  1.796e-06  alpha:  6.327e-01  linmin:  7.470e-07  t[s]:    489.41
	FillingsUpdate:  mu: -0.188589880  nElectrons: 1146.000000
	SubspaceRotationAdjust: set factor to 0.124
ElecMinimize: Iter:   8  F: -7081.763720657568228  |grad|_K:  1.839e-06  alpha:  3.199e-01  linmin: -4.818e-07  t[s]:    500.18
	FillingsUpdate:  mu: -0.188563416  nElectrons: 1146.000000
	SubspaceRotationAdjust: set factor to 0.121
ElecMinimize: Iter:   9  F: -7081.763922411690146  |grad|_K:  1.494e-06  alpha:  4.463e-01  linmin:  6.800e-07  t[s]:    510.93
	FillingsUpdate:  mu: -0.188680111  nElectrons: 1146.000000
	SubspaceRotationAdjust: set factor to 0.111
ElecMinimize: Iter:  10  F: -7081.764023839665242  |grad|_K:  1.393e-06  alpha:  3.400e-01  linmin:  1.756e-07  t[s]:    521.68
	FillingsUpdate:  mu: -0.188611788  nElectrons: 1146.000000
	SubspaceRotationAdjust: set factor to 0.0966
ElecMinimize: Iter:  11  F: -7081.764100923585829  |grad|_K:  1.238e-06  alpha:  2.972e-01  linmin: -5.455e-08  t[s]:    532.42
	FillingsUpdate:  mu: -0.188641712  nElectrons: 1146.000000
	SubspaceRotationAdjust: set factor to 0.0942
ElecMinimize: Iter:  12  F: -7081.764187830267474  |grad|_K:  8.479e-07  alpha:  4.245e-01  linmin:  5.529e-07  t[s]:    543.19
	FillingsUpdate:  mu: -0.188675531  nElectrons: 1146.000000
	SubspaceRotationAdjust: set factor to 0.0916
ElecMinimize: Iter:  13  F: -7081.764219430610865  |grad|_K:  7.103e-07  alpha:  3.288e-01  linmin:  1.046e-07  t[s]:    553.97
	FillingsUpdate:  mu: -0.188679931  nElectrons: 1146.000000
	SubspaceRotationAdjust: set factor to 0.0795
ElecMinimize: Iter:  14  F: -7081.764241546442463  |grad|_K:  4.810e-07  alpha:  3.279e-01  linmin: -5.134e-08  t[s]:    564.72
	FillingsUpdate:  mu: -0.188663961  nElectrons: 1146.000000
	SubspaceRotationAdjust: set factor to 0.0763
ElecMinimize: Iter:  15  F: -7081.764250948000154  |grad|_K:  3.563e-07  alpha:  3.039e-01  linmin:  5.499e-09  t[s]:    575.50
	FillingsUpdate:  mu: -0.188679564  nElectrons: 1146.000000
	SubspaceRotationAdjust: set factor to 0.0757
ElecMinimize: Iter:  16  F: -7081.764256882577683  |grad|_K:  2.468e-07  alpha:  3.496e-01  linmin:  5.799e-08  t[s]:    586.26
	FillingsUpdate:  mu: -0.188669320  nElectrons: 1146.000000
	SubspaceRotationAdjust: set factor to 0.0817
ElecMinimize: Iter:  17  F: -7081.764259274003962  |grad|_K:  1.719e-07  alpha:  2.935e-01  linmin: -3.035e-07  t[s]:    597.05
	FillingsUpdate:  mu: -0.188666312  nElectrons: 1146.000000
	SubspaceRotationAdjust: set factor to 0.0872
ElecMinimize: Iter:  18  F: -7081.764260781565099  |grad|_K:  1.422e-07  alpha:  3.815e-01  linmin: -1.704e-06  t[s]:    607.86
	FillingsUpdate:  mu: -0.188674969  nElectrons: 1146.000000
	SubspaceRotationAdjust: set factor to 0.106
ElecMinimize: Iter:  19  F: -7081.764261748365243  |grad|_K:  1.110e-07  alpha:  3.576e-01  linmin: -3.476e-07  t[s]:    618.63
	FillingsUpdate:  mu: -0.188658213  nElectrons: 1146.000000
	SubspaceRotationAdjust: set factor to 0.112
ElecMinimize: Iter:  20  F: -7081.764262413637880  |grad|_K:  1.151e-07  alpha:  4.040e-01  linmin: -1.163e-06  t[s]:    629.38
	FillingsUpdate:  mu: -0.188660885  nElectrons: 1146.000000
	SubspaceRotationAdjust: set factor to 0.12
ElecMinimize: Iter:  21  F: -7081.764263068570472  |grad|_K:  1.085e-07  alpha:  3.695e-01  linmin: -7.687e-08  t[s]:    640.13
	FillingsUpdate:  mu: -0.188660246  nElectrons: 1146.000000
	SubspaceRotationAdjust: set factor to 0.125
ElecMinimize: Iter:  22  F: -7081.764263685075093  |grad|_K:  9.668e-08  alpha:  3.916e-01  linmin: -1.051e-06  t[s]:    650.91
	FillingsUpdate:  mu: -0.188645539  nElectrons: 1146.000000
	SubspaceRotationAdjust: set factor to 0.125
ElecMinimize: Iter:  23  F: -7081.764264176889810  |grad|_K:  9.674e-08  alpha:  3.935e-01  linmin:  2.031e-07  t[s]:    661.70
	FillingsUpdate:  mu: -0.188644119  nElectrons: 1146.000000
	SubspaceRotationAdjust: set factor to 0.115
ElecMinimize: Iter:  24  F: -7081.764264557337810  |grad|_K:  7.261e-08  alpha:  3.040e-01  linmin: -3.079e-07  t[s]:    672.47
	FillingsUpdate:  mu: -0.188646641  nElectrons: 1146.000000
	SubspaceRotationAdjust: set factor to 0.106
ElecMinimize: Iter:  25  F: -7081.764264814524722  |grad|_K:  6.049e-08  alpha:  3.642e-01  linmin: -3.331e-06  t[s]:    683.25
	FillingsUpdate:  mu: -0.188641488  nElectrons: 1146.000000
	SubspaceRotationAdjust: set factor to 0.0971
ElecMinimize: Iter:  26  F: -7081.764264952146732  |grad|_K:  4.829e-08  alpha:  2.815e-01  linmin: -1.223e-06  t[s]:    694.02
	FillingsUpdate:  mu: -0.188637697  nElectrons: 1146.000000
	SubspaceRotationAdjust: set factor to 0.0928
ElecMinimize: Iter:  27  F: -7081.764265069518842  |grad|_K:  3.865e-08  alpha:  3.768e-01  linmin:  1.332e-05  t[s]:    704.77
	FillingsUpdate:  mu: -0.188643400  nElectrons: 1146.000000
	SubspaceRotationAdjust: set factor to 0.0972
ElecMinimize: Iter:  28  F: -7081.764265125565544  |grad|_K:  2.822e-08  alpha:  2.831e-01  linmin:  6.218e-06  t[s]:    715.57
	FillingsUpdate:  mu: -0.188639793  nElectrons: 1146.000000
	SubspaceRotationAdjust: set factor to 0.0952
ElecMinimize: Iter:  29  F: -7081.764265169992541  |grad|_K:  2.458e-08  alpha:  4.185e-01  linmin:  3.610e-05  t[s]:    726.36
	FillingsUpdate:  mu: -0.188640862  nElectrons: 1146.000000
	SubspaceRotationAdjust: set factor to 0.0989
ElecMinimize: Iter:  30  F: -7081.764265193578467  |grad|_K:  1.847e-08  alpha:  2.950e-01  linmin: -1.905e-05  t[s]:    737.14
	FillingsUpdate:  mu: -0.188642485  nElectrons: 1146.000000
	SubspaceRotationAdjust: set factor to 0.0974
ElecMinimize: Iter:  31  F: -7081.764265210045778  |grad|_K:  1.618e-08  alpha:  3.702e-01  linmin:  3.161e-04  t[s]:    747.89
	FillingsUpdate:  mu: -0.188640898  nElectrons: 1146.000000
	SubspaceRotationAdjust: set factor to 0.103
ElecMinimize: Iter:  32  F: -7081.764265221003370  |grad|_K:  1.234e-08  alpha:  3.167e-01  linmin:  1.463e-04  t[s]:    758.66
	FillingsUpdate:  mu: -0.188642394  nElectrons: 1146.000000
	SubspaceRotationAdjust: set factor to 0.108
ElecMinimize: Iter:  33  F: -7081.764265228362092  |grad|_K:  1.073e-08  alpha:  3.819e-01  linmin:  1.114e-07  t[s]:    769.42
	FillingsUpdate:  mu: -0.188642633  nElectrons: 1146.000000
	SubspaceRotationAdjust: set factor to 0.12
ElecMinimize: Iter:  34  F: -7081.764265233067817  |grad|_K:  8.539e-09  alpha:  2.998e-01  linmin:  5.328e-05  t[s]:    780.18
ElecMinimize: Converged (|Delta F|<1.000000e-08 for 2 iters).
Setting wave functions to eigenvectors of Hamiltonian
IonicMinimize: 	Predicted alpha/alphaT>3.000000, increasing alphaT to 9.000000e+00.

-------- Electronic minimization -----------
	FillingsUpdate:  mu: -0.180033414  nElectrons: 1146.000000
ElecMinimize: Iter:   0  F: -7081.424952994771047  |grad|_K:  7.880e-05  alpha:  1.000e+00
	FillingsUpdate:  mu: -0.183033710  nElectrons: 1146.000000
	SubspaceRotationAdjust: set factor to 0.112
ElecMinimize: Iter:   1  F: -7081.688979844449022  |grad|_K:  3.165e-05  alpha:  3.286e-01  linmin:  2.754e-03  t[s]:    799.84
	FillingsUpdate:  mu: -0.185124428  nElectrons: 1146.000000
	SubspaceRotationAdjust: set factor to 0.0924
ElecMinimize: Iter:   2  F: -7081.727052127703246  |grad|_K:  2.663e-05  alpha:  2.927e-01  linmin: -7.500e-06  t[s]:    810.62
	FillingsUpdate:  mu: -0.187156652  nElectrons: 1146.000000
	SubspaceRotationAdjust: set factor to 0.0879
ElecMinimize: Iter:   3  F: -7081.750219670469960  |grad|_K:  1.336e-05  alpha:  2.443e-01  linmin:  6.408e-06  t[s]:    821.38
	FillingsUpdate:  mu: -0.188351730  nElectrons: 1146.000000
	SubspaceRotationAdjust: set factor to 0.0936
ElecMinimize: Iter:   4  F: -7081.757244234915561  |grad|_K:  9.366e-06  alpha:  2.943e-01  linmin: -6.132e-06  t[s]:    832.17
	FillingsUpdate:  mu: -0.188387093  nElectrons: 1146.000000
	SubspaceRotationAdjust: set factor to 0.0956
ElecMinimize: Iter:   5  F: -7081.761393235451578  |grad|_K:  8.040e-06  alpha:  3.536e-01  linmin: -3.819e-06  t[s]:    842.95
	FillingsUpdate:  mu: -0.188918313  nElectrons: 1146.000000
	SubspaceRotationAdjust: set factor to 0.115
ElecMinimize: Iter:   6  F: -7081.764216699689314  |grad|_K:  5.131e-06  alpha:  3.265e-01  linmin:  4.154e-06  t[s]:    853.74
	FillingsUpdate:  mu: -0.189049256  nElectrons: 1146.000000
	SubspaceRotationAdjust: set factor to 0.124
ElecMinimize: Iter:   7  F: -7081.766353547768631  |grad|_K:  6.206e-06  alpha:  6.074e-01  linmin:  4.325e-07  t[s]:    864.55
	FillingsUpdate:  mu: -0.188976688  nElectrons: 1146.000000
	SubspaceRotationAdjust: set factor to 0.12
ElecMinimize: Iter:   8  F: -7081.767612983312574  |grad|_K:  4.775e-06  alpha:  2.445e-01  linmin: -2.127e-06  t[s]:    875.31
	FillingsUpdate:  mu: -0.189093173  nElectrons: 1146.000000
	SubspaceRotationAdjust: set factor to 0.12
ElecMinimize: Iter:   9  F: -7081.769271894486337  |grad|_K:  4.997e-06  alpha:  5.441e-01  linmin:  3.447e-06  t[s]:    886.08
	FillingsUpdate:  mu: -0.189058170  nElectrons: 1146.000000
	SubspaceRotationAdjust: set factor to 0.107
ElecMinimize: Iter:  10  F: -7081.770154906692369  |grad|_K:  4.135e-06  alpha:  2.648e-01  linmin:  1.193e-07  t[s]:    896.86
	FillingsUpdate:  mu: -0.189286303  nElectrons: 1146.000000
	SubspaceRotationAdjust: set factor to 0.107
ElecMinimize: Iter:  11  F: -7081.770984793752177  |grad|_K:  3.211e-06  alpha:  3.631e-01  linmin:  1.543e-06  t[s]:    907.61
	FillingsUpdate:  mu: -0.188990334  nElectrons: 1146.000000
	SubspaceRotationAdjust: set factor to 0.101
ElecMinimize: Iter:  12  F: -7081.771689317124583  |grad|_K:  3.222e-06  alpha:  5.113e-01  linmin:  6.227e-07  t[s]:    918.40
	FillingsUpdate:  mu: -0.189318195  nElectrons: 1146.000000
	SubspaceRotationAdjust: set factor to 0.088
ElecMinimize: Iter:  13  F: -7081.772029118369574  |grad|_K:  2.180e-06  alpha:  2.448e-01  linmin: -7.760e-07  t[s]:    929.15
	FillingsUpdate:  mu: -0.189315146  nElectrons: 1146.000000
	SubspaceRotationAdjust: set factor to 0.0802
ElecMinimize: Iter:  14  F: -7081.772252534437939  |grad|_K:  1.640e-06  alpha:  3.515e-01  linmin:  5.258e-07  t[s]:    939.95
	FillingsUpdate:  mu: -0.189260424  nElectrons: 1146.000000
	SubspaceRotationAdjust: set factor to 0.0785
ElecMinimize: Iter:  15  F: -7081.772361058299794  |grad|_K:  1.194e-06  alpha:  3.020e-01  linmin:  2.817e-08  t[s]:    950.76
	FillingsUpdate:  mu: -0.189331988  nElectrons: 1146.000000
	SubspaceRotationAdjust: set factor to 0.0747
ElecMinimize: Iter:  16  F: -7081.772425432207456  |grad|_K:  8.400e-07  alpha:  3.377e-01  linmin: -7.164e-08  t[s]:    961.59
	FillingsUpdate:  mu: -0.189298031  nElectrons: 1146.000000
	SubspaceRotationAdjust: set factor to 0.0775
ElecMinimize: Iter:  17  F: -7081.772454353053035  |grad|_K:  5.613e-07  alpha:  3.066e-01  linmin: -1.688e-07  t[s]:    972.44
	FillingsUpdate:  mu: -0.189301437  nElectrons: 1146.000000
	SubspaceRotationAdjust: set factor to 0.08
ElecMinimize: Iter:  18  F: -7081.772468640884654  |grad|_K:  4.564e-07  alpha:  3.392e-01  linmin: -2.791e-07  t[s]:    983.26
	FillingsUpdate:  mu: -0.189303743  nElectrons: 1146.000000
	SubspaceRotationAdjust: set factor to 0.0894
ElecMinimize: Iter:  19  F: -7081.772477700889795  |grad|_K:  3.313e-07  alpha:  3.253e-01  linmin: -3.537e-07  t[s]:    994.08
	FillingsUpdate:  mu: -0.189297990  nElectrons: 1146.000000
	SubspaceRotationAdjust: set factor to 0.101
ElecMinimize: Iter:  20  F: -7081.772483199355520  |grad|_K:  3.068e-07  alpha:  3.747e-01  linmin: -4.097e-07  t[s]:   1004.89
	FillingsUpdate:  mu: -0.189284441  nElectrons: 1146.000000
	SubspaceRotationAdjust: set factor to 0.12
ElecMinimize: Iter:  21  F: -7081.772488371409963  |grad|_K:  2.708e-07  alpha:  4.109e-01  linmin: -2.544e-08  t[s]:   1015.73
	FillingsUpdate:  mu: -0.189278237  nElectrons: 1146.000000
	SubspaceRotationAdjust: set factor to 0.123
ElecMinimize: Iter:  22  F: -7081.772492552795484  |grad|_K:  3.155e-07  alpha:  4.265e-01  linmin: -5.324e-08  t[s]:   1026.55
	FillingsUpdate:  mu: -0.189277362  nElectrons: 1146.000000
	SubspaceRotationAdjust: set factor to 0.122
ElecMinimize: Iter:  23  F: -7081.772496862352455  |grad|_K:  2.516e-07  alpha:  3.238e-01  linmin:  7.776e-08  t[s]:   1037.35
	FillingsUpdate:  mu: -0.189231118  nElectrons: 1146.000000
	SubspaceRotationAdjust: set factor to 0.114
ElecMinimize: Iter:  24  F: -7081.772499969722958  |grad|_K:  2.483e-07  alpha:  3.673e-01  linmin:  1.573e-07  t[s]:   1048.19
	FillingsUpdate:  mu: -0.189247242  nElectrons: 1146.000000
	SubspaceRotationAdjust: set factor to 0.108
ElecMinimize: Iter:  25  F: -7081.772502589449687  |grad|_K:  2.016e-07  alpha:  3.179e-01  linmin: -3.353e-08  t[s]:   1059.04
	FillingsUpdate:  mu: -0.189242599  nElectrons: 1146.000000
	SubspaceRotationAdjust: set factor to 0.106
ElecMinimize: Iter:  26  F: -7081.772504174134156  |grad|_K:  1.433e-07  alpha:  2.917e-01  linmin: -1.335e-07  t[s]:   1069.89
	FillingsUpdate:  mu: -0.189224081  nElectrons: 1146.000000
	SubspaceRotationAdjust: set factor to 0.1
ElecMinimize: Iter:  27  F: -7081.772505194235237  |grad|_K:  1.350e-07  alpha:  3.712e-01  linmin: -1.404e-06  t[s]:   1080.73
	FillingsUpdate:  mu: -0.189232389  nElectrons: 1146.000000
	SubspaceRotationAdjust: set factor to 0.0935
ElecMinimize: Iter:  28  F: -7081.772505913137138  |grad|_K:  8.883e-08  alpha:  2.951e-01  linmin:  5.423e-08  t[s]:   1091.55
	FillingsUpdate:  mu: -0.189234001  nElectrons: 1146.000000
	SubspaceRotationAdjust: set factor to 0.0935
ElecMinimize: Iter:  29  F: -7081.772506281466121  |grad|_K:  7.992e-08  alpha:  3.494e-01  linmin:  4.196e-06  t[s]:   1102.38
	FillingsUpdate:  mu: -0.189228997  nElectrons: 1146.000000
	SubspaceRotationAdjust: set factor to 0.0916
ElecMinimize: Iter:  30  F: -7081.772506547846206  |grad|_K:  5.777e-08  alpha:  3.121e-01  linmin:  1.674e-06  t[s]:   1113.19
	FillingsUpdate:  mu: -0.189230572  nElectrons: 1146.000000
	SubspaceRotationAdjust: set factor to 0.0975
ElecMinimize: Iter:  31  F: -7081.772506715531563  |grad|_K:  4.833e-08  alpha:  3.765e-01  linmin:  1.657e-05  t[s]:   1124.04
	FillingsUpdate:  mu: -0.189232741  nElectrons: 1146.000000
	SubspaceRotationAdjust: set factor to 0.103
ElecMinimize: Iter:  32  F: -7081.772506807344143  |grad|_K:  3.758e-08  alpha:  2.940e-01  linmin:  6.610e-06  t[s]:   1134.86
	FillingsUpdate:  mu: -0.189230696  nElectrons: 1146.000000
	SubspaceRotationAdjust: set factor to 0.106
ElecMinimize: Iter:  33  F: -7081.772506878309287  |grad|_K:  3.199e-08  alpha:  3.743e-01  linmin: -9.328e-05  t[s]:   1145.66
	FillingsUpdate:  mu: -0.189233118  nElectrons: 1146.000000
	SubspaceRotationAdjust: set factor to 0.124
ElecMinimize: Iter:  34  F: -7081.772506924628033  |grad|_K:  2.516e-08  alpha:  3.348e-01  linmin: -3.122e-06  t[s]:   1156.51
	FillingsUpdate:  mu: -0.189234399  nElectrons: 1146.000000
	SubspaceRotationAdjust: set factor to 0.124
ElecMinimize: Iter:  35  F: -7081.772506952088406  |grad|_K:  2.321e-08  alpha:  3.251e-01  linmin:  5.146e-06  t[s]:   1167.32
	FillingsUpdate:  mu: -0.189233214  nElectrons: 1146.000000
	SubspaceRotationAdjust: set factor to 0.125
ElecMinimize: Iter:  36  F: -7081.772506977045850  |grad|_K:  2.047e-08  alpha:  3.460e-01  linmin: -2.631e-06  t[s]:   1178.12
	FillingsUpdate:  mu: -0.189235595  nElectrons: 1146.000000
	SubspaceRotationAdjust: set factor to 0.129
ElecMinimize: Iter:  37  F: -7081.772506995263029  |grad|_K:  1.712e-08  alpha:  3.205e-01  linmin: -1.084e-05  t[s]:   1188.93
	FillingsUpdate:  mu: -0.189235765  nElectrons: 1146.000000
	SubspaceRotationAdjust: set factor to 0.128
ElecMinimize: Iter:  38  F: -7081.772507008797220  |grad|_K:  1.634e-08  alpha:  3.475e-01  linmin: -3.134e-05  t[s]:   1199.78
	FillingsUpdate:  mu: -0.189236321  nElectrons: 1146.000000
	SubspaceRotationAdjust: set factor to 0.122
ElecMinimize: Iter:  39  F: -7081.772507019662044  |grad|_K:  1.266e-08  alpha:  2.933e-01  linmin: -2.854e-07  t[s]:   1210.61
	FillingsUpdate:  mu: -0.189236721  nElectrons: 1146.000000
	SubspaceRotationAdjust: set factor to 0.114
ElecMinimize: Iter:  40  F: -7081.772507027653774  |grad|_K:  1.174e-08  alpha:  3.596e-01  linmin: -1.492e-04  t[s]:   1221.42
	FillingsUpdate:  mu: -0.189237702  nElectrons: 1146.000000
	SubspaceRotationAdjust: set factor to 0.107
ElecMinimize: Iter:  41  F: -7081.772507033225338  |grad|_K:  9.143e-09  alpha:  2.944e-01  linmin:  1.610e-05  t[s]:   1232.24
ElecMinimize: Converged (|Delta F|<1.000000e-08 for 2 iters).
Setting wave functions to eigenvectors of Hamiltonian

-------- Electronic minimization -----------
	FillingsUpdate:  mu: -0.183387022  nElectrons: 1146.000000
ElecMinimize: Iter:   0  F: -7081.602058653531458  |grad|_K:  5.504e-05  alpha:  1.000e+00
	FillingsUpdate:  mu: -0.185696100  nElectrons: 1146.000000
	SubspaceRotationAdjust: set factor to 0.102
ElecMinimize: Iter:   1  F: -7081.734119705468402  |grad|_K:  2.092e-05  alpha:  3.313e-01  linmin:  1.600e-03  t[s]:   1251.99
	FillingsUpdate:  mu: -0.187102816  nElectrons: 1146.000000
	SubspaceRotationAdjust: set factor to 0.0882
ElecMinimize: Iter:   2  F: -7081.753917118555364  |grad|_K:  1.830e-05  alpha:  3.433e-01  linmin: -7.403e-06  t[s]:   1262.83
	FillingsUpdate:  mu: -0.188289970  nElectrons: 1146.000000
	SubspaceRotationAdjust: set factor to 0.0852
ElecMinimize: Iter:   3  F: -7081.764304172490483  |grad|_K:  8.391e-06  alpha:  2.318e-01  linmin:  5.171e-07  t[s]:   1273.66
	FillingsUpdate:  mu: -0.189050871  nElectrons: 1146.000000
	SubspaceRotationAdjust: set factor to 0.0923
ElecMinimize: Iter:   4  F: -7081.767531378418425  |grad|_K:  6.554e-06  alpha:  3.428e-01  linmin: -5.705e-06  t[s]:   1284.45
	FillingsUpdate:  mu: -0.189025787  nElectrons: 1146.000000
	SubspaceRotationAdjust: set factor to 0.0938
ElecMinimize: Iter:   5  F: -7081.769516414306963  |grad|_K:  5.345e-06  alpha:  3.455e-01  linmin: -2.282e-06  t[s]:   1295.29
	FillingsUpdate:  mu: -0.189442046  nElectrons: 1146.000000
	SubspaceRotationAdjust: set factor to 0.108
ElecMinimize: Iter:   6  F: -7081.770711806821055  |grad|_K:  3.638e-06  alpha:  3.129e-01  linmin:  1.935e-06  t[s]:   1306.09
	FillingsUpdate:  mu: -0.189488176  nElectrons: 1146.000000
	SubspaceRotationAdjust: set factor to 0.124
ElecMinimize: Iter:   7  F: -7081.771921136390119  |grad|_K:  3.742e-06  alpha:  6.836e-01  linmin:  2.732e-07  t[s]:   1316.92
	FillingsUpdate:  mu: -0.189524041  nElectrons: 1146.000000
	SubspaceRotationAdjust: set factor to 0.119
ElecMinimize: Iter:   8  F: -7081.772497292249682  |grad|_K:  3.719e-06  alpha:  3.075e-01  linmin: -1.621e-06  t[s]:   1327.74
	FillingsUpdate:  mu: -0.189538952  nElectrons: 1146.000000
	SubspaceRotationAdjust: set factor to 0.123
ElecMinimize: Iter:   9  F: -7081.773338884382611  |grad|_K:  3.147e-06  alpha:  4.551e-01  linmin:  9.344e-07  t[s]:   1338.55
	FillingsUpdate:  mu: -0.189665439  nElectrons: 1146.000000
	SubspaceRotationAdjust: set factor to 0.116
ElecMinimize: Iter:  10  F: -7081.773808590122826  |grad|_K:  2.937e-06  alpha:  3.548e-01  linmin:  3.453e-07  t[s]:   1349.36
	FillingsUpdate:  mu: -0.189624684  nElectrons: 1146.000000
	SubspaceRotationAdjust: set factor to 0.103
ElecMinimize: Iter:  11  F: -7081.774136110067957  |grad|_K:  2.509e-06  alpha:  2.841e-01  linmin:  1.228e-07  t[s]:   1360.18
	FillingsUpdate:  mu: -0.189617461  nElectrons: 1146.000000
	SubspaceRotationAdjust: set factor to 0.0927
ElecMinimize: Iter:  12  F: -7081.774533370396057  |grad|_K:  1.937e-06  alpha:  4.720e-01  linmin:  1.083e-06  t[s]:   1370.99
	FillingsUpdate:  mu: -0.189749139  nElectrons: 1146.000000
	SubspaceRotationAdjust: set factor to 0.0882
ElecMinimize: Iter:  13  F: -7081.774683453718353  |grad|_K:  1.500e-06  alpha:  2.994e-01  linmin:  1.377e-08  t[s]:   1381.81
	FillingsUpdate:  mu: -0.189732626  nElectrons: 1146.000000
	SubspaceRotationAdjust: set factor to 0.0784
ElecMinimize: Iter:  14  F: -7081.774787042221760  |grad|_K:  1.041e-06  alpha:  3.443e-01  linmin:  1.861e-07  t[s]:   1392.62
	FillingsUpdate:  mu: -0.189745463  nElectrons: 1146.000000
	SubspaceRotationAdjust: set factor to 0.0764
ElecMinimize: Iter:  15  F: -7081.774835941895617  |grad|_K:  7.689e-07  alpha:  3.377e-01  linmin:  4.501e-08  t[s]:   1403.45
	FillingsUpdate:  mu: -0.189765642  nElectrons: 1146.000000
	SubspaceRotationAdjust: set factor to 0.0754
ElecMinimize: Iter:  16  F: -7081.774862026716619  |grad|_K:  5.325e-07  alpha:  3.300e-01  linmin: -1.586e-07  t[s]:   1414.24
	FillingsUpdate:  mu: -0.189744362  nElectrons: 1146.000000
	SubspaceRotationAdjust: set factor to 0.0814
ElecMinimize: Iter:  17  F: -7081.774873678690710  |grad|_K:  3.724e-07  alpha:  3.073e-01  linmin: -2.049e-07  t[s]:   1425.07
	FillingsUpdate:  mu: -0.189749982  nElectrons: 1146.000000
	SubspaceRotationAdjust: set factor to 0.0822
ElecMinimize: Iter:  18  F: -7081.774880322935132  |grad|_K:  2.855e-07  alpha:  3.584e-01  linmin: -8.865e-08  t[s]:   1435.89
	FillingsUpdate:  mu: -0.189752719  nElectrons: 1146.000000
	SubspaceRotationAdjust: set factor to 0.0994
ElecMinimize: Iter:  19  F: -7081.774884392587410  |grad|_K:  2.269e-07  alpha:  3.734e-01  linmin: -5.296e-07  t[s]:   1446.70
	FillingsUpdate:  mu: -0.189739017  nElectrons: 1146.000000
	SubspaceRotationAdjust: set factor to 0.108
ElecMinimize: Iter:  20  F: -7081.774887211899113  |grad|_K:  2.190e-07  alpha:  4.095e-01  linmin: -4.997e-07  t[s]:   1457.53
	FillingsUpdate:  mu: -0.189738108  nElectrons: 1146.000000
	SubspaceRotationAdjust: set factor to 0.119
ElecMinimize: Iter:  21  F: -7081.774889630929465  |grad|_K:  2.145e-07  alpha:  3.771e-01  linmin: -1.400e-07  t[s]:   1468.35
	FillingsUpdate:  mu: -0.189733483  nElectrons: 1146.000000
	SubspaceRotationAdjust: set factor to 0.13
ElecMinimize: Iter:  22  F: -7081.774892307272239  |grad|_K:  1.965e-07  alpha:  4.349e-01  linmin: -1.047e-07  t[s]:   1479.17
	FillingsUpdate:  mu: -0.189710824  nElectrons: 1146.000000
	SubspaceRotationAdjust: set factor to 0.133
ElecMinimize: Iter:  23  F: -7081.774894333398152  |grad|_K:  1.923e-07  alpha:  3.924e-01  linmin: -4.132e-08  t[s]:   1489.98
	FillingsUpdate:  mu: -0.189704163  nElectrons: 1146.000000
	SubspaceRotationAdjust: set factor to 0.119
ElecMinimize: Iter:  24  F: -7081.774895851282054  |grad|_K:  1.647e-07  alpha:  3.070e-01  linmin:  3.965e-07  t[s]:   1500.79
	FillingsUpdate:  mu: -0.189710052  nElectrons: 1146.000000
	SubspaceRotationAdjust: set factor to 0.101
ElecMinimize: Iter:  25  F: -7081.774897125990719  |grad|_K:  1.204e-07  alpha:  3.516e-01  linmin:  5.962e-08  t[s]:   1511.59
	FillingsUpdate:  mu: -0.189688778  nElectrons: 1146.000000
	SubspaceRotationAdjust: set factor to 0.0881
ElecMinimize: Iter:  26  F: -7081.774897665343815  |grad|_K:  1.057e-07  alpha:  2.786e-01  linmin: -1.555e-07  t[s]:   1522.39
	FillingsUpdate:  mu: -0.189693742  nElectrons: 1146.000000
	SubspaceRotationAdjust: set factor to 0.089
ElecMinimize: Iter:  27  F: -7081.774898229934479  |grad|_K:  7.607e-08  alpha:  3.782e-01  linmin:  2.119e-06  t[s]:   1533.24
	FillingsUpdate:  mu: -0.189697269  nElectrons: 1146.000000
	SubspaceRotationAdjust: set factor to 0.0899
ElecMinimize: Iter:  28  F: -7081.774898460721488  |grad|_K:  5.936e-08  alpha:  2.984e-01  linmin: -7.648e-07  t[s]:   1544.05
	FillingsUpdate:  mu: -0.189691168  nElectrons: 1146.000000
	SubspaceRotationAdjust: set factor to 0.092
ElecMinimize: Iter:  29  F: -7081.774898642162043  |grad|_K:  4.861e-08  alpha:  3.858e-01  linmin:  2.457e-06  t[s]:   1554.86
	FillingsUpdate:  mu: -0.189694138  nElectrons: 1146.000000
	SubspaceRotationAdjust: set factor to 0.0977
ElecMinimize: Iter:  30  F: -7081.774898743327867  |grad|_K:  3.836e-08  alpha:  3.202e-01  linmin:  3.452e-07  t[s]:   1565.70
	FillingsUpdate:  mu: -0.189694956  nElectrons: 1146.000000
	SubspaceRotationAdjust: set factor to 0.0972
ElecMinimize: Iter:  31  F: -7081.774898808930629  |grad|_K:  3.114e-08  alpha:  3.337e-01  linmin:  4.390e-05  t[s]:   1576.52
	FillingsUpdate:  mu: -0.189693475  nElectrons: 1146.000000
	SubspaceRotationAdjust: set factor to 0.104
ElecMinimize: Iter:  32  F: -7081.774898852927436  |grad|_K:  2.579e-08  alpha:  3.384e-01  linmin: -7.157e-05  t[s]:   1587.33
	FillingsUpdate:  mu: -0.189694046  nElectrons: 1146.000000
	SubspaceRotationAdjust: set factor to 0.114
ElecMinimize: Iter:  33  F: -7081.774898885722905  |grad|_K:  2.153e-08  alpha:  3.647e-01  linmin: -5.038e-05  t[s]:   1598.17
	FillingsUpdate:  mu: -0.189696768  nElectrons: 1146.000000
	SubspaceRotationAdjust: set factor to 0.123
ElecMinimize: Iter:  34  F: -7081.774898905562623  |grad|_K:  1.809e-08  alpha:  3.210e-01  linmin: -1.000e-05  t[s]:   1608.98
	FillingsUpdate:  mu: -0.189695651  nElectrons: 1146.000000
	SubspaceRotationAdjust: set factor to 0.132
ElecMinimize: Iter:  35  F: -7081.774898922117245  |grad|_K:  1.769e-08  alpha:  3.808e-01  linmin:  1.083e-04  t[s]:   1619.80
	FillingsUpdate:  mu: -0.189696330  nElectrons: 1146.000000
	SubspaceRotationAdjust: set factor to 0.138
ElecMinimize: Iter:  36  F: -7081.774898935516831  |grad|_K:  1.437e-08  alpha:  3.277e-01  linmin: -7.441e-05  t[s]:   1630.61
	FillingsUpdate:  mu: -0.189698672  nElectrons: 1146.000000
	SubspaceRotationAdjust: set factor to 0.131
ElecMinimize: Iter:  37  F: -7081.774898944488086  |grad|_K:  1.419e-08  alpha:  3.280e-01  linmin:  5.091e-05  t[s]:   1641.41
	FillingsUpdate:  mu: -0.189697902  nElectrons: 1146.000000
	SubspaceRotationAdjust: set factor to 0.124
ElecMinimize: Iter:  38  F: -7081.774898952996409  |grad|_K:  1.157e-08  alpha:  3.189e-01  linmin:  3.033e-05  t[s]:   1652.24
ElecMinimize: Converged (|Delta F|<1.000000e-08 for 2 iters).
Setting wave functions to eigenvectors of Hamiltonian

# Ionic positions in cartesian coordinates:
ion Ni  32.181155145269997   0.000000000000000  10.727052344999997 0
ion Ni   5.363526172499999   0.000000000000000   5.363526172499999 0
ion Ni  32.181155145269997   5.363526172499999   5.363526172499999 0
ion Ni   5.363526172499999   5.363526172499999  10.727052344999997 0
ion Ni  32.181155145269997  10.727052344999999  10.727052344999997 0
ion Ni  32.181155145269997  21.454102800270000  10.727052344999997 0
ion Ni   5.363526172499999  21.454102800270000   5.363526172499999 0
ion Ni   5.363526172499999  10.727052344999999   5.363526172499999 0
ion Ni  32.181155145269997  16.090578517499999   5.363526172499999 0
ion Ni  32.181155145269997  26.817628972769999   5.363526172499999 0
ion Ni   5.363526172499999  26.817628972769999  10.727052344999997 0
ion Ni   5.363526172499999  16.090578517499999  10.727052344999997 0
ion Ni  10.727052344999999   0.000000000000000  10.727052344999997 0
ion Ni  21.454102800270000   0.000000000000000  10.727052344999997 0
ion Ni  21.454102800270000   5.363526172499999   5.363526172499999 0
ion Ni  10.727052344999999   5.363526172499999   5.363526172499999 0
ion Ni  16.090578517499999   5.363526172499999  10.727052344999997 0
ion Ni  26.817628972769999   5.363526172499999  10.727052344999997 0
ion Ni  26.817628972769999   0.000000000000000   5.363526172499999 0
ion Ni  16.090578517499999   0.000000000000000   5.363526172499999 0
ion Ni  10.727052344999999  10.727052344999999  10.727052344999997 0
ion Ni  21.454102800270000  21.454102800270000  10.727052344999997 0
ion Ni  26.817628972769999  21.454102800270000   5.363526172499999 0
ion Ni  16.090578517499999  10.727052344999999   5.363526172499999 0
ion Ni  21.454102800270000  16.090578517499999   5.363526172499999 0
ion Ni  10.727052344999999  26.817628972769999   5.363526172499999 0
ion Ni  16.090578517499999  26.817628972769999  10.727052344999997 0
ion Ni  26.817628972769999  16.090578517499999  10.727052344999997 0
ion Ni  10.727052344999999  21.454102800270000  10.727052344999997 0
ion Ni  21.454102800270000  10.727052344999999  10.727052344999985 0
ion Ni  26.817628972769999  10.727052344999999   5.363526172499999 0
ion Ni  16.090578517499999  21.454102800270000   5.363526172499999 0
ion Ni  21.454102800270000  26.817628972769999   5.363526172499999 0
ion Ni  10.727052344999999  16.090578517499999   5.363526172499999 0
ion Ni  16.090578517499999  16.090578517499999  10.727052344999997 0
ion Ni  26.817628972769999  26.817628972769999  10.727052344999997 0
ion S   4.232241197730000   4.232241197730000   4.232250646379995 0
ion S  27.948915837270000  27.948915837270000   6.494801698619992 0
ion S   1.131284974770000  27.948915837270000   9.595776818879992 0
ion S   9.595765480499999   4.232241197730000   1.131275526120000 0
ion S  27.948915837270000   9.595765480499999   1.131275526120000 0
ion S   4.232241197730000   1.131284974770000   9.595776818879992 0
ion S   9.595765480499999   1.131284974770000   6.494801698619992 0
ion S   1.131284974770000   9.595765480499999   4.232250646379995 0
ion S   4.232241197730000  14.959291652999985   4.232250646379995 0
ion S  27.948915837270000  17.221863492269968   6.494801698619992 0
ion S   1.131284974770000  17.221863492269968   9.595776818879992 0
ion S   9.595765480499999  14.959291652999985   1.131275526120000 0
ion S  27.948915837270000  20.322817825500000   1.131275526120000 0
ion S   4.232241197730000  22.585389664769998   9.595776818879992 0
ion S   9.595765480499999  22.585389664769998   6.494801698619992 0
ion S   1.131284974770000  20.322817825500000   4.232250646379995 0
ion S  14.959291652999985   4.232250646380000   4.232241197729999 0
ion S  17.221863492269968  27.948904498889998   6.494811147269997 0
ion S  17.221863492269968   9.595776818879999   1.131284974770000 0
ion S  14.959291652999985   1.131275526120000   9.595765480499992 0
ion S  20.322817825500000   1.131275526120000   6.494811147269997 0
ion S  22.585389664769998   9.595776818879999   4.232241197729999 0
ion S  22.585389664769998  27.948904498889998   9.595765480499992 0
ion S  20.322817825500000   4.232250646380000   1.131284974770000 0
ion S   4.232241197730000  25.686343997999970   4.232250646379995 0
ion S  27.948915837270000   6.494811147269997   6.494801698619992 0
ion S   1.131284974770000   6.494811147269997   9.595776818879992 0
ion S   9.595765480499999  25.686343997999970   1.131275526120000 0
ion S  27.948915837270000  31.049870170499968   1.131275526120000 0
ion S   4.232241197730000  11.858337319769999   9.595776818879992 0
ion S   9.595765480499999  11.858337319769999   6.494801698619992 0
ion S   1.131284974770000  31.049870170499968   4.232250646379995 0
ion S  25.686343997999970   4.232250646380000   4.232241197729999 0
ion S   6.494811147269997  27.948904498889998   6.494811147269997 0
ion S   6.494811147269997   9.595776818879999   1.131284974770000 0
ion S  25.686343997999970   1.131275526120000   9.595765480499992 0
ion S  31.049870170499968   1.131275526120000   6.494811147269997 0
ion S  11.858337319769999   9.595776818879999   4.232241197729999 0
ion S  11.858337319769999  27.948904498889998   9.595765480499992 0
ion S  31.049870170499968   4.232250646380000   1.131284974770000 0
ion S  14.959291652999985  14.959291652999985   4.232250646379995 0
ion S  17.221863492269968  17.221863492269968   6.494801698619992 0
ion S  22.585389664769998  17.221863492269968   9.595776818879992 0
ion S  20.322817825500000  14.959291652999985   1.131275526120000 0
ion S  17.221863492269968  20.322817825500000   1.131275526120000 0
ion S  14.959291652999985  22.585389664769998   9.595776818879992 0
ion S  20.322817825500000  22.585389664769998   6.494801698619992 0
ion S  22.585389664769998  20.322817825500000   4.232250646379995 0
ion S  14.959291652999985  25.686343997999970   4.232250646379995 0
ion S  17.221863492269968   6.494811147269997   6.494801698619992 0
ion S  22.585389664769998   6.494811147269997   9.595776818879992 0
ion S  20.322817825500000  25.686343997999970   1.131275526120000 0
ion S  17.221863492269968  31.049870170499968   1.131275526120000 0
ion S  14.959291652999985  11.858337319769999   9.595776818879992 0
ion S  20.322817825500000  11.858337319769999   6.494801698619992 0
ion S  22.585389664769998  31.049870170499968   4.232250646379995 0
ion S  25.686343997999970  14.959291652999985   4.232250646379995 0
ion S   6.494811147269997  17.221863492269968   6.494801698619992 0
ion S  11.858337319769999  17.221863492269968   9.595776818879992 0
ion S  31.049870170499968  14.959291652999985   1.131275526120000 0
ion S   6.494811147269997  20.322817825500000   1.131275526120000 0
ion S  25.686343997999970  22.585389664769998   9.595776818879992 0
ion S  31.049870170499968  22.585389664769998   6.494801698619992 0
[...]
	FillingsUpdate:  mu: -0.190556522  nElectrons: 1146.000000
	SubspaceRotationAdjust: set factor to 0.113
ElecMinimize: Iter:   2  F: -7081.796347307209544  |grad|_K:  2.718e-08  alpha:  2.707e-01  linmin:  2.368e-04  t[s]:  20379.26
	FillingsUpdate:  mu: -0.190554073  nElectrons: 1146.000000
	SubspaceRotationAdjust: set factor to 0.0905
ElecMinimize: Iter:   3  F: -7081.796347346016773  |grad|_K:  2.128e-08  alpha:  3.966e-01  linmin:  3.438e-04  t[s]:  20390.03
	FillingsUpdate:  mu: -0.190554741  nElectrons: 1146.000000
	SubspaceRotationAdjust: set factor to 0.103
ElecMinimize: Iter:   4  F: -7081.796347359509127  |grad|_K:  1.400e-08  alpha:  2.260e-01  linmin: -2.371e-05  t[s]:  20400.79
	FillingsUpdate:  mu: -0.190553457  nElectrons: 1146.000000
	SubspaceRotationAdjust: set factor to 0.116
ElecMinimize: Iter:   5  F: -7081.796347369963769  |grad|_K:  1.202e-08  alpha:  4.230e-01  linmin:  7.326e-04  t[s]:  20411.56
	FillingsUpdate:  mu: -0.190554687  nElectrons: 1146.000000
	SubspaceRotationAdjust: set factor to 0.132
ElecMinimize: Iter:   6  F: -7081.796347376997801  |grad|_K:  1.233e-08  alpha:  3.752e-01  linmin:  1.188e-04  t[s]:  20422.30
	FillingsUpdate:  mu: -0.190554789  nElectrons: 1146.000000
	SubspaceRotationAdjust: set factor to 0.128
ElecMinimize: Iter:   7  F: -7081.796347383538887  |grad|_K:  1.056e-08  alpha:  3.287e-01  linmin: -2.749e-04  t[s]:  20433.05
ElecMinimize: Converged (|Delta F|<1.000000e-08 for 2 iters).
Setting wave functions to eigenvectors of Hamiltonian

# Ionic positions in cartesian coordinates:
ion Ni  32.181155145269997   0.000000000000000  10.727052344999997 0
ion Ni   5.363526172499999   0.000000000000000   5.363526172499999 0
ion Ni  32.181155145269997   5.363526172499999   5.363526172499999 0
ion Ni   5.363526172499999   5.363526172499999  10.727052344999997 0
ion Ni  32.181155145269997  10.727052344999999  10.727052344999997 0
ion Ni  32.181155145269997  21.454102800270000  10.727052344999997 0
ion Ni   5.363526172499999  21.454102800270000   5.363526172499999 0
ion Ni   5.363526172499999  10.727052344999999   5.363526172499999 0
ion Ni  32.181155145269997  16.090578517499999   5.363526172499999 0
ion Ni  32.181155145269997  26.817628972769999   5.363526172499999 0
ion Ni   5.363526172499999  26.817628972769999  10.727052344999997 0
ion Ni   5.363526172499999  16.090578517499999  10.727052344999997 0
ion Ni  10.727052344999999   0.000000000000000  10.727052344999997 0
ion Ni  21.454102800270000   0.000000000000000  10.727052344999997 0
ion Ni  21.454102800270000   5.363526172499999   5.363526172499999 0
ion Ni  10.727052344999999   5.363526172499999   5.363526172499999 0
ion Ni  16.090578517499999   5.363526172499999  10.727052344999997 0
ion Ni  26.817628972769999   5.363526172499999  10.727052344999997 0
ion Ni  26.817628972769999   0.000000000000000   5.363526172499999 0
ion Ni  16.090578517499999   0.000000000000000   5.363526172499999 0
ion Ni  10.727052344999999  10.727052344999999  10.727052344999997 0
ion Ni  21.454102800270000  21.454102800270000  10.727052344999997 0
ion Ni  26.817628972769999  21.454102800270000   5.363526172499999 0
ion Ni  16.090578517499999  10.727052344999999   5.363526172499999 0
ion Ni  21.454102800270000  16.090578517499999   5.363526172499999 0
ion Ni  10.727052344999999  26.817628972769999   5.363526172499999 0
ion Ni  16.090578517499999  26.817628972769999  10.727052344999997 0
ion Ni  26.817628972769999  16.090578517499999  10.727052344999997 0
ion Ni  10.727052344999999  21.454102800270000  10.727052344999997 0
ion Ni  21.454102800270000  10.727052344999999  10.727052344999985 0
ion Ni  26.817628972769999  10.727052344999999   5.363526172499999 0
ion Ni  16.090578517499999  21.454102800270000   5.363526172499999 0
ion Ni  21.454102800270000  26.817628972769999   5.363526172499999 0
ion Ni  10.727052344999999  16.090578517499999   5.363526172499999 0
ion Ni  16.090578517499999  16.090578517499999  10.727052344999997 0
ion Ni  26.817628972769999  26.817628972769999  10.727052344999997 0
ion S   4.232241197730000   4.232241197730000   4.232250646379995 0
ion S  27.948915837270000  27.948915837270000   6.494801698619992 0
ion S   1.131284974770000  27.948915837270000   9.595776818879992 0
ion S   9.595765480499999   4.232241197730000   1.131275526120000 0
ion S  27.948915837270000   9.595765480499999   1.131275526120000 0
ion S   4.232241197730000   1.131284974770000   9.595776818879992 0
ion S   9.595765480499999   1.131284974770000   6.494801698619992 0
ion S   1.131284974770000   9.595765480499999   4.232250646379995 0
ion S   4.232241197730000  14.959291652999985   4.232250646379995 0
ion S  27.948915837270000  17.221863492269968   6.494801698619992 0
ion S   1.131284974770000  17.221863492269968   9.595776818879992 0
ion S   9.595765480499999  14.959291652999985   1.131275526120000 0
ion S  27.948915837270000  20.322817825500000   1.131275526120000 0
ion S   4.232241197730000  22.585389664769998   9.595776818879992 0
ion S   9.595765480499999  22.585389664769998   6.494801698619992 0
ion S   1.131284974770000  20.322817825500000   4.232250646379995 0
ion S  14.959291652999985   4.232250646380000   4.232241197729999 0
ion S  17.221863492269968  27.948904498889998   6.494811147269997 0
ion S  17.221863492269968   9.595776818879999   1.131284974770000 0
ion S  14.959291652999985   1.131275526120000   9.595765480499992 0
ion S  20.322817825500000   1.131275526120000   6.494811147269997 0
ion S  22.585389664769998   9.595776818879999   4.232241197729999 0
ion S  22.585389664769998  27.948904498889998   9.595765480499992 0
ion S  20.322817825500000   4.232250646380000   1.131284974770000 0
ion S   4.232241197730000  25.686343997999970   4.232250646379995 0
ion S  27.948915837270000   6.494811147269997   6.494801698619992 0
ion S   1.131284974770000   6.494811147269997   9.595776818879992 0
ion S   9.595765480499999  25.686343997999970   1.131275526120000 0
ion S  27.948915837270000  31.049870170499968   1.131275526120000 0
ion S   4.232241197730000  11.858337319769999   9.595776818879992 0
ion S   9.595765480499999  11.858337319769999   6.494801698619992 0
ion S   1.131284974770000  31.049870170499968   4.232250646379995 0
ion S  25.686343997999970   4.232250646380000   4.232241197729999 0
ion S   6.494811147269997  27.948904498889998   6.494811147269997 0
ion S   6.494811147269997   9.595776818879999   1.131284974770000 0
ion S  25.686343997999970   1.131275526120000   9.595765480499992 0
ion S  31.049870170499968   1.131275526120000   6.494811147269997 0
ion S  11.858337319769999   9.595776818879999   4.232241197729999 0
ion S  11.858337319769999  27.948904498889998   9.595765480499992 0
ion S  31.049870170499968   4.232250646380000   1.131284974770000 0
ion S  14.959291652999985  14.959291652999985   4.232250646379995 0
ion S  17.221863492269968  17.221863492269968   6.494801698619992 0
ion S  22.585389664769998  17.221863492269968   9.595776818879992 0
ion S  20.322817825500000  14.959291652999985   1.131275526120000 0
ion S  17.221863492269968  20.322817825500000   1.131275526120000 0
ion S  14.959291652999985  22.585389664769998   9.595776818879992 0
ion S  20.322817825500000  22.585389664769998   6.494801698619992 0
ion S  22.585389664769998  20.322817825500000   4.232250646379995 0
ion S  14.959291652999985  25.686343997999970   4.232250646379995 0
ion S  17.221863492269968   6.494811147269997   6.494801698619992 0
ion S  22.585389664769998   6.494811147269997   9.595776818879992 0
ion S  20.322817825500000  25.686343997999970   1.131275526120000 0
ion S  17.221863492269968  31.049870170499968   1.131275526120000 0
ion S  14.959291652999985  11.858337319769999   9.595776818879992 0
ion S  20.322817825500000  11.858337319769999   6.494801698619992 0
ion S  22.585389664769998  31.049870170499968   4.232250646379995 0
ion S  25.686343997999970  14.959291652999985   4.232250646379995 0
ion S   6.494811147269997  17.221863492269968   6.494801698619992 0
ion S  11.858337319769999  17.221863492269968   9.595776818879992 0
ion S  31.049870170499968  14.959291652999985   1.131275526120000 0
ion S   6.494811147269997  20.322817825500000   1.131275526120000 0
ion S  25.686343997999970  22.585389664769998   9.595776818879992 0
ion S  31.049870170499968  22.585389664769998   6.494801698619992 0
ion S  11.858337319769999  20.322817825500000   4.232250646379995 0
ion S  25.686343997999970  25.686343997999970   4.232250646379995 0
ion S   6.494811147269997   6.494811147269997   6.494801698619992 0
ion S  11.858337319769999   6.494811147269997   9.595776818879992 0
ion S  31.049870170499968  25.686343997999970   1.131275526120000 0
ion S   6.494811147269997  31.049870170499968   1.131275526120000 0
ion S  25.686343997999970  11.858337319769999   9.595776818879992 0
ion S  31.049870170499968  11.858337319769999   6.494801698619992 0
ion S  11.858337319769999  31.049870170499968   4.232250646379995 0
ion S  21.605261065139420  14.290969564438331  12.714542929758935 1
ion S  18.177216858582714  15.369580808787981  14.320041037825305 1
ion S  17.499745639664390   9.245579302471986  11.820482465210070 1
ion S   8.576809435796495  13.618139637427127  12.664047419893457 1
ion S   5.274128477762765  19.864150555689719  12.580167531711936 1
ion S   8.482821401917922  21.697394566258453  14.066581090882892 1
ion S  17.392604199325287  20.338844229721506  11.851352262999717 1
ion S  10.105422166655464  14.302995477134852  16.198627514873060 1
ion Na  12.801022565740805  18.541976058943632  14.909465051754481 1
ion Na  14.452581637694866  11.586622191888679  15.358047674552788 1

# Forces in Cartesian coordinates:
force Ni   0.023735472099934  -0.011331379865943  -0.039006987647619 0
force Ni  -0.001829336587486  -0.000574930324516  -0.008898887219848 0
force Ni   0.001533496936534  -0.000596443062808  -0.009194745127756 0
force Ni  -0.023365297566024  -0.012050652501688  -0.038932674862465 0
force Ni   0.024215511130263  -0.011384839180265  -0.039674784964594 0
force Ni   0.018527060148379  -0.012084010128144  -0.037785460945506 0
force Ni   0.000918871983299  -0.005151833867798  -0.009560716996891 0
force Ni  -0.002993415447575   0.000184388883153  -0.008566883152534 0
force Ni   0.002208094002193  -0.000331369446263  -0.009145922993193 0
force Ni   0.001264714979426  -0.000378336531837  -0.009106317743845 0
force Ni  -0.019605722280683  -0.007113214591668  -0.035302337710843 0
force Ni  -0.008915474371069  -0.009875793812024  -0.010337064760394 0
force Ni   0.023315010956315  -0.011640154679526  -0.039043702841936 0
force Ni   0.023279767564501  -0.011726202861314  -0.039017731651996 0
force Ni   0.001790744546586   0.000404319529015  -0.008467565369046 0
force Ni   0.001983056943860  -0.000250901314706  -0.008973906173753 0
force Ni  -0.014378116856266   0.000324190175381  -0.031486943968279 0
force Ni  -0.023913563241575  -0.011249098884312  -0.039983246375165 0
force Ni  -0.001700399157192  -0.000548202435964  -0.008963544363829 0
force Ni  -0.001970314198536   0.000410372806254  -0.009055259229465 0
force Ni   0.009694944996112  -0.008614403885659  -0.026058346548542 0
force Ni   0.004932709953603  -0.012730206900395  -0.028668234684372 0
force Ni  -0.002097756660232  -0.000312724622458  -0.009135688870052 0
force Ni  -0.000657352199679  -0.001619555589758  -0.012533049213044 0
force Ni  -0.000974750374111  -0.004494636983475  -0.008702215547563 0
force Ni   0.001932520573525  -0.000420772274360  -0.008878805928816 0
force Ni  -0.021476205435157  -0.004446812448412  -0.037726855366275 0
force Ni  -0.020313375111923  -0.011723271336562  -0.038031828344734 0
force Ni   0.018683569377063  -0.007342739114250  -0.024831216184821 0
force Ni   0.010128458084967  -0.013255585764754  -0.020092448252823 0
force Ni  -0.002475710292619  -0.000551876602368  -0.009166921627362 0
force Ni   0.000218424354216  -0.002331616686347  -0.011963732965498 0
force Ni   0.001734021620156  -0.001048179364823  -0.009098530743449 0
force Ni   0.001558793567501  -0.000999722861481  -0.007715998616361 0
force Ni  -0.011636848876830   0.007389862126814  -0.011556827334267 0
force Ni  -0.023877256311216  -0.011043123179142  -0.038782487266725 0
force S  -0.004482576911955  -0.004142960163203  -0.003787622765452 0
force S   0.002988792297269   0.000840330808755   0.010975719598513 0
force S  -0.002905342806196   0.006836104891284   0.019823730073323 0
force S  -0.004077255370983   0.008833502846342   0.021532156598679 0
force S   0.004304661058787   0.008644253241787   0.021243579340634 0
force S   0.002400491929767   0.007056231597549   0.019560514199550 0
force S  -0.002923089085563   0.000791263900378   0.011084674620515 0
force S   0.004422491265534  -0.004346198288828  -0.003821069572564 0
force S  -0.004409071460391  -0.004079192761501  -0.004415933185988 0
force S   0.004295454130723   0.000300460902557   0.010697113117375 0
force S  -0.009342626440473   0.001519091516601   0.013214641559368 0
force S  -0.004183248983607   0.008710258900424   0.020976289303595 0
force S   0.004001884752981   0.008608668003327   0.021204747847781 0
force S  -0.007342835065654   0.008908874872347   0.012572912264953 0
force S   0.000105529277020   0.000406942765485   0.009887490136889 0
force S   0.003661955291791  -0.003814883706639  -0.003445120582066 0
force S  -0.004127965752816  -0.004299682367020  -0.005904558016741 0
force S   0.003367207779373   0.000798811647737   0.011443201815929 0
force S   0.004651495091514   0.007906774263125   0.021024722698148 0
force S   0.003485685054299   0.008966454065502   0.019466893942735 0
force S  -0.003266388181391   0.000765197981338   0.011341055411437 0
force S   0.004372365858033  -0.004103475885628  -0.004968176360524 0
force S  -0.002356767363539   0.007232537281014   0.019449314559922 0
force S  -0.004201129971815   0.008531750496309   0.021389352104804 0
force S  -0.004633850014603  -0.006578346797413  -0.000531039515728 0
force S   0.003637938922872   0.000967451934681   0.011261029945506 0
force S  -0.002741878578002   0.007053328453381   0.019553816611022 0
force S  -0.004022959099556   0.008666740731073   0.021080489318752 0
force S   0.003975506594651   0.008564243367468   0.021350353821537 0
force S  -0.008550019128101   0.002126333799430   0.009076444952899 0
force S  -0.001760161853864  -0.001139281010284   0.006561428140003 0
force S   0.004327800062845  -0.003939530832881  -0.003845148116004 0
force S  -0.004289380099617  -0.004161957210952  -0.004139734907797 0
force S   0.003577278149918   0.001438683074684   0.012563071018591 0
force S   0.004464661761665   0.008296817716278   0.021137305918101 0
force S   0.002449955775943   0.007154449803186   0.019693584392368 0
force S  -0.003120275601721   0.001043749118101   0.011146807116667 0
force S   0.004749996363402  -0.004567182579940  -0.005375798916963 0
force S  -0.002288256351579   0.007894659176934   0.018692543364004 0
force S  -0.004033428694472   0.008648125059464   0.021456940243091 0
force S  -0.004930541450001  -0.004904806329227  -0.004553844610752 0
force S  -0.000462859355632  -0.001772954421234   0.005125207246952 0
force S   0.010902762629136   0.004320863532677   0.015004249457703 0
force S  -0.004464264329123   0.008275077038297   0.020469182891394 0
force S   0.004611758299289   0.008460166792839   0.020053836424673 0
force S   0.003825447053574   0.009797219673947   0.011411734482292 0
force S  -0.000372969326420   0.003922616719729   0.006942355876686 0
force S   0.004690929325340  -0.006350224483584  -0.001395469033605 0
force S  -0.004614412730293  -0.004764400690496  -0.002681367945849 0
force S  -0.000059492275455  -0.004139851786473   0.002780412887849 0
force S   0.005718591534966   0.001401631693488   0.015283799861625 0
force S  -0.004111690607995   0.008500177914643   0.021428820288938 0
force S   0.004269985854013   0.008760843436219   0.021278282750271 0
force S   0.005089590708680  -0.001754035109954   0.014293034497539 0
force S  -0.000859139211885   0.000909462425966   0.000453212309333 0
force S   0.004373151188702  -0.004093254306468  -0.003890740665803 0
force S  -0.003785185969625  -0.003667959674772  -0.003269586273251 0
force S   0.002263552355046  -0.000657470218526   0.005037623576607 0
force S   0.003782907792797   0.008481325137200   0.003097317738934 0
force S  -0.003967024007316   0.008635047432238   0.021323683373890 0
force S   0.004454441742099   0.007909428512789   0.020132295154074 0
force S   0.001838325259732   0.005772397840109   0.019527877363248 0
force S  -0.003787199789398   0.000292226288470   0.010532487981333 0
force S   0.004733300654386  -0.004780605225925  -0.005215447959587 0
force S  -0.004181311866637  -0.003638097792685  -0.003814501229932 0
force S   0.003481649612766   0.000803705346804   0.011403448933102 0
force S  -0.006735025621586   0.005713250562922   0.015108960120565 0
force S  -0.004003752597106   0.008534258770817   0.021328682033978 0
force S   0.004094564476772   0.008647093142995   0.021177730823996 0
force S   0.008267782107141   0.000541061473992   0.014502517060859 0
force S  -0.003626037603979   0.001045610397264   0.011470361666833 0
force S   0.004214782479963  -0.004086760776531  -0.003838915102733 0
force S  -0.000088902616726   0.000015638062147   0.000018143993575 1
force S   0.000119576942453   0.000063307380370   0.000021209580378 1
force S  -0.000224316880858   0.000068588306293   0.000018942290007 1
force S  -0.000069885343731  -0.000051440051366  -0.000054412238311 1
force S   0.000069855761108  -0.000088424146833  -0.000065098534901 1
force S   0.000031598678731   0.000062214577328   0.000108676287721 1
force S  -0.000099342191236  -0.000014067065988  -0.000115022157678 1
force S  -0.000012693063212   0.000059591901683   0.000068357574899 1
force Na   0.000039992164550  -0.000078702300743   0.000058109812545 1
force Na  -0.000081127857126   0.000026441513153   0.000102480958462 1

# Energy components:
   Eewald =   -19420.2967559411372349
       EH =   -13266.7717535197716643
     Eloc =    24366.2816494163889729
      Enl =      919.1437692073870949
      Exc =     -987.2563899357576247
 Exc_core =      155.8560577476377773
       KE =     1152.2484209078916138
-------------------------------------
     Etot =    -7080.7950021173583082
       TS =        1.0013452661806366
-------------------------------------
        F =    -7081.7963473835388868


Dumping 'Na2S8@NiS2.fillings' ... done
Dumping 'Na2S8@NiS2.wfns' ... done
Dumping 'Na2S8@NiS2.ionpos' ... done
Dumping 'Na2S8@NiS2.eigenvals' ... done
IonicMinimize: Iter:  34  F: -7081.796347383538887  |grad|_K:  7.903e-05  alpha:  6.131e+00  linmin:  5.062e-04  t[s]:  20452.55
IonicMinimize: Converged (|grad|_K<1.000000e-04).

#--- Lowdin population analysis ---
# oxidation-state Ni +0.001 -0.449 -0.450 +0.013 +0.006 -0.023 -0.463 -0.453 -0.451 -0.453 +0.005 -0.406 +0.004 +0.004 -0.453 -0.451 -0.238 +0.002 -0.449 -0.449 -0.353 -0.208 -0.452 -0.464 -0.465 -0.452 -0.000 -0.024 -0.399 -0.460 -0.452 -0.467 -0.450 -0.457 -0.472 +0.003
# oxidation-state S +0.318 +0.445 +0.069 -0.012 -0.013 +0.087 +0.445 +0.320 +0.319 +0.435 +0.092 -0.013 -0.015 +0.324 +0.425 +0.316 +0.320 +0.440 -0.013 +0.089 +0.445 +0.319 +0.088 -0.013 +0.310 +0.447 +0.084 -0.015 -0.014 +0.131 +0.443 +0.318 +0.319 +0.441 -0.015 +0.085 +0.444 +0.318 +0.076 -0.014 +0.304 +0.442 +0.300 -0.013 -0.016 +0.376 +0.443 +0.314 +0.308 +0.458 +0.112 -0.015 -0.014 +0.347 +0.446 +0.318 +0.315 +0.448 +0.110 -0.014 -0.014 +0.073 +0.434 +0.314 +0.318 +0.445 +0.086 -0.015 -0.016 +0.098 +0.446 +0.319 +0.378 -0.110 +0.140 +0.397 +0.377 -0.039 +0.154 -0.450
# oxidation-state Na +0.713 +0.721


Dumping 'Na2S8@NiS2.fillings' ... done
Dumping 'Na2S8@NiS2.wfns' ... done
Dumping 'Na2S8@NiS2.ionpos' ... done
Dumping 'Na2S8@NiS2.eigenvals' ... done
End date and time: Sat Oct 19 23:45:10 2024  (Duration: 0-5:40:59.72)
Done!
