
*************** JDFTx 1.7.0  ***************

Start date and time: Mon Oct 28 17:32:32 2024
Executable jdftx_gpu with command-line: -i /home/akim2/JDFTx/Na2S8@NiS2-glyme/Na2S8@NiS2-glyme.in -o /home/akim2/JDFTx/Na2S8@NiS2-glyme/Na2S8@NiS2-glyme.out
Running on hosts (process indices):  exp-7-57 (0)
Divided in process groups (process indices):  0 (0)
gpuInit: Found compatible cuda device 0 'Tesla V100-SXM2-32GB'
gpuInit: Selected device 0
Resource initialization completed at t[s]:      0.75
Run totals: 1 processes, 1 threads, 1 GPUs


Input parsed successfully to the following command list (including defaults):

basis kpoint-dependent
coords-type Cartesian
core-overlap-check vector
coulomb-interaction Slab 001
coulomb-truncation-embed 0 0 10
davidson-band-ratio 1.1
dump End State
dump Ionic State
dump-interval Ionic 5
dump-name Na2S8@NiS2-glyme.$VAR
elec-cutoff 20 100
elec-eigen-algo Davidson
elec-ex-corr gga-PBE
elec-smearing Fermi 0.01
electronic-minimize  \
	dirUpdateScheme      FletcherReeves \
	linminMethod         DirUpdateRecommended \
	nIterations          100 \
	history              15 \
	knormThreshold       0 \
	energyDiffThreshold  1e-08 \
	nEnergyDiff          2 \
	alphaTstart          1 \
	alphaTmin            1e-10 \
	updateTestStepSize   yes \
	alphaTreduceFactor   0.1 \
	alphaTincreaseFactor 3 \
	nAlphaAdjustMax      3 \
	wolfeEnergy          0.0001 \
	wolfeGradient        0.9 \
	fdTest               no
exchange-regularization WignerSeitzTruncated
fluid LinearPCM 298.000000 1.013250
fluid-ex-corr lda-TF lda-PZ
fluid-gummel-loop 10 1.000000e-05
fluid-minimize  \
	dirUpdateScheme      PolakRibiere \
	linminMethod         DirUpdateRecommended \
	nIterations          400 \
	history              15 \
	knormThreshold       1e-11 \
	energyDiffThreshold  0 \
	nEnergyDiff          2 \
	alphaTstart          1 \
	alphaTmin            1e-10 \
	updateTestStepSize   yes \
	alphaTreduceFactor   0.1 \
	alphaTincreaseFactor 3 \
	nAlphaAdjustMax      6 \
	wolfeEnergy          0.0001 \
	wolfeGradient        0.9 \
	fdTest               no
fluid-solvent Glyme 9.62137 ScalarEOS \
	epsBulk 7.2 \
	pMol 0 \
	epsInf 1.9 \
	Pvap 0 \
	sigmaBulk 0 \
	Rvdw 0 \
	Res 0 \
	tauNuc 343133
forces-output-coords Positions
ion Ni  32.181155145270026   0.000000000000000  10.727052344999988 0
ion Ni   5.363526172499999   0.000000000000000   5.363526172499999 0
ion Ni  32.181155145270026   5.363526172499999   5.363526172499999 0
ion Ni   5.363526172499999   5.363526172499999  10.727052344999988 0
ion Ni  32.181155145270026  10.727052344999999  10.727052344999988 0
ion Ni  32.181155145270026  21.454102800270000  10.727052344999988 0
ion Ni   5.363526172499999  21.454102800270000   5.363526172499999 0
ion Ni   5.363526172499999  10.727052344999999   5.363526172499999 0
ion Ni  32.181155145270026  16.090578517500013   5.363526172499999 0
ion Ni  32.181155145270026  26.817628972769999   5.363526172499999 0
ion Ni   5.363526172499999  26.817628972769999  10.727052344999988 0
ion Ni   5.363526172499999  16.090578517500013  10.727052344999988 0
ion Ni  10.727052344999999   0.000000000000000  10.727052344999988 0
ion Ni  21.454102800270000   0.000000000000000  10.727052344999988 0
ion Ni  21.454102800270000   5.363526172499999   5.363526172499999 0
ion Ni  10.727052344999999   5.363526172499999   5.363526172499999 0
ion Ni  16.090578517500013   5.363526172499999  10.727052344999988 0
ion Ni  26.817628972769999   5.363526172499999  10.727052344999988 0
ion Ni  26.817628972769999   0.000000000000000   5.363526172499999 0
ion Ni  16.090578517500013   0.000000000000000   5.363526172499999 0
ion Ni  10.727052344999999  10.727052344999999  10.727052344999988 0
ion Ni  21.454102800270000  21.454102800270000  10.727052344999988 0
ion Ni  26.817628972769999  21.454102800270000   5.363526172499999 0
ion Ni  16.090578517500013  10.727052344999999   5.363526172499999 0
ion Ni  21.454102800270000  16.090578517500013   5.363526172499999 0
ion Ni  10.727052344999999  26.817628972769999   5.363526172499999 0
ion Ni  16.090578517500013  26.817628972769999  10.727052344999988 0
ion Ni  26.817628972769999  16.090578517500013  10.727052344999988 0
ion Ni  10.727052344999999  21.454102800270000  10.727052344999988 0
ion Ni  21.454102800270000  10.727052344999999  10.727052344999976 0
ion Ni  26.817628972769999  10.727052344999999   5.363526172499999 0
ion Ni  16.090578517500013  21.454102800270000   5.363526172499999 0
ion Ni  21.454102800270000  26.817628972769999   5.363526172499999 0
ion Ni  10.727052344999999  16.090578517500013   5.363526172499999 0
ion Ni  16.090578517500013  16.090578517500013  10.727052344999988 0
ion Ni  26.817628972769999  26.817628972769999  10.727052344999988 0
ion S   4.232241197730000   4.232241197730000   4.232250646379991 0
ion S  27.948915837270000  27.948915837270000   6.494801698619987 0
ion S   1.131284974770000  27.948915837270000   9.595776818879983 0
ion S   9.595765480499999   4.232241197730000   1.131275526120000 0
ion S  27.948915837270000   9.595765480499999   1.131275526120000 0
ion S   4.232241197730000   1.131284974770000   9.595776818879983 0
ion S   9.595765480499999   1.131284974770000   6.494801698619987 0
ion S   1.131284974770000   9.595765480499999   4.232250646379991 0
ion S   4.232241197730000  14.959291652999989   4.232250646379991 0
ion S  27.948915837270000  17.221863492269975   6.494801698619987 0
ion S   1.131284974770000  17.221863492269975   9.595776818879983 0
ion S   9.595765480499999  14.959291652999989   1.131275526120000 0
ion S  27.948915837270000  20.322817825500000   1.131275526120000 0
ion S   4.232241197730000  22.585389664770013   9.595776818879983 0
ion S   9.595765480499999  22.585389664770013   6.494801698619987 0
ion S   1.131284974770000  20.322817825500000   4.232250646379991 0
ion S  14.959291652999989   4.232250646380000   4.232241197729995 0
ion S  17.221863492269975  27.948904498889998   6.494811147269997 0
ion S  17.221863492269975   9.595776818879999   1.131284974770000 0
ion S  14.959291652999989   1.131275526120000   9.595765480499983 0
ion S  20.322817825500000   1.131275526120000   6.494811147269997 0
ion S  22.585389664770013   9.595776818879999   4.232241197729995 0
ion S  22.585389664770013  27.948904498889998   9.595765480499983 0
ion S  20.322817825500000   4.232250646380000   1.131284974770000 0
ion S   4.232241197730000  25.686343997999977   4.232250646379991 0
ion S  27.948915837270000   6.494811147269997   6.494801698619987 0
ion S   1.131284974770000   6.494811147269997   9.595776818879983 0
ion S   9.595765480499999  25.686343997999977   1.131275526120000 0
ion S  27.948915837270000  31.049870170499975   1.131275526120000 0
ion S   4.232241197730000  11.858337319770007   9.595776818879983 0
ion S   9.595765480499999  11.858337319770007   6.494801698619987 0
ion S   1.131284974770000  31.049870170499975   4.232250646379991 0
ion S  25.686343997999977   4.232250646380000   4.232241197729995 0
ion S   6.494811147269997  27.948904498889998   6.494811147269997 0
ion S   6.494811147269997   9.595776818879999   1.131284974770000 0
ion S  25.686343997999977   1.131275526120000   9.595765480499983 0
ion S  31.049870170499975   1.131275526120000   6.494811147269997 0
ion S  11.858337319770007   9.595776818879999   4.232241197729995 0
ion S  11.858337319770007  27.948904498889998   9.595765480499983 0
ion S  31.049870170499975   4.232250646380000   1.131284974770000 0
ion S  14.959291652999989  14.959291652999989   4.232250646379991 0
ion S  17.221863492269975  17.221863492269975   6.494801698619987 0
ion S  22.585389664770013  17.221863492269975   9.595776818879983 0
ion S  20.322817825500000  14.959291652999989   1.131275526120000 0
ion S  17.221863492269975  20.322817825500000   1.131275526120000 0
ion S  14.959291652999989  22.585389664770013   9.595776818879983 0
ion S  20.322817825500000  22.585389664770013   6.494801698619987 0
ion S  22.585389664770013  20.322817825500000   4.232250646379991 0
ion S  14.959291652999989  25.686343997999977   4.232250646379991 0
ion S  17.221863492269975   6.494811147269997   6.494801698619987 0
ion S  22.585389664770013   6.494811147269997   9.595776818879983 0
ion S  20.322817825500000  25.686343997999977   1.131275526120000 0
ion S  17.221863492269975  31.049870170499975   1.131275526120000 0
ion S  14.959291652999989  11.858337319770007   9.595776818879983 0
ion S  20.322817825500000  11.858337319770007   6.494801698619987 0
ion S  22.585389664770013  31.049870170499975   4.232250646379991 0
ion S  25.686343997999977  14.959291652999989   4.232250646379991 0
ion S   6.494811147269997  17.221863492269975   6.494801698619987 0
ion S  11.858337319770007  17.221863492269975   9.595776818879983 0
ion S  31.049870170499975  14.959291652999989   1.131275526120000 0
ion S   6.494811147269997  20.322817825500000   1.131275526120000 0
ion S  25.686343997999977  22.585389664770013   9.595776818879983 0
ion S  31.049870170499975  22.585389664770013   6.494801698619987 0
ion S  11.858337319770007  20.322817825500000   4.232250646379991 0
ion S  25.686343997999977  25.686343997999977   4.232250646379991 0
ion S   6.494811147269997   6.494811147269997   6.494801698619987 0
ion S  11.858337319770007   6.494811147269997   9.595776818879983 0
ion S  31.049870170499975  25.686343997999977   1.131275526120000 0
ion S   6.494811147269997  31.049870170499975   1.131275526120000 0
ion S  25.686343997999977  11.858337319770007   9.595776818879983 0
ion S  31.049870170499975  11.858337319770007   6.494801698619987 0
ion S  11.858337319770007  31.049870170499975   4.232250646379991 0
ion S  21.605261065139420  14.290969564438331  12.714542929758931 1
ion S  18.177216858582714  15.369580808787981  14.320041037825302 1
ion S  17.499745639664393   9.245579302471986  11.820482465210066 1
ion S   8.576809435796495  13.618139637427129  12.664047419893453 1
ion S   5.274128477762765  19.864150555689719  12.580167531711934 1
ion S   8.482821401917922  21.697394566258453  14.066581090882888 1
ion S  17.392604199325287  20.338844229721506  11.851352262999715 1
ion S  10.105422166655464  14.302995477134854  16.198627514873056 1
ion Na  12.801022565740807  18.541976058943632  14.909465051754477 1
ion Na  14.452581637694866  11.586622191888679  15.358047674552784 1
ion-species GBRV/$ID_pbe.uspp
ion-width Ecut
ionic-minimize  \
	dirUpdateScheme      FletcherReeves \
	linminMethod         DirUpdateRecommended \
	nIterations          400 \
	history              15 \
	knormThreshold       0.0001 \
	energyDiffThreshold  1e-06 \
	nEnergyDiff          2 \
	alphaTstart          1 \
	alphaTmin            1e-10 \
	updateTestStepSize   yes \
	alphaTreduceFactor   0.1 \
	alphaTincreaseFactor 3 \
	nAlphaAdjustMax      3 \
	wolfeEnergy          0.0001 \
	wolfeGradient        0.9 \
	fdTest               no
kpoint   0.000000000000   0.000000000000   0.000000000000  1.00000000000000
kpoint-folding 1 1 1 
latt-move-scale 1 1 1
latt-scale 1 1 1 
lattice Triclinic 32.1811 32.1811 40 90 90 90
lattice-minimize  \
	dirUpdateScheme      L-BFGS \
	linminMethod         DirUpdateRecommended \
	nIterations          0 \
	history              15 \
	knormThreshold       0 \
	energyDiffThreshold  1e-06 \
	nEnergyDiff          2 \
	alphaTstart          1 \
	alphaTmin            1e-10 \
	updateTestStepSize   yes \
	alphaTreduceFactor   0.1 \
	alphaTincreaseFactor 3 \
	nAlphaAdjustMax      3 \
	wolfeEnergy          0.0001 \
	wolfeGradient        0.9 \
	fdTest               no
lcao-params -1 1e-06 0.01
pcm-variant GLSSA13
spintype no-spin
subspace-rotation-factor 1 yes
symmetries automatic
symmetry-threshold 0.0001



---------- Setting up symmetries ----------

Found 16 point-group symmetries of the bravais lattice
Found 1 space-group symmetries with basis
Applied RMS atom displacement 0 bohrs to make symmetries exact.

---------- Initializing the Grid ----------
R = 
[      32.1811            0            0  ]
[            0      32.1811            0  ]
[            0            0           40  ]
unit cell volume = 41424.9
G =
[   0.195245          0          0  ]
[          0   0.195245          0  ]
[          0          0    0.15708  ]
Minimum fftbox size, Smin = [  148  148  184  ]
Chosen fftbox size, S = [  150  150  192  ]

---------- Initializing tighter grid for wavefunction operations ----------
R = 
[      32.1811            0            0  ]
[            0      32.1811            0  ]
[            0            0           40  ]
unit cell volume = 41424.9
G =
[   0.195245          0          0  ]
[          0   0.195245          0  ]
[          0          0    0.15708  ]
Minimum fftbox size, Smin = [  132  132  164  ]
Chosen fftbox size, S = [  140  140  168  ]

---------- Exchange Correlation functional ----------
Initalized PBE GGA exchange.
Initalized PBE GGA correlation.

---------- Setting up pseudopotentials ----------
Width of ionic core gaussian charges (only for fluid interactions / plotting) set to 0.397384

Reading pseudopotential file '/home/akim2/jdftx_install/build/pseudopotentials/GBRV/ni_pbe.uspp':
  Title: Ni.  Created by USPP 7.3.6 on 1-4-15
  Reference state energy: -170.398381.  18 valence electrons in orbitals:
    |300>  occupation: 2  eigenvalue: -4.804705
    |310>  occupation: 6  eigenvalue: -3.347751
    |320>  occupation: 8  eigenvalue: -1.042415
    |400>  occupation: 0  eigenvalue: -0.795539
    |410>  occupation: 0  eigenvalue: -0.551375
  lMax: 2  lLocal: 3  QijEcut: 6.5
  6 projectors sampled on a log grid with 611 points:
    l: 0  eig: -4.804708  rCut: 1.44
    l: 0  eig: -0.795541  rCut: 1.44
    l: 1  eig: -3.347753  rCut: 1.55
    l: 1  eig: 0.500000  rCut: 1.55
    l: 2  eig: -1.042418  rCut: 1.5
    l: 2  eig: -0.450000  rCut: 1.5
  Partial core density with radius 0.65
  Transforming core density to a uniform radial grid of dG=0.02 with 1286 points.
  Transforming local potential to a uniform radial grid of dG=0.02 with 1286 points.
  Transforming nonlocal projectors to a uniform radial grid of dG=0.02 with 432 points.
  Transforming density augmentations to a uniform radial grid of dG=0.02 with 1286 points.
  Transforming atomic orbitals to a uniform radial grid of dG=0.02 with 432 points.
  Core radius for overlap checks: 1.55 bohrs.

Reading pseudopotential file '/home/akim2/jdftx_install/build/pseudopotentials/GBRV/s_pbe.uspp':
  Title: S.  Created by USPP 7.3.6 on 1-4-15
  Reference state energy: -11.898476.  6 valence electrons in orbitals:
    |300>  occupation: 2  eigenvalue: -0.634167
    |310>  occupation: 4  eigenvalue: -0.257568
  lMax: 2  lLocal: 3  QijEcut: 6
  6 projectors sampled on a log grid with 635 points:
    l: 0  eig: -0.634161  rCut: 1.5
    l: 0  eig: 1.500000  rCut: 1.5
    l: 1  eig: -0.257567  rCut: 1.5
    l: 1  eig: 1.500000  rCut: 1.5
    l: 2  eig: -1.000000  rCut: 1.5
    l: 2  eig: 1.500000  rCut: 1.5
  Partial core density with radius 1.15
  Transforming core density to a uniform radial grid of dG=0.02 with 1286 points.
  Transforming local potential to a uniform radial grid of dG=0.02 with 1286 points.
  Transforming nonlocal projectors to a uniform radial grid of dG=0.02 with 432 points.
  Transforming density augmentations to a uniform radial grid of dG=0.02 with 1286 points.
  Transforming atomic orbitals to a uniform radial grid of dG=0.02 with 432 points.
  Core radius for overlap checks: 1.50 bohrs.

Reading pseudopotential file '/home/akim2/jdftx_install/build/pseudopotentials/GBRV/na_pbe.uspp':
  Title: Na.  Created by USPP 7.3.6 on 23-9-15
  Reference state energy: -47.625620.  9 valence electrons in orbitals:
    |200>  occupation: 2  eigenvalue: -2.085638
    |210>  occupation: 6  eigenvalue: -1.053708
    |300>  occupation: 1  eigenvalue: -0.100838
  lMax: 2  lLocal: 0  QijEcut: 6
  5 projectors sampled on a log grid with 657 points:
    l: 0  eig: -2.085640  rCut: 1.37
    l: 0  eig: -0.100839  rCut: 1.37
    l: 1  eig: -1.053708  rCut: 1.47
    l: 1  eig: 0.500000  rCut: 1.47
    l: 2  eig: 0.750000  rCut: 2
  Transforming local potential to a uniform radial grid of dG=0.02 with 1286 points.
  Transforming nonlocal projectors to a uniform radial grid of dG=0.02 with 432 points.
  Transforming density augmentations to a uniform radial grid of dG=0.02 with 1286 points.
  Transforming atomic orbitals to a uniform radial grid of dG=0.02 with 432 points.
  Core radius for overlap checks: 2.00 bohrs.

Initialized 3 species with 118 total atoms.

Folded 1 k-points by 1x1x1 to 1 k-points.

---------- Setting up k-points, bands, fillings ----------
No reducable k-points. 
Computing the number of bands and number of electrons
Calculating initial fillings.
nElectrons: 1146.000000   nBands: 798   nStates: 1

----- Setting up reduced wavefunction bases (one per k-point) -----
average nbasis = 176865.000 , ideal nbasis = 176970.325

---------- Setting up coulomb interaction ----------
Fluid mode embedding: using embedded box, but periodic Coulomb kernel.
(Fluid response is responsible for (approximate) separation between periodic images.)
Setting up double-sized grid for truncated Coulomb potentials:
R = 
[      32.1811            0            0  ]
[            0      32.1811            0  ]
[            0            0           80  ]
unit cell volume = 82849.8
G =
[   0.195245          0          0  ]
[          0   0.195245          0  ]
[          0          0  0.0785398  ]
Chosen fftbox size, S = [  150  150  384  ]
Integer grid location selected as the embedding center:
   Grid: [  0  0  48  ]
   Lattice: [  0  0  0.25  ]
   Cartesian: [  0  0  10  ]
Constructing Wigner-Seitz cell: 6 faces (6 quadrilaterals, 0 hexagons)
Range-separation parameter for embedded mesh potentials due to point charges: 0.584339 bohrs.

---------- Setting up ewald sum ----------
Optimum gaussian width for ewald sums = 7.852842 bohr.
Real space sum over 405 unit cells with max indices [  4  4  2  ]
Reciprocal space sum over 10115 terms with max indices [  8  8  17  ]

---------- Allocating electronic variables ----------
Initializing wave functions:  linear combination of atomic orbitals
Ni pseudo-atom occupations:   s ( 2 0 )  p ( 6 0 )  d ( 10 )
S pseudo-atom occupations:   s ( 2 )  p ( 4 )
Na pseudo-atom occupations:   s ( 2 1 )  p ( 6 )
	FillingsUpdate:  mu: -0.985063001  nElectrons: 1146.000000
LCAOMinimize: Iter:   0  F: -6360.9767406050368663  |grad|_K:  3.000e-02  alpha:  1.000e+00
	FillingsUpdate:  mu: +3.259490845  nElectrons: 1146.000000
LCAOMinimize: Iter:   1  F: -6617.5682731223660085  |grad|_K:  1.053e-01  alpha:  2.925e-01  linmin:  7.340e-02  cgtest: -4.946e-01  t[s]:     22.66
LCAOMinimize: 	Bad step direction: g.d > 0.
LCAOMinimize: 	Undoing step.
LCAOMinimize: 	Step failed: resetting search direction.
	FillingsUpdate:  mu: +3.259490845  nElectrons: 1146.000000
LCAOMinimize: Iter:   2  F: -6617.5682731223660085  |grad|_K:  1.053e-01  alpha:  0.000e+00
	FillingsUpdate:  mu: +1.720494297  nElectrons: 1146.000000
LCAOMinimize: Iter:   3  F: -6863.6757826459834178  |grad|_K:  6.315e-02  alpha:  8.915e-02  linmin:  1.647e-01  cgtest: -8.964e-01  t[s]:     34.35
LCAOMinimize: 	Bad step direction: g.d > 0.
LCAOMinimize: 	Undoing step.
LCAOMinimize: 	Step failed: resetting search direction.
	FillingsUpdate:  mu: +1.720494297  nElectrons: 1146.000000
LCAOMinimize: Iter:   4  F: -6863.6757826459834178  |grad|_K:  6.315e-02  alpha:  0.000e+00
	FillingsUpdate:  mu: +1.215931015  nElectrons: 1146.000000
LCAOMinimize: Iter:   5  F: -7004.9640263373612470  |grad|_K:  3.024e-02  alpha:  4.229e-02  linmin:  9.398e-02  cgtest: -1.804e-02  t[s]:     46.03
	FillingsUpdate:  mu: +1.117018729  nElectrons: 1146.000000
LCAOMinimize: Iter:   6  F: -7012.6732778502901056  |grad|_K:  4.189e-02  alpha:  3.800e-02  linmin: -1.259e-03  cgtest:  6.528e-01  t[s]:     52.90
LCAOMinimize: 	Step increased F by 2.695067e+01, reducing alpha to 7.084374e-03.
	FillingsUpdate:  mu: +0.972195750  nElectrons: 1146.000000
LCAOMinimize: Iter:   7  F: -7020.4093181694834129  |grad|_K:  3.605e-02  alpha:  7.084e-03  linmin: -8.429e-02  cgtest:  9.561e-01  t[s]:     64.78
LCAOMinimize: Encountered beta<0, resetting CG.
LCAOMinimize: 	Predicted alpha/alphaT>3.000000, increasing alphaT to 2.125312e-02.
	FillingsUpdate:  mu: +0.378075035  nElectrons: 1146.000000
LCAOMinimize: Iter:   8  F: -7035.2727533567713181  |grad|_K:  2.568e-02  alpha:  3.908e-02  linmin:  4.636e-02  cgtest: -4.339e-01  t[s]:     73.40
	FillingsUpdate:  mu: +0.347944844  nElectrons: 1146.000000
LCAOMinimize: Iter:   9  F: -7041.2377781322184092  |grad|_K:  3.722e-02  alpha:  2.301e-02  linmin: -1.695e-02  cgtest:  8.862e-01  t[s]:     80.26
LCAOMinimize: 	Predicted alpha/alphaT>3.000000, increasing alphaT to 6.902772e-02.
	FillingsUpdate:  mu: +0.207341722  nElectrons: 1146.000000
LCAOMinimize: Iter:  10  F: -7058.3454061934999118  |grad|_K:  3.346e-02  alpha:  1.976e-02  linmin: -9.585e-02  cgtest:  8.651e-01  t[s]:     88.84
	FillingsUpdate:  mu: +0.306333529  nElectrons: 1146.000000
LCAOMinimize: Iter:  11  F: -7067.0319581713765729  |grad|_K:  1.681e-02  alpha:  2.347e-02  linmin: -1.710e-02  cgtest: -1.734e-01  t[s]:     95.65
LCAOMinimize: 	Predicted alpha/alphaT>3.000000, increasing alphaT to 7.042382e-02.
	FillingsUpdate:  mu: +0.018076663  nElectrons: 1146.000000
LCAOMinimize: Iter:  12  F: -7072.9552303839827800  |grad|_K:  1.538e-02  alpha:  5.486e-02  linmin:  2.395e-02  cgtest:  4.541e-01  t[s]:    104.24
	FillingsUpdate:  mu: -0.044500592  nElectrons: 1146.000000
LCAOMinimize: Iter:  13  F: -7074.4213992807435716  |grad|_K:  8.254e-03  alpha:  1.413e-02  linmin: -1.958e-01  cgtest:  6.623e-01  t[s]:    111.17
LCAOMinimize: Encountered beta<0, resetting CG.
	FillingsUpdate:  mu: -0.031774274  nElectrons: 1146.000000
LCAOMinimize: Iter:  14  F: -7075.1450582644565657  |grad|_K:  7.052e-03  alpha:  3.795e-02  linmin:  8.592e-02  cgtest: -1.734e-01  t[s]:    118.00
	FillingsUpdate:  mu: -0.007931503  nElectrons: 1146.000000
LCAOMinimize: Iter:  15  F: -7075.4092468028993608  |grad|_K:  5.006e-03  alpha:  2.274e-02  linmin: -5.434e-04  cgtest:  6.067e-01  t[s]:    124.83
	FillingsUpdate:  mu: -0.038080034  nElectrons: 1146.000000
LCAOMinimize: Iter:  16  F: -7075.6657732258563556  |grad|_K:  3.530e-03  alpha:  3.238e-02  linmin:  1.243e-02  cgtest: -7.541e-02  t[s]:    131.67
	FillingsUpdate:  mu: -0.074316553  nElectrons: 1146.000000
LCAOMinimize: Iter:  17  F: -7075.7865349982648695  |grad|_K:  2.860e-03  alpha:  3.124e-02  linmin:  3.880e-03  cgtest:  1.282e-01  t[s]:    139.61
	FillingsUpdate:  mu: -0.079739426  nElectrons: 1146.000000
LCAOMinimize: Iter:  18  F: -7075.9037279184431100  |grad|_K:  2.616e-03  alpha:  4.563e-02  linmin:  2.402e-03  cgtest:  8.100e-03  t[s]:    146.45
	FillingsUpdate:  mu: -0.073962484  nElectrons: 1146.000000
LCAOMinimize: Iter:  19  F: -7075.9975522891709261  |grad|_K:  2.271e-03  alpha:  4.339e-02  linmin:  2.642e-03  cgtest:  4.333e-03  t[s]:    153.27
	FillingsUpdate:  mu: -0.078034192  nElectrons: 1146.000000
LCAOMinimize: Iter:  20  F: -7076.0387653594543735  |grad|_K:  1.459e-03  alpha:  2.482e-02  linmin: -2.066e-03  cgtest:  7.401e-02  t[s]:    160.06
	FillingsUpdate:  mu: -0.078723934  nElectrons: 1146.000000
LCAOMinimize: Iter:  21  F: -7076.0639672688948849  |grad|_K:  1.412e-03  alpha:  3.669e-02  linmin: -2.400e-03  cgtest: -8.821e-03  t[s]:    166.90
	FillingsUpdate:  mu: -0.084891087  nElectrons: 1146.000000
LCAOMinimize: Iter:  22  F: -7076.0940543110609724  |grad|_K:  1.281e-03  alpha:  4.696e-02  linmin:  2.727e-03  cgtest:  6.674e-03  t[s]:    173.74
	FillingsUpdate:  mu: -0.088637156  nElectrons: 1146.000000
LCAOMinimize: Iter:  23  F: -7076.1094551646710897  |grad|_K:  9.504e-04  alpha:  2.982e-02  linmin: -6.263e-05  cgtest:  6.594e-02  t[s]:    180.58
	FillingsUpdate:  mu: -0.085105358  nElectrons: 1146.000000
LCAOMinimize: Iter:  24  F: -7076.1175000085559077  |grad|_K:  6.039e-04  alpha:  2.790e-02  linmin:  5.207e-05  cgtest: -1.129e-02  t[s]:    187.42
	FillingsUpdate:  mu: -0.085140446  nElectrons: 1146.000000
LCAOMinimize: Iter:  25  F: -7076.1211790033294164  |grad|_K:  4.140e-04  alpha:  3.162e-02  linmin:  8.540e-04  cgtest:  7.020e-03  t[s]:    194.26
	FillingsUpdate:  mu: -0.087693330  nElectrons: 1146.000000
LCAOMinimize: Iter:  26  F: -7076.1233720188420193  |grad|_K:  4.305e-04  alpha:  4.022e-02  linmin:  2.649e-04  cgtest:  4.159e-03  t[s]:    201.14
	FillingsUpdate:  mu: -0.090576716  nElectrons: 1146.000000
LCAOMinimize: Iter:  27  F: -7076.1253741330810954  |grad|_K:  2.860e-04  alpha:  3.390e-02  linmin:  1.293e-05  cgtest:  2.112e-03  t[s]:    208.09
	FillingsUpdate:  mu: -0.091942332  nElectrons: 1146.000000
LCAOMinimize: Iter:  28  F: -7076.1259521971242066  |grad|_K:  1.595e-04  alpha:  2.210e-02  linmin: -4.228e-05  cgtest:  4.379e-03  t[s]:    214.91
	FillingsUpdate:  mu: -0.091589909  nElectrons: 1146.000000
LCAOMinimize: Iter:  29  F: -7076.1262586564662342  |grad|_K:  1.523e-04  alpha:  3.774e-02  linmin:  5.705e-05  cgtest: -2.052e-04  t[s]:    221.76
	FillingsUpdate:  mu: -0.090580844  nElectrons: 1146.000000
LCAOMinimize: Iter:  30  F: -7076.1266538448016945  |grad|_K:  1.736e-04  alpha:  5.340e-02  linmin:  5.277e-05  cgtest:  9.837e-05  t[s]:    228.57
LCAOMinimize: None of the convergence criteria satisfied after 30 iterations.
----- createFluidSolver() ----- (Fluid-side solver setup)
   Initializing fluid molecule 'Glyme'
     Net charge: 0   dipole magnitude: 0
     Initializing spherical shell mfKernel with radius 0 Bohr
     deltaS corrections:

Correction to mu due to finite nuclear width = -0.0137244
   Cavity determined by nc: 8.36e-05 and sigma: 0.6
   Effective cavity tension: -8.03e-06 Eh/bohr^2 to account for cavitation and dispersion.


---- Citations for features of the code used in this run ----

   Software package:
      R. Sundararaman, K. Letchworth-Weaver, K.A. Schwarz, D. Gunceler, Y. Ozhabes and T.A. Arias, 'JDFTx: software for joint density-functional theory', SoftwareX 6, 278 (2017)

   gga-PBE exchange-correlation functional:
      J.P. Perdew, K. Burke and M. Ernzerhof, Phys. Rev. Lett. 77, 3865 (1996)

   Pseudopotentials:
      KF Garrity, JW Bennett, KM Rabe and D Vanderbilt, Comput. Mater. Sci. 81, 446 (2014)

   Truncated Coulomb potentials:
      R. Sundararaman and T.A. Arias, Phys. Rev. B 87, 165122 (2013)

   Linear/nonlinear dielectric/ionic fluid model with effective cavity tension:
      D. Gunceler, K. Letchworth-Weaver, R. Sundararaman, K.A. Schwarz and T.A. Arias, Modelling Simul. Mater. Sci. Eng. 21, 074005 (2013)

   Total energy minimization with Auxiliary Hamiltonian:
      C. Freysoldt, S. Boeck, and J. Neugebauer, Phys. Rev. B 79, 241103(R) (2009)

This list may not be complete. Please suggest additional citations or
report any other bugs at https://github.com/shankar1729/jdftx/issues

Initialization completed successfully at t[s]:    230.41

Fluid solver invoked on fresh (random / LCAO) wavefunctions
Running a vacuum solve first:

-------- Initial electronic minimization -----------
	FillingsUpdate:  mu: -0.090580843  nElectrons: 1146.000000
ElecMinimize: Iter:   0  F: -7076.126653844800785  |grad|_K:  2.112e-04  alpha:  1.000e+00
	FillingsUpdate:  mu: -0.125715441  nElectrons: 1146.000000
	SubspaceRotationAdjust: set factor to 0.631
ElecMinimize: Iter:   1  F: -7077.996010933050457  |grad|_K:  3.515e-04  alpha:  2.895e-01  linmin: -1.150e-05  t[s]:    249.73
	FillingsUpdate:  mu: -0.017852336  nElectrons: 1146.000000
	SubspaceRotationAdjust: set factor to 0.358
ElecMinimize: Iter:   2  F: -7078.137061881449881  |grad|_K:  5.054e-04  alpha:  5.353e-02  linmin:  3.496e-04  t[s]:    261.75
	FillingsUpdate:  mu: +0.016513494  nElectrons: 1146.000000
	SubspaceRotationAdjust: set factor to 0.222
ElecMinimize: Iter:   3  F: -7078.389210817431376  |grad|_K:  4.215e-04  alpha:  2.503e-02  linmin:  3.850e-06  t[s]:    273.75
	FillingsUpdate:  mu: -0.037309492  nElectrons: 1146.000000
	SubspaceRotationAdjust: set factor to 0.312
ElecMinimize: Iter:   4  F: -7079.559162430417018  |grad|_K:  2.261e-04  alpha:  4.643e-02  linmin: -9.824e-06  t[s]:    285.65
	FillingsUpdate:  mu: -0.017000152  nElectrons: 1146.000000
	SubspaceRotationAdjust: set factor to 0.222
ElecMinimize: Iter:   5  F: -7080.278406247382009  |grad|_K:  2.173e-04  alpha:  9.786e-02  linmin:  1.111e-05  t[s]:    297.72
	FillingsUpdate:  mu: -0.043946541  nElectrons: 1146.000000
	SubspaceRotationAdjust: set factor to 0.25
ElecMinimize: Iter:   6  F: -7080.676288065438712  |grad|_K:  1.252e-04  alpha:  6.178e-02  linmin:  3.188e-06  t[s]:    309.74
	FillingsUpdate:  mu: -0.044910658  nElectrons: 1146.000000
	SubspaceRotationAdjust: set factor to 0.255
ElecMinimize: Iter:   7  F: -7080.928676368511333  |grad|_K:  1.306e-04  alpha:  1.120e-01  linmin: -3.901e-05  t[s]:    321.68
	FillingsUpdate:  mu: -0.092985166  nElectrons: 1146.000000
	SubspaceRotationAdjust: set factor to 0.203
ElecMinimize: Iter:   8  F: -7081.272998870720585  |grad|_K:  1.124e-04  alpha:  1.373e-01  linmin:  3.857e-06  t[s]:    333.60
	FillingsUpdate:  mu: -0.121385404  nElectrons: 1146.000000
	SubspaceRotationAdjust: set factor to 0.283
ElecMinimize: Iter:   9  F: -7081.416978263743658  |grad|_K:  6.984e-05  alpha:  7.889e-02  linmin: -1.642e-05  t[s]:    345.61
	FillingsUpdate:  mu: -0.112922473  nElectrons: 1146.000000
	SubspaceRotationAdjust: set factor to 0.273
ElecMinimize: Iter:  10  F: -7081.505755224322456  |grad|_K:  7.748e-05  alpha:  1.281e-01  linmin:  2.562e-05  t[s]:    357.64
	FillingsUpdate:  mu: -0.100407449  nElectrons: 1146.000000
	SubspaceRotationAdjust: set factor to 0.232
ElecMinimize: Iter:  11  F: -7081.600072816323518  |grad|_K:  6.615e-05  alpha:  1.118e-01  linmin: -1.695e-07  t[s]:    369.58
	FillingsUpdate:  mu: -0.101781809  nElectrons: 1146.000000
	SubspaceRotationAdjust: set factor to 0.243
ElecMinimize: Iter:  12  F: -7081.650555167629136  |grad|_K:  4.185e-05  alpha:  8.112e-02  linmin:  1.293e-05  t[s]:    381.50
	FillingsUpdate:  mu: -0.102770394  nElectrons: 1146.000000
	SubspaceRotationAdjust: set factor to 0.218
ElecMinimize: Iter:  13  F: -7081.677016269236447  |grad|_K:  4.034e-05  alpha:  1.072e-01  linmin:  7.001e-06  t[s]:    393.49
	FillingsUpdate:  mu: -0.103542188  nElectrons: 1146.000000
	SubspaceRotationAdjust: set factor to 0.184
ElecMinimize: Iter:  14  F: -7081.710600456503926  |grad|_K:  4.208e-05  alpha:  1.460e-01  linmin: -6.794e-06  t[s]:    405.52
	FillingsUpdate:  mu: -0.105496207  nElectrons: 1146.000000
	SubspaceRotationAdjust: set factor to 0.248
ElecMinimize: Iter:  15  F: -7081.737202462858477  |grad|_K:  2.746e-05  alpha:  1.063e-01  linmin: -1.939e-06  t[s]:    417.46
	FillingsUpdate:  mu: -0.105442274  nElectrons: 1146.000000
	SubspaceRotationAdjust: set factor to 0.233
ElecMinimize: Iter:  16  F: -7081.749855389460208  |grad|_K:  2.500e-05  alpha:  1.183e-01  linmin: -1.246e-06  t[s]:    429.52
	FillingsUpdate:  mu: -0.105972489  nElectrons: 1146.000000
	SubspaceRotationAdjust: set factor to 0.278
ElecMinimize: Iter:  17  F: -7081.761893928664904  |grad|_K:  2.339e-05  alpha:  1.360e-01  linmin: -8.339e-09  t[s]:    441.57
	FillingsUpdate:  mu: -0.106092403  nElectrons: 1146.000000
	SubspaceRotationAdjust: set factor to 0.275
ElecMinimize: Iter:  18  F: -7081.771852815012608  |grad|_K:  2.226e-05  alpha:  1.287e-01  linmin: -1.218e-07  t[s]:    453.49
	FillingsUpdate:  mu: -0.108482536  nElectrons: 1146.000000
	SubspaceRotationAdjust: set factor to 0.361
ElecMinimize: Iter:  19  F: -7081.779357643066760  |grad|_K:  1.647e-05  alpha:  1.070e-01  linmin:  4.272e-07  t[s]:    465.41
	FillingsUpdate:  mu: -0.109018267  nElectrons: 1146.000000
	SubspaceRotationAdjust: set factor to 0.342
ElecMinimize: Iter:  20  F: -7081.783924724492863  |grad|_K:  1.809e-05  alpha:  1.191e-01  linmin:  1.217e-06  t[s]:    477.43
	FillingsUpdate:  mu: -0.108004983  nElectrons: 1146.000000
	SubspaceRotationAdjust: set factor to 0.38
ElecMinimize: Iter:  21  F: -7081.789208929756569  |grad|_K:  1.417e-05  alpha:  1.144e-01  linmin:  2.290e-07  t[s]:    489.39
	FillingsUpdate:  mu: -0.107351713  nElectrons: 1146.000000
	SubspaceRotationAdjust: set factor to 0.33
ElecMinimize: Iter:  22  F: -7081.792004903371890  |grad|_K:  1.320e-05  alpha:  9.852e-02  linmin: -3.740e-07  t[s]:    501.34
	FillingsUpdate:  mu: -0.108115351  nElectrons: 1146.000000
	SubspaceRotationAdjust: set factor to 0.32
ElecMinimize: Iter:  23  F: -7081.794571464075489  |grad|_K:  1.084e-05  alpha:  1.041e-01  linmin:  2.062e-07  t[s]:    513.27
	FillingsUpdate:  mu: -0.109183885  nElectrons: 1146.000000
	SubspaceRotationAdjust: set factor to 0.318
ElecMinimize: Iter:  24  F: -7081.796443733058368  |grad|_K:  9.006e-06  alpha:  1.126e-01  linmin: -3.803e-07  t[s]:    525.30
	FillingsUpdate:  mu: -0.109298696  nElectrons: 1146.000000
	SubspaceRotationAdjust: set factor to 0.303
ElecMinimize: Iter:  25  F: -7081.797598520802239  |grad|_K:  7.698e-06  alpha:  1.006e-01  linmin: -6.482e-07  t[s]:    537.25
	FillingsUpdate:  mu: -0.108718351  nElectrons: 1146.000000
	SubspaceRotationAdjust: set factor to 0.279
ElecMinimize: Iter:  26  F: -7081.798738238680016  |grad|_K:  6.579e-06  alpha:  1.357e-01  linmin: -8.676e-07  t[s]:    549.14
	FillingsUpdate:  mu: -0.108237785  nElectrons: 1146.000000
	SubspaceRotationAdjust: set factor to 0.286
ElecMinimize: Iter:  27  F: -7081.799302313008411  |grad|_K:  4.746e-06  alpha:  9.203e-02  linmin: -3.612e-08  t[s]:    561.12
	FillingsUpdate:  mu: -0.107915010  nElectrons: 1146.000000
	SubspaceRotationAdjust: set factor to 0.321
ElecMinimize: Iter:  28  F: -7081.799723946480299  |grad|_K:  4.105e-06  alpha:  1.323e-01  linmin: -9.809e-08  t[s]:    573.08
	FillingsUpdate:  mu: -0.108149994  nElectrons: 1146.000000
	SubspaceRotationAdjust: set factor to 0.32
ElecMinimize: Iter:  29  F: -7081.799987853485618  |grad|_K:  3.584e-06  alpha:  1.107e-01  linmin:  3.397e-07  t[s]:    585.02
	FillingsUpdate:  mu: -0.108605188  nElectrons: 1146.000000
	SubspaceRotationAdjust: set factor to 0.332
ElecMinimize: Iter:  30  F: -7081.800209803303915  |grad|_K:  3.141e-06  alpha:  1.223e-01  linmin:  7.635e-07  t[s]:    597.04
	FillingsUpdate:  mu: -0.108667370  nElectrons: 1146.000000
	SubspaceRotationAdjust: set factor to 0.311
ElecMinimize: Iter:  31  F: -7081.800370670960547  |grad|_K:  2.702e-06  alpha:  1.154e-01  linmin:  5.183e-07  t[s]:    608.98
	FillingsUpdate:  mu: -0.108556273  nElectrons: 1146.000000
	SubspaceRotationAdjust: set factor to 0.338
ElecMinimize: Iter:  32  F: -7081.800464859695239  |grad|_K:  1.841e-06  alpha:  9.127e-02  linmin:  6.430e-07  t[s]:    620.96
	FillingsUpdate:  mu: -0.108480689  nElectrons: 1146.000000
	SubspaceRotationAdjust: set factor to 0.316
ElecMinimize: Iter:  33  F: -7081.800528509621472  |grad|_K:  1.966e-06  alpha:  1.329e-01  linmin:  1.062e-06  t[s]:    633.00
	FillingsUpdate:  mu: -0.108425911  nElectrons: 1146.000000
	SubspaceRotationAdjust: set factor to 0.337
ElecMinimize: Iter:  34  F: -7081.800592355908520  |grad|_K:  1.703e-06  alpha:  1.169e-01  linmin:  7.527e-07  t[s]:    644.96
	FillingsUpdate:  mu: -0.108463604  nElectrons: 1146.000000
	SubspaceRotationAdjust: set factor to 0.333
ElecMinimize: Iter:  35  F: -7081.800639705337744  |grad|_K:  1.436e-06  alpha:  1.156e-01  linmin:  6.022e-07  t[s]:    656.95
	FillingsUpdate:  mu: -0.108513635  nElectrons: 1146.000000
	SubspaceRotationAdjust: set factor to 0.325
ElecMinimize: Iter:  36  F: -7081.800671152157520  |grad|_K:  1.372e-06  alpha:  1.078e-01  linmin:  4.882e-07  t[s]:    668.93
	FillingsUpdate:  mu: -0.108404220  nElectrons: 1146.000000
	SubspaceRotationAdjust: set factor to 0.328
ElecMinimize: Iter:  37  F: -7081.800705759885204  |grad|_K:  1.129e-06  alpha:  1.301e-01  linmin:  7.808e-07  t[s]:    680.89
	FillingsUpdate:  mu: -0.108266505  nElectrons: 1146.000000
	SubspaceRotationAdjust: set factor to 0.314
ElecMinimize: Iter:  38  F: -7081.800722781266813  |grad|_K:  9.728e-07  alpha:  9.452e-02  linmin:  2.280e-07  t[s]:    692.91
	FillingsUpdate:  mu: -0.108221647  nElectrons: 1146.000000
	SubspaceRotationAdjust: set factor to 0.322
ElecMinimize: Iter:  39  F: -7081.800741786511026  |grad|_K:  9.108e-07  alpha:  1.421e-01  linmin:  4.207e-07  t[s]:    704.97
	FillingsUpdate:  mu: -0.108319466  nElectrons: 1146.000000
	SubspaceRotationAdjust: set factor to 0.326
ElecMinimize: Iter:  40  F: -7081.800753950264152  |grad|_K:  7.525e-07  alpha:  1.038e-01  linmin:  1.333e-07  t[s]:    716.96
	FillingsUpdate:  mu: -0.108409963  nElectrons: 1146.000000
	SubspaceRotationAdjust: set factor to 0.351
ElecMinimize: Iter:  41  F: -7081.800762729810231  |grad|_K:  6.176e-07  alpha:  1.097e-01  linmin:  7.003e-08  t[s]:    728.88
	FillingsUpdate:  mu: -0.108441051  nElectrons: 1146.000000
	SubspaceRotationAdjust: set factor to 0.289
ElecMinimize: Iter:  42  F: -7081.800769792673236  |grad|_K:  6.568e-07  alpha:  1.309e-01  linmin:  3.529e-08  t[s]:    740.80
	FillingsUpdate:  mu: -0.108430637  nElectrons: 1146.000000
	SubspaceRotationAdjust: set factor to 0.354
ElecMinimize: Iter:  43  F: -7081.800775855816937  |grad|_K:  4.486e-07  alpha:  9.937e-02  linmin:  5.355e-08  t[s]:    752.91
	FillingsUpdate:  mu: -0.108374685  nElectrons: 1146.000000
	SubspaceRotationAdjust: set factor to 0.333
ElecMinimize: Iter:  44  F: -7081.800779409505594  |grad|_K:  4.297e-07  alpha:  1.249e-01  linmin:  9.900e-08  t[s]:    764.93
	FillingsUpdate:  mu: -0.108336405  nElectrons: 1146.000000
	SubspaceRotationAdjust: set factor to 0.343
ElecMinimize: Iter:  45  F: -7081.800781907981218  |grad|_K:  3.141e-07  alpha:  9.569e-02  linmin:  2.027e-08  t[s]:    776.92
	FillingsUpdate:  mu: -0.108354989  nElectrons: 1146.000000
	SubspaceRotationAdjust: set factor to 0.336
ElecMinimize: Iter:  46  F: -7081.800783608120582  |grad|_K:  2.894e-07  alpha:  1.219e-01  linmin:  4.498e-09  t[s]:    788.88
	FillingsUpdate:  mu: -0.108379795  nElectrons: 1146.000000
	SubspaceRotationAdjust: set factor to 0.311
ElecMinimize: Iter:  47  F: -7081.800784936400305  |grad|_K:  2.741e-07  alpha:  1.121e-01  linmin:  1.462e-08  t[s]:    800.80
	FillingsUpdate:  mu: -0.108390289  nElectrons: 1146.000000
	SubspaceRotationAdjust: set factor to 0.329
ElecMinimize: Iter:  48  F: -7081.800786330157280  |grad|_K:  2.153e-07  alpha:  1.311e-01  linmin:  1.054e-08  t[s]:    812.71
	FillingsUpdate:  mu: -0.108387504  nElectrons: 1146.000000
	SubspaceRotationAdjust: set factor to 0.294
ElecMinimize: Iter:  49  F: -7081.800786949312169  |grad|_K:  1.753e-07  alpha:  9.445e-02  linmin:  3.112e-08  t[s]:    824.69
	FillingsUpdate:  mu: -0.108377434  nElectrons: 1146.000000
	SubspaceRotationAdjust: set factor to 0.311
ElecMinimize: Iter:  50  F: -7081.800787575550203  |grad|_K:  1.591e-07  alpha:  1.441e-01  linmin: -1.191e-08  t[s]:    836.75
	FillingsUpdate:  mu: -0.108375903  nElectrons: 1146.000000
	SubspaceRotationAdjust: set factor to 0.317
ElecMinimize: Iter:  51  F: -7081.800787988789125  |grad|_K:  1.334e-07  alpha:  1.154e-01  linmin:  6.704e-08  t[s]:    848.82
	FillingsUpdate:  mu: -0.108384976  nElectrons: 1146.000000
	SubspaceRotationAdjust: set factor to 0.325
ElecMinimize: Iter:  52  F: -7081.800788294320228  |grad|_K:  1.170e-07  alpha:  1.216e-01  linmin:  1.168e-07  t[s]:    860.76
	FillingsUpdate:  mu: -0.108388655  nElectrons: 1146.000000
	SubspaceRotationAdjust: set factor to 0.343
ElecMinimize: Iter:  53  F: -7081.800788550768630  |grad|_K:  1.059e-07  alpha:  1.327e-01  linmin:  9.311e-08  t[s]:    872.73
	FillingsUpdate:  mu: -0.108382703  nElectrons: 1146.000000
	SubspaceRotationAdjust: set factor to 0.332
ElecMinimize: Iter:  54  F: -7081.800788720011042  |grad|_K:  8.949e-08  alpha:  1.069e-01  linmin:  6.830e-08  t[s]:    884.75
	FillingsUpdate:  mu: -0.108379398  nElectrons: 1146.000000
	SubspaceRotationAdjust: set factor to 0.317
ElecMinimize: Iter:  55  F: -7081.800788870145880  |grad|_K:  8.234e-08  alpha:  1.327e-01  linmin:  1.714e-07  t[s]:    896.69
	FillingsUpdate:  mu: -0.108382328  nElectrons: 1146.000000
	SubspaceRotationAdjust: set factor to 0.321
ElecMinimize: Iter:  56  F: -7081.800788978669516  |grad|_K:  6.951e-08  alpha:  1.133e-01  linmin: -4.746e-08  t[s]:    908.69
	FillingsUpdate:  mu: -0.108385971  nElectrons: 1146.000000
	SubspaceRotationAdjust: set factor to 0.335
ElecMinimize: Iter:  57  F: -7081.800789060105672  |grad|_K:  5.879e-08  alpha:  1.189e-01  linmin: -9.629e-08  t[s]:    920.64
	FillingsUpdate:  mu: -0.108388034  nElectrons: 1146.000000
	SubspaceRotationAdjust: set factor to 0.282
ElecMinimize: Iter:  58  F: -7081.800789127428288  |grad|_K:  5.848e-08  alpha:  1.376e-01  linmin:  2.238e-07  t[s]:    932.63
	FillingsUpdate:  mu: -0.108386004  nElectrons: 1146.000000
	SubspaceRotationAdjust: set factor to 0.322
ElecMinimize: Iter:  59  F: -7081.800789175886166  |grad|_K:  4.074e-08  alpha:  1.008e-01  linmin: -1.884e-08  t[s]:    944.52
	FillingsUpdate:  mu: -0.108381104  nElectrons: 1146.000000
	SubspaceRotationAdjust: set factor to 0.307
ElecMinimize: Iter:  60  F: -7081.800789211741176  |grad|_K:  4.378e-08  alpha:  1.531e-01  linmin:  8.936e-08  t[s]:    956.42
	FillingsUpdate:  mu: -0.108379869  nElectrons: 1146.000000
	SubspaceRotationAdjust: set factor to 0.331
ElecMinimize: Iter:  61  F: -7081.800789242368410  |grad|_K:  3.326e-08  alpha:  1.133e-01  linmin:  3.421e-08  t[s]:    968.39
	FillingsUpdate:  mu: -0.108382043  nElectrons: 1146.000000
	SubspaceRotationAdjust: set factor to 0.337
ElecMinimize: Iter:  62  F: -7081.800789260601050  |grad|_K:  2.665e-08  alpha:  1.154e-01  linmin: -1.474e-07  t[s]:    980.37
	FillingsUpdate:  mu: -0.108383225  nElectrons: 1146.000000
	SubspaceRotationAdjust: set factor to 0.305
ElecMinimize: Iter:  63  F: -7081.800789273904229  |grad|_K:  2.884e-08  alpha:  1.313e-01  linmin: -1.938e-07  t[s]:    992.32
	FillingsUpdate:  mu: -0.108384678  nElectrons: 1146.000000
	SubspaceRotationAdjust: set factor to 0.371
ElecMinimize: Iter:  64  F: -7081.800789288796295  |grad|_K:  2.023e-08  alpha:  1.253e-01  linmin: -4.500e-08  t[s]:   1004.30
	FillingsUpdate:  mu: -0.108385391  nElectrons: 1146.000000
	SubspaceRotationAdjust: set factor to 0.344
ElecMinimize: Iter:  65  F: -7081.800789295885806  |grad|_K:  1.972e-08  alpha:  1.201e-01  linmin:  1.468e-07  t[s]:   1016.23
	FillingsUpdate:  mu: -0.108384655  nElectrons: 1146.000000
	SubspaceRotationAdjust: set factor to 0.329
ElecMinimize: Iter:  66  F: -7081.800789301816621  |grad|_K:  1.612e-08  alpha:  1.079e-01  linmin: -3.921e-07  t[s]:   1028.18
ElecMinimize: Converged (|Delta F|<1.000000e-08 for 2 iters).
Setting wave functions to eigenvectors of Hamiltonian
Vacuum energy after initial minimize, F = -7081.800789301816621


-------- Electronic minimization -----------
	Linear fluid (dielectric constant: 7.2) occupying 0.748948 of unit cell:	Completed after 12 iterations at t[s]:   1030.19
	FillingsUpdate:  mu: -0.121848004  nElectrons: 1146.000000
ElecMinimize: Iter:   0  F: -7081.844978243407240  |grad|_K:  1.886e-05  alpha:  1.000e+00
	Linear fluid (dielectric constant: 7.2) occupying 0.749645 of unit cell:	Completed after 11 iterations at t[s]:   1040.08
	Linear fluid (dielectric constant: 7.2) occupying 0.749010 of unit cell:	Completed after 10 iterations at t[s]:   1043.60
	FillingsUpdate:  mu: -0.123768140  nElectrons: 1146.000000
	SubspaceRotationAdjust: set factor to 0.271
ElecMinimize: Iter:   1  F: -7081.849078647031092  |grad|_K:  9.260e-06  alpha:  7.922e-02  linmin: -4.738e-04  t[s]:   1048.51
	Linear fluid (dielectric constant: 7.2) occupying 0.749101 of unit cell:	Completed after 6 iterations at t[s]:   1052.71
	Linear fluid (dielectric constant: 7.2) occupying 0.749280 of unit cell:	Completed after 7 iterations at t[s]:   1059.55
	FillingsUpdate:  mu: -0.122350390  nElectrons: 1146.000000
	SubspaceRotationAdjust: set factor to 0.27
ElecMinimize: Iter:   2  F: -7081.851965302118515  |grad|_K:  8.721e-06  alpha:  2.359e-01  linmin:  8.145e-05  t[s]:   1064.48
	Linear fluid (dielectric constant: 7.2) occupying 0.749636 of unit cell:	Completed after 8 iterations at t[s]:   1068.75
	Linear fluid (dielectric constant: 7.2) occupying 0.749654 of unit cell:	Completed after 4 iterations at t[s]:   1072.12
	FillingsUpdate:  mu: -0.119893747  nElectrons: 1146.000000
	SubspaceRotationAdjust: set factor to 0.257
ElecMinimize: Iter:   3  F: -7081.854565647076015  |grad|_K:  8.439e-06  alpha:  2.495e-01  linmin:  1.285e-05  t[s]:   1077.06
	Linear fluid (dielectric constant: 7.2) occupying 0.749993 of unit cell:	Completed after 8 iterations at t[s]:   1081.31
	Linear fluid (dielectric constant: 7.2) occupying 0.749857 of unit cell:	Completed after 7 iterations at t[s]:   1084.80
	FillingsUpdate:  mu: -0.119379590  nElectrons: 1146.000000
	SubspaceRotationAdjust: set factor to 0.235
ElecMinimize: Iter:   4  F: -7081.855997876486981  |grad|_K:  5.674e-06  alpha:  1.430e-01  linmin: -8.396e-06  t[s]:   1089.74
	Linear fluid (dielectric constant: 7.2) occupying 0.749955 of unit cell:	Completed after 7 iterations at t[s]:   1094.00
	Linear fluid (dielectric constant: 7.2) occupying 0.750039 of unit cell:	Completed after 6 iterations at t[s]:   1097.39
	FillingsUpdate:  mu: -0.120227480  nElectrons: 1146.000000
	SubspaceRotationAdjust: set factor to 0.24
ElecMinimize: Iter:   5  F: -7081.857231847046933  |grad|_K:  5.935e-06  alpha:  2.701e-01  linmin: -4.027e-06  t[s]:   1102.36
	Linear fluid (dielectric constant: 7.2) occupying 0.750194 of unit cell:	Completed after 8 iterations at t[s]:   1106.70
	Linear fluid (dielectric constant: 7.2) occupying 0.750176 of unit cell:	Completed after 5 iterations at t[s]:   1110.12
	FillingsUpdate:  mu: -0.120246733  nElectrons: 1146.000000
	SubspaceRotationAdjust: set factor to 0.238
ElecMinimize: Iter:   6  F: -7081.858414557544165  |grad|_K:  4.821e-06  alpha:  2.368e-01  linmin: -1.163e-05  t[s]:   1115.06
	Linear fluid (dielectric constant: 7.2) occupying 0.750204 of unit cell:	Completed after 7 iterations at t[s]:   1119.34
	Linear fluid (dielectric constant: 7.2) occupying 0.750194 of unit cell:	Completed after 6 iterations at t[s]:   1122.77
	FillingsUpdate:  mu: -0.119677851  nElectrons: 1146.000000
	SubspaceRotationAdjust: set factor to 0.21
ElecMinimize: Iter:   7  F: -7081.858914333532084  |grad|_K:  3.337e-06  alpha:  1.508e-01  linmin: -1.532e-06  t[s]:   1127.72
	Linear fluid (dielectric constant: 7.2) occupying 0.750169 of unit cell:	Completed after 5 iterations at t[s]:   1132.00
	Linear fluid (dielectric constant: 7.2) occupying 0.750145 of unit cell:	Completed after 5 iterations at t[s]:   1135.39
	FillingsUpdate:  mu: -0.119486601  nElectrons: 1146.000000
	SubspaceRotationAdjust: set factor to 0.207
ElecMinimize: Iter:   8  F: -7081.859372341863491  |grad|_K:  3.467e-06  alpha:  2.908e-01  linmin: -2.739e-06  t[s]:   1140.29
	Linear fluid (dielectric constant: 7.2) occupying 0.750070 of unit cell:	Completed after 6 iterations at t[s]:   1144.56
	Linear fluid (dielectric constant: 7.2) occupying 0.750101 of unit cell:	Completed after 5 iterations at t[s]:   1147.97
	FillingsUpdate:  mu: -0.119810223  nElectrons: 1146.000000
	SubspaceRotationAdjust: set factor to 0.226
ElecMinimize: Iter:   9  F: -7081.859664757121209  |grad|_K:  2.080e-06  alpha:  1.719e-01  linmin:  3.886e-06  t[s]:   1152.92
	Linear fluid (dielectric constant: 7.2) occupying 0.750092 of unit cell:	Completed after 5 iterations at t[s]:   1157.17
	Linear fluid (dielectric constant: 7.2) occupying 0.750085 of unit cell:	Completed after 4 iterations at t[s]:   1160.57
	FillingsUpdate:  mu: -0.119847106  nElectrons: 1146.000000
	SubspaceRotationAdjust: set factor to 0.22
ElecMinimize: Iter:  10  F: -7081.859837193484054  |grad|_K:  2.107e-06  alpha:  2.834e-01  linmin:  1.047e-05  t[s]:   1165.51
	Linear fluid (dielectric constant: 7.2) occupying 0.750057 of unit cell:	Completed after 5 iterations at t[s]:   1169.74
	Linear fluid (dielectric constant: 7.2) occupying 0.750067 of unit cell:	Completed after 4 iterations at t[s]:   1173.12
	FillingsUpdate:  mu: -0.119506117  nElectrons: 1146.000000
	SubspaceRotationAdjust: set factor to 0.207
ElecMinimize: Iter:  11  F: -7081.859957586213568  |grad|_K:  1.591e-06  alpha:  1.934e-01  linmin:  1.049e-05  t[s]:   1178.11
	Linear fluid (dielectric constant: 7.2) occupying 0.750039 of unit cell:	Completed after 4 iterations at t[s]:   1182.30
	Linear fluid (dielectric constant: 7.2) occupying 0.750038 of unit cell:	Completed after 0 iterations at t[s]:   1185.63
	FillingsUpdate:  mu: -0.119295416  nElectrons: 1146.000000
	SubspaceRotationAdjust: set factor to 0.217
ElecMinimize: Iter:  12  F: -7081.860027227669889  |grad|_K:  1.229e-06  alpha:  1.960e-01  linmin:  1.810e-05  t[s]:   1190.51
	Linear fluid (dielectric constant: 7.2) occupying 0.750004 of unit cell:	Completed after 3 iterations at t[s]:   1194.72
	Linear fluid (dielectric constant: 7.2) occupying 0.749990 of unit cell:	Completed after 2 iterations at t[s]:   1198.09
	FillingsUpdate:  mu: -0.119532079  nElectrons: 1146.000000
	SubspaceRotationAdjust: set factor to 0.219
ElecMinimize: Iter:  13  F: -7081.860084727868525  |grad|_K:  1.108e-06  alpha:  2.751e-01  linmin:  3.041e-05  t[s]:   1203.01
	Linear fluid (dielectric constant: 7.2) occupying 0.749939 of unit cell:	Completed after 4 iterations at t[s]:   1207.30
	Linear fluid (dielectric constant: 7.2) occupying 0.749945 of unit cell:	Completed after 1 iterations at t[s]:   1210.60
	FillingsUpdate:  mu: -0.119672310  nElectrons: 1146.000000
	SubspaceRotationAdjust: set factor to 0.225
ElecMinimize: Iter:  14  F: -7081.860126261280129  |grad|_K:  9.563e-07  alpha:  2.456e-01  linmin:  1.903e-05  t[s]:   1215.48
	Linear fluid (dielectric constant: 7.2) occupying 0.749909 of unit cell:	Completed after 4 iterations at t[s]:   1219.70
	Linear fluid (dielectric constant: 7.2) occupying 0.749919 of unit cell:	Completed after 2 iterations at t[s]:   1223.07
	FillingsUpdate:  mu: -0.119630257  nElectrons: 1146.000000
	SubspaceRotationAdjust: set factor to 0.198
ElecMinimize: Iter:  15  F: -7081.860148679519625  |grad|_K:  7.447e-07  alpha:  1.758e-01  linmin:  1.565e-05  t[s]:   1228.00
	Linear fluid (dielectric constant: 7.2) occupying 0.749901 of unit cell:	Completed after 3 iterations at t[s]:   1232.24
	Linear fluid (dielectric constant: 7.2) occupying 0.749890 of unit cell:	Completed after 2 iterations at t[s]:   1235.64
	FillingsUpdate:  mu: -0.119629951  nElectrons: 1146.000000
	SubspaceRotationAdjust: set factor to 0.192
ElecMinimize: Iter:  16  F: -7081.860169902649432  |grad|_K:  6.216e-07  alpha:  2.812e-01  linmin:  3.344e-05  t[s]:   1240.54
	Linear fluid (dielectric constant: 7.2) occupying 0.749863 of unit cell:	Completed after 3 iterations at t[s]:   1244.69
	Linear fluid (dielectric constant: 7.2) occupying 0.749872 of unit cell:	Completed after 1 iterations at t[s]:   1247.99
	FillingsUpdate:  mu: -0.119663492  nElectrons: 1146.000000
	SubspaceRotationAdjust: set factor to 0.195
ElecMinimize: Iter:  17  F: -7081.860179653873274  |grad|_K:  4.708e-07  alpha:  1.855e-01  linmin:  1.401e-05  t[s]:   1252.83
	Linear fluid (dielectric constant: 7.2) occupying 0.749859 of unit cell:	Completed after 2 iterations at t[s]:   1260.23
	Linear fluid (dielectric constant: 7.2) occupying 0.749852 of unit cell:	Completed after 1 iterations at t[s]:   1263.55
	FillingsUpdate:  mu: -0.119712828  nElectrons: 1146.000000
	SubspaceRotationAdjust: set factor to 0.19
ElecMinimize: Iter:  18  F: -7081.860188454956187  |grad|_K:  4.115e-07  alpha:  2.968e-01  linmin:  3.645e-05  t[s]:   1268.47
	Linear fluid (dielectric constant: 7.2) occupying 0.749838 of unit cell:	Completed after 3 iterations at t[s]:   1272.61
	Linear fluid (dielectric constant: 7.2) occupying 0.749843 of unit cell:	Completed after 1 iterations at t[s]:   1276.09
	FillingsUpdate:  mu: -0.119698394  nElectrons: 1146.000000
	SubspaceRotationAdjust: set factor to 0.179
ElecMinimize: Iter:  19  F: -7081.860192505047962  |grad|_K:  2.986e-07  alpha:  1.788e-01  linmin:  1.626e-05  t[s]:   1280.94
	Linear fluid (dielectric constant: 7.2) occupying 0.749840 of unit cell:	Completed after 2 iterations at t[s]:   1285.11
	Linear fluid (dielectric constant: 7.2) occupying 0.749838 of unit cell:	Completed after 1 iterations at t[s]:   1288.42
	FillingsUpdate:  mu: -0.119668959  nElectrons: 1146.000000
	SubspaceRotationAdjust: set factor to 0.172
ElecMinimize: Iter:  20  F: -7081.860195678981654  |grad|_K:  2.618e-07  alpha:  2.731e-01  linmin:  4.458e-05  t[s]:   1293.34
	Linear fluid (dielectric constant: 7.2) occupying 0.749832 of unit cell:	Completed after 2 iterations at t[s]:   1297.50
	Linear fluid (dielectric constant: 7.2) occupying 0.749834 of unit cell:	Completed after 1 iterations at t[s]:   1300.83
	FillingsUpdate:  mu: -0.119701410  nElectrons: 1146.000000
	SubspaceRotationAdjust: set factor to 0.171
ElecMinimize: Iter:  21  F: -7081.860197544950097  |grad|_K:  2.047e-07  alpha:  2.138e-01  linmin:  2.435e-05  t[s]:   1305.77
	Linear fluid (dielectric constant: 7.2) occupying 0.749829 of unit cell:	Completed after 1 iterations at t[s]:   1309.94
	Linear fluid (dielectric constant: 7.2) occupying 0.749828 of unit cell:	Completed after 1 iterations at t[s]:   1313.22
	FillingsUpdate:  mu: -0.119706671  nElectrons: 1146.000000
	SubspaceRotationAdjust: set factor to 0.167
ElecMinimize: Iter:  22  F: -7081.860198937961286  |grad|_K:  1.763e-07  alpha:  2.646e-01  linmin:  4.463e-05  t[s]:   1318.19
	Linear fluid (dielectric constant: 7.2) occupying 0.749823 of unit cell:	Completed after 1 iterations at t[s]:   1322.38
	Linear fluid (dielectric constant: 7.2) occupying 0.749824 of unit cell:	Completed after 1 iterations at t[s]:   1325.67
	FillingsUpdate:  mu: -0.119679745  nElectrons: 1146.000000
	SubspaceRotationAdjust: set factor to 0.166
ElecMinimize: Iter:  23  F: -7081.860199728108455  |grad|_K:  1.348e-07  alpha:  2.058e-01  linmin:  2.422e-05  t[s]:   1330.56
	Linear fluid (dielectric constant: 7.2) occupying 0.749823 of unit cell:	Completed after 1 iterations at t[s]:   1334.71
	Linear fluid (dielectric constant: 7.2) occupying 0.749823 of unit cell:	Completed after 1 iterations at t[s]:   1338.01
	FillingsUpdate:  mu: -0.119685562  nElectrons: 1146.000000
	SubspaceRotationAdjust: set factor to 0.168
ElecMinimize: Iter:  24  F: -7081.860200319572868  |grad|_K:  1.205e-07  alpha:  2.791e-01  linmin:  3.998e-05  t[s]:   1342.92
	Linear fluid (dielectric constant: 7.2) occupying 0.749822 of unit cell:	Completed after 1 iterations at t[s]:   1347.11
	Linear fluid (dielectric constant: 7.2) occupying 0.749822 of unit cell:	Completed after 0 iterations at t[s]:   1350.41
	FillingsUpdate:  mu: -0.119705519  nElectrons: 1146.000000
	SubspaceRotationAdjust: set factor to 0.173
ElecMinimize: Iter:  25  F: -7081.860200679096124  |grad|_K:  9.823e-08  alpha:  2.130e-01  linmin:  2.179e-05  t[s]:   1355.36
	Linear fluid (dielectric constant: 7.2) occupying 0.749823 of unit cell:	Completed after 1 iterations at t[s]:   1359.51
	Linear fluid (dielectric constant: 7.2) occupying 0.749823 of unit cell:	Completed after 0 iterations at t[s]:   1362.78
	FillingsUpdate:  mu: -0.119701259  nElectrons: 1146.000000
	SubspaceRotationAdjust: set factor to 0.183
ElecMinimize: Iter:  26  F: -7081.860200977026579  |grad|_K:  7.926e-08  alpha:  2.705e-01  linmin:  2.511e-05  t[s]:   1367.68
	Linear fluid (dielectric constant: 7.2) occupying 0.749822 of unit cell:	Completed after 1 iterations at t[s]:   1371.85
	Linear fluid (dielectric constant: 7.2) occupying 0.749822 of unit cell:	Completed after 0 iterations at t[s]:   1375.15
	FillingsUpdate:  mu: -0.119694614  nElectrons: 1146.000000
	SubspaceRotationAdjust: set factor to 0.171
ElecMinimize: Iter:  27  F: -7081.860201136061733  |grad|_K:  7.041e-08  alpha:  2.100e-01  linmin:  2.135e-05  t[s]:   1380.05
	Linear fluid (dielectric constant: 7.2) occupying 0.749822 of unit cell:	Completed after 1 iterations at t[s]:   1384.21
	Linear fluid (dielectric constant: 7.2) occupying 0.749822 of unit cell:	Completed after 0 iterations at t[s]:   1387.47
	FillingsUpdate:  mu: -0.119690870  nElectrons: 1146.000000
	SubspaceRotationAdjust: set factor to 0.203
ElecMinimize: Iter:  28  F: -7081.860201292889542  |grad|_K:  5.494e-08  alpha:  2.891e-01  linmin:  1.454e-05  t[s]:   1392.33
	Linear fluid (dielectric constant: 7.2) occupying 0.749823 of unit cell:	Completed after 1 iterations at t[s]:   1396.51
	Linear fluid (dielectric constant: 7.2) occupying 0.749823 of unit cell:	Completed after 0 iterations at t[s]:   1399.79
	FillingsUpdate:  mu: -0.119691161  nElectrons: 1146.000000
	SubspaceRotationAdjust: set factor to 0.195
ElecMinimize: Iter:  29  F: -7081.860201371015137  |grad|_K:  5.562e-08  alpha:  2.125e-01  linmin:  1.258e-05  t[s]:   1404.78
	Linear fluid (dielectric constant: 7.2) occupying 0.749824 of unit cell:	Completed after 1 iterations at t[s]:   1408.96
	Linear fluid (dielectric constant: 7.2) occupying 0.749824 of unit cell:	Completed after 0 iterations at t[s]:   1412.22
	FillingsUpdate:  mu: -0.119695139  nElectrons: 1146.000000
	SubspaceRotationAdjust: set factor to 0.187
ElecMinimize: Iter:  30  F: -7081.860201439337288  |grad|_K:  4.930e-08  alpha:  1.708e-01  linmin:  1.424e-05  t[s]:   1417.17
	Linear fluid (dielectric constant: 7.2) occupying 0.749825 of unit cell:	Completed after 0 iterations at t[s]:   1421.28
	Linear fluid (dielectric constant: 7.2) occupying 0.749825 of unit cell:	Completed after 0 iterations at t[s]:   1424.52
	FillingsUpdate:  mu: -0.119691334  nElectrons: 1146.000000
	SubspaceRotationAdjust: set factor to 0.2
ElecMinimize: Iter:  31  F: -7081.860201490958389  |grad|_K:  3.613e-08  alpha:  2.056e-01  linmin:  6.617e-06  t[s]:   1429.41
	Linear fluid (dielectric constant: 7.2) occupying 0.749825 of unit cell:	Completed after 1 iterations at t[s]:   1433.58
	Linear fluid (dielectric constant: 7.2) occupying 0.749825 of unit cell:	Completed after 0 iterations at t[s]:   1436.83
	FillingsUpdate:  mu: -0.119686167  nElectrons: 1146.000000
	SubspaceRotationAdjust: set factor to 0.209
ElecMinimize: Iter:  32  F: -7081.860201523519208  |grad|_K:  3.702e-08  alpha:  1.982e-01  linmin:  1.777e-06  t[s]:   1441.70
	Linear fluid (dielectric constant: 7.2) occupying 0.749825 of unit cell:	Completed after 0 iterations at t[s]:   1445.84
	Linear fluid (dielectric constant: 7.2) occupying 0.749825 of unit cell:	Completed after 0 iterations at t[s]:   1449.15
	FillingsUpdate:  mu: -0.119690196  nElectrons: 1146.000000
	SubspaceRotationAdjust: set factor to 0.202
ElecMinimize: Iter:  33  F: -7081.860201556621178  |grad|_K:  3.007e-08  alpha:  1.711e-01  linmin:  8.752e-06  t[s]:   1457.14
	Linear fluid (dielectric constant: 7.2) occupying 0.749825 of unit cell:	Completed after 0 iterations at t[s]:   1462.48
	Linear fluid (dielectric constant: 7.2) occupying 0.749825 of unit cell:	Completed after 0 iterations at t[s]:   1465.80
	FillingsUpdate:  mu: -0.119691501  nElectrons: 1146.000000
	SubspaceRotationAdjust: set factor to 0.22
ElecMinimize: Iter:  34  F: -7081.860201573451377  |grad|_K:  2.468e-08  alpha:  1.694e-01  linmin:  2.342e-06  t[s]:   1470.73
	Linear fluid (dielectric constant: 7.2) occupying 0.749826 of unit cell:	Completed after 0 iterations at t[s]:   1474.92
	Linear fluid (dielectric constant: 7.2) occupying 0.749826 of unit cell:	Completed after 0 iterations at t[s]:   1478.24
	FillingsUpdate:  mu: -0.119694562  nElectrons: 1146.000000
	SubspaceRotationAdjust: set factor to 0.262
ElecMinimize: Iter:  35  F: -7081.860201587417578  |grad|_K:  2.046e-08  alpha:  1.729e-01  linmin: -4.171e-06  t[s]:   1483.14
	Linear fluid (dielectric constant: 7.2) occupying 0.749826 of unit cell:	Completed after 0 iterations at t[s]:   1487.29
	Linear fluid (dielectric constant: 7.2) occupying 0.749826 of unit cell:	Completed after 0 iterations at t[s]:   1490.59
	FillingsUpdate:  mu: -0.119688603  nElectrons: 1146.000000
	SubspaceRotationAdjust: set factor to 0.283
ElecMinimize: Iter:  36  F: -7081.860201594919999  |grad|_K:  1.813e-08  alpha:  1.264e-01  linmin: -5.108e-06  t[s]:   1495.49
	Linear fluid (dielectric constant: 7.2) occupying 0.749826 of unit cell:	Completed after 0 iterations at t[s]:   1499.71
	Linear fluid (dielectric constant: 7.2) occupying 0.749826 of unit cell:	Completed after 0 iterations at t[s]:   1503.07
	FillingsUpdate:  mu: -0.119691060  nElectrons: 1146.000000
	SubspaceRotationAdjust: set factor to 0.367
ElecMinimize: Iter:  37  F: -7081.860201598846288  |grad|_K:  1.528e-08  alpha:  9.195e-02  linmin: -1.263e-05  t[s]:   1507.88
ElecMinimize: Converged (|Delta F|<1.000000e-08 for 2 iters).
Setting wave functions to eigenvectors of Hamiltonian
Single-point solvation energy estimate, DeltaF = -0.059412297029667

# Ionic positions in cartesian coordinates:
ion Ni  32.181155145270026   0.000000000000000  10.727052344999988 0
ion Ni   5.363526172499999   0.000000000000000   5.363526172499999 0
ion Ni  32.181155145270026   5.363526172499999   5.363526172499999 0
ion Ni   5.363526172499999   5.363526172499999  10.727052344999988 0
ion Ni  32.181155145270026  10.727052344999999  10.727052344999988 0
ion Ni  32.181155145270026  21.454102800270000  10.727052344999988 0
ion Ni   5.363526172499999  21.454102800270000   5.363526172499999 0
ion Ni   5.363526172499999  10.727052344999999   5.363526172499999 0
ion Ni  32.181155145270026  16.090578517500013   5.363526172499999 0
ion Ni  32.181155145270026  26.817628972769999   5.363526172499999 0
ion Ni   5.363526172499999  26.817628972769999  10.727052344999988 0
ion Ni   5.363526172499999  16.090578517500013  10.727052344999988 0
ion Ni  10.727052344999999   0.000000000000000  10.727052344999988 0
ion Ni  21.454102800270000   0.000000000000000  10.727052344999988 0
ion Ni  21.454102800270000   5.363526172499999   5.363526172499999 0
ion Ni  10.727052344999999   5.363526172499999   5.363526172499999 0
ion Ni  16.090578517500013   5.363526172499999  10.727052344999988 0
ion Ni  26.817628972769999   5.363526172499999  10.727052344999988 0
ion Ni  26.817628972769999   0.000000000000000   5.363526172499999 0
ion Ni  16.090578517500013   0.000000000000000   5.363526172499999 0
ion Ni  10.727052344999999  10.727052344999999  10.727052344999988 0
ion Ni  21.454102800270000  21.454102800270000  10.727052344999988 0
ion Ni  26.817628972769999  21.454102800270000   5.363526172499999 0
ion Ni  16.090578517500013  10.727052344999999   5.363526172499999 0
ion Ni  21.454102800270000  16.090578517500013   5.363526172499999 0
ion Ni  10.727052344999999  26.817628972769999   5.363526172499999 0
ion Ni  16.090578517500013  26.817628972769999  10.727052344999988 0
ion Ni  26.817628972769999  16.090578517500013  10.727052344999988 0
ion Ni  10.727052344999999  21.454102800270000  10.727052344999988 0
ion Ni  21.454102800270000  10.727052344999999  10.727052344999976 0
ion Ni  26.817628972769999  10.727052344999999   5.363526172499999 0
ion Ni  16.090578517500013  21.454102800270000   5.363526172499999 0
ion Ni  21.454102800270000  26.817628972769999   5.363526172499999 0
ion Ni  10.727052344999999  16.090578517500013   5.363526172499999 0
ion Ni  16.090578517500013  16.090578517500013  10.727052344999988 0
ion Ni  26.817628972769999  26.817628972769999  10.727052344999988 0
ion S   4.232241197730000   4.232241197730000   4.232250646379991 0
ion S  27.948915837270000  27.948915837270000   6.494801698619987 0
ion S   1.131284974770000  27.948915837270000   9.595776818879983 0
ion S   9.595765480499999   4.232241197730000   1.131275526120000 0
ion S  27.948915837270000   9.595765480499999   1.131275526120000 0
ion S   4.232241197730000   1.131284974770000   9.595776818879983 0
ion S   9.595765480499999   1.131284974770000   6.494801698619987 0
ion S   1.131284974770000   9.595765480499999   4.232250646379991 0
ion S   4.232241197730000  14.959291652999989   4.232250646379991 0
ion S  27.948915837270000  17.221863492269975   6.494801698619987 0
ion S   1.131284974770000  17.221863492269975   9.595776818879983 0
ion S   9.595765480499999  14.959291652999989   1.131275526120000 0
ion S  27.948915837270000  20.322817825500000   1.131275526120000 0
ion S   4.232241197730000  22.585389664770013   9.595776818879983 0
ion S   9.595765480499999  22.585389664770013   6.494801698619987 0
ion S   1.131284974770000  20.322817825500000   4.232250646379991 0
ion S  14.959291652999989   4.232250646380000   4.232241197729995 0
ion S  17.221863492269975  27.948904498889998   6.494811147269997 0
ion S  17.221863492269975   9.595776818879999   1.131284974770000 0
ion S  14.959291652999989   1.131275526120000   9.595765480499983 0
ion S  20.322817825500000   1.131275526120000   6.494811147269997 0
ion S  22.585389664770013   9.595776818879999   4.232241197729995 0
ion S  22.585389664770013  27.948904498889998   9.595765480499983 0
ion S  20.322817825500000   4.232250646380000   1.131284974770000 0
ion S   4.232241197730000  25.686343997999977   4.232250646379991 0
ion S  27.948915837270000   6.494811147269997   6.494801698619987 0
ion S   1.131284974770000   6.494811147269997   9.595776818879983 0
ion S   9.595765480499999  25.686343997999977   1.131275526120000 0
ion S  27.948915837270000  31.049870170499975   1.131275526120000 0
ion S   4.232241197730000  11.858337319770007   9.595776818879983 0
ion S   9.595765480499999  11.858337319770007   6.494801698619987 0
ion S   1.131284974770000  31.049870170499975   4.232250646379991 0
ion S  25.686343997999977   4.232250646380000   4.232241197729995 0
ion S   6.494811147269997  27.948904498889998   6.494811147269997 0
ion S   6.494811147269997   9.595776818879999   1.131284974770000 0
ion S  25.686343997999977   1.131275526120000   9.595765480499983 0
ion S  31.049870170499975   1.131275526120000   6.494811147269997 0
ion S  11.858337319770007   9.595776818879999   4.232241197729995 0
ion S  11.858337319770007  27.948904498889998   9.595765480499983 0
ion S  31.049870170499975   4.232250646380000   1.131284974770000 0
ion S  14.959291652999989  14.959291652999989   4.232250646379991 0
ion S  17.221863492269975  17.221863492269975   6.494801698619987 0
ion S  22.585389664770013  17.221863492269975   9.595776818879983 0
ion S  20.322817825500000  14.959291652999989   1.131275526120000 0
ion S  17.221863492269975  20.322817825500000   1.131275526120000 0
ion S  14.959291652999989  22.585389664770013   9.595776818879983 0
ion S  20.322817825500000  22.585389664770013   6.494801698619987 0
ion S  22.585389664770013  20.322817825500000   4.232250646379991 0
ion S  14.959291652999989  25.686343997999977   4.232250646379991 0
ion S  17.221863492269975   6.494811147269997   6.494801698619987 0
ion S  22.585389664770013   6.494811147269997   9.595776818879983 0
ion S  20.322817825500000  25.686343997999977   1.131275526120000 0
ion S  17.221863492269975  31.049870170499975   1.131275526120000 0
ion S  14.959291652999989  11.858337319770007   9.595776818879983 0
ion S  20.322817825500000  11.858337319770007   6.494801698619987 0
ion S  22.585389664770013  31.049870170499975   4.232250646379991 0
ion S  25.686343997999977  14.959291652999989   4.232250646379991 0
ion S   6.494811147269997  17.221863492269975   6.494801698619987 0
ion S  11.858337319770007  17.221863492269975   9.595776818879983 0
ion S  31.049870170499975  14.959291652999989   1.131275526120000 0
ion S   6.494811147269997  20.322817825500000   1.131275526120000 0
ion S  25.686343997999977  22.585389664770013   9.595776818879983 0
ion S  31.049870170499975  22.585389664770013   6.494801698619987 0
ion S  11.858337319770007  20.322817825500000   4.232250646379991 0
ion S  25.686343997999977  25.686343997999977   4.232250646379991 0
ion S   6.494811147269997   6.494811147269997   6.494801698619987 0
ion S  11.858337319770007   6.494811147269997   9.595776818879983 0
ion S  31.049870170499975  25.686343997999977   1.131275526120000 0
ion S   6.494811147269997  31.049870170499975   1.131275526120000 0
ion S  25.686343997999977  11.858337319770007   9.595776818879983 0
ion S  31.049870170499975  11.858337319770007   6.494801698619987 0
ion S  11.858337319770007  31.049870170499975   4.232250646379991 0
ion S  21.605261065139420  14.290969564438331  12.714542929758931 1
ion S  18.177216858582714  15.369580808787981  14.320041037825302 1
ion S  17.499745639664393   9.245579302471986  11.820482465210066 1
ion S   8.576809435796495  13.618139637427129  12.664047419893453 1
ion S   5.274128477762765  19.864150555689719  12.580167531711934 1
ion S   8.482821401917922  21.697394566258453  14.066581090882888 1
ion S  17.392604199325287  20.338844229721506  11.851352262999715 1
ion S  10.105422166655464  14.302995477134854  16.198627514873056 1
ion Na  12.801022565740807  18.541976058943632  14.909465051754477 1
ion Na  14.452581637694866  11.586622191888679  15.358047674552784 1

# Forces in Cartesian coordinates:
force Ni   0.023780950603192  -0.011182326839194  -0.039540079245372 0
force Ni  -0.002095139362282  -0.000304951497538  -0.010805492676973 0
force Ni   0.001770300500718  -0.000343779040841  -0.011094123652671 0
force Ni  -0.023335373753999  -0.011889119717981  -0.039556258674196 0
force Ni   0.024172502036838  -0.011272528473340  -0.040264256123096 0
force Ni   0.018467384559380  -0.011875961794106  -0.038378625140855 0
force Ni   0.000733166966683  -0.004946610576986  -0.011355336501760 0
force Ni  -0.003188533738900   0.000456678552529  -0.010652708254742 0
force Ni   0.002440311991899  -0.000094013570174  -0.011075043454026 0
force Ni   0.001498250691300  -0.000141363768712  -0.010996455278786 0
force Ni  -0.019531224830521  -0.006983249359274  -0.035920284759287 0
force Ni  -0.008889430966170  -0.010136349991879  -0.011012155168710 0
force Ni   0.023343849532786  -0.011495964277526  -0.039623703590420 0
force Ni   0.023356814940179  -0.011583284819098  -0.039632894882152 0
force Ni   0.001953067852573   0.000641657427209  -0.010389486258173 0
force Ni   0.002230426612984  -0.000000236388022  -0.010849728608058 0
force Ni  -0.014179047092039   0.000706054799336  -0.032493339875131 0
force Ni  -0.023852368528169  -0.011059336604213  -0.040530739973678 0
force Ni  -0.001984571828900  -0.000276780553645  -0.010861624303139 0
force Ni  -0.002214769294158   0.000698131863637  -0.010959980952760 0
force Ni   0.009519162426536  -0.008425198516169  -0.026919395620707 0
force Ni   0.004757001588332  -0.012815294186207  -0.029563052640203 0
force Ni  -0.002356514204509  -0.000051044586255  -0.011042755303204 0
force Ni  -0.000868387347038  -0.001315391185270  -0.014360243314909 0
force Ni  -0.000842165502621  -0.004326392882478  -0.010584343997136 0
force Ni   0.002144247682111  -0.000197934015181  -0.010870570459248 0
force Ni  -0.021343131596762  -0.004316480746211  -0.038345777792339 0
force Ni  -0.020139233276605  -0.011486090149132  -0.038622757483760 0
force Ni   0.018238824813458  -0.007370544189323  -0.025748574731931 0
force Ni   0.010075035937676  -0.013487221500184  -0.021172882841882 0
force Ni  -0.002750198654741  -0.000297435808816  -0.011153051185953 0
force Ni  -0.000007201532956  -0.002054732266556  -0.013823527214392 0
force Ni   0.001953113380459  -0.000821767836155  -0.011004588293860 0
force Ni   0.001743900449907  -0.000766887591677  -0.009383408228679 0
force Ni  -0.011106797186209   0.007670948527615  -0.012014031101789 0
force Ni  -0.023826972378134  -0.010826930972321  -0.039304310192059 0
force S  -0.004505736286433  -0.004099095593162  -0.003376019983996 0
force S   0.002904882067054   0.000664481411260   0.011387353909284 0
force S  -0.002921069661138   0.006797696187698   0.019300054629436 0
force S  -0.003886463862531   0.008749667774197   0.021280066460591 0
force S   0.004128083432726   0.008535756884840   0.020981448982798 0
force S   0.002381708571018   0.006952739862708   0.019025237510128 0
force S  -0.002841061864442   0.000624389246711   0.011472786939202 0
force S   0.004452308493686  -0.004288672716323  -0.003396607790974 0
force S  -0.004427102000991  -0.004043586161210  -0.003997989520204 0
force S   0.004233101670978   0.000131997418311   0.011018322119695 0
force S  -0.009265113003816   0.001550796693434   0.012927395786196 0
force S  -0.004025305701999   0.008591265668739   0.020704334038602 0
force S   0.003826598252655   0.008499128764620   0.020917623709268 0
force S  -0.007548186079717   0.008621591791058   0.012481981053746 0
force S   0.000167996395695   0.000369343275664   0.010007634044105 0
force S   0.003682081425745  -0.003801821896446  -0.003032892914294 0
force S  -0.004097130257540  -0.004280311514375  -0.005480835920979 0
force S   0.003284453720735   0.000647462166787   0.011851848136879 0
force S   0.004505105890881   0.007778402269982   0.020732123511729 0
force S   0.003487216645696   0.008854958035730   0.019048180055508 0
force S  -0.003186968409013   0.000590517733702   0.011709740039609 0
force S   0.004363733646496  -0.004044416952032  -0.004562560861344 0
force S  -0.002336218676914   0.007109063313873   0.018920949863983 0
force S  -0.004038025634387   0.008427325041206   0.021134947502628 0
force S  -0.004656080911968  -0.006562964087980  -0.000117375527696 0
force S   0.003541961404408   0.000794454095802   0.011676825565412 0
force S  -0.002742280196395   0.007001116220006   0.019018009860398 0
force S  -0.003839852745583   0.008563765431530   0.020801122743877 0
force S   0.003796378446064   0.008470658409721   0.021088881710772 0
force S  -0.008649574158006   0.002033563236543   0.009074104665521 0
force S  -0.001745867147022  -0.001186168450877   0.006745796622973 0
force S   0.004342554720621  -0.003901324845010  -0.003423205437934 0
force S  -0.004334550239267  -0.004117793334462  -0.003703551590834 0
force S   0.003518101789982   0.001299640036095   0.012912059797653 0
force S   0.004286085168264   0.008185741612209   0.020825523450560 0
force S   0.002468142463852   0.007080731149839   0.019121867253237 0
force S  -0.003042078013794   0.000854987952035   0.011572775770146 0
force S   0.004799837734185  -0.004462790949573  -0.004882620731242 0
force S  -0.002357628380806   0.007787207880764   0.018201042089101 0
force S  -0.003861291770902   0.008544470193955   0.021197493402116 0
force S  -0.004966556644518  -0.004869607166044  -0.004223896542302 0
force S  -0.000555015289011  -0.001783803302106   0.005296749549092 0
force S   0.011092856811272   0.003957689104469   0.015226280973545 0
force S  -0.004294184958695   0.008159765829814   0.020204167443001 0
force S   0.004454296533003   0.008344448326852   0.019720145389318 0
force S   0.004236984551279   0.009267865039669   0.011544719427543 0
force S  -0.000303655369449   0.003872900249774   0.007168231610153 0
force S   0.004697645655201  -0.006308775711860  -0.001002349128408 0
force S  -0.004634609934303  -0.004753351518510  -0.002269464934569 0
force S  -0.000156634019227  -0.004222570777348   0.003154082575183 0
force S   0.005619857810299   0.001323851212774   0.015075716358334 0
force S  -0.003945903605759   0.008407792236710   0.021178149314609 0
force S   0.004117361397273   0.008650151065563   0.021020296955450 0
force S   0.006149583004828  -0.002573596928795   0.014568437488819 0
force S  -0.000792004997475   0.000865494188041   0.000588454589315 0
force S   0.004391091273810  -0.004055509751201  -0.003470832436848 0
force S  -0.003790685079208  -0.003631030767294  -0.002846590449978 0
force S   0.002273300438794  -0.000711535352338   0.005188309721769 0
force S   0.003542130054469   0.008241812373178   0.002952751755407 0
force S  -0.003788359981293   0.008522541050635   0.021057334638572 0
force S   0.004284535375297   0.007793918085927   0.019825568753836 0
force S   0.001833213196895   0.005755914007970   0.019152136387021 0
force S  -0.003727940351656   0.000135761582369   0.010879726237556 0
force S   0.004785518857294  -0.004748728503679  -0.004822454426089 0
force S  -0.004218912030246  -0.003595055577911  -0.003381911847338 0
force S   0.003394934149461   0.000638084173140   0.011783185972264 0
force S  -0.006730284532773   0.005602995945913   0.014551798137274 0
force S  -0.003822263439064   0.008439835004094   0.021060997907870 0
force S   0.003904913299562   0.008545006051381   0.020899388120910 0
force S   0.008198362507491   0.000557569376929   0.014224736233905 0
force S  -0.003536278945302   0.000856050246685   0.011861674272302 0
force S   0.004263171317442  -0.004044974589376  -0.003412857858727 0
force S  -0.002702033269191   0.001045746643313   0.000420245264849 1
force S   0.003532079166435   0.000303595806904  -0.003455026655343 1
force S   0.000298986916841   0.001129600652891  -0.002839829505572 1
force S   0.001318755683255   0.001681058837876   0.003211161993731 1
force S   0.001295713553074   0.000989569190521   0.000199002527526 1
force S  -0.001986640607303  -0.000849432770113  -0.001459496261213 1
force S   0.000461641653219  -0.000346574988246  -0.001668351099305 1
force S  -0.004994986475055  -0.000578705854673  -0.006773952119143 1
force Na   0.001387636771400   0.001927940641418   0.005601264013234 1
force Na   0.000866498089657  -0.003514344102641   0.007171896821967 1

# Energy components:
   A_diel =       -0.0830670401913331
   Eewald =    34889.7022918952352484
       EH =    41136.0700804022417287
     Eloc =   -84346.5369258649152471
      Enl =      919.1223449290375811
      Exc =     -987.3133643531756434
 Exc_core =      155.8555050031059181
       KE =     1152.3235115335651244
-------------------------------------
     Etot =    -7080.8596234950982762
       TS =        1.0005781037475883
-------------------------------------
        F =    -7081.8602015988462881

IonicMinimize: Iter:   0  F: -7081.860201598846288  |grad|_K:  2.844e-03  alpha:  1.000e+00

#--- Lowdin population analysis ---
# oxidation-state Ni +0.018 -0.448 -0.449 +0.027 +0.021 -0.009 -0.462 -0.452 -0.450 -0.452 +0.015 -0.406 +0.019 +0.019 -0.451 -0.450 -0.225 +0.017 -0.448 -0.447 -0.341 -0.202 -0.451 -0.462 -0.464 -0.451 +0.015 -0.011 -0.393 -0.457 -0.451 -0.466 -0.449 -0.456 -0.468 +0.019
# oxidation-state S +0.316 +0.445 +0.071 -0.040 -0.041 +0.089 +0.445 +0.318 +0.317 +0.435 +0.093 -0.040 -0.042 +0.324 +0.425 +0.314 +0.318 +0.440 -0.041 +0.090 +0.445 +0.317 +0.090 -0.040 +0.308 +0.447 +0.086 -0.042 -0.041 +0.132 +0.443 +0.316 +0.317 +0.440 -0.042 +0.088 +0.444 +0.316 +0.078 -0.041 +0.302 +0.442 +0.300 -0.040 -0.044 +0.377 +0.443 +0.312 +0.305 +0.459 +0.113 -0.043 -0.041 +0.350 +0.447 +0.316 +0.313 +0.448 +0.112 -0.042 -0.042 +0.075 +0.434 +0.312 +0.316 +0.445 +0.089 -0.042 -0.044 +0.099 +0.446 +0.317 +0.385 -0.082 +0.154 +0.407 +0.380 -0.023 +0.165 -0.423
# oxidation-state Na +0.762 +0.783


-------- Electronic minimization -----------
	Linear fluid (dielectric constant: 7.2) occupying 0.749836 of unit cell:	Completed after 4 iterations at t[s]:   1524.46
	FillingsUpdate:  mu: -0.119603938  nElectrons: 1146.000000
ElecMinimize: Iter:   0  F: -7081.860402469576911  |grad|_K:  6.223e-07  alpha:  1.000e+00
	Linear fluid (dielectric constant: 7.2) occupying 0.749834 of unit cell:	Completed after 6 iterations at t[s]:   1534.20
	Linear fluid (dielectric constant: 7.2) occupying 0.749836 of unit cell:	Completed after 5 iterations at t[s]:   1537.71
	FillingsUpdate:  mu: -0.119573042  nElectrons: 1146.000000
	SubspaceRotationAdjust: set factor to 0.257
ElecMinimize: Iter:   1  F: -7081.860408460009239  |grad|_K:  5.728e-07  alpha:  1.095e-01  linmin:  2.185e-05  t[s]:   1542.56
	Linear fluid (dielectric constant: 7.2) occupying 0.749835 of unit cell:	Completed after 2 iterations at t[s]:   1546.73
	Linear fluid (dielectric constant: 7.2) occupying 0.749835 of unit cell:	Completed after 2 iterations at t[s]:   1550.07
	FillingsUpdate:  mu: -0.119608407  nElectrons: 1146.000000
[...]
ElecMinimize: 	Step failed to reduce F after 3 attempts. Quitting step.
ElecMinimize: 	Undoing step.
	Linear fluid (dielectric constant: 7.2) occupying 0.749313 of unit cell:	Completed after 0 iterations at t[s]:  33167.14
ElecMinimize: 	Step failed: resetting search direction.
	FillingsUpdate:  mu: -0.113340597  nElectrons: 1146.000000
	SubspaceRotationAdjust: set factor to 0.252
ElecMinimize: Iter:   4  F: -7081.871931358138681  |grad|_K:  1.096e-08  alpha:  1.410e-04
	Linear fluid (dielectric constant: 7.2) occupying 0.749313 of unit cell:	Completed after 0 iterations at t[s]:  33175.97
	Linear fluid (dielectric constant: 7.2) occupying 0.749313 of unit cell:	Completed after 0 iterations at t[s]:  33179.20
	FillingsUpdate:  mu: -0.113339833  nElectrons: 1146.000000
	SubspaceRotationAdjust: set factor to 0.261
ElecMinimize: Iter:   5  F: -7081.871931361145471  |grad|_K:  6.292e-09  alpha:  2.149e-01  linmin: -7.680e-03  t[s]:  33183.97
	Linear fluid (dielectric constant: 7.2) occupying 0.749313 of unit cell:	Completed after 0 iterations at t[s]:  33188.05
	Linear fluid (dielectric constant: 7.2) occupying 0.749313 of unit cell:	Completed after 0 iterations at t[s]:  33191.29
	FillingsUpdate:  mu: -0.113340010  nElectrons: 1146.000000
	SubspaceRotationAdjust: set factor to 0.287
ElecMinimize: Iter:   6  F: -7081.871931361653878  |grad|_K:  1.099e-08  alpha:  6.244e-01  linmin:  3.158e-03  t[s]:  33196.07
ElecMinimize: Converged (|Delta F|<1.000000e-08 for 2 iters).
Setting wave functions to eigenvectors of Hamiltonian

# Ionic positions in cartesian coordinates:
ion Ni  32.181155145270026   0.000000000000000  10.727052344999988 0
ion Ni   5.363526172499999   0.000000000000000   5.363526172499999 0
ion Ni  32.181155145270026   5.363526172499999   5.363526172499999 0
ion Ni   5.363526172499999   5.363526172499999  10.727052344999988 0
ion Ni  32.181155145270026  10.727052344999999  10.727052344999988 0
ion Ni  32.181155145270026  21.454102800270000  10.727052344999988 0
ion Ni   5.363526172499999  21.454102800270000   5.363526172499999 0
ion Ni   5.363526172499999  10.727052344999999   5.363526172499999 0
ion Ni  32.181155145270026  16.090578517500013   5.363526172499999 0
ion Ni  32.181155145270026  26.817628972769999   5.363526172499999 0
ion Ni   5.363526172499999  26.817628972769999  10.727052344999988 0
ion Ni   5.363526172499999  16.090578517500013  10.727052344999988 0
ion Ni  10.727052344999999   0.000000000000000  10.727052344999988 0
ion Ni  21.454102800270000   0.000000000000000  10.727052344999988 0
ion Ni  21.454102800270000   5.363526172499999   5.363526172499999 0
ion Ni  10.727052344999999   5.363526172499999   5.363526172499999 0
ion Ni  16.090578517500013   5.363526172499999  10.727052344999988 0
ion Ni  26.817628972769999   5.363526172499999  10.727052344999988 0
ion Ni  26.817628972769999   0.000000000000000   5.363526172499999 0
ion Ni  16.090578517500013   0.000000000000000   5.363526172499999 0
ion Ni  10.727052344999999  10.727052344999999  10.727052344999988 0
ion Ni  21.454102800270000  21.454102800270000  10.727052344999988 0
ion Ni  26.817628972769999  21.454102800270000   5.363526172499999 0
ion Ni  16.090578517500013  10.727052344999999   5.363526172499999 0
ion Ni  21.454102800270000  16.090578517500013   5.363526172499999 0
ion Ni  10.727052344999999  26.817628972769999   5.363526172499999 0
ion Ni  16.090578517500013  26.817628972769999  10.727052344999988 0
ion Ni  26.817628972769999  16.090578517500013  10.727052344999988 0
ion Ni  10.727052344999999  21.454102800270000  10.727052344999988 0
ion Ni  21.454102800270000  10.727052344999999  10.727052344999976 0
ion Ni  26.817628972769999  10.727052344999999   5.363526172499999 0
ion Ni  16.090578517500013  21.454102800270000   5.363526172499999 0
ion Ni  21.454102800270000  26.817628972769999   5.363526172499999 0
ion Ni  10.727052344999999  16.090578517500013   5.363526172499999 0
ion Ni  16.090578517500013  16.090578517500013  10.727052344999988 0
ion Ni  26.817628972769999  26.817628972769999  10.727052344999988 0
ion S   4.232241197730000   4.232241197730000   4.232250646379991 0
ion S  27.948915837270000  27.948915837270000   6.494801698619987 0
ion S   1.131284974770000  27.948915837270000   9.595776818879983 0
ion S   9.595765480499999   4.232241197730000   1.131275526120000 0
ion S  27.948915837270000   9.595765480499999   1.131275526120000 0
ion S   4.232241197730000   1.131284974770000   9.595776818879983 0
ion S   9.595765480499999   1.131284974770000   6.494801698619987 0
ion S   1.131284974770000   9.595765480499999   4.232250646379991 0
ion S   4.232241197730000  14.959291652999989   4.232250646379991 0
ion S  27.948915837270000  17.221863492269975   6.494801698619987 0
ion S   1.131284974770000  17.221863492269975   9.595776818879983 0
ion S   9.595765480499999  14.959291652999989   1.131275526120000 0
ion S  27.948915837270000  20.322817825500000   1.131275526120000 0
ion S   4.232241197730000  22.585389664770013   9.595776818879983 0
ion S   9.595765480499999  22.585389664770013   6.494801698619987 0
ion S   1.131284974770000  20.322817825500000   4.232250646379991 0
ion S  14.959291652999989   4.232250646380000   4.232241197729995 0
ion S  17.221863492269975  27.948904498889998   6.494811147269997 0
ion S  17.221863492269975   9.595776818879999   1.131284974770000 0
ion S  14.959291652999989   1.131275526120000   9.595765480499983 0
ion S  20.322817825500000   1.131275526120000   6.494811147269997 0
ion S  22.585389664770013   9.595776818879999   4.232241197729995 0
ion S  22.585389664770013  27.948904498889998   9.595765480499983 0
ion S  20.322817825500000   4.232250646380000   1.131284974770000 0
ion S   4.232241197730000  25.686343997999977   4.232250646379991 0
ion S  27.948915837270000   6.494811147269997   6.494801698619987 0
ion S   1.131284974770000   6.494811147269997   9.595776818879983 0
ion S   9.595765480499999  25.686343997999977   1.131275526120000 0
ion S  27.948915837270000  31.049870170499975   1.131275526120000 0
ion S   4.232241197730000  11.858337319770007   9.595776818879983 0
ion S   9.595765480499999  11.858337319770007   6.494801698619987 0
ion S   1.131284974770000  31.049870170499975   4.232250646379991 0
ion S  25.686343997999977   4.232250646380000   4.232241197729995 0
ion S   6.494811147269997  27.948904498889998   6.494811147269997 0
ion S   6.494811147269997   9.595776818879999   1.131284974770000 0
ion S  25.686343997999977   1.131275526120000   9.595765480499983 0
ion S  31.049870170499975   1.131275526120000   6.494811147269997 0
ion S  11.858337319770007   9.595776818879999   4.232241197729995 0
ion S  11.858337319770007  27.948904498889998   9.595765480499983 0
ion S  31.049870170499975   4.232250646380000   1.131284974770000 0
ion S  14.959291652999989  14.959291652999989   4.232250646379991 0
ion S  17.221863492269975  17.221863492269975   6.494801698619987 0
ion S  22.585389664770013  17.221863492269975   9.595776818879983 0
ion S  20.322817825500000  14.959291652999989   1.131275526120000 0
ion S  17.221863492269975  20.322817825500000   1.131275526120000 0
ion S  14.959291652999989  22.585389664770013   9.595776818879983 0
ion S  20.322817825500000  22.585389664770013   6.494801698619987 0
ion S  22.585389664770013  20.322817825500000   4.232250646379991 0
ion S  14.959291652999989  25.686343997999977   4.232250646379991 0
ion S  17.221863492269975   6.494811147269997   6.494801698619987 0
ion S  22.585389664770013   6.494811147269997   9.595776818879983 0
ion S  20.322817825500000  25.686343997999977   1.131275526120000 0
ion S  17.221863492269975  31.049870170499975   1.131275526120000 0
ion S  14.959291652999989  11.858337319770007   9.595776818879983 0
ion S  20.322817825500000  11.858337319770007   6.494801698619987 0
ion S  22.585389664770013  31.049870170499975   4.232250646379991 0
ion S  25.686343997999977  14.959291652999989   4.232250646379991 0
ion S   6.494811147269997  17.221863492269975   6.494801698619987 0
ion S  11.858337319770007  17.221863492269975   9.595776818879983 0
ion S  31.049870170499975  14.959291652999989   1.131275526120000 0
ion S   6.494811147269997  20.322817825500000   1.131275526120000 0
ion S  25.686343997999977  22.585389664770013   9.595776818879983 0
ion S  31.049870170499975  22.585389664770013   6.494801698619987 0
ion S  11.858337319770007  20.322817825500000   4.232250646379991 0
ion S  25.686343997999977  25.686343997999977   4.232250646379991 0
ion S   6.494811147269997   6.494811147269997   6.494801698619987 0
ion S  11.858337319770007   6.494811147269997   9.595776818879983 0
ion S  31.049870170499975  25.686343997999977   1.131275526120000 0
ion S   6.494811147269997  31.049870170499975   1.131275526120000 0
ion S  25.686343997999977  11.858337319770007   9.595776818879983 0
ion S  31.049870170499975  11.858337319770007   6.494801698619987 0
ion S  11.858337319770007  31.049870170499975   4.232250646379991 0
ion S  21.587129409978722  14.279827408423897  12.733151285128004 1
ion S  18.156943525202788  15.317938361721597  14.277155048544882 1
ion S  17.428108615322358   9.309488603448996  11.815486405734754 1
ion S   9.251104862829592  14.393460812099548  11.994574060659575 1
ion S   5.236538813571126  19.869805157450109  12.591316002923943 1
ion S   8.437744501373594  21.731970341445756  14.028255008333941 1
ion S  17.391577951171403  20.305827017096039  11.832267634736757 1
ion S  10.542094621490655  14.634207616472034  15.596880074272262 1
ion Na  13.199660975621580  19.423287482746264  15.962237189978863 1
ion Na  15.102684877253624  11.052952622627421  16.568401623750070 1

# Forces in Cartesian coordinates:
force Ni   0.023691629745525  -0.011233903317975  -0.039752770182951 0
force Ni  -0.002036212116798  -0.000311893300732  -0.010915694517692 0
force Ni   0.001697906950573  -0.000339723417289  -0.011211238693370 0
force Ni  -0.023161675518556  -0.011503456126309  -0.039857441281509 0
force Ni   0.024250207536278  -0.011362641313341  -0.040457817160924 0
force Ni   0.018609621579420  -0.011775848499087  -0.038521767224431 0
force Ni   0.000673509862923  -0.004932074268858  -0.011337331966560 0
force Ni  -0.002607264390889   0.000324188231602  -0.010789705806003 0
force Ni   0.002612295354275  -0.000244358204408  -0.011201996384548 0
force Ni   0.001427072101366  -0.000168335420758  -0.011071430529727 0
force Ni  -0.019459357243848  -0.007300139813318  -0.035937271027619 0
force Ni  -0.009331803056988  -0.006206650138741  -0.014548609055767 0
force Ni   0.023267934645586  -0.011559427336635  -0.039898143703207 0
force Ni   0.023329550311006  -0.011613644849792  -0.039882768448317 0
force Ni   0.001960555466662   0.000548878092573  -0.010508254837712 0
force Ni   0.001803038214779   0.000270374531733  -0.010940511928134 0
force Ni  -0.014655385234583   0.001917216485703  -0.032533981224335 0
force Ni  -0.023826004846598  -0.011118000052668  -0.040738246072896 0
force Ni  -0.001921035702072  -0.000324214903824  -0.010956753105648 0
force Ni  -0.002106364757976   0.000649470751140  -0.011079092053552 0
force Ni   0.010455416110991  -0.006238798855119  -0.030330379965733 0
force Ni   0.005033196860869  -0.013238927812709  -0.029834219069628 0
force Ni  -0.002285993702567  -0.000108770322919  -0.011161770804841 0
force Ni  -0.000610234794374  -0.001446005962568  -0.013797472991318 0
force Ni  -0.000328961402547  -0.004458539412342  -0.010375112445757 0
force Ni   0.002097560753457  -0.000149821773442  -0.010887571545908 0
force Ni  -0.021415574403749  -0.003918889452579  -0.038621738557894 0
force Ni  -0.020250429041333  -0.011490161186446  -0.038859585049798 0
force Ni   0.018684817036802  -0.007193517295040  -0.022338067904976 0
force Ni   0.009248492803029  -0.013079049419981  -0.021114153393796 0
force Ni  -0.002636151824565  -0.000287799863226  -0.011135709630809 0
force Ni   0.000248706980864  -0.001798727604728  -0.014091186378509 0
force Ni   0.001890711116605  -0.000861515095394  -0.011150492647875 0
force Ni   0.000114822470544  -0.002306455661372  -0.010398679693572 0
force Ni  -0.010126646532909   0.007662768260329  -0.012370340348398 0
force Ni  -0.023769499982069  -0.010876522703711  -0.039531081764686 0
force S  -0.004537355160280  -0.004158053244299  -0.003381768733761 0
force S   0.002930255595171   0.000722290131555   0.011255482102688 0
force S  -0.002910317438980   0.006799797207437   0.019743775967796 0
force S  -0.003792368514209   0.008692462215991   0.021238160680419 0
force S   0.004030170792231   0.008531404524648   0.020866366541771 0
force S   0.002458081869995   0.007026640843419   0.019510591145016 0
force S  -0.002916370908602   0.000663271828147   0.011325878306719 0
force S   0.004146876045294  -0.004260675839883  -0.003419673098506 0
force S  -0.004535290805249  -0.003992130120547  -0.004351951799089 0
force S   0.004206636906780   0.000215033508046   0.010869848082479 0
force S  -0.008964695531250   0.000838455138186   0.013796952790194 0
force S  -0.003852667628946   0.008517971664746   0.020639832549994 0
force S   0.003791394842459   0.008487023387561   0.020825938949537 0
force S  -0.008503288446327   0.009136573064710   0.011466408596948 0
force S   0.000030539199147   0.000505832727623   0.010338832778226 0
force S   0.003647929120069  -0.003775315210484  -0.003037908280683 0
force S  -0.004033841403056  -0.004274629311225  -0.005417509571683 0
force S   0.003318092807259   0.000687356680431   0.011619038423692 0
force S   0.004373935866300   0.007848626448732   0.020669310420850 0
force S   0.003682555610890   0.008974326021909   0.019566682445383 0
force S  -0.003200584401175   0.000662150186916   0.011585437251788 0
force S   0.004392725523868  -0.004076746989707  -0.004560038879043 0
force S  -0.002404334408246   0.007122667058515   0.019458880491079 0
force S  -0.003971796601907   0.008422256146131   0.021023436975092 0
force S  -0.004658775019777  -0.006634974142106   0.000033704689637 0
force S   0.003556520108738   0.000840326016967   0.011509835915745 0
force S  -0.002721576595177   0.007027700874755   0.019574945826153 0
force S  -0.003907752499144   0.008651321723689   0.020580029524846 0
force S   0.003774955668600   0.008445578331373   0.020978020815454 0
force S  -0.005721665414193   0.002183720408308   0.014257719483037 0
force S  -0.002189865892159  -0.003762938789908   0.003682008265211 0
force S   0.004379146780140  -0.003894336669757  -0.003396366230910 0
force S  -0.004337881977146  -0.004108431727583  -0.003679365307053 0
force S   0.003554035463954   0.001367997008054   0.012823751431590 0
force S   0.004066187015836   0.008159115556229   0.020914385597813 0
force S   0.002489364416570   0.007073383896991   0.019628844454055 0
force S  -0.003076104617703   0.000918952112838   0.011458057893014 0
force S   0.005133291848795  -0.004521361694054  -0.004924221198939 0
force S  -0.002234334908775   0.007890822635870   0.018717146080531 0
force S  -0.003831665104421   0.008506263950965   0.021076232163021 0
force S  -0.004985766702080  -0.005036315461520  -0.004429818102128 0
force S  -0.001365103639116  -0.001768673944804   0.005423747699907 0
force S   0.011336303794641   0.004300262481758   0.015098012486663 0
force S  -0.004300174935825   0.008120489410941   0.020063180486390 0
force S   0.004408243057846   0.008342200403903   0.019665376297759 0
force S   0.003784207881614   0.008324169930510   0.011786290986370 0
force S  -0.000182154799228   0.003887042209658   0.006932443256056 0
force S   0.004685342554696  -0.006123445906302  -0.000919591749800 0
force S  -0.004608045134636  -0.004645313765380  -0.002249469046899 0
force S   0.000074341569902  -0.004105042849352   0.003287613642420 0
force S   0.004986487127156   0.001668940894115   0.015497336361910 0
force S  -0.003913581876116   0.008378507677493   0.021061575546679 0
force S   0.004078084176297   0.008650424345769   0.020887078389952 0
force S   0.008186703944746  -0.002875651107861   0.014125169052473 0
force S  -0.000886825776348   0.000689250550817   0.000821010498191 0
force S   0.004413797554065  -0.004056370859931  -0.003435989079738 0
force S  -0.003779048400521  -0.003622077980788  -0.002788433930642 0
force S   0.001488496257072   0.000337156107703   0.003103566744676 0
force S   0.001243217402564   0.004691728943979   0.006623572461182 0
force S  -0.003727078046804   0.008511018338653   0.020962650408536 0
force S   0.004238123268106   0.007822124108173   0.019774594101804 0
force S   0.001778919635518   0.005767115151159   0.019629671952989 0
force S  -0.003824779370725   0.000131243987975   0.010768262722725 0
force S   0.005161041852603  -0.004689349112223  -0.004036766104542 0
force S  -0.004223143463217  -0.003574425723190  -0.003343956546491 0
force S   0.003272391753716   0.000660602776273   0.011637648909461 0
force S  -0.007760642907760   0.006320552352268   0.016157579354899 0
force S  -0.003784169590445   0.008442025206642   0.020943462508139 0
force S   0.003880698133519   0.008510162733874   0.020809159158141 0
force S   0.008200390205358   0.000557432094362   0.014465065549068 0
force S  -0.003549013732908   0.000831203734349   0.011500079266240 0
force S   0.004277676735758  -0.004057493065464  -0.003393284902070 0
force S   0.000026307287218   0.000236182693450  -0.000086324527631 1
force S  -0.000077344691430  -0.000275163112613   0.000220978140567 1
force S   0.000035452344734   0.000198246914810   0.000224747962120 1
force S   0.000166478958386   0.000358577941369   0.000406327038495 1
force S   0.000343186759211  -0.000225197357303   0.000065467953899 1
force S   0.000349545528678  -0.000054675459474   0.000123792270798 1
force S  -0.000209201319085   0.000019456387702  -0.000024091926592 1
force S   0.000059146769389  -0.000067129071686   0.000069453104430 1
force Na  -0.000213091186915  -0.000396761445861  -0.000061689737062 1
force Na  -0.000165292085891   0.000352394941662   0.000211605640715 1

# Energy components:
   A_diel =       -0.1254644099199639
   Eewald =    34816.3492738096465473
       EH =    41072.7440056953200838
     Eloc =   -84209.8866043956804788
      Enl =      919.1160070576154340
      Exc =     -987.3545808202238732
 Exc_core =      155.8555053404487296
       KE =     1152.4238930189944767
-------------------------------------
     Etot =    -7080.8779647037954419
       TS =        0.9939666578585482
-------------------------------------
        F =    -7081.8719313616538784

IonicMinimize: Iter:  55  F: -7081.871931361653878  |grad|_K:  2.145e-04  alpha: -7.082e-01  linmin: -1.410e-03  t[s]:  33200.23
IonicMinimize: Converged (|Delta F|<1.000000e-06 for 2 iters).

#--- Lowdin population analysis ---
# oxidation-state Ni +0.007 -0.448 -0.449 +0.009 +0.010 -0.021 -0.462 -0.450 -0.450 -0.452 +0.005 -0.432 +0.005 +0.007 -0.451 -0.449 -0.229 +0.006 -0.448 -0.447 -0.288 -0.209 -0.450 -0.466 -0.462 -0.451 +0.000 -0.020 -0.395 -0.457 -0.451 -0.469 -0.448 -0.468 -0.453 +0.008
# oxidation-state S +0.315 +0.444 +0.069 -0.045 -0.045 +0.087 +0.444 +0.317 +0.316 +0.434 +0.091 -0.045 -0.047 +0.324 +0.423 +0.313 +0.317 +0.440 -0.046 +0.087 +0.445 +0.317 +0.087 -0.045 +0.308 +0.447 +0.085 -0.048 -0.046 +0.106 +0.436 +0.315 +0.316 +0.440 -0.047 +0.085 +0.444 +0.316 +0.075 -0.046 +0.299 +0.432 +0.295 -0.046 -0.048 +0.364 +0.443 +0.312 +0.305 +0.457 +0.108 -0.048 -0.046 +0.375 +0.446 +0.315 +0.313 +0.442 +0.254 -0.046 -0.047 +0.073 +0.434 +0.303 +0.315 +0.445 +0.083 -0.047 -0.049 +0.097 +0.446 +0.317 +0.374 -0.068 +0.149 +0.565 +0.374 -0.041 +0.157 -0.414
# oxidation-state Na +0.817 +0.849


Dumping 'Na2S8@NiS2-glyme.fillings' ... done
Dumping 'Na2S8@NiS2-glyme.wfns' ... done
Dumping 'Na2S8@NiS2-glyme.fluidState' ... done
Dumping 'Na2S8@NiS2-glyme.ionpos' ... done
Dumping 'Na2S8@NiS2-glyme.eigenvals' ... done
End date and time: Tue Oct 29 02:46:01 2024  (Duration: 0-9:13:28.45)
Done!
