
*************** JDFTx 1.7.0  ***************

Start date and time: Tue Oct  1 05:22:44 2024
Executable jdftx_gpu with command-line: -i /home/akim2/JDFTx/Na2S6@NiS2/Na2S6@NiS2.in -o /home/akim2/JDFTx/Na2S6@NiS2/Na2S6@NiS2.out
Running on hosts (process indices):  exp-2-59 (0)
Divided in process groups (process indices):  0 (0)
gpuInit: Found compatible cuda device 0 'Tesla V100-SXM2-32GB'
gpuInit: Selected device 0
Resource initialization completed at t[s]:      0.39
Run totals: 1 processes, 1 threads, 1 GPUs


Input parsed successfully to the following command list (including defaults):

basis kpoint-dependent
coords-type Cartesian
core-overlap-check vector
coulomb-interaction Slab 001
coulomb-truncation-embed 0 0 10
davidson-band-ratio 1.1
dump End State
dump Ionic State
dump-interval Ionic 5
dump-name Na2S6@NiS2.$VAR
elec-cutoff 20 100
elec-eigen-algo Davidson
elec-ex-corr gga-PBE
elec-smearing Fermi 0.01
electronic-minimize  \
	dirUpdateScheme      FletcherReeves \
	linminMethod         DirUpdateRecommended \
	nIterations          100 \
	history              15 \
	knormThreshold       0 \
	energyDiffThreshold  1e-08 \
	nEnergyDiff          2 \
	alphaTstart          1 \
	alphaTmin            1e-10 \
	updateTestStepSize   yes \
	alphaTreduceFactor   0.1 \
	alphaTincreaseFactor 3 \
	nAlphaAdjustMax      3 \
	wolfeEnergy          0.0001 \
	wolfeGradient        0.9 \
	fdTest               no
exchange-regularization WignerSeitzTruncated
fluid None
fluid-ex-corr lda-TF lda-PZ
fluid-gummel-loop 10 1.000000e-05
fluid-minimize  \
	dirUpdateScheme      PolakRibiere \
	linminMethod         DirUpdateRecommended \
	nIterations          100 \
	history              15 \
	knormThreshold       0 \
	energyDiffThreshold  0 \
	nEnergyDiff          2 \
	alphaTstart          1 \
	alphaTmin            1e-10 \
	updateTestStepSize   yes \
	alphaTreduceFactor   0.1 \
	alphaTincreaseFactor 3 \
	nAlphaAdjustMax      3 \
	wolfeEnergy          0.0001 \
	wolfeGradient        0.9 \
	fdTest               no
fluid-solvent H2O 55.338 ScalarEOS \
	epsBulk 78.4 \
	pMol 0.92466 \
	epsInf 1.77 \
	Pvap 1.06736e-10 \
	sigmaBulk 4.62e-05 \
	Rvdw 2.61727 \
	Res 1.42 \
	tauNuc 343133 \
	poleEl 15 7 1
forces-output-coords Positions
initial-state Na2S6@NiS2.$VAR
ion Ni  32.181155145269997   0.000000000000000  10.727052344999997 0
ion Ni   5.363526172499999   0.000000000000000   5.363526172499999 0
ion Ni  32.181155145269997   5.363526172499999   5.363526172499999 0
ion Ni   5.363526172499999   5.363526172499999  10.727052344999997 0
ion Ni  32.181155145269997  10.727052344999999  10.727052344999997 0
ion Ni  32.181155145269997  21.454102800270000  10.727052344999997 0
ion Ni   5.363526172499999  21.454102800270000   5.363526172499999 0
ion Ni   5.363526172499999  10.727052344999999   5.363526172499999 0
ion Ni  32.181155145269997  16.090578517499999   5.363526172499999 0
ion Ni  32.181155145269997  26.817628972769999   5.363526172499999 0
ion Ni   5.363526172499999  26.817628972769999  10.727052344999997 0
ion Ni   5.363526172499999  16.090578517499999  10.727052344999997 0
ion Ni  10.727052344999999   0.000000000000000  10.727052344999997 0
ion Ni  21.454102800270000   0.000000000000000  10.727052344999997 0
ion Ni  21.454102800270000   5.363526172499999   5.363526172499999 0
ion Ni  10.727052344999999   5.363526172499999   5.363526172499999 0
ion Ni  16.090578517499999   5.363526172499999  10.727052344999997 0
ion Ni  26.817628972769999   5.363526172499999  10.727052344999997 0
ion Ni  26.817628972769999   0.000000000000000   5.363526172499999 0
ion Ni  16.090578517499999   0.000000000000000   5.363526172499999 0
ion Ni  10.727052344999999  10.727052344999999  10.727052344999997 0
ion Ni  21.454102800270000  21.454102800270000  10.727052344999997 0
ion Ni  26.817628972769999  21.454102800270000   5.363526172499999 0
ion Ni  16.090578517499999  10.727052344999999   5.363526172499999 0
ion Ni  21.454102800270000  16.090578517499999   5.363526172499999 0
ion Ni  10.727052344999999  26.817628972769999   5.363526172499999 0
ion Ni  16.090578517499999  26.817628972769999  10.727052344999997 0
ion Ni  26.817628972769999  16.090578517499999  10.727052344999997 0
ion Ni  10.727052344999999  21.454102800270000  10.727052344999997 0
ion Ni  21.454102800270000  10.727052344999999  10.727052344999985 0
ion Ni  26.817628972769999  10.727052344999999   5.363526172499999 0
ion Ni  16.090578517499999  21.454102800270000   5.363526172499999 0
ion Ni  21.454102800270000  26.817628972769999   5.363526172499999 0
ion Ni  10.727052344999999  16.090578517499999   5.363526172499999 0
ion Ni  16.090578517499999  16.090578517499999  10.727052344999997 0
ion Ni  26.817628972769999  26.817628972769999  10.727052344999997 0
ion S   4.232241197730000   4.232241197730000   4.232250646379995 0
ion S  27.948915837270000  27.948915837270000   6.494801698619992 0
ion S   1.131284974770000  27.948915837270000   9.595776818879992 0
ion S   9.595765480499999   4.232241197730000   1.131275526120000 0
ion S  27.948915837270000   9.595765480499999   1.131275526120000 0
ion S   4.232241197730000   1.131284974770000   9.595776818879992 0
ion S   9.595765480499999   1.131284974770000   6.494801698619992 0
ion S   1.131284974770000   9.595765480499999   4.232250646379995 0
ion S   4.232241197730000  14.959291652999985   4.232250646379995 0
ion S  27.948915837270000  17.221863492269968   6.494801698619992 0
ion S   1.131284974770000  17.221863492269968   9.595776818879992 0
ion S   9.595765480499999  14.959291652999985   1.131275526120000 0
ion S  27.948915837270000  20.322817825500000   1.131275526120000 0
ion S   4.232241197730000  22.585389664769998   9.595776818879992 0
ion S   9.595765480499999  22.585389664769998   6.494801698619992 0
ion S   1.131284974770000  20.322817825500000   4.232250646379995 0
ion S  14.959291652999985   4.232250646380000   4.232241197729999 0
ion S  17.221863492269968  27.948904498889998   6.494811147269997 0
ion S  17.221863492269968   9.595776818879999   1.131284974770000 0
ion S  14.959291652999985   1.131275526120000   9.595765480499992 0
ion S  20.322817825500000   1.131275526120000   6.494811147269997 0
ion S  22.585389664769998   9.595776818879999   4.232241197729999 0
ion S  22.585389664769998  27.948904498889998   9.595765480499992 0
ion S  20.322817825500000   4.232250646380000   1.131284974770000 0
ion S   4.232241197730000  25.686343997999970   4.232250646379995 0
ion S  27.948915837270000   6.494811147269997   6.494801698619992 0
ion S   1.131284974770000   6.494811147269997   9.595776818879992 0
ion S   9.595765480499999  25.686343997999970   1.131275526120000 0
ion S  27.948915837270000  31.049870170499968   1.131275526120000 0
ion S   4.232241197730000  11.858337319769999   9.595776818879992 0
ion S   9.595765480499999  11.858337319769999   6.494801698619992 0
ion S   1.131284974770000  31.049870170499968   4.232250646379995 0
ion S  25.686343997999970   4.232250646380000   4.232241197729999 0
ion S   6.494811147269997  27.948904498889998   6.494811147269997 0
ion S   6.494811147269997   9.595776818879999   1.131284974770000 0
ion S  25.686343997999970   1.131275526120000   9.595765480499992 0
ion S  31.049870170499968   1.131275526120000   6.494811147269997 0
ion S  11.858337319769999   9.595776818879999   4.232241197729999 0
ion S  11.858337319769999  27.948904498889998   9.595765480499992 0
ion S  31.049870170499968   4.232250646380000   1.131284974770000 0
ion S  14.959291652999985  14.959291652999985   4.232250646379995 0
ion S  17.221863492269968  17.221863492269968   6.494801698619992 0
ion S  22.585389664769998  17.221863492269968   9.595776818879992 0
ion S  20.322817825500000  14.959291652999985   1.131275526120000 0
ion S  17.221863492269968  20.322817825500000   1.131275526120000 0
ion S  14.959291652999985  22.585389664769998   9.595776818879992 0
ion S  20.322817825500000  22.585389664769998   6.494801698619992 0
ion S  22.585389664769998  20.322817825500000   4.232250646379995 0
ion S  14.959291652999985  25.686343997999970   4.232250646379995 0
ion S  17.221863492269968   6.494811147269997   6.494801698619992 0
ion S  22.585389664769998   6.494811147269997   9.595776818879992 0
ion S  20.322817825500000  25.686343997999970   1.131275526120000 0
ion S  17.221863492269968  31.049870170499968   1.131275526120000 0
ion S  14.959291652999985  11.858337319769999   9.595776818879992 0
ion S  20.322817825500000  11.858337319769999   6.494801698619992 0
ion S  22.585389664769998  31.049870170499968   4.232250646379995 0
ion S  25.686343997999970  14.959291652999985   4.232250646379995 0
ion S   6.494811147269997  17.221863492269968   6.494801698619992 0
ion S  11.858337319769999  17.221863492269968   9.595776818879992 0
ion S  31.049870170499968  14.959291652999985   1.131275526120000 0
ion S   6.494811147269997  20.322817825500000   1.131275526120000 0
ion S  25.686343997999970  22.585389664769998   9.595776818879992 0
ion S  31.049870170499968  22.585389664769998   6.494801698619992 0
ion S  11.858337319769999  20.322817825500000   4.232250646379995 0
ion S  25.686343997999970  25.686343997999970   4.232250646379995 0
ion S   6.494811147269997   6.494811147269997   6.494801698619992 0
ion S  11.858337319769999   6.494811147269997   9.595776818879992 0
ion S  31.049870170499968  25.686343997999970   1.131275526120000 0
ion S   6.494811147269997  31.049870170499968   1.131275526120000 0
ion S  25.686343997999970  11.858337319769999   9.595776818879992 0
ion S  31.049870170499968  11.858337319769999   6.494801698619992 0
ion S  11.858337319769999  31.049870170499968   4.232250646379995 0
ion S  14.402306621739861  15.601333152039270  14.260476043044672 1
ion S  12.199194964923137  12.618126537606987  15.393120611469557 1
ion S   6.796864278491297   9.337931609875575  11.799031693261096 1
ion S  17.557788616440654  20.074729538391512  11.533148971449966 1
ion S   7.288196194760840  22.690538279714158  15.752956977845422 1
ion S   8.136592790682476  24.377256639824783  12.367561726924457 1
ion Na  15.980252923596028   9.410294096799291  13.578090919175869 1
ion Na  11.209870748747200  18.939135456640486  16.010322975206204 1
ion-species GBRV/$ID_pbe.uspp
ion-width 0
ionic-minimize  \
	dirUpdateScheme      FletcherReeves \
	linminMethod         DirUpdateRecommended \
	nIterations          400 \
	history              15 \
	knormThreshold       0.0001 \
	energyDiffThreshold  1e-06 \
	nEnergyDiff          2 \
	alphaTstart          1 \
	alphaTmin            1e-10 \
	updateTestStepSize   yes \
	alphaTreduceFactor   0.1 \
	alphaTincreaseFactor 3 \
	nAlphaAdjustMax      3 \
	wolfeEnergy          0.0001 \
	wolfeGradient        0.9 \
	fdTest               no
kpoint   0.000000000000   0.000000000000   0.000000000000  1.00000000000000
kpoint-folding 1 1 1 
latt-move-scale 1 1 1
latt-scale 1 1 1 
lattice Triclinic 32.1811 32.1811 37.7946 90 90 90
lattice-minimize  \
	dirUpdateScheme      L-BFGS \
	linminMethod         DirUpdateRecommended \
	nIterations          0 \
	history              15 \
	knormThreshold       0 \
	energyDiffThreshold  1e-06 \
	nEnergyDiff          2 \
	alphaTstart          1 \
	alphaTmin            1e-10 \
	updateTestStepSize   yes \
	alphaTreduceFactor   0.1 \
	alphaTincreaseFactor 3 \
	nAlphaAdjustMax      3 \
	wolfeEnergy          0.0001 \
	wolfeGradient        0.9 \
	fdTest               no
lcao-params -1 1e-06 0.01
pcm-variant GLSSA13
spintype no-spin
subspace-rotation-factor 1 yes
symmetries automatic
symmetry-threshold 0.0001



---------- Setting up symmetries ----------

Found 16 point-group symmetries of the bravais lattice
Found 1 space-group symmetries with basis
Applied RMS atom displacement 0 bohrs to make symmetries exact.

---------- Initializing the Grid ----------
R = 
[      32.1811            0            0  ]
[            0      32.1811            0  ]
[            0            0      37.7946  ]
unit cell volume = 39140.9
G =
[   0.195245          0          0  ]
[          0   0.195245          0  ]
[          0          0   0.166246  ]
Minimum fftbox size, Smin = [  148  148  172  ]
Chosen fftbox size, S = [  150  150  180  ]

---------- Initializing tighter grid for wavefunction operations ----------
R = 
[      32.1811            0            0  ]
[            0      32.1811            0  ]
[            0            0      37.7946  ]
unit cell volume = 39140.9
G =
[   0.195245          0          0  ]
[          0   0.195245          0  ]
[          0          0   0.166246  ]
Minimum fftbox size, Smin = [  132  132  156  ]
Chosen fftbox size, S = [  140  140  160  ]

---------- Exchange Correlation functional ----------
Initalized PBE GGA exchange.
Initalized PBE GGA correlation.

---------- Setting up pseudopotentials ----------
Width of ionic core gaussian charges (only for fluid interactions / plotting) set to 0

Reading pseudopotential file '/home/akim2/jdftx_install/build/pseudopotentials/GBRV/ni_pbe.uspp':
  Title: Ni.  Created by USPP 7.3.6 on 1-4-15
  Reference state energy: -170.398381.  18 valence electrons in orbitals:
    |300>  occupation: 2  eigenvalue: -4.804705
    |310>  occupation: 6  eigenvalue: -3.347751
    |320>  occupation: 8  eigenvalue: -1.042415
    |400>  occupation: 0  eigenvalue: -0.795539
    |410>  occupation: 0  eigenvalue: -0.551375
  lMax: 2  lLocal: 3  QijEcut: 6.5
  6 projectors sampled on a log grid with 611 points:
    l: 0  eig: -4.804708  rCut: 1.44
    l: 0  eig: -0.795541  rCut: 1.44
    l: 1  eig: -3.347753  rCut: 1.55
    l: 1  eig: 0.500000  rCut: 1.55
    l: 2  eig: -1.042418  rCut: 1.5
    l: 2  eig: -0.450000  rCut: 1.5
  Partial core density with radius 0.65
  Transforming core density to a uniform radial grid of dG=0.02 with 1283 points.
  Transforming local potential to a uniform radial grid of dG=0.02 with 1283 points.
  Transforming nonlocal projectors to a uniform radial grid of dG=0.02 with 432 points.
  Transforming density augmentations to a uniform radial grid of dG=0.02 with 1283 points.
  Transforming atomic orbitals to a uniform radial grid of dG=0.02 with 432 points.
  Core radius for overlap checks: 1.55 bohrs.

Reading pseudopotential file '/home/akim2/jdftx_install/build/pseudopotentials/GBRV/s_pbe.uspp':
  Title: S.  Created by USPP 7.3.6 on 1-4-15
  Reference state energy: -11.898476.  6 valence electrons in orbitals:
    |300>  occupation: 2  eigenvalue: -0.634167
    |310>  occupation: 4  eigenvalue: -0.257568
  lMax: 2  lLocal: 3  QijEcut: 6
  6 projectors sampled on a log grid with 635 points:
    l: 0  eig: -0.634161  rCut: 1.5
    l: 0  eig: 1.500000  rCut: 1.5
    l: 1  eig: -0.257567  rCut: 1.5
    l: 1  eig: 1.500000  rCut: 1.5
    l: 2  eig: -1.000000  rCut: 1.5
    l: 2  eig: 1.500000  rCut: 1.5
  Partial core density with radius 1.15
  Transforming core density to a uniform radial grid of dG=0.02 with 1283 points.
  Transforming local potential to a uniform radial grid of dG=0.02 with 1283 points.
  Transforming nonlocal projectors to a uniform radial grid of dG=0.02 with 432 points.
  Transforming density augmentations to a uniform radial grid of dG=0.02 with 1283 points.
  Transforming atomic orbitals to a uniform radial grid of dG=0.02 with 432 points.
  Core radius for overlap checks: 1.50 bohrs.

Reading pseudopotential file '/home/akim2/jdftx_install/build/pseudopotentials/GBRV/na_pbe.uspp':
  Title: Na.  Created by USPP 7.3.6 on 23-9-15
  Reference state energy: -47.625620.  9 valence electrons in orbitals:
    |200>  occupation: 2  eigenvalue: -2.085638
    |210>  occupation: 6  eigenvalue: -1.053708
    |300>  occupation: 1  eigenvalue: -0.100838
  lMax: 2  lLocal: 0  QijEcut: 6
  5 projectors sampled on a log grid with 657 points:
    l: 0  eig: -2.085640  rCut: 1.37
    l: 0  eig: -0.100839  rCut: 1.37
    l: 1  eig: -1.053708  rCut: 1.47
    l: 1  eig: 0.500000  rCut: 1.47
    l: 2  eig: 0.750000  rCut: 2
  Transforming local potential to a uniform radial grid of dG=0.02 with 1283 points.
  Transforming nonlocal projectors to a uniform radial grid of dG=0.02 with 432 points.
  Transforming density augmentations to a uniform radial grid of dG=0.02 with 1283 points.
  Transforming atomic orbitals to a uniform radial grid of dG=0.02 with 432 points.
  Core radius for overlap checks: 2.00 bohrs.

Initialized 3 species with 116 total atoms.

Folded 1 k-points by 1x1x1 to 1 k-points.

---------- Setting up k-points, bands, fillings ----------
No reducable k-points. 
Computing the number of bands and number of electrons
Reading initial fillings from file Na2S6@NiS2.fillings.
nElectrons: 1134.000000   nBands: 790   nStates: 1

----- Setting up reduced wavefunction bases (one per k-point) -----
average nbasis = 167141.000 , ideal nbasis = 167213.066

---------- Setting up coulomb interaction ----------
Setting up double-sized grid for truncated Coulomb potentials:
R = 
[      32.1811            0            0  ]
[            0      32.1811            0  ]
[            0            0      75.5892  ]
unit cell volume = 78281.9
G =
[   0.195245          0          0  ]
[          0   0.195245          0  ]
[          0          0  0.0831228  ]
Chosen fftbox size, S = [  150  150  360  ]
Integer grid location selected as the embedding center:
   Grid: [  0  0  48  ]
   Lattice: [  0  0  0.264588  ]
   Cartesian: [  0  0  10  ]
Constructing Wigner-Seitz cell: 6 faces (6 quadrilaterals, 0 hexagons)
Range-separation parameter for embedded mesh potentials due to point charges: 0.584339 bohrs.
Initialized slab truncation along lattice direction 001

---------- Setting up 2D ewald sum ----------
Optimum gaussian width for ewald sums = 19.197881 bohr.
Real space sums over 225 unit cells with max indices [  7  7  0  ]
Reciprocal space sums over 81 terms with max indices [  4  4  0  ]

---------- Allocating electronic variables ----------
Initializing wave functions:  reading from 'Na2S6@NiS2.wfns'


---- Citations for features of the code used in this run ----

   Software package:
      R. Sundararaman, K. Letchworth-Weaver, K.A. Schwarz, D. Gunceler, Y. Ozhabes and T.A. Arias, 'JDFTx: software for joint density-functional theory', SoftwareX 6, 278 (2017)

   gga-PBE exchange-correlation functional:
      J.P. Perdew, K. Burke and M. Ernzerhof, Phys. Rev. Lett. 77, 3865 (1996)

   Pseudopotentials:
      KF Garrity, JW Bennett, KM Rabe and D Vanderbilt, Comput. Mater. Sci. 81, 446 (2014)

   Truncated Coulomb potentials:
      R. Sundararaman and T.A. Arias, Phys. Rev. B 87, 165122 (2013)

   Total energy minimization with Auxiliary Hamiltonian:
      C. Freysoldt, S. Boeck, and J. Neugebauer, Phys. Rev. B 79, 241103(R) (2009)

This list may not be complete. Please suggest additional citations or
report any other bugs at https://github.com/shankar1729/jdftx/issues

Initialization completed successfully at t[s]:      7.93


-------- Electronic minimization -----------
	FillingsUpdate:  mu: -0.190435917  nElectrons: 1134.000000
ElecMinimize: Iter:   0  F: -7061.102199704988379  |grad|_K:  6.604e-07  alpha:  1.000e+00
	FillingsUpdate:  mu: -0.190421200  nElectrons: 1134.000000
	SubspaceRotationAdjust: set factor to 0.53
ElecMinimize: Iter:   1  F: -7061.102200628744868  |grad|_K:  1.096e-07  alpha:  1.611e-02  linmin:  7.809e-04  t[s]:     24.99
	FillingsUpdate:  mu: -0.190425361  nElectrons: 1134.000000
	SubspaceRotationAdjust: set factor to 0.336
ElecMinimize: Iter:   2  F: -7061.102200670611637  |grad|_K:  2.632e-08  alpha:  2.626e-02  linmin: -5.933e-04  t[s]:     35.66
	FillingsUpdate:  mu: -0.190426704  nElectrons: 1134.000000
	SubspaceRotationAdjust: set factor to 0.183
ElecMinimize: Iter:   3  F: -7061.102200675236418  |grad|_K:  1.584e-08  alpha:  5.744e-02  linmin:  1.684e-03  t[s]:     46.37
ElecMinimize: 	Predicted alpha/alphaT>3.000000, increasing alphaT to 1.723322e-01.
	FillingsUpdate:  mu: -0.190430016  nElectrons: 1134.000000
	SubspaceRotationAdjust: set factor to 0.232
ElecMinimize: Iter:   4  F: -7061.102200679749330  |grad|_K:  9.035e-09  alpha:  1.525e-01  linmin: -3.732e-04  t[s]:     59.87
ElecMinimize: Converged (|Delta F|<1.000000e-08 for 2 iters).
Setting wave functions to eigenvectors of Hamiltonian

# Ionic positions in cartesian coordinates:
ion Ni  32.181155145269997   0.000000000000000  10.727052344999997 0
ion Ni   5.363526172499999   0.000000000000000   5.363526172499999 0
ion Ni  32.181155145269997   5.363526172499999   5.363526172499999 0
ion Ni   5.363526172499999   5.363526172499999  10.727052344999997 0
ion Ni  32.181155145269997  10.727052344999999  10.727052344999997 0
ion Ni  32.181155145269997  21.454102800270000  10.727052344999997 0
ion Ni   5.363526172499999  21.454102800270000   5.363526172499999 0
ion Ni   5.363526172499999  10.727052344999999   5.363526172499999 0
ion Ni  32.181155145269997  16.090578517499999   5.363526172499999 0
ion Ni  32.181155145269997  26.817628972769999   5.363526172499999 0
ion Ni   5.363526172499999  26.817628972769999  10.727052344999997 0
ion Ni   5.363526172499999  16.090578517499999  10.727052344999997 0
ion Ni  10.727052344999999   0.000000000000000  10.727052344999997 0
ion Ni  21.454102800270000   0.000000000000000  10.727052344999997 0
ion Ni  21.454102800270000   5.363526172499999   5.363526172499999 0
ion Ni  10.727052344999999   5.363526172499999   5.363526172499999 0
ion Ni  16.090578517499999   5.363526172499999  10.727052344999997 0
ion Ni  26.817628972769999   5.363526172499999  10.727052344999997 0
ion Ni  26.817628972769999   0.000000000000000   5.363526172499999 0
ion Ni  16.090578517499999   0.000000000000000   5.363526172499999 0
ion Ni  10.727052344999999  10.727052344999999  10.727052344999997 0
ion Ni  21.454102800270000  21.454102800270000  10.727052344999997 0
ion Ni  26.817628972769999  21.454102800270000   5.363526172499999 0
ion Ni  16.090578517499999  10.727052344999999   5.363526172499999 0
ion Ni  21.454102800270000  16.090578517499999   5.363526172499999 0
ion Ni  10.727052344999999  26.817628972769999   5.363526172499999 0
ion Ni  16.090578517499999  26.817628972769999  10.727052344999997 0
ion Ni  26.817628972769999  16.090578517499999  10.727052344999997 0
ion Ni  10.727052344999999  21.454102800270000  10.727052344999997 0
ion Ni  21.454102800270000  10.727052344999999  10.727052344999985 0
ion Ni  26.817628972769999  10.727052344999999   5.363526172499999 0
ion Ni  16.090578517499999  21.454102800270000   5.363526172499999 0
ion Ni  21.454102800270000  26.817628972769999   5.363526172499999 0
ion Ni  10.727052344999999  16.090578517499999   5.363526172499999 0
ion Ni  16.090578517499999  16.090578517499999  10.727052344999997 0
ion Ni  26.817628972769999  26.817628972769999  10.727052344999997 0
ion S   4.232241197730000   4.232241197730000   4.232250646379995 0
ion S  27.948915837270000  27.948915837270000   6.494801698619992 0
ion S   1.131284974770000  27.948915837270000   9.595776818879992 0
ion S   9.595765480499999   4.232241197730000   1.131275526120000 0
ion S  27.948915837270000   9.595765480499999   1.131275526120000 0
ion S   4.232241197730000   1.131284974770000   9.595776818879992 0
ion S   9.595765480499999   1.131284974770000   6.494801698619992 0
ion S   1.131284974770000   9.595765480499999   4.232250646379995 0
ion S   4.232241197730000  14.959291652999985   4.232250646379995 0
ion S  27.948915837270000  17.221863492269968   6.494801698619992 0
ion S   1.131284974770000  17.221863492269968   9.595776818879992 0
ion S   9.595765480499999  14.959291652999985   1.131275526120000 0
ion S  27.948915837270000  20.322817825500000   1.131275526120000 0
ion S   4.232241197730000  22.585389664769998   9.595776818879992 0
ion S   9.595765480499999  22.585389664769998   6.494801698619992 0
ion S   1.131284974770000  20.322817825500000   4.232250646379995 0
ion S  14.959291652999985   4.232250646380000   4.232241197729999 0
ion S  17.221863492269968  27.948904498889998   6.494811147269997 0
ion S  17.221863492269968   9.595776818879999   1.131284974770000 0
ion S  14.959291652999985   1.131275526120000   9.595765480499992 0
ion S  20.322817825500000   1.131275526120000   6.494811147269997 0
ion S  22.585389664769998   9.595776818879999   4.232241197729999 0
ion S  22.585389664769998  27.948904498889998   9.595765480499992 0
ion S  20.322817825500000   4.232250646380000   1.131284974770000 0
ion S   4.232241197730000  25.686343997999970   4.232250646379995 0
ion S  27.948915837270000   6.494811147269997   6.494801698619992 0
ion S   1.131284974770000   6.494811147269997   9.595776818879992 0
ion S   9.595765480499999  25.686343997999970   1.131275526120000 0
ion S  27.948915837270000  31.049870170499968   1.131275526120000 0
ion S   4.232241197730000  11.858337319769999   9.595776818879992 0
ion S   9.595765480499999  11.858337319769999   6.494801698619992 0
ion S   1.131284974770000  31.049870170499968   4.232250646379995 0
ion S  25.686343997999970   4.232250646380000   4.232241197729999 0
ion S   6.494811147269997  27.948904498889998   6.494811147269997 0
ion S   6.494811147269997   9.595776818879999   1.131284974770000 0
ion S  25.686343997999970   1.131275526120000   9.595765480499992 0
ion S  31.049870170499968   1.131275526120000   6.494811147269997 0
ion S  11.858337319769999   9.595776818879999   4.232241197729999 0
ion S  11.858337319769999  27.948904498889998   9.595765480499992 0
ion S  31.049870170499968   4.232250646380000   1.131284974770000 0
ion S  14.959291652999985  14.959291652999985   4.232250646379995 0
ion S  17.221863492269968  17.221863492269968   6.494801698619992 0
ion S  22.585389664769998  17.221863492269968   9.595776818879992 0
ion S  20.322817825500000  14.959291652999985   1.131275526120000 0
ion S  17.221863492269968  20.322817825500000   1.131275526120000 0
ion S  14.959291652999985  22.585389664769998   9.595776818879992 0
ion S  20.322817825500000  22.585389664769998   6.494801698619992 0
ion S  22.585389664769998  20.322817825500000   4.232250646379995 0
ion S  14.959291652999985  25.686343997999970   4.232250646379995 0
ion S  17.221863492269968   6.494811147269997   6.494801698619992 0
ion S  22.585389664769998   6.494811147269997   9.595776818879992 0
ion S  20.322817825500000  25.686343997999970   1.131275526120000 0
ion S  17.221863492269968  31.049870170499968   1.131275526120000 0
ion S  14.959291652999985  11.858337319769999   9.595776818879992 0
ion S  20.322817825500000  11.858337319769999   6.494801698619992 0
ion S  22.585389664769998  31.049870170499968   4.232250646379995 0
ion S  25.686343997999970  14.959291652999985   4.232250646379995 0
ion S   6.494811147269997  17.221863492269968   6.494801698619992 0
ion S  11.858337319769999  17.221863492269968   9.595776818879992 0
ion S  31.049870170499968  14.959291652999985   1.131275526120000 0
ion S   6.494811147269997  20.322817825500000   1.131275526120000 0
ion S  25.686343997999970  22.585389664769998   9.595776818879992 0
ion S  31.049870170499968  22.585389664769998   6.494801698619992 0
ion S  11.858337319769999  20.322817825500000   4.232250646379995 0
ion S  25.686343997999970  25.686343997999970   4.232250646379995 0
ion S   6.494811147269997   6.494811147269997   6.494801698619992 0
ion S  11.858337319769999   6.494811147269997   9.595776818879992 0
ion S  31.049870170499968  25.686343997999970   1.131275526120000 0
ion S   6.494811147269997  31.049870170499968   1.131275526120000 0
ion S  25.686343997999970  11.858337319769999   9.595776818879992 0
ion S  31.049870170499968  11.858337319769999   6.494801698619992 0
ion S  11.858337319769999  31.049870170499968   4.232250646379995 0
ion S  14.402306621739861  15.601333152039270  14.260476043044672 1
ion S  12.199194964923137  12.618126537606987  15.393120611469557 1
ion S   6.796864278491297   9.337931609875575  11.799031693261096 1
ion S  17.557788616440654  20.074729538391512  11.533148971449966 1
ion S   7.288196194760840  22.690538279714158  15.752956977845422 1
ion S   8.136592790682476  24.377256639824783  12.367561726924457 1
ion Na  15.980252923596028   9.410294096799291  13.578090919175869 1
ion Na  11.209870748747200  18.939135456640486  16.010322975206204 1

# Forces in Cartesian coordinates:
force Ni   0.023489478843389  -0.011202691698941  -0.039058240386941 0
force Ni  -0.001900430394701  -0.000000739264476  -0.009196979245851 0
force Ni   0.001575029205821  -0.000730867313273  -0.008445673038755 0
force Ni  -0.013069798876228   0.002711355860033  -0.030990418369549 0
force Ni   0.018794683681858  -0.013282907418300  -0.038043394255391 0
force Ni   0.023874619570433  -0.011052786355264  -0.039336228963160 0
force Ni  -0.001938450705069   0.000101912193851  -0.007597365567100 0
force Ni  -0.000698523903790  -0.002121336788569  -0.012600001973923 0
force Ni   0.001165193841033  -0.000412853657412  -0.009308582714397 0
force Ni   0.002047320275973  -0.000211305059305  -0.008722366769692 0
force Ni  -0.023405907510543  -0.013258390590712  -0.027441678777046 0
force Ni  -0.020888202069939  -0.005495484203482  -0.037019556904594 0
force Ni   0.023807667962379  -0.011399027654582  -0.039106509601973 0
force Ni   0.023456619686056  -0.011721334209557  -0.039204589800231 0
force Ni   0.001109941407246  -0.000751736666702  -0.009249948134706 0
force Ni   0.001978664552829  -0.000293717370936  -0.009000601484430 0
force Ni  -0.022807114259684  -0.022554133720299  -0.047757668538730 0
force Ni  -0.023073473649374  -0.011679660611160  -0.039122381012122 0
force Ni  -0.001692632349547  -0.000689049509560  -0.009115972225836 0
force Ni  -0.001754885091473  -0.000583733611412  -0.008934273826474 0
force Ni   0.008158772960561  -0.006845840723575  -0.010789513321427 0
force Ni   0.009881722785133  -0.015688643786217  -0.035079506735402 0
force Ni  -0.002414152439040  -0.000633926385709  -0.009088651745174 0
force Ni  -0.002397315119989  -0.000422566634269  -0.008434600256454 0
force Ni   0.002334994309706  -0.000422276583904  -0.007784176541946 0
force Ni   0.001747504623896  -0.000439119188953  -0.007949452719077 0
force Ni  -0.021639217459472  -0.004429933397322  -0.038335029642628 0
force Ni  -0.024582019395310  -0.011576488466667  -0.040225025128684 0
force Ni   0.003985693853279  -0.003578626513940  -0.027660511157171 0
force Ni   0.024798033098429  -0.013136612279235  -0.039400228737343 0
force Ni  -0.001833676924929  -0.000813973465202  -0.008882090119381 0
force Ni  -0.001780138856424  -0.001489587753552  -0.012055837221270 0
force Ni   0.001521975105783  -0.001287926878892  -0.009347064074414 0
force Ni   0.001861707464517   0.000416015751701  -0.010128055023007 0
force Ni  -0.011507939075145  -0.004536254073076  -0.036558092741314 0
force Ni  -0.024084081423073  -0.011264356240484  -0.038650541258290 0
force S  -0.003918164361893  -0.004366023794455  -0.005544968493540 0
force S   0.002981917280479   0.000871031111360   0.010976317619847 0
force S  -0.002858999403225   0.007041095956641   0.017448342766386 0
force S  -0.004101517722868   0.008517431265490   0.021085528172116 0
force S   0.004164590622130   0.008482796528110   0.021323688427819 0
force S   0.002557256539166   0.009630736925748   0.018837108911670 0
force S  -0.003190549776131   0.000979273527773   0.011286587241240 0
force S   0.005099990417543  -0.004555592837995  -0.004066007914424 0
force S  -0.004783563751426  -0.004568614570048  -0.002459261891374 0
force S   0.003509956721356   0.000880394154962   0.011189218317722 0
force S  -0.002963966982805   0.007035508787192   0.019116252953074 0
force S  -0.004595185042374   0.008169040993635   0.021092800103054 0
force S   0.004295055851765   0.008603433919354   0.021462867759386 0
force S  -0.015362671063227  -0.004172835195357   0.007902410542991 0
force S   0.000122302500199  -0.001585308504625   0.004979594607648 0
force S   0.004600726594031  -0.004158148350417  -0.003789181589172 0
force S  -0.004321343879004  -0.004314711727157  -0.004381216553061 0
force S   0.003435699020646   0.001201674030999   0.011835951661684 0
force S   0.004190232247815   0.008527033237910   0.021148596300059 0
force S   0.001326227746751   0.005144944995264   0.019483253344370 0
force S  -0.003048032168470   0.000966279748182   0.011322885551053 0
force S   0.004336465313707  -0.004134218256454  -0.003754616417984 0
force S  -0.002393803235747   0.007034991894963   0.019460298288731 0
force S  -0.004184757285385   0.008665056979005   0.021315352819072 0
force S  -0.004262005266767  -0.003650523317350  -0.004142623535068 0
force S   0.003184770173621   0.000992212658986   0.011515031941639 0
force S  -0.006929531582780   0.005430624508399   0.016405407574372 0
force S  -0.004137519882508   0.008375894687105   0.021105836576404 0
force S   0.004054799378166   0.008542463692771   0.021402015041212 0
force S   0.008682852788390  -0.001554573041537   0.023833989473805 0
force S   0.000502478714813   0.002269101454305   0.006155420240225 0
force S   0.004316308326986  -0.004119524240853  -0.003861368480103 0
force S  -0.004741128378911  -0.004175349638947  -0.003901974686193 0
force S   0.002200321653210   0.002195769137805   0.007605183464669 0
force S   0.004609323357067   0.007994488913900   0.020804964835807 0
force S   0.002583269213597   0.007003809457974   0.019717918688716 0
force S  -0.002994680721094   0.001068384222004   0.011205433253965 0
force S   0.004245260651310  -0.003988951700365  -0.003799029563763 0
force S   0.005516432734945   0.013046647486871   0.015536802618647 0
force S  -0.003958627266048   0.008678023865744   0.021437407306198 0
force S  -0.004834029372094  -0.004788722179817  -0.005776947592812 0
force S   0.001070373214861  -0.005540381666404   0.004581144120739 0
force S   0.009491590559121  -0.001354056788355   0.016763998878243 0
force S  -0.004151687132446   0.008649260376180   0.021305387787670 0
force S   0.004400941440268   0.008242335019085   0.019985066039973 0
force S   0.008895906742184   0.001877994032346   0.017628983787195 0
force S   0.001777956372088   0.004976158058366   0.003611738032891 0
force S   0.004164316390905  -0.003190452522429  -0.003606756205885 0
force S  -0.004975300166591  -0.004319772357615  -0.003276099444971 0
force S   0.004320590986442   0.001696312631308   0.010159238506700 0
force S  -0.003186808891853   0.007521961706122   0.021151849393914 0
force S  -0.004330411087642   0.008401362134380   0.021682548581280 0
force S   0.004188231730083   0.008764267501807   0.021014975136732 0
force S   0.001058832005889   0.007890327857490  -0.007848144314220 0
force S  -0.003084023284053   0.001449130282523   0.010930714905596 0
force S   0.004443858149822  -0.004095045278881  -0.003862676229336 0
force S  -0.004548795490083  -0.003896081170633  -0.004091882510111 0
force S   0.003986803089905   0.001206664601756   0.011923310280676 0
force S  -0.016100509379489   0.010813637508088   0.005136601402934 0
force S  -0.004041734914691   0.008629587085940   0.021406220369831 0
force S   0.004439603780261   0.008486581910467   0.020643800445035 0
force S   0.001062215246761   0.005445495438660   0.020118944131031 0
force S  -0.003001866740157   0.000748908552766   0.011678171810076 0
force S   0.004170380574220  -0.005212283120694  -0.004753124348192 0
force S  -0.004161498166303  -0.003875903792891  -0.003624823511736 0
force S  -0.000314353783386  -0.003469939362329   0.004485350980658 0
force S   0.010090607725095  -0.001398950974014   0.018774117278950 0
force S  -0.003907635813029   0.008624861240672   0.021431377607702 0
force S   0.004183325721249   0.008509297029266   0.021371037657725 0
force S   0.003024222537169   0.008441271135804   0.019591689374731 0
force S  -0.003295550883382   0.001409181117455   0.012055815276905 0
force S   0.004460938737500  -0.003837412150661  -0.003505739115739 0
force S   0.006899029401269   0.000325300872389   0.028877374238533 1
force S  -0.003958804545272  -0.005293794570531  -0.015750267225611 1
force S  -0.004847471760346   0.002489845940653  -0.000848739399551 1
force S   0.002257392274955   0.009655137721932   0.013773746185586 1
force S   0.003659052304062  -0.000153345049341  -0.002239672353817 1
force S   0.015828967998781  -0.008818227189940   0.011206928321864 1
force Na  -0.000263142513042   0.003692843575835   0.016389555614626 1
force Na  -0.006615605162628   0.004185060100502  -0.000537771163104 1

# Energy components:
   Eewald =   -18951.4142123075289419
       EH =   -12813.2927343997216667
     Eloc =    23470.7620414459670428
      Enl =      915.7029494120963591
      Exc =     -978.7011491957838416
 Exc_core =      152.3206005450465454
       KE =     1144.5336216459686511
-------------------------------------
     Etot =    -7060.0888828539555107
       TS =        1.0133178257934983
-------------------------------------
        F =    -7061.1022006797493304

IonicMinimize: Iter:   0  F: -7061.102200679749330  |grad|_K:  9.807e-03  alpha:  1.000e+00

#--- Lowdin population analysis ---
# oxidation-state Ni +0.005 -0.449 -0.450 -0.203 -0.011 +0.008 -0.454 -0.463 -0.454 -0.450 -0.243 +0.006 +0.016 -0.003 -0.450 -0.451 -0.167 -0.002 -0.449 -0.449 -0.314 -0.217 -0.449 -0.453 -0.452 -0.456 -0.005 +0.000 -0.327 -0.064 -0.448 -0.463 -0.450 -0.455 -0.475 +0.004
# oxidation-state S +0.319 +0.445 +0.084 -0.013 -0.015 +0.090 +0.444 +0.317 +0.306 +0.448 +0.063 -0.014 -0.014 +0.170 +0.440 +0.321 +0.319 +0.442 -0.012 +0.090 +0.445 +0.319 +0.087 -0.013 +0.317 +0.445 +0.087 -0.013 -0.013 +0.349 +0.451 +0.319 +0.318 +0.446 -0.015 +0.084 +0.446 +0.320 +0.100 -0.013 +0.312 +0.452 +0.115 -0.013 -0.015 +0.361 +0.450 +0.320 +0.307 +0.449 +0.091 -0.013 -0.015 +0.060 +0.445 +0.318 +0.319 +0.440 +0.113 -0.014 -0.015 +0.084 +0.445 +0.319 +0.319 +0.458 +0.108 -0.013 -0.012 +0.087 +0.432 +0.319 +0.095 -0.257 +0.203 +0.238 -0.368 +0.508
# oxidation-state Na +0.670 +0.741


-------- Electronic minimization -----------
	FillingsUpdate:  mu: -0.188992025  nElectrons: 1134.000000
ElecMinimize: Iter:   0  F: -7061.093698051236061  |grad|_K:  1.447e-05  alpha:  1.000e+00
	FillingsUpdate:  mu: -0.189786690  nElectrons: 1134.000000
	SubspaceRotationAdjust: set factor to 0.196
ElecMinimize: Iter:   1  F: -7061.102112928868337  |grad|_K:  7.079e-06  alpha:  3.038e-01  linmin:  5.070e-05  t[s]:     82.77
	FillingsUpdate:  mu: -0.190459019  nElectrons: 1134.000000
	SubspaceRotationAdjust: set factor to 0.129
ElecMinimize: Iter:   2  F: -7061.102866967922637  |grad|_K:  4.660e-06  alpha:  1.135e-01  linmin: -3.726e-05  t[s]:     93.46
	FillingsUpdate:  mu: -0.190288427  nElectrons: 1134.000000
	SubspaceRotationAdjust: set factor to 0.111
ElecMinimize: Iter:   3  F: -7061.103657231330544  |grad|_K:  3.947e-06  alpha:  2.744e-01  linmin: -1.017e-05  t[s]:    104.14
	FillingsUpdate:  mu: -0.190536443  nElectrons: 1134.000000
	SubspaceRotationAdjust: set factor to 0.146
ElecMinimize: Iter:   4  F: -7061.104032388771884  |grad|_K:  1.835e-06  alpha:  1.818e-01  linmin: -4.399e-07  t[s]:    114.84
	FillingsUpdate:  mu: -0.190665969  nElectrons: 1134.000000
	SubspaceRotationAdjust: set factor to 0.137
ElecMinimize: Iter:   5  F: -7061.104158012715743  |grad|_K:  1.780e-06  alpha:  2.818e-01  linmin:  5.516e-07  t[s]:    125.51
	FillingsUpdate:  mu: -0.190455980  nElectrons: 1134.000000
	SubspaceRotationAdjust: set factor to 0.116
ElecMinimize: Iter:   6  F: -7061.104243012452571  |grad|_K:  1.157e-06  alpha:  2.026e-01  linmin: -4.619e-07  t[s]:    136.20
	FillingsUpdate:  mu: -0.190409247  nElectrons: 1134.000000
	SubspaceRotationAdjust: set factor to 0.132
ElecMinimize: Iter:   7  F: -7061.104295899613135  |grad|_K:  1.003e-06  alpha:  2.986e-01  linmin: -2.043e-08  t[s]:    146.90
	FillingsUpdate:  mu: -0.190418043  nElectrons: 1134.000000
	SubspaceRotationAdjust: set factor to 0.125
ElecMinimize: Iter:   8  F: -7061.104329507778857  |grad|_K:  7.764e-07  alpha:  2.523e-01  linmin: -6.800e-08  t[s]:    157.57
	FillingsUpdate:  mu: -0.190351369  nElectrons: 1134.000000
	SubspaceRotationAdjust: set factor to 0.118
ElecMinimize: Iter:   9  F: -7061.104355734933051  |grad|_K:  7.568e-07  alpha:  3.287e-01  linmin: -4.628e-07  t[s]:    168.24
	FillingsUpdate:  mu: -0.190388325  nElectrons: 1134.000000
	SubspaceRotationAdjust: set factor to 0.118
ElecMinimize: Iter:  10  F: -7061.104373359811689  |grad|_K:  5.701e-07  alpha:  2.325e-01  linmin:  6.832e-08  t[s]:    178.95
	FillingsUpdate:  mu: -0.190373509  nElectrons: 1134.000000
	SubspaceRotationAdjust: set factor to 0.124
ElecMinimize: Iter:  11  F: -7061.104388922084581  |grad|_K:  5.215e-07  alpha:  3.618e-01  linmin:  2.509e-07  t[s]:    189.62
	FillingsUpdate:  mu: -0.190374681  nElectrons: 1134.000000
	SubspaceRotationAdjust: set factor to 0.124
ElecMinimize: Iter:  12  F: -7061.104398804396624  |grad|_K:  4.547e-07  alpha:  2.745e-01  linmin: -2.130e-08  t[s]:    200.32
	FillingsUpdate:  mu: -0.190418090  nElectrons: 1134.000000
	SubspaceRotationAdjust: set factor to 0.119
ElecMinimize: Iter:  13  F: -7061.104406322475370  |grad|_K:  3.698e-07  alpha:  2.748e-01  linmin:  5.435e-08  t[s]:    211.02
	FillingsUpdate:  mu: -0.190372547  nElectrons: 1134.000000
	SubspaceRotationAdjust: set factor to 0.117
ElecMinimize: Iter:  14  F: -7061.104412048210179  |grad|_K:  3.769e-07  alpha:  3.163e-01  linmin: -1.276e-07  t[s]:    221.71
	FillingsUpdate:  mu: -0.190376842  nElectrons: 1134.000000
	SubspaceRotationAdjust: set factor to 0.121
ElecMinimize: Iter:  15  F: -7061.104418201065528  |grad|_K:  2.797e-07  alpha:  3.273e-01  linmin: -1.447e-07  t[s]:    232.40
	FillingsUpdate:  mu: -0.190416440  nElectrons: 1134.000000
	SubspaceRotationAdjust: set factor to 0.106
ElecMinimize: Iter:  16  F: -7061.104420765280338  |grad|_K:  2.450e-07  alpha:  2.476e-01  linmin: -1.486e-07  t[s]:    243.10
	FillingsUpdate:  mu: -0.190401061  nElectrons: 1134.000000
	SubspaceRotationAdjust: set factor to 0.0964
ElecMinimize: Iter:  17  F: -7061.104423019389287  |grad|_K:  1.665e-07  alpha:  2.838e-01  linmin:  6.123e-08  t[s]:    253.81
	FillingsUpdate:  mu: -0.190394974  nElectrons: 1134.000000
	SubspaceRotationAdjust: set factor to 0.0907
ElecMinimize: Iter:  18  F: -7061.104424092778572  |grad|_K:  1.446e-07  alpha:  2.926e-01  linmin:  1.094e-06  t[s]:    264.49
	FillingsUpdate:  mu: -0.190402014  nElectrons: 1134.000000
	SubspaceRotationAdjust: set factor to 0.0865
ElecMinimize: Iter:  19  F: -7061.104424837672013  |grad|_K:  9.238e-08  alpha:  2.693e-01  linmin:  1.342e-06  t[s]:    275.18
	FillingsUpdate:  mu: -0.190398282  nElectrons: 1134.000000
	SubspaceRotationAdjust: set factor to 0.0823
ElecMinimize: Iter:  20  F: -7061.104425140436433  |grad|_K:  6.805e-08  alpha:  2.680e-01  linmin: -1.207e-07  t[s]:    285.88
	FillingsUpdate:  mu: -0.190397545  nElectrons: 1134.000000
	SubspaceRotationAdjust: set factor to 0.085
ElecMinimize: Iter:  21  F: -7061.104425321860617  |grad|_K:  5.215e-08  alpha:  2.954e-01  linmin: -1.218e-05  t[s]:    296.55
	FillingsUpdate:  mu: -0.190397555  nElectrons: 1134.000000
	SubspaceRotationAdjust: set factor to 0.0885
ElecMinimize: Iter:  22  F: -7061.104425426878151  |grad|_K:  3.771e-08  alpha:  2.911e-01  linmin:  5.637e-06  t[s]:    307.24
	FillingsUpdate:  mu: -0.190396858  nElectrons: 1134.000000
	SubspaceRotationAdjust: set factor to 0.0942
ElecMinimize: Iter:  23  F: -7061.104425480313694  |grad|_K:  3.112e-08  alpha:  2.832e-01  linmin: -1.922e-05  t[s]:    317.96
	FillingsUpdate:  mu: -0.190397585  nElectrons: 1134.000000
	SubspaceRotationAdjust: set factor to 0.108
ElecMinimize: Iter:  24  F: -7061.104425525898478  |grad|_K:  2.580e-08  alpha:  3.537e-01  linmin: -5.699e-06  t[s]:    328.66
	FillingsUpdate:  mu: -0.190397269  nElectrons: 1134.000000
	SubspaceRotationAdjust: set factor to 0.112
ElecMinimize: Iter:  25  F: -7061.104425553409783  |grad|_K:  2.577e-08  alpha:  3.107e-01  linmin: -1.112e-05  t[s]:    339.35
	FillingsUpdate:  mu: -0.190398116  nElectrons: 1134.000000
	SubspaceRotationAdjust: set factor to 0.123
ElecMinimize: Iter:  26  F: -7061.104425584243472  |grad|_K:  2.154e-08  alpha:  3.468e-01  linmin: -2.922e-05  t[s]:    350.05
	FillingsUpdate:  mu: -0.190398706  nElectrons: 1134.000000
	SubspaceRotationAdjust: set factor to 0.131
ElecMinimize: Iter:  27  F: -7061.104425605803954  |grad|_K:  2.227e-08  alpha:  3.438e-01  linmin:  7.767e-07  t[s]:    360.76
	FillingsUpdate:  mu: -0.190397288  nElectrons: 1134.000000
	SubspaceRotationAdjust: set factor to 0.12
ElecMinimize: Iter:  28  F: -7061.104425625945623  |grad|_K:  2.006e-08  alpha:  3.101e-01  linmin:  2.712e-06  t[s]:    371.45
	FillingsUpdate:  mu: -0.190398507  nElectrons: 1134.000000
	SubspaceRotationAdjust: set factor to 0.117
ElecMinimize: Iter:  29  F: -7061.104425640579393  |grad|_K:  1.637e-08  alpha:  2.723e-01  linmin: -7.323e-06  t[s]:    382.14
	FillingsUpdate:  mu: -0.190397956  nElectrons: 1134.000000
	SubspaceRotationAdjust: set factor to 0.117
ElecMinimize: Iter:  30  F: -7061.104425651400561  |grad|_K:  1.362e-08  alpha:  3.132e-01  linmin:  2.335e-05  t[s]:    392.84
	FillingsUpdate:  mu: -0.190396699  nElectrons: 1134.000000
	SubspaceRotationAdjust: set factor to 0.11
ElecMinimize: Iter:  31  F: -7061.104425658490982  |grad|_K:  1.141e-08  alpha:  2.827e-01  linmin: -1.314e-05  t[s]:    403.53
	FillingsUpdate:  mu: -0.190397809  nElectrons: 1134.000000
	SubspaceRotationAdjust: set factor to 0.105
ElecMinimize: Iter:  32  F: -7061.104425663550501  |grad|_K:  9.082e-09  alpha:  2.964e-01  linmin: -5.263e-05  t[s]:    414.23
ElecMinimize: Converged (|Delta F|<1.000000e-08 for 2 iters).
Setting wave functions to eigenvectors of Hamiltonian
IonicMinimize: 	Predicted alpha/alphaT>3.000000, increasing alphaT to 3.000000e+00.

-------- Electronic minimization -----------
	FillingsUpdate:  mu: -0.187466199  nElectrons: 1134.000000
ElecMinimize: Iter:   0  F: -7061.065466295376609  |grad|_K:  2.858e-05  alpha:  1.000e+00
	FillingsUpdate:  mu: -0.188982713  nElectrons: 1134.000000
	SubspaceRotationAdjust: set factor to 0.104
ElecMinimize: Iter:   1  F: -7061.099949965312589  |grad|_K:  9.164e-06  alpha:  3.207e-01  linmin:  7.183e-04  t[s]:    433.68
	FillingsUpdate:  mu: -0.190265273  nElectrons: 1134.000000
	SubspaceRotationAdjust: set factor to 0.0932
ElecMinimize: Iter:   2  F: -7061.104503826714790  |grad|_K:  8.224e-06  alpha:  4.116e-01  linmin:  1.026e-05  t[s]:    444.45
	FillingsUpdate:  mu: -0.190143659  nElectrons: 1134.000000
	SubspaceRotationAdjust: set factor to 0.0801
ElecMinimize: Iter:   3  F: -7061.106274076916634  |grad|_K:  3.658e-06  alpha:  1.979e-01  linmin:  2.562e-06  t[s]:    455.13
	FillingsUpdate:  mu: -0.190549345  nElectrons: 1134.000000
	SubspaceRotationAdjust: set factor to 0.0862
ElecMinimize: Iter:   4  F: -7061.106958035171374  |grad|_K:  3.047e-06  alpha:  3.862e-01  linmin: -1.124e-06  t[s]:    465.81
	FillingsUpdate:  mu: -0.190303712  nElectrons: 1134.000000
	SubspaceRotationAdjust: set factor to 0.0895
ElecMinimize: Iter:   5  F: -7061.107343494332781  |grad|_K:  2.213e-06  alpha:  3.136e-01  linmin: -6.546e-07  t[s]:    476.50
	FillingsUpdate:  mu: -0.190369675  nElectrons: 1134.000000
	SubspaceRotationAdjust: set factor to 0.0981
ElecMinimize: Iter:   6  F: -7061.107563006725286  |grad|_K:  1.695e-06  alpha:  3.386e-01  linmin:  6.180e-07  t[s]:    487.20
	FillingsUpdate:  mu: -0.190401770  nElectrons: 1134.000000
	SubspaceRotationAdjust: set factor to 0.111
ElecMinimize: Iter:   7  F: -7061.107780464547432  |grad|_K:  1.640e-06  alpha:  5.718e-01  linmin: -8.927e-07  t[s]:    497.90
	FillingsUpdate:  mu: -0.190257700  nElectrons: 1134.000000
	SubspaceRotationAdjust: set factor to 0.114
ElecMinimize: Iter:   8  F: -7061.107889277242975  |grad|_K:  1.561e-06  alpha:  3.056e-01  linmin: -1.172e-07  t[s]:    508.60
	FillingsUpdate:  mu: -0.190321626  nElectrons: 1134.000000
	SubspaceRotationAdjust: set factor to 0.112
ElecMinimize: Iter:   9  F: -7061.108036192728832  |grad|_K:  1.493e-06  alpha:  4.557e-01  linmin:  9.253e-07  t[s]:    519.96
	FillingsUpdate:  mu: -0.190251102  nElectrons: 1134.000000
	SubspaceRotationAdjust: set factor to 0.0926
ElecMinimize: Iter:  10  F: -7061.108132904051672  |grad|_K:  1.276e-06  alpha:  3.281e-01  linmin: -1.200e-07  t[s]:    530.63
	FillingsUpdate:  mu: -0.190388682  nElectrons: 1134.000000
	SubspaceRotationAdjust: set factor to 0.0885
ElecMinimize: Iter:  11  F: -7061.108201944167376  |grad|_K:  1.189e-06  alpha:  3.202e-01  linmin:  1.622e-07  t[s]:    541.32
	FillingsUpdate:  mu: -0.190295465  nElectrons: 1134.000000
	SubspaceRotationAdjust: set factor to 0.0893
ElecMinimize: Iter:  12  F: -7061.108288591172823  |grad|_K:  9.847e-07  alpha:  4.628e-01  linmin:  2.113e-07  t[s]:    552.02
	FillingsUpdate:  mu: -0.190358297  nElectrons: 1134.000000
	SubspaceRotationAdjust: set factor to 0.0844
ElecMinimize: Iter:  13  F: -7061.108328610409444  |grad|_K:  7.490e-07  alpha:  3.119e-01  linmin:  1.314e-08  t[s]:    562.72
	FillingsUpdate:  mu: -0.190382027  nElectrons: 1134.000000
	SubspaceRotationAdjust: set factor to 0.0772
ElecMinimize: Iter:  14  F: -7061.108354387958570  |grad|_K:  5.906e-07  alpha:  3.472e-01  linmin: -1.086e-08  t[s]:    573.43
	FillingsUpdate:  mu: -0.190334422  nElectrons: 1134.000000
	SubspaceRotationAdjust: set factor to 0.0804
ElecMinimize: Iter:  15  F: -7061.108368664198679  |grad|_K:  3.805e-07  alpha:  3.092e-01  linmin: -2.512e-08  t[s]:    584.15
	FillingsUpdate:  mu: -0.190377370  nElectrons: 1134.000000
	SubspaceRotationAdjust: set factor to 0.0713
ElecMinimize: Iter:  16  F: -7061.108375551254539  |grad|_K:  3.160e-07  alpha:  3.593e-01  linmin:  2.232e-07  t[s]:    594.86
	FillingsUpdate:  mu: -0.190346487  nElectrons: 1134.000000
	SubspaceRotationAdjust: set factor to 0.0704
ElecMinimize: Iter:  17  F: -7061.108379136569965  |grad|_K:  1.770e-07  alpha:  2.713e-01  linmin: -1.523e-07  t[s]:    605.58
	FillingsUpdate:  mu: -0.190344979  nElectrons: 1134.000000
	SubspaceRotationAdjust: set factor to 0.0726
ElecMinimize: Iter:  18  F: -7061.108380822738582  |grad|_K:  1.509e-07  alpha:  4.068e-01  linmin: -9.846e-08  t[s]:    616.31
	FillingsUpdate:  mu: -0.190353523  nElectrons: 1134.000000
	SubspaceRotationAdjust: set factor to 0.0793
ElecMinimize: Iter:  19  F: -7061.108381757901952  |grad|_K:  1.038e-07  alpha:  3.105e-01  linmin:  7.510e-08  t[s]:    627.02
	FillingsUpdate:  mu: -0.190343224  nElectrons: 1134.000000
	SubspaceRotationAdjust: set factor to 0.0864
ElecMinimize: Iter:  20  F: -7061.108382309359513  |grad|_K:  9.158e-08  alpha:  3.865e-01  linmin: -2.497e-06  t[s]:    637.73
	FillingsUpdate:  mu: -0.190347861  nElectrons: 1134.000000
	SubspaceRotationAdjust: set factor to 0.104
ElecMinimize: Iter:  21  F: -7061.108382754861850  |grad|_K:  8.516e-08  alpha:  4.011e-01  linmin:  1.567e-06  t[s]:    648.42
	FillingsUpdate:  mu: -0.190345078  nElectrons: 1134.000000
	SubspaceRotationAdjust: set factor to 0.107
ElecMinimize: Iter:  22  F: -7061.108383140022852  |grad|_K:  8.216e-08  alpha:  4.013e-01  linmin: -4.888e-06  t[s]:    659.10
	FillingsUpdate:  mu: -0.190345252  nElectrons: 1134.000000
	SubspaceRotationAdjust: set factor to 0.103
ElecMinimize: Iter:  23  F: -7061.108383494080044  |grad|_K:  7.658e-08  alpha:  3.954e-01  linmin: -2.381e-07  t[s]:    669.77
	FillingsUpdate:  mu: -0.190336870  nElectrons: 1134.000000
	SubspaceRotationAdjust: set factor to 0.105
ElecMinimize: Iter:  24  F: -7061.108383826499448  |grad|_K:  7.729e-08  alpha:  4.280e-01  linmin: -2.737e-06  t[s]:    680.46
	FillingsUpdate:  mu: -0.190341506  nElectrons: 1134.000000
	SubspaceRotationAdjust: set factor to 0.101
ElecMinimize: Iter:  25  F: -7061.108384063782978  |grad|_K:  5.631e-08  alpha:  2.998e-01  linmin: -1.396e-06  t[s]:    691.19
	FillingsUpdate:  mu: -0.190338560  nElectrons: 1134.000000
	SubspaceRotationAdjust: set factor to 0.0972
ElecMinimize: Iter:  26  F: -7061.108384231086347  |grad|_K:  5.359e-08  alpha:  3.976e-01  linmin: -1.744e-06  t[s]:    701.91
	FillingsUpdate:  mu: -0.190336362  nElectrons: 1134.000000
	SubspaceRotationAdjust: set factor to 0.0943
ElecMinimize: Iter:  27  F: -7061.108384362749348  |grad|_K:  3.941e-08  alpha:  3.460e-01  linmin: -3.827e-06  t[s]:    712.61
	FillingsUpdate:  mu: -0.190339114  nElectrons: 1134.000000
	SubspaceRotationAdjust: set factor to 0.0879
ElecMinimize: Iter:  28  F: -7061.108384434872278  |grad|_K:  3.160e-08  alpha:  3.512e-01  linmin: -4.372e-06  t[s]:    723.31
	FillingsUpdate:  mu: -0.190335945  nElectrons: 1134.000000
	SubspaceRotationAdjust: set factor to 0.0805
ElecMinimize: Iter:  29  F: -7061.108384482147812  |grad|_K:  2.744e-08  alpha:  3.588e-01  linmin:  1.669e-05  t[s]:    734.02
	FillingsUpdate:  mu: -0.190337760  nElectrons: 1134.000000
	SubspaceRotationAdjust: set factor to 0.0739
ElecMinimize: Iter:  30  F: -7061.108384515470789  |grad|_K:  1.836e-08  alpha:  3.335e-01  linmin: -4.255e-06  t[s]:    744.72
	FillingsUpdate:  mu: -0.190337282  nElectrons: 1134.000000
	SubspaceRotationAdjust: set factor to 0.0761
ElecMinimize: Iter:  31  F: -7061.108384531603406  |grad|_K:  1.559e-08  alpha:  3.660e-01  linmin:  2.872e-05  t[s]:    755.43
	FillingsUpdate:  mu: -0.190337358  nElectrons: 1134.000000
	SubspaceRotationAdjust: set factor to 0.0806
ElecMinimize: Iter:  32  F: -7061.108384542254498  |grad|_K:  1.121e-08  alpha:  3.324e-01  linmin: -8.249e-06  t[s]:    766.13
	FillingsUpdate:  mu: -0.190337460  nElectrons: 1134.000000
	SubspaceRotationAdjust: set factor to 0.0861
ElecMinimize: Iter:  33  F: -7061.108384548418144  |grad|_K:  9.132e-09  alpha:  3.899e-01  linmin:  5.621e-04  t[s]:    776.82
	FillingsUpdate:  mu: -0.190337293  nElectrons: 1134.000000
	SubspaceRotationAdjust: set factor to 0.0957
ElecMinimize: Iter:  34  F: -7061.108384551830568  |grad|_K:  7.419e-09  alpha:  3.497e-01  linmin:  2.782e-04  t[s]:    787.53
ElecMinimize: Converged (|Delta F|<1.000000e-08 for 2 iters).
Setting wave functions to eigenvectors of Hamiltonian
IonicMinimize: 	Predicted alpha/alphaT>3.000000, increasing alphaT to 9.000000e+00.

-------- Electronic minimization -----------
	FillingsUpdate:  mu: -0.180469268  nElectrons: 1134.000000
ElecMinimize: Iter:   0  F: -7060.727822669118723  |grad|_K:  8.705e-05  alpha:  1.000e+00
	FillingsUpdate:  mu: -0.185619416  nElectrons: 1134.000000
	SubspaceRotationAdjust: set factor to 0.0961
ElecMinimize: Iter:   1  F: -7061.035138275528880  |grad|_K:  3.076e-05  alpha:  3.231e-01  linmin:  6.570e-03  t[s]:    814.01
	FillingsUpdate:  mu: -0.189028030  nElectrons: 1134.000000
	SubspaceRotationAdjust: set factor to 0.0902
ElecMinimize: Iter:   2  F: -7061.080285072434890  |grad|_K:  2.252e-05  alpha:  3.781e-01  linmin: -1.442e-05  t[s]:    824.71
	FillingsUpdate:  mu: -0.188631957  nElectrons: 1134.000000
	SubspaceRotationAdjust: set factor to 0.0766
ElecMinimize: Iter:   3  F: -7061.096216040464242  |grad|_K:  1.310e-05  alpha:  2.374e-01  linmin:  1.562e-06  t[s]:    835.41
	FillingsUpdate:  mu: -0.190358891  nElectrons: 1134.000000
	SubspaceRotationAdjust: set factor to 0.0816
ElecMinimize: Iter:   4  F: -7061.102600237711158  |grad|_K:  8.316e-06  alpha:  2.810e-01  linmin: -6.034e-06  t[s]:    846.13
	FillingsUpdate:  mu: -0.189893181  nElectrons: 1134.000000
	SubspaceRotationAdjust: set factor to 0.087
ElecMinimize: Iter:   5  F: -7061.106975712868916  |grad|_K:  6.641e-06  alpha:  4.779e-01  linmin:  1.046e-06  t[s]:    856.85
	FillingsUpdate:  mu: -0.190383041  nElectrons: 1134.000000
	SubspaceRotationAdjust: set factor to 0.0948
ElecMinimize: Iter:   6  F: -7061.108586813140391  |grad|_K:  5.301e-06  alpha:  2.759e-01  linmin: -1.664e-06  t[s]:    867.57
	FillingsUpdate:  mu: -0.190239331  nElectrons: 1134.000000
	SubspaceRotationAdjust: set factor to 0.11
ElecMinimize: Iter:   7  F: -7061.110719074253211  |grad|_K:  4.400e-06  alpha:  5.731e-01  linmin: -3.459e-06  t[s]:    878.28
	FillingsUpdate:  mu: -0.189998911  nElectrons: 1134.000000
	SubspaceRotationAdjust: set factor to 0.116
ElecMinimize: Iter:   8  F: -7061.112011253451783  |grad|_K:  5.041e-06  alpha:  5.040e-01  linmin: -1.272e-07  t[s]:    888.97
	FillingsUpdate:  mu: -0.190119781  nElectrons: 1134.000000
	SubspaceRotationAdjust: set factor to 0.119
ElecMinimize: Iter:   9  F: -7061.113155925504543  |grad|_K:  4.536e-06  alpha:  3.403e-01  linmin: -2.135e-07  t[s]:    899.68
	FillingsUpdate:  mu: -0.190106516  nElectrons: 1134.000000
	SubspaceRotationAdjust: set factor to 0.113
ElecMinimize: Iter:  10  F: -7061.114185451629965  |grad|_K:  3.688e-06  alpha:  3.780e-01  linmin: -1.088e-06  t[s]:    910.39
	FillingsUpdate:  mu: -0.190301417  nElectrons: 1134.000000
	SubspaceRotationAdjust: set factor to 0.0938
ElecMinimize: Iter:  11  F: -7061.114932671485803  |grad|_K:  3.992e-06  alpha:  4.149e-01  linmin:  1.782e-06  t[s]:    921.10
	FillingsUpdate:  mu: -0.189945044  nElectrons: 1134.000000
	SubspaceRotationAdjust: set factor to 0.0841
ElecMinimize: Iter:  12  F: -7061.115591543762093  |grad|_K:  3.201e-06  alpha:  3.127e-01  linmin: -1.746e-07  t[s]:    931.80
	FillingsUpdate:  mu: -0.190357727  nElectrons: 1134.000000
	SubspaceRotationAdjust: set factor to 0.085
ElecMinimize: Iter:  13  F: -7061.116013557928454  |grad|_K:  2.231e-06  alpha:  3.111e-01  linmin:  2.105e-07  t[s]:    942.50
	FillingsUpdate:  mu: -0.190246196  nElectrons: 1134.000000
	SubspaceRotationAdjust: set factor to 0.081
ElecMinimize: Iter:  14  F: -7061.116261013714393  |grad|_K:  1.744e-06  alpha:  3.756e-01  linmin:  1.996e-07  t[s]:    953.20
	FillingsUpdate:  mu: -0.190228797  nElectrons: 1134.000000
	SubspaceRotationAdjust: set factor to 0.0749
ElecMinimize: Iter:  15  F: -7061.116374276095485  |grad|_K:  1.254e-06  alpha:  2.813e-01  linmin:  1.042e-08  t[s]:    963.89
	FillingsUpdate:  mu: -0.190296261  nElectrons: 1134.000000
	SubspaceRotationAdjust: set factor to 0.0777
ElecMinimize: Iter:  16  F: -7061.116451432210852  |grad|_K:  8.369e-07  alpha:  3.706e-01  linmin:  1.574e-07  t[s]:    974.60
	FillingsUpdate:  mu: -0.190205048  nElectrons: 1134.000000
	SubspaceRotationAdjust: set factor to 0.0702
ElecMinimize: Iter:  17  F: -7061.116477390662112  |grad|_K:  6.222e-07  alpha:  2.800e-01  linmin: -1.609e-07  t[s]:    985.29
	FillingsUpdate:  mu: -0.190258735  nElectrons: 1134.000000
	SubspaceRotationAdjust: set factor to 0.0737
ElecMinimize: Iter:  18  F: -7061.116495935403691  |grad|_K:  4.400e-07  alpha:  3.619e-01  linmin:  7.453e-08  t[s]:    995.99
	FillingsUpdate:  mu: -0.190253940  nElectrons: 1134.000000
	SubspaceRotationAdjust: set factor to 0.0831
ElecMinimize: Iter:  19  F: -7061.116504335667742  |grad|_K:  3.435e-07  alpha:  3.279e-01  linmin: -2.112e-07  t[s]:   1006.69
	FillingsUpdate:  mu: -0.190224898  nElectrons: 1134.000000
	SubspaceRotationAdjust: set factor to 0.0917
ElecMinimize: Iter:  20  F: -7061.116510636420571  |grad|_K:  3.021e-07  alpha:  4.034e-01  linmin:  5.703e-08  t[s]:   1017.37
	FillingsUpdate:  mu: -0.190239205  nElectrons: 1134.000000
	SubspaceRotationAdjust: set factor to 0.106
ElecMinimize: Iter:  21  F: -7061.116514916084270  |grad|_K:  2.776e-07  alpha:  3.543e-01  linmin:  5.936e-09  t[s]:   1028.06
	FillingsUpdate:  mu: -0.190217180  nElectrons: 1134.000000
	SubspaceRotationAdjust: set factor to 0.115
ElecMinimize: Iter:  22  F: -7061.116519668315959  |grad|_K:  2.871e-07  alpha:  4.659e-01  linmin: -4.363e-07  t[s]:   1038.76
	FillingsUpdate:  mu: -0.190219269  nElectrons: 1134.000000
	SubspaceRotationAdjust: set factor to 0.117
ElecMinimize: Iter:  23  F: -7061.116523341517677  |grad|_K:  2.515e-07  alpha:  3.367e-01  linmin: -5.387e-08  t[s]:   1049.47
	FillingsUpdate:  mu: -0.190197555  nElectrons: 1134.000000
	SubspaceRotationAdjust: set factor to 0.111
ElecMinimize: Iter:  24  F: -7061.116527061923989  |grad|_K:  2.618e-07  alpha:  4.443e-01  linmin:  5.088e-08  t[s]:   1060.20
	FillingsUpdate:  mu: -0.190211835  nElectrons: 1134.000000
	SubspaceRotationAdjust: set factor to 0.105
ElecMinimize: Iter:  25  F: -7061.116529719254686  |grad|_K:  1.902e-07  alpha:  2.930e-01  linmin: -1.561e-07  t[s]:   1070.89
	FillingsUpdate:  mu: -0.190193521  nElectrons: 1134.000000
	SubspaceRotationAdjust: set factor to 0.0979
ElecMinimize: Iter:  26  F: -7061.116531411543292  |grad|_K:  1.783e-07  alpha:  3.533e-01  linmin: -4.031e-07  t[s]:   1081.58
	FillingsUpdate:  mu: -0.190194546  nElectrons: 1134.000000
	SubspaceRotationAdjust: set factor to 0.0936
ElecMinimize: Iter:  27  F: -7061.116532816421568  |grad|_K:  1.352e-07  alpha:  3.340e-01  linmin: -5.573e-07  t[s]:   1092.30
	FillingsUpdate:  mu: -0.190201290  nElectrons: 1134.000000
	SubspaceRotationAdjust: set factor to 0.0864
ElecMinimize: Iter:  28  F: -7061.116533648279074  |grad|_K:  1.042e-07  alpha:  3.439e-01  linmin:  2.784e-07  t[s]:   1103.00
	FillingsUpdate:  mu: -0.190190681  nElectrons: 1134.000000
	SubspaceRotationAdjust: set factor to 0.0884
ElecMinimize: Iter:  29  F: -7061.116534161884374  |grad|_K:  8.767e-08  alpha:  3.574e-01  linmin:  9.123e-09  t[s]:   1113.69
	FillingsUpdate:  mu: -0.190198218  nElectrons: 1134.000000
	SubspaceRotationAdjust: set factor to 0.0776
ElecMinimize: Iter:  30  F: -7061.116534501676142  |grad|_K:  6.787e-08  alpha:  3.340e-01  linmin:  6.992e-06  t[s]:   1124.38
	FillingsUpdate:  mu: -0.190197300  nElectrons: 1134.000000
	SubspaceRotationAdjust: set factor to 0.0816
ElecMinimize: Iter:  31  F: -7061.116534704296100  |grad|_K:  4.822e-08  alpha:  3.326e-01  linmin: -1.555e-05  t[s]:   1135.05
	FillingsUpdate:  mu: -0.190196594  nElectrons: 1134.000000
	SubspaceRotationAdjust: set factor to 0.0851
ElecMinimize: Iter:  32  F: -7061.116534814676015  |grad|_K:  4.246e-08  alpha:  3.583e-01  linmin:  1.006e-05  t[s]:   1145.74
	FillingsUpdate:  mu: -0.190197756  nElectrons: 1134.000000
	SubspaceRotationAdjust: set factor to 0.0968
ElecMinimize: Iter:  33  F: -7061.116534896581470  |grad|_K:  3.082e-08  alpha:  3.435e-01  linmin: -1.763e-05  t[s]:   1156.43
	FillingsUpdate:  mu: -0.190197443  nElectrons: 1134.000000
	SubspaceRotationAdjust: set factor to 0.108
ElecMinimize: Iter:  34  F: -7061.116534944199884  |grad|_K:  2.722e-08  alpha:  3.783e-01  linmin:  4.170e-05  t[s]:   1167.16
	FillingsUpdate:  mu: -0.190198107  nElectrons: 1134.000000
	SubspaceRotationAdjust: set factor to 0.126
ElecMinimize: Iter:  35  F: -7061.116534981281802  |grad|_K:  2.662e-08  alpha:  3.797e-01  linmin:  1.399e-05  t[s]:   1177.84
	FillingsUpdate:  mu: -0.190198236  nElectrons: 1134.000000
	SubspaceRotationAdjust: set factor to 0.124
ElecMinimize: Iter:  36  F: -7061.116535015051340  |grad|_K:  2.354e-08  alpha:  3.608e-01  linmin: -1.886e-05  t[s]:   1188.54
	FillingsUpdate:  mu: -0.190201217  nElectrons: 1134.000000
	SubspaceRotationAdjust: set factor to 0.119
ElecMinimize: Iter:  37  F: -7061.116535039615883  |grad|_K:  2.373e-08  alpha:  3.349e-01  linmin: -1.079e-05  t[s]:   1199.24
	FillingsUpdate:  mu: -0.190199651  nElectrons: 1134.000000
	SubspaceRotationAdjust: set factor to 0.117
ElecMinimize: Iter:  38  F: -7061.116535064244090  |grad|_K:  1.924e-08  alpha:  3.297e-01  linmin:  1.158e-05  t[s]:   1209.96
	FillingsUpdate:  mu: -0.190201427  nElectrons: 1134.000000
	SubspaceRotationAdjust: set factor to 0.119
ElecMinimize: Iter:  39  F: -7061.116535082528571  |grad|_K:  1.754e-08  alpha:  3.735e-01  linmin:  5.614e-06  t[s]:   1220.67
	FillingsUpdate:  mu: -0.190201812  nElectrons: 1134.000000
	SubspaceRotationAdjust: set factor to 0.118
ElecMinimize: Iter:  40  F: -7061.116535097084125  |grad|_K:  1.421e-08  alpha:  3.615e-01  linmin:  3.407e-05  t[s]:   1231.38
	FillingsUpdate:  mu: -0.190201178  nElectrons: 1134.000000
	SubspaceRotationAdjust: set factor to 0.114
ElecMinimize: Iter:  41  F: -7061.116535105407820  |grad|_K:  1.210e-08  alpha:  3.077e-01  linmin: -4.603e-05  t[s]:   1242.06
	FillingsUpdate:  mu: -0.190201976  nElectrons: 1134.000000
	SubspaceRotationAdjust: set factor to 0.109
ElecMinimize: Iter:  42  F: -7061.116535111918893  |grad|_K:  9.711e-09  alpha:  3.502e-01  linmin: -1.395e-05  t[s]:   1252.75
ElecMinimize: Converged (|Delta F|<1.000000e-08 for 2 iters).
Setting wave functions to eigenvectors of Hamiltonian

-------- Electronic minimization -----------
	FillingsUpdate:  mu: -0.181190763  nElectrons: 1134.000000
ElecMinimize: Iter:   0  F: -7060.790849507186067  |grad|_K:  7.992e-05  alpha:  1.000e+00
	FillingsUpdate:  mu: -0.185843565  nElectrons: 1134.000000
	SubspaceRotationAdjust: set factor to 0.108
ElecMinimize: Iter:   1  F: -7061.051281171843584  |grad|_K:  2.815e-05  alpha:  3.219e-01  linmin:  4.968e-03  t[s]:   1272.23
	FillingsUpdate:  mu: -0.188888293  nElectrons: 1134.000000
	SubspaceRotationAdjust: set factor to 0.0968
ElecMinimize: Iter:   2  F: -7061.087465492292722  |grad|_K:  2.245e-05  alpha:  3.589e-01  linmin:  1.233e-06  t[s]:   1282.96
	FillingsUpdate:  mu: -0.188818521  nElectrons: 1134.000000
	SubspaceRotationAdjust: set factor to 0.0783
ElecMinimize: Iter:   3  F: -7061.102143341235205  |grad|_K:  1.232e-05  alpha:  2.201e-01  linmin:  1.772e-06  t[s]:   1293.67
	FillingsUpdate:  mu: -0.190333293  nElectrons: 1134.000000
	SubspaceRotationAdjust: set factor to 0.0839
ElecMinimize: Iter:   4  F: -7061.107945914943230  |grad|_K:  7.867e-06  alpha:  2.888e-01  linmin: -9.404e-06  t[s]:   1304.34
	FillingsUpdate:  mu: -0.189789031  nElectrons: 1134.000000
	SubspaceRotationAdjust: set factor to 0.0859
ElecMinimize: Iter:   5  F: -7061.111365811943870  |grad|_K:  6.892e-06  alpha:  4.173e-01  linmin: -2.140e-06  t[s]:   1315.02
	FillingsUpdate:  mu: -0.190145442  nElectrons: 1134.000000
	SubspaceRotationAdjust: set factor to 0.0957
ElecMinimize: Iter:   6  F: -7061.113042293502986  |grad|_K:  4.523e-06  alpha:  2.666e-01  linmin: -1.124e-06  t[s]:   1325.72
	FillingsUpdate:  mu: -0.190282648  nElectrons: 1134.000000
	SubspaceRotationAdjust: set factor to 0.108
ElecMinimize: Iter:   7  F: -7061.114757749001001  |grad|_K:  4.422e-06  alpha:  6.335e-01  linmin: -2.531e-06  t[s]:   1336.45
	FillingsUpdate:  mu: -0.189791157  nElectrons: 1134.000000
	SubspaceRotationAdjust: set factor to 0.115
ElecMinimize: Iter:   8  F: -7061.115571696594088  |grad|_K:  4.353e-06  alpha:  3.144e-01  linmin: -3.106e-07  t[s]:   1347.15
	FillingsUpdate:  mu: -0.190067620  nElectrons: 1134.000000
	SubspaceRotationAdjust: set factor to 0.111
ElecMinimize: Iter:   9  F: -7061.116614221916279  |grad|_K:  4.056e-06  alpha:  4.157e-01  linmin:  1.853e-06  t[s]:   1357.85
	FillingsUpdate:  mu: -0.189878181  nElectrons: 1134.000000
	SubspaceRotationAdjust: set factor to 0.0904
ElecMinimize: Iter:  10  F: -7061.117390460477509  |grad|_K:  3.618e-06  alpha:  3.568e-01  linmin: -8.465e-07  t[s]:   1368.54
	FillingsUpdate:  mu: -0.190192950  nElectrons: 1134.000000
	SubspaceRotationAdjust: set factor to 0.0868
ElecMinimize: Iter:  11  F: -7061.117939661953642  |grad|_K:  3.263e-06  alpha:  3.169e-01  linmin:  5.200e-07  t[s]:   1379.24
	FillingsUpdate:  mu: -0.189937454  nElectrons: 1134.000000
	SubspaceRotationAdjust: set factor to 0.0882
ElecMinimize: Iter:  12  F: -7061.118543915705231  |grad|_K:  2.870e-06  alpha:  4.290e-01  linmin:  7.544e-07  t[s]:   1389.94
	FillingsUpdate:  mu: -0.190134826  nElectrons: 1134.000000
	SubspaceRotationAdjust: set factor to 0.085
ElecMinimize: Iter:  13  F: -7061.118962759019269  |grad|_K:  2.070e-06  alpha:  3.842e-01  linmin: -3.182e-08  t[s]:   1400.62
	FillingsUpdate:  mu: -0.190195626  nElectrons: 1134.000000
	SubspaceRotationAdjust: set factor to 0.0791
ElecMinimize: Iter:  14  F: -7061.119153094186913  |grad|_K:  1.739e-06  alpha:  3.357e-01  linmin:  8.579e-08  t[s]:   1411.32
	FillingsUpdate:  mu: -0.190125603  nElectrons: 1134.000000
	SubspaceRotationAdjust: set factor to 0.0793
ElecMinimize: Iter:  15  F: -7061.119274907940053  |grad|_K:  1.107e-06  alpha:  3.044e-01  linmin: -2.447e-08  t[s]:   1422.00
	FillingsUpdate:  mu: -0.190218867  nElectrons: 1134.000000
	SubspaceRotationAdjust: set factor to 0.0734
ElecMinimize: Iter:  16  F: -7061.119341023644665  |grad|_K:  8.517e-07  alpha:  4.074e-01  linmin:  3.437e-07  t[s]:   1432.71
	FillingsUpdate:  mu: -0.190128543  nElectrons: 1134.000000
	SubspaceRotationAdjust: set factor to 0.0675
ElecMinimize: Iter:  17  F: -7061.119365786997150  |grad|_K:  5.489e-07  alpha:  2.580e-01  linmin: -7.941e-08  t[s]:   1443.42
	FillingsUpdate:  mu: -0.190154486  nElectrons: 1134.000000
	SubspaceRotationAdjust: set factor to 0.0735
ElecMinimize: Iter:  18  F: -7061.119381621248067  |grad|_K:  4.038e-07  alpha:  3.971e-01  linmin:  4.736e-08  t[s]:   1454.13
	FillingsUpdate:  mu: -0.190167117  nElectrons: 1134.000000
	SubspaceRotationAdjust: set factor to 0.0781
ElecMinimize: Iter:  19  F: -7061.119388882474595  |grad|_K:  3.019e-07  alpha:  3.364e-01  linmin:  6.185e-08  t[s]:   1464.83
	FillingsUpdate:  mu: -0.190142920  nElectrons: 1134.000000
	SubspaceRotationAdjust: set factor to 0.0874
ElecMinimize: Iter:  20  F: -7061.119393413316175  |grad|_K:  2.571e-07  alpha:  3.757e-01  linmin:  3.554e-08  t[s]:   1475.53
	FillingsUpdate:  mu: -0.190150963  nElectrons: 1134.000000
	SubspaceRotationAdjust: set factor to 0.1
ElecMinimize: Iter:  21  F: -7061.119396813974163  |grad|_K:  2.221e-07  alpha:  3.886e-01  linmin:  6.637e-08  t[s]:   1486.21
	FillingsUpdate:  mu: -0.190145510  nElectrons: 1134.000000
	SubspaceRotationAdjust: set factor to 0.113
ElecMinimize: Iter:  22  F: -7061.119399862449427  |grad|_K:  2.406e-07  alpha:  4.671e-01  linmin: -6.025e-07  t[s]:   1496.88
	FillingsUpdate:  mu: -0.190142918  nElectrons: 1134.000000
	SubspaceRotationAdjust: set factor to 0.107
ElecMinimize: Iter:  23  F: -7061.119402429674665  |grad|_K:  1.987e-07  alpha:  3.349e-01  linmin: -1.555e-08  t[s]:   1507.56
	FillingsUpdate:  mu: -0.190117949  nElectrons: 1134.000000
	SubspaceRotationAdjust: set factor to 0.109
ElecMinimize: Iter:  24  F: -7061.119404994800789  |grad|_K:  2.208e-07  alpha:  4.907e-01  linmin: -1.820e-08  t[s]:   1518.27
	FillingsUpdate:  mu: -0.190133398  nElectrons: 1134.000000
	SubspaceRotationAdjust: set factor to 0.11
ElecMinimize: Iter:  25  F: -7061.119406795796749  |grad|_K:  1.537e-07  alpha:  2.791e-01  linmin:  1.905e-08  t[s]:   1528.96
	FillingsUpdate:  mu: -0.190115561  nElectrons: 1134.000000
	SubspaceRotationAdjust: set factor to 0.103
ElecMinimize: Iter:  26  F: -7061.119408090629804  |grad|_K:  1.531e-07  alpha:  4.141e-01  linmin: -2.482e-07  t[s]:   1539.65
	FillingsUpdate:  mu: -0.190119005  nElectrons: 1134.000000
	SubspaceRotationAdjust: set factor to 0.0921
ElecMinimize: Iter:  27  F: -7061.119409013273980  |grad|_K:  1.126e-07  alpha:  2.975e-01  linmin:  1.239e-07  t[s]:   1550.34
	FillingsUpdate:  mu: -0.190118837  nElectrons: 1134.000000
	SubspaceRotationAdjust: set factor to 0.0904
ElecMinimize: Iter:  28  F: -7061.119409668062872  |grad|_K:  8.667e-08  alpha:  3.906e-01  linmin:  3.040e-06  t[s]:   1561.05
	FillingsUpdate:  mu: -0.190113456  nElectrons: 1134.000000
	SubspaceRotationAdjust: set factor to 0.0865
ElecMinimize: Iter:  29  F: -7061.119410013189736  |grad|_K:  7.521e-08  alpha:  3.475e-01  linmin:  9.543e-07  t[s]:   1571.72
	FillingsUpdate:  mu: -0.190117636  nElectrons: 1134.000000
	SubspaceRotationAdjust: set factor to 0.0839
ElecMinimize: Iter:  30  F: -7061.119410285577032  |grad|_K:  5.267e-08  alpha:  3.639e-01  linmin: -2.786e-07  t[s]:   1582.43
	FillingsUpdate:  mu: -0.190114345  nElectrons: 1134.000000
	SubspaceRotationAdjust: set factor to 0.0855
ElecMinimize: Iter:  31  F: -7061.119410409246484  |grad|_K:  4.237e-08  alpha:  3.372e-01  linmin:  6.886e-06  t[s]:   1593.12
	FillingsUpdate:  mu: -0.190116181  nElectrons: 1134.000000
	SubspaceRotationAdjust: set factor to 0.0897
ElecMinimize: Iter:  32  F: -7061.119410491229246  |grad|_K:  3.296e-08  alpha:  3.444e-01  linmin: -1.586e-06  t[s]:   1603.83
	FillingsUpdate:  mu: -0.190115499  nElectrons: 1134.000000
	SubspaceRotationAdjust: set factor to 0.0949
ElecMinimize: Iter:  33  F: -7061.119410541620709  |grad|_K:  2.460e-08  alpha:  3.519e-01  linmin: -3.275e-05  t[s]:   1614.51
	FillingsUpdate:  mu: -0.190116109  nElectrons: 1134.000000
	SubspaceRotationAdjust: set factor to 0.103
ElecMinimize: Iter:  34  F: -7061.119410570388936  |grad|_K:  2.064e-08  alpha:  3.567e-01  linmin:  5.163e-05  t[s]:   1625.19
	FillingsUpdate:  mu: -0.190115889  nElectrons: 1134.000000
	SubspaceRotationAdjust: set factor to 0.12
ElecMinimize: Iter:  35  F: -7061.119410591547421  |grad|_K:  1.845e-08  alpha:  3.742e-01  linmin: -5.333e-05  t[s]:   1635.89
	FillingsUpdate:  mu: -0.190116407  nElectrons: 1134.000000
	SubspaceRotationAdjust: set factor to 0.13
ElecMinimize: Iter:  36  F: -7061.119410608860562  |grad|_K:  1.570e-08  alpha:  3.788e-01  linmin: -9.045e-05  t[s]:   1646.59
	FillingsUpdate:  mu: -0.190118004  nElectrons: 1134.000000
	SubspaceRotationAdjust: set factor to 0.131
ElecMinimize: Iter:  37  F: -7061.119410621547104  |grad|_K:  1.624e-08  alpha:  3.872e-01  linmin: -2.564e-06  t[s]:   1657.30
	FillingsUpdate:  mu: -0.190117281  nElectrons: 1134.000000
	SubspaceRotationAdjust: set factor to 0.127
ElecMinimize: Iter:  38  F: -7061.119410632537438  |grad|_K:  1.395e-08  alpha:  3.120e-01  linmin:  3.233e-05  t[s]:   1667.99
	FillingsUpdate:  mu: -0.190119189  nElectrons: 1134.000000
	SubspaceRotationAdjust: set factor to 0.113
ElecMinimize: Iter:  39  F: -7061.119410640179922  |grad|_K:  1.265e-08  alpha:  3.127e-01  linmin:  5.113e-05  t[s]:   1678.69
	FillingsUpdate:  mu: -0.190118748  nElectrons: 1134.000000
	SubspaceRotationAdjust: set factor to 0.0996
ElecMinimize: Iter:  40  F: -7061.119410646958386  |grad|_K:  1.007e-08  alpha:  3.412e-01  linmin:  1.891e-04  t[s]:   1689.37
ElecMinimize: Converged (|Delta F|<1.000000e-08 for 2 iters).
Setting wave functions to eigenvectors of Hamiltonian

# Ionic positions in cartesian coordinates:
ion Ni  32.181155145269997   0.000000000000000  10.727052344999997 0
ion Ni   5.363526172499999   0.000000000000000   5.363526172499999 0
ion Ni  32.181155145269997   5.363526172499999   5.363526172499999 0
ion Ni   5.363526172499999   5.363526172499999  10.727052344999997 0
ion Ni  32.181155145269997  10.727052344999999  10.727052344999997 0
ion Ni  32.181155145269997  21.454102800270000  10.727052344999997 0
ion Ni   5.363526172499999  21.454102800270000   5.363526172499999 0
ion Ni   5.363526172499999  10.727052344999999   5.363526172499999 0
ion Ni  32.181155145269997  16.090578517499999   5.363526172499999 0
ion Ni  32.181155145269997  26.817628972769999   5.363526172499999 0
ion Ni   5.363526172499999  26.817628972769999  10.727052344999997 0
ion Ni   5.363526172499999  16.090578517499999  10.727052344999997 0
ion Ni  10.727052344999999   0.000000000000000  10.727052344999997 0
ion Ni  21.454102800270000   0.000000000000000  10.727052344999997 0
ion Ni  21.454102800270000   5.363526172499999   5.363526172499999 0
ion Ni  10.727052344999999   5.363526172499999   5.363526172499999 0
ion Ni  16.090578517499999   5.363526172499999  10.727052344999997 0
ion Ni  26.817628972769999   5.363526172499999  10.727052344999997 0
ion Ni  26.817628972769999   0.000000000000000   5.363526172499999 0
ion Ni  16.090578517499999   0.000000000000000   5.363526172499999 0
ion Ni  10.727052344999999  10.727052344999999  10.727052344999997 0
ion Ni  21.454102800270000  21.454102800270000  10.727052344999997 0
ion Ni  26.817628972769999  21.454102800270000   5.363526172499999 0
ion Ni  16.090578517499999  10.727052344999999   5.363526172499999 0
ion Ni  21.454102800270000  16.090578517499999   5.363526172499999 0
ion Ni  10.727052344999999  26.817628972769999   5.363526172499999 0
ion Ni  16.090578517499999  26.817628972769999  10.727052344999997 0
ion Ni  26.817628972769999  16.090578517499999  10.727052344999997 0
ion Ni  10.727052344999999  21.454102800270000  10.727052344999997 0
ion Ni  21.454102800270000  10.727052344999999  10.727052344999985 0
ion Ni  26.817628972769999  10.727052344999999   5.363526172499999 0
ion Ni  16.090578517499999  21.454102800270000   5.363526172499999 0
ion Ni  21.454102800270000  26.817628972769999   5.363526172499999 0
ion Ni  10.727052344999999  16.090578517499999   5.363526172499999 0
ion Ni  16.090578517499999  16.090578517499999  10.727052344999997 0
ion Ni  26.817628972769999  26.817628972769999  10.727052344999997 0
ion S   4.232241197730000   4.232241197730000   4.232250646379995 0
ion S  27.948915837270000  27.948915837270000   6.494801698619992 0
ion S   1.131284974770000  27.948915837270000   9.595776818879992 0
ion S   9.595765480499999   4.232241197730000   1.131275526120000 0
ion S  27.948915837270000   9.595765480499999   1.131275526120000 0
ion S   4.232241197730000   1.131284974770000   9.595776818879992 0
ion S   9.595765480499999   1.131284974770000   6.494801698619992 0
ion S   1.131284974770000   9.595765480499999   4.232250646379995 0
ion S   4.232241197730000  14.959291652999985   4.232250646379995 0
ion S  27.948915837270000  17.221863492269968   6.494801698619992 0
ion S   1.131284974770000  17.221863492269968   9.595776818879992 0
ion S   9.595765480499999  14.959291652999985   1.131275526120000 0
ion S  27.948915837270000  20.322817825500000   1.131275526120000 0
ion S   4.232241197730000  22.585389664769998   9.595776818879992 0
ion S   9.595765480499999  22.585389664769998   6.494801698619992 0
ion S   1.131284974770000  20.322817825500000   4.232250646379995 0
ion S  14.959291652999985   4.232250646380000   4.232241197729999 0
ion S  17.221863492269968  27.948904498889998   6.494811147269997 0
ion S  17.221863492269968   9.595776818879999   1.131284974770000 0
ion S  14.959291652999985   1.131275526120000   9.595765480499992 0
ion S  20.322817825500000   1.131275526120000   6.494811147269997 0
ion S  22.585389664769998   9.595776818879999   4.232241197729999 0
ion S  22.585389664769998  27.948904498889998   9.595765480499992 0
ion S  20.322817825500000   4.232250646380000   1.131284974770000 0
ion S   4.232241197730000  25.686343997999970   4.232250646379995 0
ion S  27.948915837270000   6.494811147269997   6.494801698619992 0
ion S   1.131284974770000   6.494811147269997   9.595776818879992 0
ion S   9.595765480499999  25.686343997999970   1.131275526120000 0
ion S  27.948915837270000  31.049870170499968   1.131275526120000 0
ion S   4.232241197730000  11.858337319769999   9.595776818879992 0
ion S   9.595765480499999  11.858337319769999   6.494801698619992 0
ion S   1.131284974770000  31.049870170499968   4.232250646379995 0
ion S  25.686343997999970   4.232250646380000   4.232241197729999 0
ion S   6.494811147269997  27.948904498889998   6.494811147269997 0
ion S   6.494811147269997   9.595776818879999   1.131284974770000 0
ion S  25.686343997999970   1.131275526120000   9.595765480499992 0
ion S  31.049870170499968   1.131275526120000   6.494811147269997 0
ion S  11.858337319769999   9.595776818879999   4.232241197729999 0
ion S  11.858337319769999  27.948904498889998   9.595765480499992 0
ion S  31.049870170499968   4.232250646380000   1.131284974770000 0
ion S  14.959291652999985  14.959291652999985   4.232250646379995 0
ion S  17.221863492269968  17.221863492269968   6.494801698619992 0
ion S  22.585389664769998  17.221863492269968   9.595776818879992 0
ion S  20.322817825500000  14.959291652999985   1.131275526120000 0
ion S  17.221863492269968  20.322817825500000   1.131275526120000 0
ion S  14.959291652999985  22.585389664769998   9.595776818879992 0
ion S  20.322817825500000  22.585389664769998   6.494801698619992 0
ion S  22.585389664769998  20.322817825500000   4.232250646379995 0
ion S  14.959291652999985  25.686343997999970   4.232250646379995 0
ion S  17.221863492269968   6.494811147269997   6.494801698619992 0
ion S  22.585389664769998   6.494811147269997   9.595776818879992 0
ion S  20.322817825500000  25.686343997999970   1.131275526120000 0
ion S  17.221863492269968  31.049870170499968   1.131275526120000 0
[...]
	FillingsUpdate:  mu: -0.188859743  nElectrons: 1134.000000
	SubspaceRotationAdjust: set factor to 0.11
ElecMinimize: Iter:   8  F: -7061.220942864495555  |grad|_K:  3.952e-08  alpha:  4.834e-01  linmin:  1.110e-05  t[s]:  49946.98
	FillingsUpdate:  mu: -0.188860035  nElectrons: 1134.000000
	SubspaceRotationAdjust: set factor to 0.108
ElecMinimize: Iter:   9  F: -7061.220942940085479  |grad|_K:  3.245e-08  alpha:  3.665e-01  linmin: -1.382e-05  t[s]:  49957.90
	FillingsUpdate:  mu: -0.188860003  nElectrons: 1134.000000
	SubspaceRotationAdjust: set factor to 0.097
ElecMinimize: Iter:  10  F: -7061.220942990173171  |grad|_K:  3.154e-08  alpha:  3.586e-01  linmin: -2.196e-05  t[s]:  49968.78
	FillingsUpdate:  mu: -0.188860535  nElectrons: 1134.000000
	SubspaceRotationAdjust: set factor to 0.0688
ElecMinimize: Iter:  11  F: -7061.220943032371906  |grad|_K:  1.985e-08  alpha:  3.194e-01  linmin:  4.682e-05  t[s]:  49979.67
	FillingsUpdate:  mu: -0.188857233  nElectrons: 1134.000000
	SubspaceRotationAdjust: set factor to 0.0585
ElecMinimize: Iter:  12  F: -7061.220943050531787  |grad|_K:  1.613e-08  alpha:  3.535e-01  linmin: -9.624e-06  t[s]:  49990.65
	FillingsUpdate:  mu: -0.188860761  nElectrons: 1134.000000
	SubspaceRotationAdjust: set factor to 0.0624
ElecMinimize: Iter:  13  F: -7061.220943062447077  |grad|_K:  1.190e-08  alpha:  3.444e-01  linmin:  5.424e-05  t[s]:  50001.64
	FillingsUpdate:  mu: -0.188859603  nElectrons: 1134.000000
	SubspaceRotationAdjust: set factor to 0.0659
ElecMinimize: Iter:  14  F: -7061.220943069238274  |grad|_K:  7.915e-09  alpha:  3.845e-01  linmin:  6.256e-04  t[s]:  50012.59
	FillingsUpdate:  mu: -0.188859729  nElectrons: 1134.000000
	SubspaceRotationAdjust: set factor to 0.0656
ElecMinimize: Iter:  15  F: -7061.220943072183218  |grad|_K:  6.212e-09  alpha:  3.517e-01  linmin:  1.672e-03  t[s]:  50023.44
ElecMinimize: Converged (|Delta F|<1.000000e-08 for 2 iters).
Setting wave functions to eigenvectors of Hamiltonian

# Ionic positions in cartesian coordinates:
ion Ni  32.181155145269997   0.000000000000000  10.727052344999997 0
ion Ni   5.363526172499999   0.000000000000000   5.363526172499999 0
ion Ni  32.181155145269997   5.363526172499999   5.363526172499999 0
ion Ni   5.363526172499999   5.363526172499999  10.727052344999997 0
ion Ni  32.181155145269997  10.727052344999999  10.727052344999997 0
ion Ni  32.181155145269997  21.454102800270000  10.727052344999997 0
ion Ni   5.363526172499999  21.454102800270000   5.363526172499999 0
ion Ni   5.363526172499999  10.727052344999999   5.363526172499999 0
ion Ni  32.181155145269997  16.090578517499999   5.363526172499999 0
ion Ni  32.181155145269997  26.817628972769999   5.363526172499999 0
ion Ni   5.363526172499999  26.817628972769999  10.727052344999997 0
ion Ni   5.363526172499999  16.090578517499999  10.727052344999997 0
ion Ni  10.727052344999999   0.000000000000000  10.727052344999997 0
ion Ni  21.454102800270000   0.000000000000000  10.727052344999997 0
ion Ni  21.454102800270000   5.363526172499999   5.363526172499999 0
ion Ni  10.727052344999999   5.363526172499999   5.363526172499999 0
ion Ni  16.090578517499999   5.363526172499999  10.727052344999997 0
ion Ni  26.817628972769999   5.363526172499999  10.727052344999997 0
ion Ni  26.817628972769999   0.000000000000000   5.363526172499999 0
ion Ni  16.090578517499999   0.000000000000000   5.363526172499999 0
ion Ni  10.727052344999999  10.727052344999999  10.727052344999997 0
ion Ni  21.454102800270000  21.454102800270000  10.727052344999997 0
ion Ni  26.817628972769999  21.454102800270000   5.363526172499999 0
ion Ni  16.090578517499999  10.727052344999999   5.363526172499999 0
ion Ni  21.454102800270000  16.090578517499999   5.363526172499999 0
ion Ni  10.727052344999999  26.817628972769999   5.363526172499999 0
ion Ni  16.090578517499999  26.817628972769999  10.727052344999997 0
ion Ni  26.817628972769999  16.090578517499999  10.727052344999997 0
ion Ni  10.727052344999999  21.454102800270000  10.727052344999997 0
ion Ni  21.454102800270000  10.727052344999999  10.727052344999985 0
ion Ni  26.817628972769999  10.727052344999999   5.363526172499999 0
ion Ni  16.090578517499999  21.454102800270000   5.363526172499999 0
ion Ni  21.454102800270000  26.817628972769999   5.363526172499999 0
ion Ni  10.727052344999999  16.090578517499999   5.363526172499999 0
ion Ni  16.090578517499999  16.090578517499999  10.727052344999997 0
ion Ni  26.817628972769999  26.817628972769999  10.727052344999997 0
ion S   4.232241197730000   4.232241197730000   4.232250646379995 0
ion S  27.948915837270000  27.948915837270000   6.494801698619992 0
ion S   1.131284974770000  27.948915837270000   9.595776818879992 0
ion S   9.595765480499999   4.232241197730000   1.131275526120000 0
ion S  27.948915837270000   9.595765480499999   1.131275526120000 0
ion S   4.232241197730000   1.131284974770000   9.595776818879992 0
ion S   9.595765480499999   1.131284974770000   6.494801698619992 0
ion S   1.131284974770000   9.595765480499999   4.232250646379995 0
ion S   4.232241197730000  14.959291652999985   4.232250646379995 0
ion S  27.948915837270000  17.221863492269968   6.494801698619992 0
ion S   1.131284974770000  17.221863492269968   9.595776818879992 0
ion S   9.595765480499999  14.959291652999985   1.131275526120000 0
ion S  27.948915837270000  20.322817825500000   1.131275526120000 0
ion S   4.232241197730000  22.585389664769998   9.595776818879992 0
ion S   9.595765480499999  22.585389664769998   6.494801698619992 0
ion S   1.131284974770000  20.322817825500000   4.232250646379995 0
ion S  14.959291652999985   4.232250646380000   4.232241197729999 0
ion S  17.221863492269968  27.948904498889998   6.494811147269997 0
ion S  17.221863492269968   9.595776818879999   1.131284974770000 0
ion S  14.959291652999985   1.131275526120000   9.595765480499992 0
ion S  20.322817825500000   1.131275526120000   6.494811147269997 0
ion S  22.585389664769998   9.595776818879999   4.232241197729999 0
ion S  22.585389664769998  27.948904498889998   9.595765480499992 0
ion S  20.322817825500000   4.232250646380000   1.131284974770000 0
ion S   4.232241197730000  25.686343997999970   4.232250646379995 0
ion S  27.948915837270000   6.494811147269997   6.494801698619992 0
ion S   1.131284974770000   6.494811147269997   9.595776818879992 0
ion S   9.595765480499999  25.686343997999970   1.131275526120000 0
ion S  27.948915837270000  31.049870170499968   1.131275526120000 0
ion S   4.232241197730000  11.858337319769999   9.595776818879992 0
ion S   9.595765480499999  11.858337319769999   6.494801698619992 0
ion S   1.131284974770000  31.049870170499968   4.232250646379995 0
ion S  25.686343997999970   4.232250646380000   4.232241197729999 0
ion S   6.494811147269997  27.948904498889998   6.494811147269997 0
ion S   6.494811147269997   9.595776818879999   1.131284974770000 0
ion S  25.686343997999970   1.131275526120000   9.595765480499992 0
ion S  31.049870170499968   1.131275526120000   6.494811147269997 0
ion S  11.858337319769999   9.595776818879999   4.232241197729999 0
ion S  11.858337319769999  27.948904498889998   9.595765480499992 0
ion S  31.049870170499968   4.232250646380000   1.131284974770000 0
ion S  14.959291652999985  14.959291652999985   4.232250646379995 0
ion S  17.221863492269968  17.221863492269968   6.494801698619992 0
ion S  22.585389664769998  17.221863492269968   9.595776818879992 0
ion S  20.322817825500000  14.959291652999985   1.131275526120000 0
ion S  17.221863492269968  20.322817825500000   1.131275526120000 0
ion S  14.959291652999985  22.585389664769998   9.595776818879992 0
ion S  20.322817825500000  22.585389664769998   6.494801698619992 0
ion S  22.585389664769998  20.322817825500000   4.232250646379995 0
ion S  14.959291652999985  25.686343997999970   4.232250646379995 0
ion S  17.221863492269968   6.494811147269997   6.494801698619992 0
ion S  22.585389664769998   6.494811147269997   9.595776818879992 0
ion S  20.322817825500000  25.686343997999970   1.131275526120000 0
ion S  17.221863492269968  31.049870170499968   1.131275526120000 0
ion S  14.959291652999985  11.858337319769999   9.595776818879992 0
ion S  20.322817825500000  11.858337319769999   6.494801698619992 0
ion S  22.585389664769998  31.049870170499968   4.232250646379995 0
ion S  25.686343997999970  14.959291652999985   4.232250646379995 0
ion S   6.494811147269997  17.221863492269968   6.494801698619992 0
ion S  11.858337319769999  17.221863492269968   9.595776818879992 0
ion S  31.049870170499968  14.959291652999985   1.131275526120000 0
ion S   6.494811147269997  20.322817825500000   1.131275526120000 0
ion S  25.686343997999970  22.585389664769998   9.595776818879992 0
ion S  31.049870170499968  22.585389664769998   6.494801698619992 0
ion S  11.858337319769999  20.322817825500000   4.232250646379995 0
ion S  25.686343997999970  25.686343997999970   4.232250646379995 0
ion S   6.494811147269997   6.494811147269997   6.494801698619992 0
ion S  11.858337319769999   6.494811147269997   9.595776818879992 0
ion S  31.049870170499968  25.686343997999970   1.131275526120000 0
ion S   6.494811147269997  31.049870170499968   1.131275526120000 0
ion S  25.686343997999970  11.858337319769999   9.595776818879992 0
ion S  31.049870170499968  11.858337319769999   6.494801698619992 0
ion S  11.858337319769999  31.049870170499968   4.232250646379995 0
ion S  14.966724949148359  14.805442512309849  14.687364675399037 1
ion S  11.724709443202173  12.356092934819110  14.582724191600525 1
ion S   6.666071784540939   9.383280613923677  11.825085120276093 1
ion S  17.518430060375842  20.270892748870512  11.828498100011741 1
ion S   6.729901314337094  19.987033512023693  11.859270581260892 1
ion S   9.402295298601311  25.642164814561241  11.862438094112475 1
ion Na  16.260073313167279   9.761773193360758  14.253147117077500 1
ion Na  10.349654898318267  17.287179746426872  14.712235944590873 1

# Forces in Cartesian coordinates:
force Ni   0.023528053358010  -0.010403503798801  -0.038563644007984 0
force Ni  -0.001959127003785  -0.000123092928975  -0.009290459638985 0
force Ni   0.001549680314361  -0.000696345972868  -0.008498207242463 0
force Ni  -0.014610530647750   0.003356264667319  -0.031065536549745 0
force Ni   0.017712593165386  -0.013010964364939  -0.037705715071128 0
force Ni   0.020150833058693  -0.012719050267912  -0.038630553956773 0
force Ni  -0.000550851848851  -0.002143505263778  -0.011546644921890 0
force Ni  -0.000332111062706  -0.001626408612304  -0.013042754085268 0
force Ni   0.000862121496227  -0.000350082925848  -0.008762058978909 0
force Ni   0.001898017079324  -0.000100536129999  -0.009579225306141 0
force Ni  -0.003158012036579  -0.013547798383760  -0.029417472218167 0
force Ni  -0.010972492323672   0.008118334358928  -0.027573239979450 0
force Ni   0.020922421919764  -0.004050180470605  -0.037367605116262 0
force Ni   0.023470967368959  -0.011773483275558  -0.039246867401626 0
force Ni   0.001067101691985  -0.000799368424248  -0.009322340255357 0
force Ni   0.002362112945215  -0.000352400102148  -0.008350746106771 0
force Ni  -0.023612698128803  -0.014000080173525  -0.042079241349765 0
force Ni  -0.023094552365961  -0.011663502680659  -0.039157779638597 0
force Ni  -0.001688167635817  -0.000712891766115  -0.009169495462976 0
force Ni  -0.001575395277803  -0.000336762277938  -0.008978297084366 0
force Ni   0.011841176580345  -0.004761851467065  -0.009717608973446 0
force Ni   0.007607071365598  -0.014631230229273  -0.032041408541174 0
force Ni  -0.002701183720671  -0.000796319162850  -0.009063122486045 0
force Ni  -0.002653605634111  -0.000416139851788  -0.007792158557356 0
force Ni   0.002322366866311  -0.000628037523231  -0.007933223080617 0
force Ni  -0.000226092370425  -0.003363454683858  -0.013189638387610 0
force Ni  -0.016277735866374  -0.006630906422751  -0.036467726478846 0
force Ni  -0.024487455424524  -0.011521393444312  -0.040230071701385 0
force Ni  -0.006086858400672  -0.002881985110304  -0.021165666449423 0
force Ni   0.024491303128988  -0.013307457249929  -0.039170833822218 0
force Ni  -0.001760090238351  -0.000850653770798  -0.008972019593614 0
force Ni  -0.001459988301637  -0.002701203354026  -0.011301958714374 0
force Ni   0.002041479598478  -0.001395439626261  -0.009130743831153 0
force Ni   0.000662342582996   0.000855013063474  -0.008418113085046 0
force Ni  -0.016300106628791  -0.000884112894833  -0.012149495463006 0
force Ni  -0.024219419844971  -0.011337108734692  -0.038704137126959 0
force S  -0.003993216361468  -0.004256323458524  -0.005566360711884 0
force S   0.002726492950548   0.000863219637652   0.010785656997721 0
force S  -0.001565302577137   0.003899889295201   0.019625796518425 0
force S  -0.004312085509911   0.008886257737915   0.020833306000241 0
force S   0.004134506072695   0.008464547247037   0.021288575613669 0
force S   0.003178751460485   0.009469184402680   0.018972878376684 0
force S  -0.003336769584096   0.001017535727097   0.011573189095758 0
force S   0.004994773290975  -0.004441742176216  -0.003943601179642 0
force S  -0.004344088997799  -0.004372360119593  -0.003947773262686 0
force S   0.003534308013329   0.000787664574970   0.011123341060133 0
force S  -0.008924600784352   0.004461370540846   0.015913699750058 0
force S  -0.004187421174041   0.008429043628785   0.021313525901284 0
force S   0.004262156549811   0.008567031428987   0.021415907874613 0
force S  -0.004388077136765  -0.002289190616199   0.020140862924341 0
force S   0.001763172882510   0.000960119525396  -0.001979392659381 0
force S   0.004563747597145  -0.004071763586281  -0.003618824694964 0
force S  -0.004217474172427  -0.004120949066517  -0.004467600274125 0
force S   0.003515584027554   0.001240129710341   0.011696197932405 0
force S   0.004409947104112   0.008467307452547   0.020804590490947 0
force S   0.002406244794373   0.005304133059913   0.019924267620624 0
force S  -0.002946024999895   0.000877588464711   0.011245092594154 0
force S   0.004336048482943  -0.004246590959549  -0.003787078306983 0
force S  -0.002292287235319   0.007117450977992   0.019382066472931 0
force S  -0.004228761609654   0.008670515242185   0.021339353063346 0
force S  -0.004397389453716  -0.004488795799962  -0.002055854672166 0
force S   0.003238343080129   0.001055512913344   0.011499020296444 0
force S  -0.007190655256736   0.004967732822443   0.016294177791288 0
force S  -0.004606706356726   0.008043933380172   0.020607201723207 0
force S   0.004035015475626   0.008547013259639   0.021404809794925 0
force S   0.006315174638934   0.001525426102310   0.021394921898662 0
force S  -0.000223525792915  -0.000000165329387   0.006680821973565 0
force S   0.003987013581611  -0.003871451640376  -0.003745807593914 0
force S  -0.004747692632883  -0.004176568042816  -0.003908406095641 0
force S  -0.000448519939663   0.003402685945632   0.005704510592750 0
force S   0.004733016892068   0.007752533989820   0.021014486703786 0
force S   0.002582471399672   0.006981041252758   0.019775229458321 0
force S  -0.002846765102288   0.000856887543923   0.010982010198768 0
force S   0.004673726501072  -0.004325726538934  -0.004504080009850 0
force S  -0.005671478944636   0.004532476500811   0.021041948660279 0
force S  -0.003961866913101   0.008769950771282   0.021387277675322 0
force S  -0.004115741989751  -0.004549144767279  -0.004845283121596 0
force S  -0.000166324584465  -0.003798567360628   0.008779844301179 0
force S   0.008373301654650  -0.000638886453145   0.016676164493961 0
force S  -0.004148498711368   0.008582316978401   0.021243974183165 0
force S   0.004462635954971   0.008508566860744   0.020085634279312 0
force S   0.008079813547188   0.000509017761939   0.020391409919122 0
force S   0.001372991435883   0.003824164446870   0.004711630441036 0
force S   0.004155008704433  -0.003360416782236  -0.003729897340957 0
force S  -0.005216150599990  -0.004165707745904  -0.002705766562193 0
force S   0.003870478027809   0.001837073387174   0.010084762935325 0
force S  -0.003022918690401   0.007547384281464   0.021269977592168 0
force S  -0.004219373595649   0.008393697391426   0.021499098607798 0
force S   0.004209238764449   0.008786889436198   0.020952315548498 0
force S   0.004405949938297   0.001014177235934  -0.005289194022978 0
force S  -0.003505459496040   0.001621710607644   0.010972418424436 0
force S   0.004437316411602  -0.003920011388846  -0.003948775559508 0
force S  -0.004586116501839  -0.003870998051160  -0.004122845783972 0
force S  -0.000246787570443  -0.003455798073450   0.002951524719897 0
force S  -0.000786760814275   0.007516250329501   0.005736763382718 0
force S  -0.004043956643302   0.008709295624071   0.021327313265234 0
force S   0.004881436885527   0.008108918963353   0.020698145343771 0
force S   0.000856645147763   0.005021532808143   0.019700740198831 0
force S  -0.002779211146817   0.001323562674405   0.011051535173364 0
force S   0.004087318711268  -0.003888036586165  -0.005761090382422 0
force S  -0.004094922684134  -0.003693796589275  -0.003627966545812 0
force S   0.000123009318665  -0.003412941831232   0.004555039209653 0
force S   0.007846719020066  -0.001516659520707   0.014862220947857 0
force S  -0.004086567976654   0.008586584366421   0.021408199052253 0
force S   0.004352651164098   0.008569396478538   0.021464792861283 0
force S   0.002975634273984   0.008308551033755   0.019697534008596 0
force S  -0.003299884154675   0.001366201779923   0.011751056928741 0
force S   0.004660394475271  -0.004580415977168  -0.002381161865096 0
force S  -0.000084848194395  -0.000322294979238  -0.000227041473012 1
force S   0.000270179800716   0.000072061128562  -0.000091165383667 1
force S   0.000028102443348   0.000139643864166   0.000000638775142 1
force S   0.000112310599630  -0.000021991477688  -0.000043187357989 1
force S   0.000112380526977   0.000190122836547  -0.000262589886655 1
force S  -0.000386592157065  -0.000322278942444  -0.000119865062968 1
force Na  -0.000054873937208  -0.000003050672666   0.000087117644970 1
force Na  -0.000088922421444  -0.000063824234642   0.000265852298545 1

# Energy components:
   Eewald =   -18751.4719144779555791
       EH =   -12612.1794133690073068
     Eloc =    23069.7843188300357724
      Enl =      915.6557250986045347
      Exc =     -978.7553907069155912
 Exc_core =      152.3205987103617076
       KE =     1144.4219492830413856
-------------------------------------
     Etot =    -7060.2241266318378621
       TS =        0.9968164403452170
-------------------------------------
        F =    -7061.2209430721832177

IonicMinimize: Iter:  86  F: -7061.220943072183218  |grad|_K:  1.783e-04  alpha:  1.812e+00  linmin:  4.306e-04  t[s]:  50026.97
IonicMinimize: Converged (|Delta F|<1.000000e-06 for 2 iters).

#--- Lowdin population analysis ---
# oxidation-state Ni +0.004 -0.450 -0.450 -0.204 -0.012 -0.010 -0.464 -0.464 -0.455 -0.453 -0.211 -0.263 +0.004 -0.006 -0.450 -0.452 -0.128 -0.003 -0.449 -0.453 -0.412 -0.214 -0.448 -0.458 -0.451 -0.471 -0.015 -0.000 -0.428 -0.069 -0.448 -0.463 -0.448 -0.451 -0.367 +0.002
# oxidation-state S +0.319 +0.444 +0.066 -0.014 -0.014 +0.089 +0.440 +0.317 +0.305 +0.448 +0.067 -0.013 -0.014 +0.361 +0.436 +0.318 +0.320 +0.425 -0.013 +0.068 +0.445 +0.319 +0.087 -0.013 +0.309 +0.445 +0.086 -0.013 -0.013 +0.365 +0.447 +0.319 +0.318 +0.444 -0.013 +0.084 +0.445 +0.319 +0.359 -0.013 +0.314 +0.454 +0.113 -0.012 -0.015 +0.371 +0.449 +0.320 +0.303 +0.449 +0.090 -0.014 -0.015 +0.111 +0.444 +0.317 +0.318 +0.454 +0.081 -0.013 -0.016 +0.085 +0.433 +0.318 +0.319 +0.457 +0.112 -0.013 -0.014 +0.087 +0.432 +0.305 -0.126 -0.137 +0.191 +0.184 +0.117 +0.161
# oxidation-state Na +0.688 +0.739


Dumping 'Na2S6@NiS2.fillings' ... done
Dumping 'Na2S6@NiS2.wfns' ... done
Dumping 'Na2S6@NiS2.ionpos' ... done
Dumping 'Na2S6@NiS2.eigenvals' ... done
End date and time: Tue Oct  1 19:16:38 2024  (Duration: 0-13:53:54.09)
Done!
