
*************** JDFTx 1.7.0  ***************

Start date and time: Fri Oct  4 05:08:51 2024
Executable jdftx_gpu with command-line: -i /home/akim2/JDFTx/Na2S6@NiS2-PC/Na2S6@NiS2-PC.in -o /home/akim2/JDFTx/Na2S6@NiS2-PC/Na2S6@NiS2-PC.out
Running on hosts (process indices):  exp-5-58 (0)
Divided in process groups (process indices):  0 (0)
gpuInit: Found compatible cuda device 0 'Tesla V100-SXM2-32GB'
gpuInit: Selected device 0
Resource initialization completed at t[s]:      0.68
Run totals: 1 processes, 1 threads, 1 GPUs


Input parsed successfully to the following command list (including defaults):

basis kpoint-dependent
coords-type Cartesian
core-overlap-check vector
coulomb-interaction Slab 001
coulomb-truncation-embed 0 0 10
davidson-band-ratio 1.1
dump End State
dump Ionic State
dump-interval Ionic 5
dump-name Na2S6@NiS2-PC.$VAR
elec-cutoff 20 100
elec-eigen-algo Davidson
elec-ex-corr gga-PBE
elec-smearing Fermi 0.01
electronic-minimize  \
	dirUpdateScheme      FletcherReeves \
	linminMethod         DirUpdateRecommended \
	nIterations          100 \
	history              15 \
	knormThreshold       0 \
	energyDiffThreshold  1e-08 \
	nEnergyDiff          2 \
	alphaTstart          1 \
	alphaTmin            1e-10 \
	updateTestStepSize   yes \
	alphaTreduceFactor   0.1 \
	alphaTincreaseFactor 3 \
	nAlphaAdjustMax      3 \
	wolfeEnergy          0.0001 \
	wolfeGradient        0.9 \
	fdTest               no
exchange-regularization WignerSeitzTruncated
fluid LinearPCM 298.000000 1.013250
fluid-ex-corr lda-TF lda-PZ
fluid-gummel-loop 10 1.000000e-05
fluid-minimize  \
	dirUpdateScheme      PolakRibiere \
	linminMethod         DirUpdateRecommended \
	nIterations          400 \
	history              15 \
	knormThreshold       1e-11 \
	energyDiffThreshold  0 \
	nEnergyDiff          2 \
	alphaTstart          1 \
	alphaTmin            1e-10 \
	updateTestStepSize   yes \
	alphaTreduceFactor   0.1 \
	alphaTincreaseFactor 3 \
	nAlphaAdjustMax      6 \
	wolfeEnergy          0.0001 \
	wolfeGradient        0.9 \
	fdTest               no
fluid-solvent PC 11.6429 ScalarEOS \
	epsBulk 64 \
	pMol 2.95 \
	epsInf 2.02 \
	Pvap 1.53277e-13 \
	sigmaBulk 2.88e-05 \
	Rvdw 0 \
	Res 0 \
	tauNuc 343133
forces-output-coords Positions
initial-state Na2S6@NiS2-PC.$VAR
ion Ni  32.181155145270012   0.000000000000000  10.727052344999993 0
ion Ni   5.363526172500001   0.000000000000000   5.363526172499999 0
ion Ni  32.181155145270012   5.363526172500001   5.363526172499999 0
ion Ni   5.363526172500001   5.363526172500001  10.727052344999993 0
ion Ni  32.181155145270012  10.727052345000002  10.727052344999993 0
ion Ni  32.181155145270012  21.454102800270007  10.727052344999993 0
ion Ni   5.363526172500001  21.454102800270007   5.363526172499999 0
ion Ni   5.363526172500001  10.727052345000002   5.363526172499999 0
ion Ni  32.181155145270012  16.090578517500006   5.363526172499999 0
ion Ni  32.181155145270012  26.817628972770006   5.363526172499999 0
ion Ni   5.363526172500001  26.817628972770006  10.727052344999993 0
ion Ni   5.363526172500001  16.090578517500006  10.727052344999993 0
ion Ni  10.727052345000002   0.000000000000000  10.727052344999993 0
ion Ni  21.454102800270007   0.000000000000000  10.727052344999993 0
ion Ni  21.454102800270007   5.363526172500001   5.363526172499999 0
ion Ni  10.727052345000002   5.363526172500001   5.363526172499999 0
ion Ni  16.090578517500006   5.363526172500001  10.727052344999993 0
ion Ni  26.817628972770006   5.363526172500001  10.727052344999993 0
ion Ni  26.817628972770006   0.000000000000000   5.363526172499999 0
ion Ni  16.090578517500006   0.000000000000000   5.363526172499999 0
ion Ni  10.727052345000002  10.727052345000002  10.727052344999993 0
ion Ni  21.454102800270007  21.454102800270007  10.727052344999993 0
ion Ni  26.817628972770006  21.454102800270007   5.363526172499999 0
ion Ni  16.090578517500006  10.727052345000002   5.363526172499999 0
ion Ni  21.454102800270007  16.090578517500006   5.363526172499999 0
ion Ni  10.727052345000002  26.817628972770006   5.363526172499999 0
ion Ni  16.090578517500006  26.817628972770006  10.727052344999993 0
ion Ni  26.817628972770006  16.090578517500006  10.727052344999993 0
ion Ni  10.727052345000002  21.454102800270007  10.727052344999993 0
ion Ni  21.454102800270007  10.727052345000002  10.727052344999981 0
ion Ni  26.817628972770006  10.727052345000002   5.363526172499999 0
ion Ni  16.090578517500006  21.454102800270007   5.363526172499999 0
ion Ni  21.454102800270007  26.817628972770006   5.363526172499999 0
ion Ni  10.727052345000002  16.090578517500006   5.363526172499999 0
ion Ni  16.090578517500006  16.090578517500006  10.727052344999993 0
ion Ni  26.817628972770006  26.817628972770006  10.727052344999993 0
ion S   4.232241197730002   4.232241197730002   4.232250646379993 0
ion S  27.948915837270008  27.948915837270008   6.494801698619990 0
ion S   1.131284974770000  27.948915837270008   9.595776818879990 0
ion S   9.595765480500003   4.232241197730002   1.131275526120000 0
ion S  27.948915837270008   9.595765480500003   1.131275526120000 0
ion S   4.232241197730002   1.131284974770000   9.595776818879990 0
ion S   9.595765480500003   1.131284974770000   6.494801698619990 0
ion S   1.131284974770000   9.595765480500003   4.232250646379993 0
ion S   4.232241197730002  14.959291652999987   4.232250646379993 0
ion S  27.948915837270008  17.221863492269964   6.494801698619990 0
ion S   1.131284974770000  17.221863492269964   9.595776818879990 0
ion S   9.595765480500003  14.959291652999987   1.131275526120000 0
ion S  27.948915837270008  20.322817825500007   1.131275526120000 0
ion S   4.232241197730002  22.585389664770005   9.595776818879990 0
ion S   9.595765480500003  22.585389664770005   6.494801698619990 0
ion S   1.131284974770000  20.322817825500007   4.232250646379993 0
ion S  14.959291652999987   4.232250646380002   4.232241197729998 0
ion S  17.221863492269964  27.948904498890005   6.494811147269997 0
ion S  17.221863492269964   9.595776818880003   1.131284974770000 0
ion S  14.959291652999987   1.131275526120000   9.595765480499988 0
ion S  20.322817825500007   1.131275526120000   6.494811147269997 0
ion S  22.585389664770005   9.595776818880003   4.232241197729998 0
ion S  22.585389664770005  27.948904498890005   9.595765480499988 0
ion S  20.322817825500007   4.232250646380002   1.131284974770000 0
ion S   4.232241197730002  25.686343997999973   4.232250646379993 0
ion S  27.948915837270008   6.494811147269999   6.494801698619990 0
ion S   1.131284974770000   6.494811147269999   9.595776818879990 0
ion S   9.595765480500003  25.686343997999973   1.131275526120000 0
ion S  27.948915837270008  31.049870170499972   1.131275526120000 0
ion S   4.232241197730002  11.858337319770003   9.595776818879990 0
ion S   9.595765480500003  11.858337319770003   6.494801698619990 0
ion S   1.131284974770000  31.049870170499972   4.232250646379993 0
ion S  25.686343997999973   4.232250646380002   4.232241197729998 0
ion S   6.494811147269999  27.948904498890005   6.494811147269997 0
ion S   6.494811147269999   9.595776818880003   1.131284974770000 0
ion S  25.686343997999973   1.131275526120000   9.595765480499988 0
ion S  31.049870170499972   1.131275526120000   6.494811147269997 0
ion S  11.858337319770003   9.595776818880003   4.232241197729998 0
ion S  11.858337319770003  27.948904498890005   9.595765480499988 0
ion S  31.049870170499972   4.232250646380002   1.131284974770000 0
ion S  14.959291652999987  14.959291652999987   4.232250646379993 0
ion S  17.221863492269964  17.221863492269964   6.494801698619990 0
ion S  22.585389664770005  17.221863492269964   9.595776818879990 0
ion S  20.322817825500007  14.959291652999987   1.131275526120000 0
ion S  17.221863492269964  20.322817825500007   1.131275526120000 0
ion S  14.959291652999987  22.585389664770005   9.595776818879990 0
ion S  20.322817825500007  22.585389664770005   6.494801698619990 0
ion S  22.585389664770005  20.322817825500007   4.232250646379993 0
ion S  14.959291652999987  25.686343997999973   4.232250646379993 0
ion S  17.221863492269964   6.494811147269999   6.494801698619990 0
ion S  22.585389664770005   6.494811147269999   9.595776818879990 0
ion S  20.322817825500007  25.686343997999973   1.131275526120000 0
ion S  17.221863492269964  31.049870170499972   1.131275526120000 0
ion S  14.959291652999987  11.858337319770003   9.595776818879990 0
ion S  20.322817825500007  11.858337319770003   6.494801698619990 0
ion S  22.585389664770005  31.049870170499972   4.232250646379993 0
ion S  25.686343997999973  14.959291652999987   4.232250646379993 0
ion S   6.494811147269999  17.221863492269964   6.494801698619990 0
ion S  11.858337319770003  17.221863492269964   9.595776818879990 0
ion S  31.049870170499972  14.959291652999987   1.131275526120000 0
ion S   6.494811147269999  20.322817825500007   1.131275526120000 0
ion S  25.686343997999973  22.585389664770005   9.595776818879990 0
ion S  31.049870170499972  22.585389664770005   6.494801698619990 0
ion S  11.858337319770003  20.322817825500007   4.232250646379993 0
ion S  25.686343997999973  25.686343997999973   4.232250646379993 0
ion S   6.494811147269999   6.494811147269999   6.494801698619990 0
ion S  11.858337319770003   6.494811147269999   9.595776818879990 0
ion S  31.049870170499972  25.686343997999973   1.131275526120000 0
ion S   6.494811147269999  31.049870170499972   1.131275526120000 0
ion S  25.686343997999973  11.858337319770003   9.595776818879990 0
ion S  31.049870170499972  11.858337319770003   6.494801698619990 0
ion S  11.858337319770003  31.049870170499972   4.232250646379993 0
ion S  14.755906033550215  14.812134935323265  14.613024048270187 1
ion S  11.513262587193845  12.684431584315279  14.362345304093813 1
ion S   6.645323956096499   9.374923844929301  11.842641109984127 1
ion S  17.574388524594710  20.255283245993592  11.857373330400861 1
ion S   6.687119366758708  20.094716671416414  11.816794616126904 1
ion S   9.393975520509629  25.627266672812183  11.850794736868039 1
ion Na  17.966808163002305   8.302832550693573  21.833949856247532 1
ion Na   9.646803809601220  18.970954746658478  20.468250011744903 1
ion-species GBRV/$ID_pbe.uspp
ion-width Ecut
ionic-minimize  \
	dirUpdateScheme      FletcherReeves \
	linminMethod         DirUpdateRecommended \
	nIterations          400 \
	history              15 \
	knormThreshold       0.0001 \
	energyDiffThreshold  1e-06 \
	nEnergyDiff          2 \
	alphaTstart          1 \
	alphaTmin            1e-10 \
	updateTestStepSize   yes \
	alphaTreduceFactor   0.1 \
	alphaTincreaseFactor 3 \
	nAlphaAdjustMax      3 \
	wolfeEnergy          0.0001 \
	wolfeGradient        0.9 \
	fdTest               no
kpoint   0.000000000000   0.000000000000   0.000000000000  1.00000000000000
kpoint-folding 1 1 1 
latt-move-scale 1 1 1
latt-scale 1 1 1 
lattice Triclinic 32.1811 32.1811 45 90 90 90
lattice-minimize  \
	dirUpdateScheme      L-BFGS \
	linminMethod         DirUpdateRecommended \
	nIterations          0 \
	history              15 \
	knormThreshold       0 \
	energyDiffThreshold  1e-06 \
	nEnergyDiff          2 \
	alphaTstart          1 \
	alphaTmin            1e-10 \
	updateTestStepSize   yes \
	alphaTreduceFactor   0.1 \
	alphaTincreaseFactor 3 \
	nAlphaAdjustMax      3 \
	wolfeEnergy          0.0001 \
	wolfeGradient        0.9 \
	fdTest               no
lcao-params -1 1e-06 0.01
pcm-variant GLSSA13
spintype no-spin
subspace-rotation-factor 1 yes
symmetries automatic
symmetry-threshold 0.0001



---------- Setting up symmetries ----------

Found 16 point-group symmetries of the bravais lattice
Found 1 space-group symmetries with basis
Applied RMS atom displacement 0 bohrs to make symmetries exact.

---------- Initializing the Grid ----------
R = 
[      32.1811            0            0  ]
[            0      32.1811            0  ]
[            0            0           45  ]
unit cell volume = 46603
G =
[   0.195245          0          0  ]
[          0   0.195245          0  ]
[          0          0   0.139626  ]
Minimum fftbox size, Smin = [  148  148  204  ]
Chosen fftbox size, S = [  150  150  210  ]

---------- Initializing tighter grid for wavefunction operations ----------
R = 
[      32.1811            0            0  ]
[            0      32.1811            0  ]
[            0            0           45  ]
unit cell volume = 46603
G =
[   0.195245          0          0  ]
[          0   0.195245          0  ]
[          0          0   0.139626  ]
Minimum fftbox size, Smin = [  132  132  184  ]
Chosen fftbox size, S = [  140  140  192  ]

---------- Exchange Correlation functional ----------
Initalized PBE GGA exchange.
Initalized PBE GGA correlation.

---------- Setting up pseudopotentials ----------
Width of ionic core gaussian charges (only for fluid interactions / plotting) set to 0.397384

Reading pseudopotential file '/home/akim2/jdftx_install/build/pseudopotentials/GBRV/ni_pbe.uspp':
  Title: Ni.  Created by USPP 7.3.6 on 1-4-15
  Reference state energy: -170.398381.  18 valence electrons in orbitals:
    |300>  occupation: 2  eigenvalue: -4.804705
    |310>  occupation: 6  eigenvalue: -3.347751
    |320>  occupation: 8  eigenvalue: -1.042415
    |400>  occupation: 0  eigenvalue: -0.795539
    |410>  occupation: 0  eigenvalue: -0.551375
  lMax: 2  lLocal: 3  QijEcut: 6.5
  6 projectors sampled on a log grid with 611 points:
    l: 0  eig: -4.804708  rCut: 1.44
    l: 0  eig: -0.795541  rCut: 1.44
    l: 1  eig: -3.347753  rCut: 1.55
    l: 1  eig: 0.500000  rCut: 1.55
    l: 2  eig: -1.042418  rCut: 1.5
    l: 2  eig: -0.450000  rCut: 1.5
  Partial core density with radius 0.65
  Transforming core density to a uniform radial grid of dG=0.02 with 1274 points.
  Transforming local potential to a uniform radial grid of dG=0.02 with 1274 points.
  Transforming nonlocal projectors to a uniform radial grid of dG=0.02 with 432 points.
  Transforming density augmentations to a uniform radial grid of dG=0.02 with 1274 points.
  Transforming atomic orbitals to a uniform radial grid of dG=0.02 with 432 points.
  Core radius for overlap checks: 1.55 bohrs.

Reading pseudopotential file '/home/akim2/jdftx_install/build/pseudopotentials/GBRV/s_pbe.uspp':
  Title: S.  Created by USPP 7.3.6 on 1-4-15
  Reference state energy: -11.898476.  6 valence electrons in orbitals:
    |300>  occupation: 2  eigenvalue: -0.634167
    |310>  occupation: 4  eigenvalue: -0.257568
  lMax: 2  lLocal: 3  QijEcut: 6
  6 projectors sampled on a log grid with 635 points:
    l: 0  eig: -0.634161  rCut: 1.5
    l: 0  eig: 1.500000  rCut: 1.5
    l: 1  eig: -0.257567  rCut: 1.5
    l: 1  eig: 1.500000  rCut: 1.5
    l: 2  eig: -1.000000  rCut: 1.5
    l: 2  eig: 1.500000  rCut: 1.5
  Partial core density with radius 1.15
  Transforming core density to a uniform radial grid of dG=0.02 with 1274 points.
  Transforming local potential to a uniform radial grid of dG=0.02 with 1274 points.
  Transforming nonlocal projectors to a uniform radial grid of dG=0.02 with 432 points.
  Transforming density augmentations to a uniform radial grid of dG=0.02 with 1274 points.
  Transforming atomic orbitals to a uniform radial grid of dG=0.02 with 432 points.
  Core radius for overlap checks: 1.50 bohrs.

Reading pseudopotential file '/home/akim2/jdftx_install/build/pseudopotentials/GBRV/na_pbe.uspp':
  Title: Na.  Created by USPP 7.3.6 on 23-9-15
  Reference state energy: -47.625620.  9 valence electrons in orbitals:
    |200>  occupation: 2  eigenvalue: -2.085638
    |210>  occupation: 6  eigenvalue: -1.053708
    |300>  occupation: 1  eigenvalue: -0.100838
  lMax: 2  lLocal: 0  QijEcut: 6
  5 projectors sampled on a log grid with 657 points:
    l: 0  eig: -2.085640  rCut: 1.37
    l: 0  eig: -0.100839  rCut: 1.37
    l: 1  eig: -1.053708  rCut: 1.47
    l: 1  eig: 0.500000  rCut: 1.47
    l: 2  eig: 0.750000  rCut: 2
  Transforming local potential to a uniform radial grid of dG=0.02 with 1274 points.
  Transforming nonlocal projectors to a uniform radial grid of dG=0.02 with 432 points.
  Transforming density augmentations to a uniform radial grid of dG=0.02 with 1274 points.
  Transforming atomic orbitals to a uniform radial grid of dG=0.02 with 432 points.
  Core radius for overlap checks: 2.00 bohrs.

Initialized 3 species with 116 total atoms.

Folded 1 k-points by 1x1x1 to 1 k-points.

---------- Setting up k-points, bands, fillings ----------
No reducable k-points. 
Computing the number of bands and number of electrons
Reading initial fillings from file Na2S6@NiS2-PC.fillings.
nElectrons: 1134.000000   nBands: 790   nStates: 1

----- Setting up reduced wavefunction bases (one per k-point) -----
average nbasis = 199107.000 , ideal nbasis = 199091.615

---------- Setting up coulomb interaction ----------
Fluid mode embedding: using embedded box, but periodic Coulomb kernel.
(Fluid response is responsible for (approximate) separation between periodic images.)
Setting up double-sized grid for truncated Coulomb potentials:
R = 
[      32.1811            0            0  ]
[            0      32.1811            0  ]
[            0            0           90  ]
unit cell volume = 93206
G =
[   0.195245          0          0  ]
[          0   0.195245          0  ]
[          0          0  0.0698132  ]
Chosen fftbox size, S = [  150  150  420  ]
Integer grid location selected as the embedding center:
   Grid: [  0  0  47  ]
   Lattice: [  0  0  0.222222  ]
   Cartesian: [  0  0  10  ]
Constructing Wigner-Seitz cell: 6 faces (6 quadrilaterals, 0 hexagons)
Range-separation parameter for embedded mesh potentials due to point charges: 0.584339 bohrs.

---------- Setting up ewald sum ----------
Optimum gaussian width for ewald sums = 8.190588 bohr.
Real space sum over 405 unit cells with max indices [  4  4  2  ]
Reciprocal space sum over 8325 terms with max indices [  7  7  18  ]

---------- Allocating electronic variables ----------
Initializing wave functions:  reading from 'Na2S6@NiS2-PC.wfns'
----- createFluidSolver() ----- (Fluid-side solver setup)
   Initializing fluid molecule 'PC'
     Net charge: 0   dipole magnitude: 0
     Initializing spherical shell mfKernel with radius 0 Bohr
     deltaS corrections:

Correction to mu due to finite nuclear width = -0.0120717
   Cavity determined by nc: 0.00098 and sigma: 0.6
   Effective cavity tension: 9.53e-06 Eh/bohr^2 to account for cavitation and dispersion.
Reading fluid state from 'Na2S6@NiS2-PC.fluidState'


---- Citations for features of the code used in this run ----

   Software package:
      R. Sundararaman, K. Letchworth-Weaver, K.A. Schwarz, D. Gunceler, Y. Ozhabes and T.A. Arias, 'JDFTx: software for joint density-functional theory', SoftwareX 6, 278 (2017)

   gga-PBE exchange-correlation functional:
      J.P. Perdew, K. Burke and M. Ernzerhof, Phys. Rev. Lett. 77, 3865 (1996)

   Pseudopotentials:
      KF Garrity, JW Bennett, KM Rabe and D Vanderbilt, Comput. Mater. Sci. 81, 446 (2014)

   Truncated Coulomb potentials:
      R. Sundararaman and T.A. Arias, Phys. Rev. B 87, 165122 (2013)

   Linear/nonlinear dielectric/ionic fluid model with effective cavity tension:
      D. Gunceler, K. Letchworth-Weaver, R. Sundararaman, K.A. Schwarz and T.A. Arias, Modelling Simul. Mater. Sci. Eng. 21, 074005 (2013)

   Total energy minimization with Auxiliary Hamiltonian:
      C. Freysoldt, S. Boeck, and J. Neugebauer, Phys. Rev. B 79, 241103(R) (2009)

This list may not be complete. Please suggest additional citations or
report any other bugs at https://github.com/shankar1729/jdftx/issues

Initialization completed successfully at t[s]:      9.63


-------- Electronic minimization -----------
	Linear fluid (dielectric constant: 64) occupying 0.821617 of unit cell:	Completed after 5 iterations at t[s]:     11.65
	FillingsUpdate:  mu: -0.100169888  nElectrons: 1134.000000
ElecMinimize: Iter:   0  F: -7061.662933447056275  |grad|_K:  1.523e-06  alpha:  1.000e+00
	Linear fluid (dielectric constant: 64) occupying 0.821624 of unit cell:	Completed after 23 iterations at t[s]:     22.12
	Linear fluid (dielectric constant: 64) occupying 0.821618 of unit cell:	Completed after 23 iterations at t[s]:     25.94
	FillingsUpdate:  mu: -0.100124259  nElectrons: 1134.000000
	SubspaceRotationAdjust: set factor to 0.572
ElecMinimize: Iter:   1  F: -7061.662943897447803  |grad|_K:  2.159e-07  alpha:  2.740e-02  linmin: -1.755e-04  t[s]:     31.07
	Linear fluid (dielectric constant: 64) occupying 0.821618 of unit cell:	Completed after 1 iterations at t[s]:     35.37
	Linear fluid (dielectric constant: 64) occupying 0.821618 of unit cell:	Completed after 0 iterations at t[s]:     38.74
	FillingsUpdate:  mu: -0.100125476  nElectrons: 1134.000000
	SubspaceRotationAdjust: set factor to 0.412
ElecMinimize: Iter:   2  F: -7061.662944074528241  |grad|_K:  1.145e-07  alpha:  2.595e-02  linmin: -7.280e-03  t[s]:     43.82
	Linear fluid (dielectric constant: 64) occupying 0.821618 of unit cell:	Completed after 0 iterations at t[s]:     48.10
	Linear fluid (dielectric constant: 64) occupying 0.821618 of unit cell:	Completed after 0 iterations at t[s]:     51.48
	FillingsUpdate:  mu: -0.100125286  nElectrons: 1134.000000
	SubspaceRotationAdjust: set factor to 0.333
ElecMinimize: Iter:   3  F: -7061.662944182608044  |grad|_K:  9.141e-08  alpha:  2.827e-02  linmin: -8.336e-03  t[s]:     56.54
	Linear fluid (dielectric constant: 64) occupying 0.821618 of unit cell:	Completed after 2 iterations at t[s]:     60.86
	Linear fluid (dielectric constant: 64) occupying 0.821618 of unit cell:	Completed after 0 iterations at t[s]:     64.25
ElecMinimize: 	Step increased F by 2.626593e-07, reducing alpha to 4.160904e-04.
	Linear fluid (dielectric constant: 64) occupying 0.821618 of unit cell:	Completed after 0 iterations at t[s]:     72.30
ElecMinimize: 	Step increased F by 2.359866e-07, reducing alpha to 4.160904e-05.
	Linear fluid (dielectric constant: 64) occupying 0.821618 of unit cell:	Completed after 0 iterations at t[s]:     80.36
ElecMinimize: 	Step increased F by 2.333854e-07, reducing alpha to 4.160904e-06.
ElecMinimize: 	Step failed to reduce F after 3 attempts. Quitting step.
ElecMinimize: 	Undoing step.
	Linear fluid (dielectric constant: 64) occupying 0.821618 of unit cell:	Completed after 0 iterations at t[s]:     88.42
ElecMinimize: 	Step failed: resetting search direction.
	FillingsUpdate:  mu: -0.100120489  nElectrons: 1134.000000
	SubspaceRotationAdjust: set factor to 0.227
ElecMinimize: Iter:   4  F: -7061.662943949200780  |grad|_K:  1.471e-07  alpha:  4.161e-06
	Linear fluid (dielectric constant: 64) occupying 0.821618 of unit cell:	Completed after 0 iterations at t[s]:     97.69
ElecMinimize: 	Predicted alpha/alphaT>3.000000, increasing alphaT to 8.479704e-02.
	Linear fluid (dielectric constant: 64) occupying 0.821617 of unit cell:	Completed after 3 iterations at t[s]:    101.13
	Linear fluid (dielectric constant: 64) occupying 0.821618 of unit cell:	Completed after 0 iterations at t[s]:    104.56
ElecMinimize: 	Step increased F by 4.284630e-09, reducing alpha to 3.476547e-03.
	Linear fluid (dielectric constant: 64) occupying 0.821618 of unit cell:	Completed after 0 iterations at t[s]:    112.62
	FillingsUpdate:  mu: -0.100137096  nElectrons: 1134.000000
	SubspaceRotationAdjust: set factor to 0.101
	SubspaceRotationAdjust: resetting CG because factor has changed by 0.100606
	Linear fluid (dielectric constant: 64) occupying 0.821618 of unit cell:	Completed after 0 iterations at t[s]:    119.01
ElecMinimize: 	State modified externally: resetting search direction.
ElecMinimize: Iter:   5  F: -7061.662944017454720  |grad|_K:  6.043e-08  alpha:  3.477e-03
	Linear fluid (dielectric constant: 64) occupying 0.821618 of unit cell:	Completed after 0 iterations at t[s]:    128.33
ElecMinimize: 	Wrong curvature in test step, increasing alphaT to 1.042964e-02.
	Linear fluid (dielectric constant: 64) occupying 0.821618 of unit cell:	Completed after 0 iterations at t[s]:    129.95
	FillingsUpdate:  mu: -0.100137099  nElectrons: 1134.000000
	SubspaceRotationAdjust: set factor to 0.0412
ElecMinimize: Iter:   6  F: -7061.662944021627482  |grad|_K:  6.016e-08  alpha: -4.091e-02  linmin: -2.264e-02  t[s]:    135.08
	Linear fluid (dielectric constant: 64) occupying 0.821617 of unit cell:	Completed after 4 iterations at t[s]:    139.44
	Linear fluid (dielectric constant: 64) occupying 0.821618 of unit cell:	Completed after 4 iterations at t[s]:    142.96
ElecMinimize: 	Step increased F by 2.981969e-07, reducing alpha to 6.959998e-03.
	Linear fluid (dielectric constant: 64) occupying 0.821618 of unit cell:	Completed after 0 iterations at t[s]:    151.05
ElecMinimize: 	Step increased F by 1.676699e-07, reducing alpha to 6.959998e-04.
	Linear fluid (dielectric constant: 64) occupying 0.821618 of unit cell:	Completed after 0 iterations at t[s]:    159.14
ElecMinimize: 	Step increased F by 2.030429e-07, reducing alpha to 6.959998e-05.
ElecMinimize: 	Step failed to reduce F after 3 attempts. Quitting step.
ElecMinimize: 	Undoing step.
	Linear fluid (dielectric constant: 64) occupying 0.821618 of unit cell:	Completed after 0 iterations at t[s]:    168.79
ElecMinimize: 	Step failed: resetting search direction.
	FillingsUpdate:  mu: -0.100145568  nElectrons: 1134.000000
	SubspaceRotationAdjust: set factor to 0.0313
ElecMinimize: Iter:   7  F: -7061.662943818588246  |grad|_K:  8.253e-08  alpha:  6.960e-05
	Linear fluid (dielectric constant: 64) occupying 0.821617 of unit cell:	Completed after 3 iterations at t[s]:    180.82
	Linear fluid (dielectric constant: 64) occupying 0.821618 of unit cell:	Completed after 3 iterations at t[s]:    184.30
ElecMinimize: 	Step increased F by 1.102217e-08, reducing alpha to 1.562195e-02.
	Linear fluid (dielectric constant: 64) occupying 0.821618 of unit cell:	Completed after 0 iterations at t[s]:    192.42
	FillingsUpdate:  mu: -0.100160357  nElectrons: 1134.000000
	SubspaceRotationAdjust: set factor to 0.0294
ElecMinimize: Iter:   8  F: -7061.662943926396110  |grad|_K:  6.579e-08  alpha:  1.562e-02  linmin:  1.264e-02  t[s]:    197.49
	Linear fluid (dielectric constant: 64) occupying 0.821618 of unit cell:	Completed after 0 iterations at t[s]:    201.78
ElecMinimize: 	Predicted alpha/alphaT>3.000000, increasing alphaT to 4.686586e-02.
	Linear fluid (dielectric constant: 64) occupying 0.821618 of unit cell:	Completed after 0 iterations at t[s]:    205.15
ElecMinimize: 	Predicted alpha/alphaT>3.000000, increasing alphaT to 1.405976e-01.
	Linear fluid (dielectric constant: 64) occupying 0.821618 of unit cell:	Completed after 0 iterations at t[s]:    208.51
ElecMinimize: 	Predicted alpha/alphaT>3.000000, increasing alphaT to 4.217927e-01.
	Linear fluid (dielectric constant: 64) occupying 0.821618 of unit cell:	Completed after 1 iterations at t[s]:    211.91
ElecMinimize: 	Step increased F by 6.729624e-08, reducing alpha to 4.343379e-02.
	Linear fluid (dielectric constant: 64) occupying 0.821618 of unit cell:	Completed after 0 iterations at t[s]:    219.98
ElecMinimize: 	Step increased F by 4.355024e-08, reducing alpha to 4.343379e-03.
	Linear fluid (dielectric constant: 64) occupying 0.821618 of unit cell:	Completed after 0 iterations at t[s]:    228.05
ElecMinimize: 	Step increased F by 5.932179e-08, reducing alpha to 4.343379e-04.
ElecMinimize: 	Step failed to reduce F after 3 attempts. Quitting step.
ElecMinimize: 	Undoing step.
	Linear fluid (dielectric constant: 64) occupying 0.821618 of unit cell:	Completed after 0 iterations at t[s]:    236.11
ElecMinimize: 	Step failed: resetting search direction.
	FillingsUpdate:  mu: -0.100155385  nElectrons: 1134.000000
	SubspaceRotationAdjust: set factor to 0.0311
ElecMinimize: Iter:   9  F: -7061.662943866846945  |grad|_K:  3.364e-08  alpha:  4.343e-04
	Linear fluid (dielectric constant: 64) occupying 0.821618 of unit cell:	Completed after 0 iterations at t[s]:    245.36
ElecMinimize: 	Predicted alpha/alphaT>3.000000, increasing alphaT to 4.686586e-02.
	Linear fluid (dielectric constant: 64) occupying 0.821618 of unit cell:	Completed after 0 iterations at t[s]:    248.74
ElecMinimize: 	Predicted alpha/alphaT>3.000000, increasing alphaT to 1.405976e-01.
	Linear fluid (dielectric constant: 64) occupying 0.821618 of unit cell:	Completed after 0 iterations at t[s]:    252.12
ElecMinimize: 	Predicted alpha/alphaT>3.000000, increasing alphaT to 4.217927e-01.
	Linear fluid (dielectric constant: 64) occupying 0.821618 of unit cell:	Completed after 1 iterations at t[s]:    255.53
ElecMinimize: 	Step increased F by 1.461558e-07, reducing alpha to 7.217269e-02.
	Linear fluid (dielectric constant: 64) occupying 0.821618 of unit cell:	Completed after 0 iterations at t[s]:    263.61
ElecMinimize: 	Step increased F by 4.362664e-08, reducing alpha to 7.217269e-03.
	Linear fluid (dielectric constant: 64) occupying 0.821618 of unit cell:	Completed after 0 iterations at t[s]:    271.65
ElecMinimize: 	Step increased F by 4.512822e-08, reducing alpha to 7.217269e-04.
ElecMinimize: 	Step failed to reduce F after 3 attempts. Quitting step.
ElecMinimize: 	Undoing step.
	Linear fluid (dielectric constant: 64) occupying 0.821618 of unit cell:	Completed after 0 iterations at t[s]:    279.68
ElecMinimize: 	Step failed along negative gradient direction.
ElecMinimize: Probably at roundoff error limit. (Stopping)
Setting wave functions to eigenvectors of Hamiltonian

# Ionic positions in cartesian coordinates:
ion Ni  32.181155145270012   0.000000000000000  10.727052344999993 0
ion Ni   5.363526172500001   0.000000000000000   5.363526172499999 0
ion Ni  32.181155145270012   5.363526172500001   5.363526172499999 0
ion Ni   5.363526172500001   5.363526172500001  10.727052344999993 0
ion Ni  32.181155145270012  10.727052345000002  10.727052344999993 0
ion Ni  32.181155145270012  21.454102800270007  10.727052344999993 0
ion Ni   5.363526172500001  21.454102800270007   5.363526172499999 0
ion Ni   5.363526172500001  10.727052345000002   5.363526172499999 0
ion Ni  32.181155145270012  16.090578517500006   5.363526172499999 0
ion Ni  32.181155145270012  26.817628972770006   5.363526172499999 0
ion Ni   5.363526172500001  26.817628972770006  10.727052344999993 0
ion Ni   5.363526172500001  16.090578517500006  10.727052344999993 0
ion Ni  10.727052345000002   0.000000000000000  10.727052344999993 0
ion Ni  21.454102800270007   0.000000000000000  10.727052344999993 0
ion Ni  21.454102800270007   5.363526172500001   5.363526172499999 0
ion Ni  10.727052345000002   5.363526172500001   5.363526172499999 0
ion Ni  16.090578517500006   5.363526172500001  10.727052344999993 0
ion Ni  26.817628972770006   5.363526172500001  10.727052344999993 0
ion Ni  26.817628972770006   0.000000000000000   5.363526172499999 0
ion Ni  16.090578517500006   0.000000000000000   5.363526172499999 0
ion Ni  10.727052345000002  10.727052345000002  10.727052344999993 0
ion Ni  21.454102800270007  21.454102800270007  10.727052344999993 0
ion Ni  26.817628972770006  21.454102800270007   5.363526172499999 0
ion Ni  16.090578517500006  10.727052345000002   5.363526172499999 0
ion Ni  21.454102800270007  16.090578517500006   5.363526172499999 0
ion Ni  10.727052345000002  26.817628972770006   5.363526172499999 0
ion Ni  16.090578517500006  26.817628972770006  10.727052344999993 0
ion Ni  26.817628972770006  16.090578517500006  10.727052344999993 0
ion Ni  10.727052345000002  21.454102800270007  10.727052344999993 0
ion Ni  21.454102800270007  10.727052345000002  10.727052344999981 0
ion Ni  26.817628972770006  10.727052345000002   5.363526172499999 0
ion Ni  16.090578517500006  21.454102800270007   5.363526172499999 0
ion Ni  21.454102800270007  26.817628972770006   5.363526172499999 0
ion Ni  10.727052345000002  16.090578517500006   5.363526172499999 0
ion Ni  16.090578517500006  16.090578517500006  10.727052344999993 0
ion Ni  26.817628972770006  26.817628972770006  10.727052344999993 0
ion S   4.232241197730002   4.232241197730002   4.232250646379993 0
ion S  27.948915837270008  27.948915837270008   6.494801698619990 0
ion S   1.131284974770000  27.948915837270008   9.595776818879990 0
ion S   9.595765480500003   4.232241197730002   1.131275526120000 0
ion S  27.948915837270008   9.595765480500003   1.131275526120000 0
ion S   4.232241197730002   1.131284974770000   9.595776818879990 0
ion S   9.595765480500003   1.131284974770000   6.494801698619990 0
ion S   1.131284974770000   9.595765480500003   4.232250646379993 0
ion S   4.232241197730002  14.959291652999987   4.232250646379993 0
ion S  27.948915837270008  17.221863492269964   6.494801698619990 0
ion S   1.131284974770000  17.221863492269964   9.595776818879990 0
ion S   9.595765480500003  14.959291652999987   1.131275526120000 0
ion S  27.948915837270008  20.322817825500007   1.131275526120000 0
ion S   4.232241197730002  22.585389664770005   9.595776818879990 0
ion S   9.595765480500003  22.585389664770005   6.494801698619990 0
ion S   1.131284974770000  20.322817825500007   4.232250646379993 0
ion S  14.959291652999987   4.232250646380002   4.232241197729998 0
ion S  17.221863492269964  27.948904498890005   6.494811147269997 0
ion S  17.221863492269964   9.595776818880003   1.131284974770000 0
ion S  14.959291652999987   1.131275526120000   9.595765480499988 0
ion S  20.322817825500007   1.131275526120000   6.494811147269997 0
ion S  22.585389664770005   9.595776818880003   4.232241197729998 0
ion S  22.585389664770005  27.948904498890005   9.595765480499988 0
ion S  20.322817825500007   4.232250646380002   1.131284974770000 0
ion S   4.232241197730002  25.686343997999973   4.232250646379993 0
ion S  27.948915837270008   6.494811147269999   6.494801698619990 0
ion S   1.131284974770000   6.494811147269999   9.595776818879990 0
ion S   9.595765480500003  25.686343997999973   1.131275526120000 0
ion S  27.948915837270008  31.049870170499972   1.131275526120000 0
ion S   4.232241197730002  11.858337319770003   9.595776818879990 0
ion S   9.595765480500003  11.858337319770003   6.494801698619990 0
ion S   1.131284974770000  31.049870170499972   4.232250646379993 0
ion S  25.686343997999973   4.232250646380002   4.232241197729998 0
ion S   6.494811147269999  27.948904498890005   6.494811147269997 0
ion S   6.494811147269999   9.595776818880003   1.131284974770000 0
ion S  25.686343997999973   1.131275526120000   9.595765480499988 0
ion S  31.049870170499972   1.131275526120000   6.494811147269997 0
ion S  11.858337319770003   9.595776818880003   4.232241197729998 0
ion S  11.858337319770003  27.948904498890005   9.595765480499988 0
ion S  31.049870170499972   4.232250646380002   1.131284974770000 0
ion S  14.959291652999987  14.959291652999987   4.232250646379993 0
ion S  17.221863492269964  17.221863492269964   6.494801698619990 0
ion S  22.585389664770005  17.221863492269964   9.595776818879990 0
ion S  20.322817825500007  14.959291652999987   1.131275526120000 0
ion S  17.221863492269964  20.322817825500007   1.131275526120000 0
ion S  14.959291652999987  22.585389664770005   9.595776818879990 0
ion S  20.322817825500007  22.585389664770005   6.494801698619990 0
ion S  22.585389664770005  20.322817825500007   4.232250646379993 0
ion S  14.959291652999987  25.686343997999973   4.232250646379993 0
ion S  17.221863492269964   6.494811147269999   6.494801698619990 0
ion S  22.585389664770005   6.494811147269999   9.595776818879990 0
ion S  20.322817825500007  25.686343997999973   1.131275526120000 0
ion S  17.221863492269964  31.049870170499972   1.131275526120000 0
ion S  14.959291652999987  11.858337319770003   9.595776818879990 0
ion S  20.322817825500007  11.858337319770003   6.494801698619990 0
ion S  22.585389664770005  31.049870170499972   4.232250646379993 0
ion S  25.686343997999973  14.959291652999987   4.232250646379993 0
ion S   6.494811147269999  17.221863492269964   6.494801698619990 0
ion S  11.858337319770003  17.221863492269964   9.595776818879990 0
ion S  31.049870170499972  14.959291652999987   1.131275526120000 0
ion S   6.494811147269999  20.322817825500007   1.131275526120000 0
ion S  25.686343997999973  22.585389664770005   9.595776818879990 0
ion S  31.049870170499972  22.585389664770005   6.494801698619990 0
ion S  11.858337319770003  20.322817825500007   4.232250646379993 0
ion S  25.686343997999973  25.686343997999973   4.232250646379993 0
ion S   6.494811147269999   6.494811147269999   6.494801698619990 0
ion S  11.858337319770003   6.494811147269999   9.595776818879990 0
ion S  31.049870170499972  25.686343997999973   1.131275526120000 0
ion S   6.494811147269999  31.049870170499972   1.131275526120000 0
ion S  25.686343997999973  11.858337319770003   9.595776818879990 0
ion S  31.049870170499972  11.858337319770003   6.494801698619990 0
ion S  11.858337319770003  31.049870170499972   4.232250646379993 0
ion S  14.755906033550215  14.812134935323265  14.613024048270187 1
ion S  11.513262587193845  12.684431584315279  14.362345304093813 1
ion S   6.645323956096499   9.374923844929301  11.842641109984127 1
ion S  17.574388524594710  20.255283245993592  11.857373330400861 1
ion S   6.687119366758708  20.094716671416414  11.816794616126904 1
ion S   9.393975520509629  25.627266672812183  11.850794736868039 1
ion Na  17.966808163002305   8.302832550693573  21.833949856247532 1
ion Na   9.646803809601220  18.970954746658478  20.468250011744903 1

# Forces in Cartesian coordinates:
force Ni   0.022348598599931  -0.008460175670303  -0.032696359671367 0
force Ni  -0.002277958805880   0.000441374785993  -0.007514102986245 0
force Ni   0.002521840346354  -0.000147925213570  -0.006901131736119 0
force Ni  -0.015841608787906   0.003547657384266  -0.031517968538525 0
force Ni   0.016877152930576  -0.011164283164416  -0.031790218470589 0
force Ni   0.018439055502370  -0.011328772459422  -0.031907972947181 0
force Ni  -0.000862339294954  -0.001503945938369  -0.010645698357130 0
force Ni  -0.000478629821632  -0.001024538346829  -0.010959927916778 0
force Ni   0.002044937475721   0.000216586208458  -0.007029725388287 0
force Ni   0.003047446128638   0.000440934400536  -0.007902053386403 0
force Ni  -0.004092146249483  -0.013003390098859  -0.029656587684421 0
force Ni  -0.011297943634982   0.008703517850864  -0.027621322088531 0
force Ni   0.019462079722790  -0.002578405322265  -0.031711144200046 0
force Ni   0.022696849672818  -0.009814688667683  -0.033663237906058 0
force Ni   0.002804860280298   0.000030947879761  -0.007055352583795 0
force Ni   0.002559810446074   0.000686287601159  -0.006042990414466 0
force Ni  -0.023499548242701  -0.009520538988865  -0.033965283977627 0
force Ni  -0.022605668120347  -0.009735709464302  -0.033559261654986 0
force Ni  -0.002843679136574   0.000138761282780  -0.007015180976648 0
force Ni  -0.002728436767951   0.000844285440459  -0.006880391215476 0
force Ni   0.014589476454546  -0.004795372650374  -0.010530199293204 0
force Ni   0.009543197074150  -0.014653887994409  -0.032381736115488 0
force Ni  -0.003947824534475  -0.000167492442152  -0.007415440881675 0
force Ni  -0.004227186083071   0.001607644047686  -0.005754867290207 0
force Ni   0.002495857447175   0.000334831605119  -0.006173923836861 0
force Ni   0.000406027137706  -0.002358026670955  -0.011002013888467 0
force Ni  -0.015286121367743  -0.005839433300133  -0.030994449894518 0
force Ni  -0.023584991780726  -0.009687277128368  -0.033970259450890 0
force Ni  -0.004634945032417  -0.004621057361212  -0.021526942574350 0
force Ni   0.023194045529757  -0.009900967777304  -0.033056916622798 0
force Ni  -0.003198494855975  -0.000086884625763  -0.006736901765186 0
force Ni  -0.001933841362637  -0.001935451646111  -0.009071851694860 0
force Ni   0.003060390221437  -0.000832336126298  -0.006996373267277 0
force Ni   0.002272024939479   0.002614466111419  -0.005452645469353 0
force Ni  -0.020947921207699  -0.001388807563321  -0.012129468369814 0
force Ni  -0.023468909732940  -0.009282893839926  -0.032749072288390 0
force S  -0.004574621118716  -0.004060959660708  -0.004129567791049 0
force S   0.000570553034925  -0.001929438982998   0.013400978853992 0
force S   0.001302964004844   0.005759697567410   0.015105837367245 0
force S  -0.002062455170261   0.008414847604063   0.018097751530715 0
force S   0.002039841932393   0.008065876711510   0.018575067515953 0
force S   0.001684055621778   0.009147379925187   0.015249811422967 0
force S  -0.000845248065758  -0.001592087800998   0.014638798420190 0
force S   0.005703133025476  -0.004588955737094  -0.003015943847390 0
force S  -0.004848434561727  -0.004578486804419  -0.002352740705579 0
force S   0.001138341447515  -0.002166104166944   0.014127515740083 0
force S  -0.005421588918873   0.006109919492971   0.011033750223372 0
force S  -0.002106906903316   0.007992982084221   0.018037580220101 0
force S   0.002078887490758   0.008054060345874   0.018587692055286 0
force S  -0.000396126990304  -0.005073367045761   0.016567256808346 0
force S   0.001694676075461   0.000423056320376  -0.001515140757648 0
force S   0.005328052293341  -0.004073483939165  -0.002717445946289 0
force S  -0.005095105575021  -0.004025932943685  -0.003297565025516 0
force S   0.001067847108779  -0.001437098385346   0.015220622084762 0
force S   0.002283072941939   0.007836628644347   0.017862598585022 0
force S   0.000505550176425   0.007118348593412   0.011659606526686 0
force S  -0.000857469610478  -0.001869498220765   0.014160580127659 0
force S   0.004930733985404  -0.004268583658977  -0.003096170702400 0
force S   0.000003702987633   0.006623761544836   0.011956586774197 0
force S  -0.001950633083573   0.008332855213267   0.018676029909822 0
force S  -0.004883723907139  -0.004326845314821  -0.001017028016581 0
force S   0.001234485994452  -0.001826607694475   0.014174319404776 0
force S  -0.004686451926791   0.006705223102350   0.011226562304848 0
force S  -0.002364461645224   0.007561058179084   0.017743685566902 0
force S   0.001871729592911   0.008127406845156   0.018619312901484 0
force S   0.005581774587846   0.001180952659913   0.016929538754102 0
force S  -0.000377890094034  -0.000628532277392   0.006526106552155 0
force S   0.004722656233281  -0.003924359902845  -0.002734277522291 0
force S  -0.005224782447804  -0.004251098847143  -0.003273033873594 0
force S  -0.000372020909313   0.002775855633269   0.005927210087898 0
force S   0.002604657206653   0.007335561006704   0.018134140211523 0
force S   0.000015970403367   0.007665897083555   0.011864464214302 0
force S  -0.000659719447606  -0.001885452647127   0.013670217336266 0
force S   0.005350505138483  -0.004225165885807  -0.003219490518015 0
force S  -0.004960816790194   0.004137610275677   0.014013579543577 0
force S  -0.001842005831990   0.008316019640201   0.018616725082987 0
force S  -0.004630140323679  -0.004744259957973  -0.002839302733560 0
force S   0.000356911309802  -0.004159711689660   0.008517164744857 0
force S   0.008796938021082  -0.000281750948497   0.013094557464246 0
force S  -0.001922439529634   0.008071974802735   0.018305629712407 0
force S   0.002195391479731   0.007949615751536   0.017220122026102 0
force S   0.008093380176663  -0.000178986019513   0.017473189213632 0
force S   0.001092097538746   0.003355586102297   0.004733266537127 0
force S   0.004665762992637  -0.003332891030750  -0.002503039858834 0
force S  -0.006027560055392  -0.004488432561089  -0.002127403173668 0
force S   0.001098295210402  -0.001545069887910   0.014049281678787 0
force S  -0.000102519414021   0.007905642859063   0.011953154106798 0
force S  -0.002021093837984   0.008139712879620   0.018624757467586 0
force S   0.001952053044420   0.008321937533246   0.018245723812955 0
force S   0.002323853053862   0.001216723127179  -0.004199480628123 0
force S  -0.001098267860987  -0.001766006486761   0.014136654274631 0
force S   0.005163503501981  -0.004086688999658  -0.003183505998816 0
force S  -0.005302315229007  -0.003929638680613  -0.003317583415277 0
force S   0.000571147860033  -0.003592147060858   0.004010000978191 0
force S  -0.002572141573171   0.007840033568865   0.003687668717964 0
force S  -0.001872522520722   0.008215308791608   0.018559176875072 0
force S   0.002704265673510   0.007614007668456   0.017668245689141 0
force S  -0.002207541672502   0.006743357770683   0.015314450978889 0
force S  -0.000558576247171  -0.001793978273403   0.013928421470021 0
force S   0.004580485338163  -0.004181042217244  -0.003939472676871 0
force S  -0.004720929086798  -0.003896158487693  -0.002912778832617 0
force S   0.000433344852456  -0.003867219737113   0.004469997551607 0
force S   0.005718513520802  -0.001283428678931   0.008493187159949 0
force S  -0.001928635020889   0.008114712856345   0.018598021538672 0
force S   0.002115624742867   0.008218108617273   0.018491750937641 0
force S  -0.000239819966253   0.008170094913970   0.011572542233537 0
force S  -0.001010671837322  -0.001727210476437   0.014608656874658 0
force S   0.005318056786650  -0.004854787656258  -0.001795899252301 0
force S   0.003975405416466   0.002245426060749  -0.002399269300355 1
force S  -0.002701631718185  -0.001868501592681  -0.000167318861309 1
force S   0.000974096671950   0.000365297338130  -0.000016687530803 1
force S  -0.002652358613919   0.000836849498974  -0.001697393849020 1
force S  -0.000460574529977  -0.002270812698062   0.000839120577406 1
force S   0.000834290666803   0.001314184795814   0.000092254317682 1
force Na  -0.000022812631770   0.000170044574897   0.000629637914576 1
force Na   0.000075145905024  -0.000085871855714   0.000309622000986 1

# Energy components:
   A_diel =       -1.6723775687502924
   Eewald =    40126.8929613047803286
       EH =    46379.7505781582221971
     Eloc =   -94799.0304930034035351
      Enl =      916.1746795351778019
      Exc =     -978.9966349661099230
 Exc_core =      152.3221710511339211
       KE =     1143.8912926645782591
  MuShift =       -0.0000000000111219
-------------------------------------
     Etot =    -7060.6678228243827107
       TS =        0.9951209972956503
-------------------------------------
        F =    -7061.6629438216787094

IonicMinimize: Iter:   0  F: -7061.662943821678709  |grad|_K:  1.557e-03  alpha:  1.000e+00

#--- Lowdin population analysis ---
# oxidation-state Ni +0.260 -0.445 -0.445 -0.211 +0.249 +0.250 -0.463 -0.461 -0.451 -0.449 -0.207 -0.189 +0.258 +0.248 -0.446 -0.449 +0.260 +0.252 -0.446 -0.451 -0.444 -0.232 -0.444 -0.457 -0.447 -0.470 +0.238 +0.266 -0.375 +0.260 -0.444 -0.461 -0.446 -0.451 -0.381 +0.263
# oxidation-state S +0.298 +0.443 +0.024 -0.191 -0.189 +0.052 +0.441 +0.293 +0.285 +0.446 +0.027 -0.191 -0.190 +0.372 +0.434 +0.294 +0.297 +0.426 -0.191 +0.032 +0.445 +0.296 +0.055 -0.189 +0.287 +0.445 +0.046 -0.190 -0.188 +0.358 +0.444 +0.295 +0.295 +0.442 -0.188 +0.048 +0.444 +0.299 +0.354 -0.188 +0.297 +0.449 +0.078 -0.189 -0.193 +0.356 +0.447 +0.299 +0.280 +0.445 +0.048 -0.190 -0.192 +0.131 +0.444 +0.294 +0.295 +0.451 +0.127 -0.188 -0.193 +0.046 +0.430 +0.301 +0.296 +0.455 +0.078 -0.188 -0.189 +0.051 +0.431 +0.282 -0.067 -0.032 +0.126 +0.125 +0.137 +0.109
# oxidation-state Na +0.998 +0.986


-------- Electronic minimization -----------
	Linear fluid (dielectric constant: 64) occupying 0.821618 of unit cell:	Completed after 11 iterations at t[s]:    293.99
	FillingsUpdate:  mu: -0.100089669  nElectrons: 1134.000000
ElecMinimize: Iter:   0  F: -7061.662967066819874  |grad|_K:  6.478e-07  alpha:  1.000e+00
	Linear fluid (dielectric constant: 64) occupying 0.821621 of unit cell:	Completed after 13 iterations at t[s]:    304.30
	Linear fluid (dielectric constant: 64) occupying 0.821619 of unit cell:	Completed after 12 iterations at t[s]:    307.96
	FillingsUpdate:  mu: -0.100090374  nElectrons: 1134.000000
	SubspaceRotationAdjust: set factor to 0.0436
ElecMinimize: Iter:   1  F: -7061.662980604964105  |grad|_K:  3.591e-07  alpha:  1.992e-01  linmin: -1.623e-04  t[s]:    313.10
	Linear fluid (dielectric constant: 64) occupying 0.821619 of unit cell:	Completed after 3 iterations at t[s]:    317.44
	Linear fluid (dielectric constant: 64) occupying 0.821620 of unit cell:	Completed after 3 iterations at t[s]:    320.94
	FillingsUpdate:  mu: -0.100122277  nElectrons: 1134.000000
	SubspaceRotationAdjust: set factor to 0.0579
ElecMinimize: Iter:   2  F: -7061.662990420792994  |grad|_K:  1.463e-07  alpha:  4.879e-01  linmin:  9.059e-04  t[s]:    326.05
	Linear fluid (dielectric constant: 64) occupying 0.821619 of unit cell:	Completed after 3 iterations at t[s]:    330.38
	Linear fluid (dielectric constant: 64) occupying 0.821619 of unit cell:	Completed after 0 iterations at t[s]:    333.80
	FillingsUpdate:  mu: -0.100112321  nElectrons: 1134.000000
	SubspaceRotationAdjust: set factor to 0.0627
ElecMinimize: Iter:   3  F: -7061.662991750262336  |grad|_K:  1.389e-07  alpha:  4.145e-01  linmin: -2.192e-03  t[s]:    338.86
	Linear fluid (dielectric constant: 64) occupying 0.821619 of unit cell:	Completed after 3 iterations at t[s]:    343.21
	Linear fluid (dielectric constant: 64) occupying 0.821619 of unit cell:	Completed after 0 iterations at t[s]:    346.64
	FillingsUpdate:  mu: -0.100143925  nElectrons: 1134.000000
	SubspaceRotationAdjust: set factor to 0.0616
ElecMinimize: Iter:   4  F: -7061.662992536513229  |grad|_K:  1.444e-07  alpha:  2.528e-01  linmin:  2.418e-03  t[s]:    351.69
	Linear fluid (dielectric constant: 64) occupying 0.821618 of unit cell:	Completed after 3 iterations at t[s]:    356.04
	Linear fluid (dielectric constant: 64) occupying 0.821618 of unit cell:	Completed after 0 iterations at t[s]:    359.45
	FillingsUpdate:  mu: -0.100136980  nElectrons: 1134.000000
	SubspaceRotationAdjust: set factor to 0.0692
ElecMinimize: Iter:   5  F: -7061.662992946860868  |grad|_K:  7.992e-08  alpha:  1.939e-01  linmin: -5.215e-03  t[s]:    364.53
	Linear fluid (dielectric constant: 64) occupying 0.821618 of unit cell:	Completed after 0 iterations at t[s]:    368.80
ElecMinimize: 	Predicted alpha/alphaT>3.000000, increasing alphaT to 5.817305e-01.
	Linear fluid (dielectric constant: 64) occupying 0.821618 of unit cell:	Completed after 0 iterations at t[s]:    372.17
	Linear fluid (dielectric constant: 64) occupying 0.821618 of unit cell:	Completed after 0 iterations at t[s]:    375.56
	FillingsUpdate:  mu: -0.100137590  nElectrons: 1134.000000
	SubspaceRotationAdjust: set factor to 0.083
ElecMinimize: Iter:   6  F: -7061.662993682104570  |grad|_K:  7.839e-08  alpha:  5.914e-01  linmin:  3.056e-06  t[s]:    380.64
	Linear fluid (dielectric constant: 64) occupying 0.821617 of unit cell:	Completed after 3 iterations at t[s]:    384.97
	Linear fluid (dielectric constant: 64) occupying 0.821617 of unit cell:	Completed after 0 iterations at t[s]:    388.38
	FillingsUpdate:  mu: -0.100140244  nElectrons: 1134.000000
	SubspaceRotationAdjust: set factor to 0.0848
ElecMinimize: Iter:   7  F: -7061.662993887368430  |grad|_K:  1.050e-07  alpha:  3.296e-01  linmin:  1.282e-04  t[s]:    393.47
	Linear fluid (dielectric constant: 64) occupying 0.821616 of unit cell:	Completed after 1 iterations at t[s]:    397.77
	Linear fluid (dielectric constant: 64) occupying 0.821617 of unit cell:	Completed after 0 iterations at t[s]:    401.18
	FillingsUpdate:  mu: -0.100146455  nElectrons: 1134.000000
	SubspaceRotationAdjust: set factor to 0.113
ElecMinimize: Iter:   8  F: -7061.662994231827724  |grad|_K:  7.196e-08  alpha:  2.279e-01  linmin: -4.814e-04  t[s]:    406.24
	Linear fluid (dielectric constant: 64) occupying 0.821616 of unit cell:	Completed after 0 iterations at t[s]:    410.51
	Linear fluid (dielectric constant: 64) occupying 0.821616 of unit cell:	Completed after 3 iterations at t[s]:    413.96
ElecMinimize: 	Step increased F by 3.423429e-07, reducing alpha to 4.905070e-02.
	Linear fluid (dielectric constant: 64) occupying 0.821617 of unit cell:	Completed after 0 iterations at t[s]:    422.06
	FillingsUpdate:  mu: -0.100166310  nElectrons: 1134.000000
	SubspaceRotationAdjust: set factor to 0.111
ElecMinimize: Iter:   9  F: -7061.662994551953489  |grad|_K:  1.610e-07  alpha:  4.905e-02  linmin:  1.124e-03  t[s]:    427.14
	Linear fluid (dielectric constant: 64) occupying 0.821616 of unit cell:	Completed after 0 iterations at t[s]:    431.46
	Linear fluid (dielectric constant: 64) occupying 0.821616 of unit cell:	Completed after 0 iterations at t[s]:    434.82
	FillingsUpdate:  mu: -0.100166624  nElectrons: 1134.000000
	SubspaceRotationAdjust: set factor to 0.147
ElecMinimize: Iter:  10  F: -7061.662994660249751  |grad|_K:  1.592e-07  alpha:  4.773e-02  linmin:  1.569e-07  t[s]:    439.90
	Linear fluid (dielectric constant: 64) occupying 0.821616 of unit cell:	Completed after 0 iterations at t[s]:    444.16
	Linear fluid (dielectric constant: 64) occupying 0.821616 of unit cell:	Completed after 2 iterations at t[s]:    447.59
ElecMinimize: 	Step increased F by 3.480436e-07, reducing alpha to 8.950616e-03.
	Linear fluid (dielectric constant: 64) occupying 0.821616 of unit cell:	Completed after 0 iterations at t[s]:    455.64
ElecMinimize: 	Step increased F by 1.373846e-07, reducing alpha to 8.950616e-04.
	Linear fluid (dielectric constant: 64) occupying 0.821616 of unit cell:	Completed after 0 iterations at t[s]:    463.71
ElecMinimize: 	Step increased F by 1.480939e-07, reducing alpha to 8.950616e-05.
ElecMinimize: 	Step failed to reduce F after 3 attempts. Quitting step.
ElecMinimize: 	Undoing step.
	Linear fluid (dielectric constant: 64) occupying 0.821616 of unit cell:	Completed after 0 iterations at t[s]:    471.73
ElecMinimize: 	Step failed: resetting search direction.
	FillingsUpdate:  mu: -0.100148402  nElectrons: 1134.000000
	SubspaceRotationAdjust: set factor to 0.11
ElecMinimize: Iter:  11  F: -7061.662994511975739  |grad|_K:  7.101e-08  alpha:  8.951e-05
	Linear fluid (dielectric constant: 64) occupying 0.821616 of unit cell:	Completed after 0 iterations at t[s]:    480.98
ElecMinimize: 	Predicted alpha/alphaT>3.000000, increasing alphaT to 1.431861e-01.
	Linear fluid (dielectric constant: 64) occupying 0.821616 of unit cell:	Completed after 0 iterations at t[s]:    484.37
ElecMinimize: 	Predicted alpha/alphaT>3.000000, increasing alphaT to 4.295584e-01.
	Linear fluid (dielectric constant: 64) occupying 0.821616 of unit cell:	Completed after 3 iterations at t[s]:    487.81
	Linear fluid (dielectric constant: 64) occupying 0.821616 of unit cell:	Completed after 0 iterations at t[s]:    491.21
	FillingsUpdate:  mu: -0.100163030  nElectrons: 1134.000000
	SubspaceRotationAdjust: set factor to 0.099
ElecMinimize: Iter:  12  F: -7061.662994540952241  |grad|_K:  1.361e-07  alpha:  1.735e-01  linmin:  2.180e-03  t[s]:    496.27
	Linear fluid (dielectric constant: 64) occupying 0.821617 of unit cell:	Completed after 0 iterations at t[s]:    500.53
	Linear fluid (dielectric constant: 64) occupying 0.821617 of unit cell:	Completed after 0 iterations at t[s]:    503.93
	FillingsUpdate:  mu: -0.100162711  nElectrons: 1134.000000
	SubspaceRotationAdjust: set factor to 0.135
ElecMinimize: Iter:  13  F: -7061.662994784928742  |grad|_K:  1.332e-07  alpha:  1.231e-01  linmin:  6.546e-08  t[s]:    508.97
	Linear fluid (dielectric constant: 64) occupying 0.821617 of unit cell:	Completed after 2 iterations at t[s]:    513.30
	Linear fluid (dielectric constant: 64) occupying 0.821617 of unit cell:	Completed after 0 iterations at t[s]:    516.71
	FillingsUpdate:  mu: -0.100154449  nElectrons: 1134.000000
	SubspaceRotationAdjust: set factor to 0.139
ElecMinimize: Iter:  14  F: -7061.662994848348717  |grad|_K:  9.724e-08  alpha:  5.149e-02  linmin:  1.857e-03  t[s]:    521.78
	Linear fluid (dielectric constant: 64) occupying 0.821617 of unit cell:	Completed after 0 iterations at t[s]:    526.04
ElecMinimize: 	Predicted alpha/alphaT>3.000000, increasing alphaT to 1.544673e-01.
	Linear fluid (dielectric constant: 64) occupying 0.821617 of unit cell:	Completed after 0 iterations at t[s]:    529.45
	Linear fluid (dielectric constant: 64) occupying 0.821617 of unit cell:	Completed after 0 iterations at t[s]:    532.86
	FillingsUpdate:  mu: -0.100154219  nElectrons: 1134.000000
	SubspaceRotationAdjust: set factor to 0.155
ElecMinimize: Iter:  15  F: -7061.662995064256393  |grad|_K:  8.421e-08  alpha:  2.128e-01  linmin: -1.628e-06  t[s]:    537.90
	Linear fluid (dielectric constant: 64) occupying 0.821617 of unit cell:	Completed after 0 iterations at t[s]:    545.18
	Linear fluid (dielectric constant: 64) occupying 0.821617 of unit cell:	Completed after 0 iterations at t[s]:    548.59
	FillingsUpdate:  mu: -0.100142347  nElectrons: 1134.000000
	SubspaceRotationAdjust: set factor to 0.173
ElecMinimize: Iter:  16  F: -7061.662995337223947  |grad|_K:  7.364e-08  alpha:  2.337e-01  linmin: -1.286e-03  t[s]:    553.63
	Linear fluid (dielectric constant: 64) occupying 0.821618 of unit cell:	Completed after 3 iterations at t[s]:    557.97
	Linear fluid (dielectric constant: 64) occupying 0.821617 of unit cell:	Completed after 0 iterations at t[s]:    561.41
ElecMinimize: 	Step increased F by 1.365624e-07, reducing alpha to 5.358386e-03.
	Linear fluid (dielectric constant: 64) occupying 0.821617 of unit cell:	Completed after 0 iterations at t[s]:    569.47
ElecMinimize: 	Step increased F by 5.737638e-08, reducing alpha to 5.358386e-04.
	Linear fluid (dielectric constant: 64) occupying 0.821617 of unit cell:	Completed after 0 iterations at t[s]:    577.47
ElecMinimize: 	Step increased F by 5.036782e-08, reducing alpha to 5.358386e-05.
ElecMinimize: 	Step failed to reduce F after 3 attempts. Quitting step.
ElecMinimize: 	Undoing step.
	Linear fluid (dielectric constant: 64) occupying 0.821617 of unit cell:	Completed after 0 iterations at t[s]:    585.50
ElecMinimize: 	Step failed: resetting search direction.
	FillingsUpdate:  mu: -0.100159536  nElectrons: 1134.000000
	SubspaceRotationAdjust: set factor to 0.171
ElecMinimize: Iter:  17  F: -7061.662995287029844  |grad|_K:  1.733e-07  alpha:  5.358e-05
	Linear fluid (dielectric constant: 64) occupying 0.821618 of unit cell:	Completed after 3 iterations at t[s]:    594.82
	Linear fluid (dielectric constant: 64) occupying 0.821617 of unit cell:	Completed after 1 iterations at t[s]:    598.31
	FillingsUpdate:  mu: -0.100132190  nElectrons: 1134.000000
	SubspaceRotationAdjust: set factor to 0.116
ElecMinimize: Iter:  18  F: -7061.662995425565896  |grad|_K:  1.332e-07  alpha:  7.623e-02  linmin:  9.907e-03  t[s]:    603.38
	Linear fluid (dielectric constant: 64) occupying 0.821618 of unit cell:	Completed after 1 iterations at t[s]:    607.69
	Linear fluid (dielectric constant: 64) occupying 0.821617 of unit cell:	Completed after 0 iterations at t[s]:    611.10
ElecMinimize: 	Step increased F by 5.515176e-08, reducing alpha to 3.996789e-03.
	Linear fluid (dielectric constant: 64) occupying 0.821617 of unit cell:	Completed after 0 iterations at t[s]:    619.13
ElecMinimize: 	Step increased F by 1.317749e-07, reducing alpha to 3.996789e-04.
	Linear fluid (dielectric constant: 64) occupying 0.821617 of unit cell:	Completed after 0 iterations at t[s]:    629.16
ElecMinimize: 	Step increased F by 1.403068e-07, reducing alpha to 3.996789e-05.
ElecMinimize: 	Step failed to reduce F after 3 attempts. Quitting step.
ElecMinimize: 	Undoing step.
	Linear fluid (dielectric constant: 64) occupying 0.821617 of unit cell:	Completed after 0 iterations at t[s]:    637.18
ElecMinimize: 	Step failed: resetting search direction.
	FillingsUpdate:  mu: -0.100140159  nElectrons: 1134.000000
	SubspaceRotationAdjust: set factor to 0.182
ElecMinimize: Iter:  19  F: -7061.662995285243596  |grad|_K:  1.008e-07  alpha:  3.997e-05
	Linear fluid (dielectric constant: 64) occupying 0.821617 of unit cell:	Completed after 0 iterations at t[s]:    646.44
ElecMinimize: 	Predicted alpha/alphaT>3.000000, increasing alphaT to 2.286757e-01.
	Linear fluid (dielectric constant: 64) occupying 0.821617 of unit cell:	Completed after 2 iterations at t[s]:    649.88
	Linear fluid (dielectric constant: 64) occupying 0.821617 of unit cell:	Completed after 0 iterations at t[s]:    653.33
	FillingsUpdate:  mu: -0.100159800  nElectrons: 1134.000000
	SubspaceRotationAdjust: set factor to 0.148
ElecMinimize: Iter:  20  F: -7061.662995475837306  |grad|_K:  1.135e-07  alpha:  9.344e-02  linmin:  1.703e-02  t[s]:    658.36
	Linear fluid (dielectric constant: 64) occupying 0.821618 of unit cell:	Completed after 0 iterations at t[s]:    662.63
	Linear fluid (dielectric constant: 64) occupying 0.821618 of unit cell:	Completed after 0 iterations at t[s]:    666.07
	FillingsUpdate:  mu: -0.100155781  nElectrons: 1134.000000
	SubspaceRotationAdjust: set factor to 0.216
ElecMinimize: Iter:  21  F: -7061.662995519147444  |grad|_K:  1.112e-07  alpha:  1.935e-01  linmin:  3.107e-04  t[s]:    671.13
	Linear fluid (dielectric constant: 64) occupying 0.821618 of unit cell:	Completed after 3 iterations at t[s]:    675.48
	Linear fluid (dielectric constant: 64) occupying 0.821618 of unit cell:	Completed after 0 iterations at t[s]:    678.92
	FillingsUpdate:  mu: -0.100145861  nElectrons: 1134.000000
	SubspaceRotationAdjust: set factor to 0.17
ElecMinimize: Iter:  22  F: -7061.662995644521288  |grad|_K:  1.691e-07  alpha:  5.695e-02  linmin:  8.985e-03  t[s]:    683.96
ElecMinimize: 	Bad step direction: g.d > 0.
ElecMinimize: 	Undoing step.
	Linear fluid (dielectric constant: 64) occupying 0.821618 of unit cell:	Completed after 0 iterations at t[s]:    688.18
ElecMinimize: 	Step failed: resetting search direction.
	FillingsUpdate:  mu: -0.100145861  nElectrons: 1134.000000
	SubspaceRotationAdjust: set factor to 0.147
ElecMinimize: Iter:  23  F: -7061.662995644490366  |grad|_K:  1.571e-07  alpha:  0.000e+00
	Linear fluid (dielectric constant: 64) occupying 0.821618 of unit cell:	Completed after 2 iterations at t[s]:    697.50
	Linear fluid (dielectric constant: 64) occupying 0.821618 of unit cell:	Completed after 0 iterations at t[s]:    700.94
ElecMinimize: 	Step increased F by 1.434510e-07, reducing alpha to 2.237650e-03.
	Linear fluid (dielectric constant: 64) occupying 0.821618 of unit cell:	Completed after 0 iterations at t[s]:    708.95
ElecMinimize: 	Step increased F by 1.609405e-07, reducing alpha to 2.237650e-04.
	Linear fluid (dielectric constant: 64) occupying 0.821618 of unit cell:	Completed after 0 iterations at t[s]:    716.99
ElecMinimize: 	Step increased F by 1.626840e-07, reducing alpha to 2.237650e-05.
ElecMinimize: 	Step failed to reduce F after 3 attempts. Quitting step.
ElecMinimize: 	Undoing step.
	Linear fluid (dielectric constant: 64) occupying 0.821618 of unit cell:	Completed after 0 iterations at t[s]:    725.04
ElecMinimize: 	Step failed along negative gradient direction.
ElecMinimize: Probably at roundoff error limit. (Stopping)
Setting wave functions to eigenvectors of Hamiltonian
IonicMinimize: 	Predicted alpha/alphaT>3.000000, increasing alphaT to 3.000000e+00.

-------- Electronic minimization -----------
	Linear fluid (dielectric constant: 64) occupying 0.821617 of unit cell:	Completed after 8 iterations at t[s]:    735.20
	FillingsUpdate:  mu: -0.100161512  nElectrons: 1134.000000
ElecMinimize: Iter:   0  F: -7061.663032454971471  |grad|_K:  5.259e-07  alpha:  1.000e+00
	Linear fluid (dielectric constant: 64) occupying 0.821617 of unit cell:	Completed after 11 iterations at t[s]:    745.49
	Linear fluid (dielectric constant: 64) occupying 0.821617 of unit cell:	Completed after 5 iterations at t[s]:    749.04
	FillingsUpdate:  mu: -0.100151857  nElectrons: 1134.000000
	SubspaceRotationAdjust: set factor to 0.128
ElecMinimize: Iter:   1  F: -7061.663049295332712  |grad|_K:  6.101e-07  alpha:  3.771e-01  linmin:  2.947e-04  t[s]:    754.13
	Linear fluid (dielectric constant: 64) occupying 0.821617 of unit cell:	Completed after 9 iterations at t[s]:    758.58
	Linear fluid (dielectric constant: 64) occupying 0.821617 of unit cell:	Completed after 3 iterations at t[s]:    762.09
	FillingsUpdate:  mu: -0.100173336  nElectrons: 1134.000000
	SubspaceRotationAdjust: set factor to 0.144
ElecMinimize: Iter:   2  F: -7061.663061495530201  |grad|_K:  2.152e-07  alpha:  2.187e-01  linmin: -3.695e-05  t[s]:    767.19
	Linear fluid (dielectric constant: 64) occupying 0.821617 of unit cell:	Completed after 3 iterations at t[s]:    771.53
	Linear fluid (dielectric constant: 64) occupying 0.821617 of unit cell:	Completed after 0 iterations at t[s]:    774.98
	FillingsUpdate:  mu: -0.100166746  nElectrons: 1134.000000
	SubspaceRotationAdjust: set factor to 0.16
ElecMinimize: Iter:   3  F: -7061.663063375994170  |grad|_K:  1.727e-07  alpha:  2.512e-01  linmin: -2.148e-03  t[s]:    780.02
	Linear fluid (dielectric constant: 64) occupying 0.821617 of unit cell:	Completed after 0 iterations at t[s]:    784.28
	Linear fluid (dielectric constant: 64) occupying 0.821617 of unit cell:	Completed after 3 iterations at t[s]:    787.76
	FillingsUpdate:  mu: -0.100155198  nElectrons: 1134.000000
	SubspaceRotationAdjust: set factor to 0.182
ElecMinimize: Iter:   4  F: -7061.663065976564212  |grad|_K:  2.098e-07  alpha:  7.048e-01  linmin:  1.867e-03  t[s]:    792.87
	Linear fluid (dielectric constant: 64) occupying 0.821617 of unit cell:	Completed after 3 iterations at t[s]:    797.25
	Linear fluid (dielectric constant: 64) occupying 0.821617 of unit cell:	Completed after 3 iterations at t[s]:    800.75
	FillingsUpdate:  mu: -0.100168345  nElectrons: 1134.000000
	SubspaceRotationAdjust: set factor to 0.203
ElecMinimize: Iter:   5  F: -7061.663066980532676  |grad|_K:  1.952e-07  alpha:  2.210e-01  linmin:  9.541e-05  t[s]:    805.84
	Linear fluid (dielectric constant: 64) occupying 0.821617 of unit cell:	Completed after 1 iterations at t[s]:    810.15
	Linear fluid (dielectric constant: 64) occupying 0.821617 of unit cell:	Completed after 1 iterations at t[s]:    813.61
	FillingsUpdate:  mu: -0.100167095  nElectrons: 1134.000000
	SubspaceRotationAdjust: set factor to 0.262
ElecMinimize: Iter:   6  F: -7061.663068716279668  |grad|_K:  1.567e-07  alpha:  3.067e-01  linmin: -3.001e-04  t[s]:    818.69
	Linear fluid (dielectric constant: 64) occupying 0.821617 of unit cell:	Completed after 2 iterations at t[s]:    823.05
	Linear fluid (dielectric constant: 64) occupying 0.821617 of unit cell:	Completed after 1 iterations at t[s]:    826.51
	FillingsUpdate:  mu: -0.100152848  nElectrons: 1134.000000
	SubspaceRotationAdjust: set factor to 0.231
ElecMinimize: Iter:   7  F: -7061.663069186770372  |grad|_K:  2.284e-07  alpha:  1.645e-01  linmin:  5.534e-04  t[s]:    831.57
	Linear fluid (dielectric constant: 64) occupying 0.821617 of unit cell:	Completed after 2 iterations at t[s]:    835.90
	Linear fluid (dielectric constant: 64) occupying 0.821617 of unit cell:	Completed after 0 iterations at t[s]:    839.32
	FillingsUpdate:  mu: -0.100160153  nElectrons: 1134.000000
	SubspaceRotationAdjust: set factor to 0.243
ElecMinimize: Iter:   8  F: -7061.663070002669883  |grad|_K:  1.764e-07  alpha:  1.196e-01  linmin:  1.724e-04  t[s]:    844.39
	Linear fluid (dielectric constant: 64) occupying 0.821617 of unit cell:	Completed after 0 iterations at t[s]:    848.69
	Linear fluid (dielectric constant: 64) occupying 0.821617 of unit cell:	Completed after 3 iterations at t[s]:    852.18
	FillingsUpdate:  mu: -0.100171892  nElectrons: 1134.000000
	SubspaceRotationAdjust: set factor to 0.22
ElecMinimize: Iter:   9  F: -7061.663070450174018  |grad|_K:  1.883e-07  alpha:  2.303e-01  linmin:  1.271e-03  t[s]:    857.24
	Linear fluid (dielectric constant: 64) occupying 0.821617 of unit cell:	Completed after 2 iterations at t[s]:    861.59
	Linear fluid (dielectric constant: 64) occupying 0.821617 of unit cell:	Completed after 0 iterations at t[s]:    864.99
	FillingsUpdate:  mu: -0.100172041  nElectrons: 1134.000000
	SubspaceRotationAdjust: set factor to 0.252
ElecMinimize: Iter:  10  F: -7061.663070915924436  |grad|_K:  1.440e-07  alpha:  9.698e-02  linmin:  8.881e-04  t[s]:    870.04
	Linear fluid (dielectric constant: 64) occupying 0.821617 of unit cell:	Completed after 0 iterations at t[s]:    874.34
	Linear fluid (dielectric constant: 64) occupying 0.821617 of unit cell:	Completed after 0 iterations at t[s]:    877.75
	FillingsUpdate:  mu: -0.100162415  nElectrons: 1134.000000
	SubspaceRotationAdjust: set factor to 0.346
ElecMinimize: Iter:  11  F: -7061.663071364807365  |grad|_K:  1.291e-07  alpha:  1.492e-01  linmin: -1.235e-03  t[s]:    882.83
	Linear fluid (dielectric constant: 64) occupying 0.821617 of unit cell:	Completed after 3 iterations at t[s]:    887.18
	Linear fluid (dielectric constant: 64) occupying 0.821617 of unit cell:	Completed after 0 iterations at t[s]:    890.63
	FillingsUpdate:  mu: -0.100148120  nElectrons: 1134.000000
	SubspaceRotationAdjust: set factor to 0.288
ElecMinimize: Iter:  12  F: -7061.663071427584327  |grad|_K:  2.437e-07  alpha:  4.794e-02  linmin:  2.361e-03  t[s]:    895.66
ElecMinimize: 	Bad step direction: g.d > 0.
ElecMinimize: 	Undoing step.
	Linear fluid (dielectric constant: 64) occupying 0.821617 of unit cell:	Completed after 0 iterations at t[s]:    899.90
ElecMinimize: 	Step failed: resetting search direction.
	FillingsUpdate:  mu: -0.100148120  nElectrons: 1134.000000
	SubspaceRotationAdjust: set factor to 0.267
ElecMinimize: Iter:  13  F: -7061.663071427613431  |grad|_K:  2.316e-07  alpha:  0.000e+00
	Linear fluid (dielectric constant: 64) occupying 0.821617 of unit cell:	Completed after 2 iterations at t[s]:    909.21
	Linear fluid (dielectric constant: 64) occupying 0.821617 of unit cell:	Completed after 0 iterations at t[s]:    912.64
ElecMinimize: 	Step increased F by 2.116394e-09, reducing alpha to 2.650238e-03.
	Linear fluid (dielectric constant: 64) occupying 0.821617 of unit cell:	Completed after 0 iterations at t[s]:    920.72
ElecMinimize: 	Step increased F by 1.476292e-07, reducing alpha to 2.650238e-04.
	Linear fluid (dielectric constant: 64) occupying 0.821617 of unit cell:	Completed after 0 iterations at t[s]:    928.83
ElecMinimize: 	Step increased F by 1.587578e-07, reducing alpha to 2.650238e-05.
ElecMinimize: 	Step failed to reduce F after 3 attempts. Quitting step.
ElecMinimize: 	Undoing step.
	Linear fluid (dielectric constant: 64) occupying 0.821617 of unit cell:	Completed after 0 iterations at t[s]:    936.84
ElecMinimize: 	Step failed along negative gradient direction.
ElecMinimize: Probably at roundoff error limit. (Stopping)
Setting wave functions to eigenvectors of Hamiltonian

-------- Electronic minimization -----------
	Linear fluid (dielectric constant: 64) occupying 0.821616 of unit cell:	Completed after 10 iterations at t[s]:    946.99
	FillingsUpdate:  mu: -0.100149534  nElectrons: 1134.000000
ElecMinimize: Iter:   0  F: -7061.663047600844948  |grad|_K:  1.009e-06  alpha:  1.000e+00
	Linear fluid (dielectric constant: 64) occupying 0.821614 of unit cell:	Completed after 17 iterations at t[s]:    957.35
	Linear fluid (dielectric constant: 64) occupying 0.821616 of unit cell:	Completed after 16 iterations at t[s]:    961.09
	FillingsUpdate:  mu: -0.100177971  nElectrons: 1134.000000
	SubspaceRotationAdjust: set factor to 0.198
ElecMinimize: Iter:   1  F: -7061.663068045968430  |grad|_K:  6.903e-07  alpha:  1.219e-01  linmin: -2.255e-04  t[s]:    968.69
	Linear fluid (dielectric constant: 64) occupying 0.821616 of unit cell:	Completed after 3 iterations at t[s]:    973.02
	Linear fluid (dielectric constant: 64) occupying 0.821615 of unit cell:	Completed after 3 iterations at t[s]:    976.53
	FillingsUpdate:  mu: -0.100187092  nElectrons: 1134.000000
	SubspaceRotationAdjust: set factor to 0.195
ElecMinimize: Iter:   2  F: -7061.663097639860098  |grad|_K:  5.060e-07  alpha:  3.653e-01  linmin: -1.445e-03  t[s]:    981.61
	Linear fluid (dielectric constant: 64) occupying 0.821615 of unit cell:	Completed after 4 iterations at t[s]:    985.95
	Linear fluid (dielectric constant: 64) occupying 0.821615 of unit cell:	Completed after 3 iterations at t[s]:    989.45
	FillingsUpdate:  mu: -0.100181388  nElectrons: 1134.000000
	SubspaceRotationAdjust: set factor to 0.187
ElecMinimize: Iter:   3  F: -7061.663105276887109  |grad|_K:  3.073e-07  alpha:  1.743e-01  linmin:  3.946e-04  t[s]:    994.57
	Linear fluid (dielectric constant: 64) occupying 0.821615 of unit cell:	Completed after 3 iterations at t[s]:    998.93
	Linear fluid (dielectric constant: 64) occupying 0.821615 of unit cell:	Completed after 0 iterations at t[s]:   1002.33
	FillingsUpdate:  mu: -0.100179635  nElectrons: 1134.000000
	SubspaceRotationAdjust: set factor to 0.206
ElecMinimize: Iter:   4  F: -7061.663110028312076  |grad|_K:  1.678e-07  alpha:  2.877e-01  linmin: -4.865e-03  t[s]:   1007.39
	Linear fluid (dielectric constant: 64) occupying 0.821615 of unit cell:	Completed after 3 iterations at t[s]:   1011.74
	Linear fluid (dielectric constant: 64) occupying 0.821615 of unit cell:	Completed after 0 iterations at t[s]:   1015.20
	FillingsUpdate:  mu: -0.100173464  nElectrons: 1134.000000
	SubspaceRotationAdjust: set factor to 0.209
ElecMinimize: Iter:   5  F: -7061.663110658941150  |grad|_K:  2.777e-07  alpha:  1.755e-01  linmin:  1.033e-06  t[s]:   1020.24
	Linear fluid (dielectric constant: 64) occupying 0.821615 of unit cell:	Completed after 3 iterations at t[s]:   1024.57
	Linear fluid (dielectric constant: 64) occupying 0.821615 of unit cell:	Completed after 0 iterations at t[s]:   1028.03
	FillingsUpdate:  mu: -0.100171900  nElectrons: 1134.000000
	SubspaceRotationAdjust: set factor to 0.24
ElecMinimize: Iter:   6  F: -7061.663112571506645  |grad|_K:  2.680e-07  alpha:  1.585e-01  linmin: -3.697e-05  t[s]:   1033.08
	Linear fluid (dielectric constant: 64) occupying 0.821615 of unit cell:	Completed after 2 iterations at t[s]:   1037.40
	Linear fluid (dielectric constant: 64) occupying 0.821615 of unit cell:	Completed after 0 iterations at t[s]:   1040.82
	FillingsUpdate:  mu: -0.100173840  nElectrons: 1134.000000
	SubspaceRotationAdjust: set factor to 0.271
ElecMinimize: Iter:   7  F: -7061.663114251947263  |grad|_K:  2.072e-07  alpha:  1.471e-01  linmin:  2.022e-05  t[s]:   1045.90
	Linear fluid (dielectric constant: 64) occupying 0.821614 of unit cell:	Completed after 2 iterations at t[s]:   1050.23
	Linear fluid (dielectric constant: 64) occupying 0.821614 of unit cell:	Completed after 0 iterations at t[s]:   1053.67
	FillingsUpdate:  mu: -0.100172894  nElectrons: 1134.000000
	SubspaceRotationAdjust: set factor to 0.322
ElecMinimize: Iter:   8  F: -7061.663115501368338  |grad|_K:  1.852e-07  alpha:  1.797e-01  linmin: -5.064e-04  t[s]:   1058.70
	Linear fluid (dielectric constant: 64) occupying 0.821614 of unit cell:	Completed after 3 iterations at t[s]:   1063.06
	Linear fluid (dielectric constant: 64) occupying 0.821614 of unit cell:	Completed after 0 iterations at t[s]:   1066.46
	FillingsUpdate:  mu: -0.100177283  nElectrons: 1134.000000
	SubspaceRotationAdjust: set factor to 0.301
ElecMinimize: Iter:   9  F: -7061.663116298896057  |grad|_K:  2.287e-07  alpha:  1.374e-01  linmin:  4.939e-05  t[s]:   1071.50
	Linear fluid (dielectric constant: 64) occupying 0.821614 of unit cell:	Completed after 3 iterations at t[s]:   1075.84
	Linear fluid (dielectric constant: 64) occupying 0.821614 of unit cell:	Completed after 0 iterations at t[s]:   1079.29
	FillingsUpdate:  mu: -0.100175815  nElectrons: 1134.000000
	SubspaceRotationAdjust: set factor to 0.284
ElecMinimize: Iter:  10  F: -7061.663117133917694  |grad|_K:  2.084e-07  alpha:  8.083e-02  linmin:  1.077e-03  t[s]:   1084.32
	Linear fluid (dielectric constant: 64) occupying 0.821614 of unit cell:	Completed after 0 iterations at t[s]:   1088.59
	Linear fluid (dielectric constant: 64) occupying 0.821614 of unit cell:	Completed after 2 iterations at t[s]:   1092.06
	FillingsUpdate:  mu: -0.100182632  nElectrons: 1134.000000
	SubspaceRotationAdjust: set factor to 0.422
ElecMinimize: Iter:  11  F: -7061.663117344624879  |grad|_K:  1.490e-07  alpha:  1.503e-01  linmin:  5.843e-04  t[s]:   1097.11
	Linear fluid (dielectric constant: 64) occupying 0.821615 of unit cell:	Completed after 0 iterations at t[s]:   1101.40
	Linear fluid (dielectric constant: 64) occupying 0.821615 of unit cell:	Completed after 2 iterations at t[s]:   1104.86
	FillingsUpdate:  mu: -0.100179538  nElectrons: 1134.000000
	SubspaceRotationAdjust: set factor to 0.406
ElecMinimize: Iter:  12  F: -7061.663117475364743  |grad|_K:  1.889e-07  alpha:  2.412e-01  linmin:  1.080e-03  t[s]:   1109.93
	Linear fluid (dielectric constant: 64) occupying 0.821615 of unit cell:	Completed after 3 iterations at t[s]:   1114.25
	Linear fluid (dielectric constant: 64) occupying 0.821615 of unit cell:	Completed after 3 iterations at t[s]:   1117.76
	FillingsUpdate:  mu: -0.100176049  nElectrons: 1134.000000
	SubspaceRotationAdjust: set factor to 0.487
ElecMinimize: Iter:  13  F: -7061.663117708569189  |grad|_K:  1.436e-07  alpha:  6.147e-02  linmin:  5.620e-04  t[s]:   1122.83
	Linear fluid (dielectric constant: 64) occupying 0.821615 of unit cell:	Completed after 0 iterations at t[s]:   1127.11
ElecMinimize: 	Predicted alpha/alphaT>3.000000, increasing alphaT to 1.843967e-01.
	Linear fluid (dielectric constant: 64) occupying 0.821615 of unit cell:	Completed after 3 iterations at t[s]:   1130.58
	Linear fluid (dielectric constant: 64) occupying 0.821615 of unit cell:	Completed after 0 iterations at t[s]:   1133.99
	FillingsUpdate:  mu: -0.100168668  nElectrons: 1134.000000
	SubspaceRotationAdjust: set factor to 0.348
ElecMinimize: Iter:  14  F: -7061.663118267359096  |grad|_K:  2.178e-07  alpha:  6.502e-02  linmin:  3.289e-03  t[s]:   1139.01
ElecMinimize: 	Bad step direction: g.d > 0.
ElecMinimize: 	Undoing step.
	Linear fluid (dielectric constant: 64) occupying 0.821615 of unit cell:	Completed after 0 iterations at t[s]:   1146.46
ElecMinimize: 	Step failed: resetting search direction.
	FillingsUpdate:  mu: -0.100168668  nElectrons: 1134.000000
	SubspaceRotationAdjust: set factor to 0.278
ElecMinimize: Iter:  15  F: -7061.663118267344544  |grad|_K:  1.948e-07  alpha:  0.000e+00
	Linear fluid (dielectric constant: 64) occupying 0.821615 of unit cell:	Completed after 3 iterations at t[s]:   1158.12
	Linear fluid (dielectric constant: 64) occupying 0.821615 of unit cell:	Completed after 0 iterations at t[s]:   1161.53
ElecMinimize: 	Step increased F by 2.635679e-07, reducing alpha to 2.057775e-03.
	Linear fluid (dielectric constant: 64) occupying 0.821615 of unit cell:	Completed after 0 iterations at t[s]:   1169.57
ElecMinimize: 	Step increased F by 1.908656e-07, reducing alpha to 2.057775e-04.
	Linear fluid (dielectric constant: 64) occupying 0.821615 of unit cell:	Completed after 0 iterations at t[s]:   1177.59
ElecMinimize: 	Step increased F by 1.837589e-07, reducing alpha to 2.057775e-05.
ElecMinimize: 	Step failed to reduce F after 3 attempts. Quitting step.
ElecMinimize: 	Undoing step.
	Linear fluid (dielectric constant: 64) occupying 0.821615 of unit cell:	Completed after 0 iterations at t[s]:   1185.64
ElecMinimize: 	Step failed along negative gradient direction.
ElecMinimize: Probably at roundoff error limit. (Stopping)
Setting wave functions to eigenvectors of Hamiltonian

# Ionic positions in cartesian coordinates:
ion Ni  32.181155145270012   0.000000000000000  10.727052344999993 0
ion Ni   5.363526172500001   0.000000000000000   5.363526172499999 0
ion Ni  32.181155145270012   5.363526172500001   5.363526172499999 0
ion Ni   5.363526172500001   5.363526172500001  10.727052344999993 0
ion Ni  32.181155145270012  10.727052345000002  10.727052344999993 0
ion Ni  32.181155145270012  21.454102800270007  10.727052344999993 0
ion Ni   5.363526172500001  21.454102800270007   5.363526172499999 0
ion Ni   5.363526172500001  10.727052345000002   5.363526172499999 0
[...]
ElecMinimize: 	Step increased F by 6.475966e-08, reducing alpha to 1.560364e-04.
ElecMinimize: 	Step failed to reduce F after 3 attempts. Quitting step.
ElecMinimize: 	Undoing step.
	Linear fluid (dielectric constant: 64) occupying 0.821600 of unit cell:	Completed after 0 iterations at t[s]:  23857.88
ElecMinimize: 	Step failed: resetting search direction.
	FillingsUpdate:  mu: -0.100292686  nElectrons: 1134.000000
	SubspaceRotationAdjust: set factor to 0.0639
ElecMinimize: Iter:  32  F: -7061.662516594204135  |grad|_K:  2.698e-08  alpha:  1.560e-04
	Linear fluid (dielectric constant: 64) occupying 0.821600 of unit cell:	Completed after 0 iterations at t[s]:  23867.38
ElecMinimize: 	Predicted alpha/alphaT>3.000000, increasing alphaT to 3.439069e-01.
	Linear fluid (dielectric constant: 64) occupying 0.821600 of unit cell:	Completed after 0 iterations at t[s]:  23870.95
	Linear fluid (dielectric constant: 64) occupying 0.821600 of unit cell:	Completed after 0 iterations at t[s]:  23874.38
ElecMinimize: 	Step increased F by 1.566150e-08, reducing alpha to 7.755099e-02.
	Linear fluid (dielectric constant: 64) occupying 0.821600 of unit cell:	Completed after 0 iterations at t[s]:  23888.98
ElecMinimize: 	Step increased F by 1.808166e-08, reducing alpha to 7.755099e-03.
	Linear fluid (dielectric constant: 64) occupying 0.821600 of unit cell:	Completed after 0 iterations at t[s]:  23897.02
ElecMinimize: 	Step increased F by 2.624438e-08, reducing alpha to 7.755099e-04.
ElecMinimize: 	Step failed to reduce F after 3 attempts. Quitting step.
ElecMinimize: 	Undoing step.
	Linear fluid (dielectric constant: 64) occupying 0.821600 of unit cell:	Completed after 0 iterations at t[s]:  23905.23
ElecMinimize: 	Step failed along negative gradient direction.
ElecMinimize: Probably at roundoff error limit. (Stopping)
Setting wave functions to eigenvectors of Hamiltonian

# Ionic positions in cartesian coordinates:
ion Ni  32.181155145270019   0.000000000000000  10.727052344999992 0
ion Ni   5.363526172500002   0.000000000000000   5.363526172499999 0
ion Ni  32.181155145270019   5.363526172500002   5.363526172499999 0
ion Ni   5.363526172500002   5.363526172500002  10.727052344999992 0
ion Ni  32.181155145270019  10.727052345000004  10.727052344999992 0
ion Ni  32.181155145270019  21.454102800270011  10.727052344999992 0
ion Ni   5.363526172500002  21.454102800270011   5.363526172499999 0
ion Ni   5.363526172500002  10.727052345000004   5.363526172499999 0
ion Ni  32.181155145270019  16.090578517500010   5.363526172499999 0
ion Ni  32.181155145270019  26.817628972770009   5.363526172499999 0
ion Ni   5.363526172500002  26.817628972770009  10.727052344999992 0
ion Ni   5.363526172500002  16.090578517500010  10.727052344999992 0
ion Ni  10.727052345000004   0.000000000000000  10.727052344999992 0
ion Ni  21.454102800270011   0.000000000000000  10.727052344999992 0
ion Ni  21.454102800270011   5.363526172500002   5.363526172499999 0
ion Ni  10.727052345000004   5.363526172500002   5.363526172499999 0
ion Ni  16.090578517500010   5.363526172500002  10.727052344999992 0
ion Ni  26.817628972770009   5.363526172500002  10.727052344999992 0
ion Ni  26.817628972770009   0.000000000000000   5.363526172499999 0
ion Ni  16.090578517500010   0.000000000000000   5.363526172499999 0
ion Ni  10.727052345000004  10.727052345000004  10.727052344999992 0
ion Ni  21.454102800270011  21.454102800270011  10.727052344999992 0
ion Ni  26.817628972770009  21.454102800270011   5.363526172499999 0
ion Ni  16.090578517500010  10.727052345000004   5.363526172499999 0
ion Ni  21.454102800270011  16.090578517500010   5.363526172499999 0
ion Ni  10.727052345000004  26.817628972770009   5.363526172499999 0
ion Ni  16.090578517500010  26.817628972770009  10.727052344999992 0
ion Ni  26.817628972770009  16.090578517500010  10.727052344999992 0
ion Ni  10.727052345000004  21.454102800270011  10.727052344999992 0
ion Ni  21.454102800270011  10.727052345000004  10.727052344999979 0
ion Ni  26.817628972770009  10.727052345000004   5.363526172499999 0
ion Ni  16.090578517500010  21.454102800270011   5.363526172499999 0
ion Ni  21.454102800270011  26.817628972770009   5.363526172499999 0
ion Ni  10.727052345000004  16.090578517500010   5.363526172499999 0
ion Ni  16.090578517500010  16.090578517500010  10.727052344999992 0
ion Ni  26.817628972770009  26.817628972770009  10.727052344999992 0
ion S   4.232241197730003   4.232241197730003   4.232250646379993 0
ion S  27.948915837270011  27.948915837270011   6.494801698619990 0
ion S   1.131284974770000  27.948915837270011   9.595776818879990 0
ion S   9.595765480500004   4.232241197730003   1.131275526120000 0
ion S  27.948915837270011   9.595765480500004   1.131275526120000 0
ion S   4.232241197730003   1.131284974770000   9.595776818879990 0
ion S   9.595765480500004   1.131284974770000   6.494801698619990 0
ion S   1.131284974770000   9.595765480500004   4.232250646379993 0
ion S   4.232241197730003  14.959291652999989   4.232250646379993 0
ion S  27.948915837270011  17.221863492269964   6.494801698619990 0
ion S   1.131284974770000  17.221863492269964   9.595776818879990 0
ion S   9.595765480500004  14.959291652999989   1.131275526120000 0
ion S  27.948915837270011  20.322817825500010   1.131275526120000 0
ion S   4.232241197730003  22.585389664770009   9.595776818879990 0
ion S   9.595765480500004  22.585389664770009   6.494801698619990 0
ion S   1.131284974770000  20.322817825500010   4.232250646379993 0
ion S  14.959291652999989   4.232250646380002   4.232241197729998 0
ion S  17.221863492269964  27.948904498890009   6.494811147269997 0
ion S  17.221863492269964   9.595776818880005   1.131284974770000 0
ion S  14.959291652999989   1.131275526120000   9.595765480499987 0
ion S  20.322817825500010   1.131275526120000   6.494811147269997 0
ion S  22.585389664770009   9.595776818880005   4.232241197729998 0
ion S  22.585389664770009  27.948904498890009   9.595765480499987 0
ion S  20.322817825500010   4.232250646380002   1.131284974770000 0
ion S   4.232241197730003  25.686343997999977   4.232250646379993 0
ion S  27.948915837270011   6.494811147270000   6.494801698619990 0
ion S   1.131284974770000   6.494811147270000   9.595776818879990 0
ion S   9.595765480500004  25.686343997999977   1.131275526120000 0
ion S  27.948915837270011  31.049870170499975   1.131275526120000 0
ion S   4.232241197730003  11.858337319770005   9.595776818879990 0
ion S   9.595765480500004  11.858337319770005   6.494801698619990 0
ion S   1.131284974770000  31.049870170499975   4.232250646379993 0
ion S  25.686343997999977   4.232250646380002   4.232241197729998 0
ion S   6.494811147270000  27.948904498890009   6.494811147269997 0
ion S   6.494811147270000   9.595776818880005   1.131284974770000 0
ion S  25.686343997999977   1.131275526120000   9.595765480499987 0
ion S  31.049870170499975   1.131275526120000   6.494811147269997 0
ion S  11.858337319770005   9.595776818880005   4.232241197729998 0
ion S  11.858337319770005  27.948904498890009   9.595765480499987 0
ion S  31.049870170499975   4.232250646380002   1.131284974770000 0
ion S  14.959291652999989  14.959291652999989   4.232250646379993 0
ion S  17.221863492269964  17.221863492269964   6.494801698619990 0
ion S  22.585389664770009  17.221863492269964   9.595776818879990 0
ion S  20.322817825500010  14.959291652999989   1.131275526120000 0
ion S  17.221863492269964  20.322817825500010   1.131275526120000 0
ion S  14.959291652999989  22.585389664770009   9.595776818879990 0
ion S  20.322817825500010  22.585389664770009   6.494801698619990 0
ion S  22.585389664770009  20.322817825500010   4.232250646379993 0
ion S  14.959291652999989  25.686343997999977   4.232250646379993 0
ion S  17.221863492269964   6.494811147270000   6.494801698619990 0
ion S  22.585389664770009   6.494811147270000   9.595776818879990 0
ion S  20.322817825500010  25.686343997999977   1.131275526120000 0
ion S  17.221863492269964  31.049870170499975   1.131275526120000 0
ion S  14.959291652999989  11.858337319770005   9.595776818879990 0
ion S  20.322817825500010  11.858337319770005   6.494801698619990 0
ion S  22.585389664770009  31.049870170499975   4.232250646379993 0
ion S  25.686343997999977  14.959291652999989   4.232250646379993 0
ion S   6.494811147270000  17.221863492269964   6.494801698619990 0
ion S  11.858337319770005  17.221863492269964   9.595776818879990 0
ion S  31.049870170499975  14.959291652999989   1.131275526120000 0
ion S   6.494811147270000  20.322817825500010   1.131275526120000 0
ion S  25.686343997999977  22.585389664770009   9.595776818879990 0
ion S  31.049870170499975  22.585389664770009   6.494801698619990 0
ion S  11.858337319770005  20.322817825500010   4.232250646379993 0
ion S  25.686343997999977  25.686343997999977   4.232250646379993 0
ion S   6.494811147270000   6.494811147270000   6.494801698619990 0
ion S  11.858337319770005   6.494811147270000   9.595776818879990 0
ion S  31.049870170499975  25.686343997999977   1.131275526120000 0
ion S   6.494811147270000  31.049870170499975   1.131275526120000 0
ion S  25.686343997999977  11.858337319770005   9.595776818879990 0
ion S  31.049870170499975  11.858337319770005   6.494801698619990 0
ion S  11.858337319770005  31.049870170499975   4.232250646379993 0
ion S  14.801919131235271  14.801473467155699  14.562119095760075 1
ion S  11.505070198415190  12.756696544936883  14.328863551938150 1
ion S   6.667879180854540   9.373152373675037  11.850143575432897 1
ion S  17.531504676390842  20.274569615574556  11.827736617516525 1
ion S   6.682904128994283  20.059939905359254  11.820667968133410 1
ion S   9.387749465856144  25.641652114946318  11.879347285958470 1
ion Na  12.888259988975822   8.601497763394660  20.599124365919085 1
ion Na  10.054533874958498  19.062235224096113  18.478741407212045 1

# Forces in Cartesian coordinates:
force Ni   0.022368731226647  -0.008478684794834  -0.032718320217046 0
force Ni  -0.002251523516316   0.000415859636714  -0.007526814063393 0
force Ni   0.002537899737517  -0.000154429966253  -0.006893661076026 0
force Ni  -0.015593631265284   0.003601163883955  -0.031466792457951 0
force Ni   0.017038718574257  -0.011193494381157  -0.031801270278837 0
force Ni   0.018558590689825  -0.011216982056424  -0.031920968007150 0
force Ni  -0.000869236590915  -0.001467456049566  -0.010533242381013 0
force Ni  -0.000455618137309  -0.001016544300019  -0.010843309046817 0
force Ni   0.002040601100541   0.000245525315464  -0.007029020304389 0
force Ni   0.003029697800998   0.000433855588790  -0.007901779038210 0
force Ni  -0.004105034507069  -0.013085866523484  -0.029377781374789 0
force Ni  -0.011555882662135   0.008043112828401  -0.027878800277342 0
force Ni   0.019514880446922  -0.002646249878707  -0.031810328389492 0
force Ni   0.022718087439062  -0.009763462413145  -0.033617796519668 0
force Ni   0.002810852775233   0.000025272681411  -0.007022982616832 0
force Ni   0.002532496391401   0.000663142830863  -0.006088560502672 0
force Ni  -0.023465454400990  -0.009547642804675  -0.033968628083212 0
force Ni  -0.022711179481930  -0.009761623945801  -0.033633352335444 0
force Ni  -0.002868902888633   0.000129360159206  -0.006982519047914 0
force Ni  -0.002719686388521   0.000829398296439  -0.006906714902130 0
force Ni   0.014701621105134  -0.004657567145629  -0.010790464014838 0
force Ni   0.008877331561417  -0.014468450646389  -0.032666467566549 0
force Ni  -0.003939120844215  -0.000142581138190  -0.007410393847731 0
force Ni  -0.004240648869536   0.001576760111395  -0.005772648853297 0
force Ni   0.002505627071110   0.000333929276419  -0.006161428451082 0
force Ni   0.000335860172487  -0.002491997516349  -0.010836780718056 0
force Ni  -0.015195115793358  -0.005527124585890  -0.030925115331605 0
force Ni  -0.023635937051807  -0.009736994569294  -0.034051530096732 0
force Ni  -0.005354182824866  -0.004933224870512  -0.021306457275656 0
force Ni   0.023370472377304  -0.009981826390260  -0.033189924312011 0
force Ni  -0.003212946340328  -0.000076347486606  -0.006701873653988 0
force Ni  -0.001933342932017  -0.001929082661101  -0.009382566851989 0
force Ni   0.003061267195063  -0.000831231274047  -0.007002839869685 0
force Ni   0.002234572566020   0.002582946749696  -0.005373149574110 0
force Ni  -0.020531709764392  -0.000912781715244  -0.014519765520100 0
force Ni  -0.023403377278594  -0.009260099032860  -0.032669394409124 0
force S  -0.004524238471029  -0.004089786872522  -0.004097671145305 0
force S   0.000555843279840  -0.001965272151791   0.013442963525605 0
force S   0.001390131438773   0.005635726927014   0.015028670007758 0
force S  -0.002046344104633   0.008395808899901   0.018149096847656 0
force S   0.001958720547101   0.008085778658746   0.018573713242634 0
force S   0.001701901926222   0.009176063957627   0.015291438468002 0
force S  -0.000898879469062  -0.001537182681837   0.014550348361762 0
force S   0.005722702427375  -0.004588178061403  -0.002984157174863 0
force S  -0.004818897299825  -0.004576484166953  -0.002341541925838 0
force S   0.001156063402568  -0.002135818181543   0.014082697463550 0
force S  -0.005507845899659   0.006122964265141   0.010951062324034 0
force S  -0.002094801368283   0.008048149400032   0.018082273553765 0
force S   0.002039366544635   0.008096029818204   0.018621722616705 0
force S  -0.000390207429840  -0.005619864181944   0.016914325206103 0
force S   0.001544000899446   0.000556285091269  -0.001204383297488 0
force S   0.005361468553524  -0.004065045348725  -0.002661804249066 0
force S  -0.005097856328725  -0.004068238310448  -0.003237416766792 0
force S   0.001070993634298  -0.001415910872751   0.015187077709687 0
force S   0.002281624179083   0.007826685562920   0.017869183761624 0
force S   0.000444292744872   0.007145722206763   0.011658790942827 0
force S  -0.000872650740416  -0.001917998489318   0.014153758549842 0
force S   0.004881421814253  -0.004296521735439  -0.003118097223691 0
force S   0.000036480931866   0.006653737409014   0.011836218146430 0
force S  -0.001977716142993   0.008312374985083   0.018723936343220 0
force S  -0.004884340624627  -0.004411798049915  -0.000932214688529 0
force S   0.001239095737742  -0.001859702356423   0.014155145871142 0
force S  -0.004595276388371   0.006732187936974   0.011313029979063 0
force S  -0.002375608126552   0.007565196591824   0.017858619161121 0
force S   0.001829266381823   0.008119678900160   0.018651808477253 0
force S   0.006094888814064   0.001097411861266   0.017498722899556 0
force S  -0.000353959803875  -0.000590788218675   0.006369897348088 0
force S   0.004757455810900  -0.003963537600636  -0.002685638583618 0
force S  -0.005249883283138  -0.004290056246171  -0.003248492460996 0
force S  -0.000275550225465   0.002697578262768   0.005969041226805 0
force S   0.002588720220599   0.007357903968518   0.018174275848482 0
force S  -0.000015112402487   0.007588492414477   0.011746506186272 0
force S  -0.000680245105177  -0.001912194964169   0.013659468529086 0
force S   0.005387040380230  -0.004227098011213  -0.003186442643743 0
force S  -0.005177768060318   0.003953537312751   0.014572736087842 0
force S  -0.001780418632531   0.008303347094858   0.018612097090068 0
force S  -0.004714686387750  -0.004796138736108  -0.002826877010057 0
force S   0.000339286381410  -0.003916244057816   0.008260871681595 0
force S   0.008433198973872  -0.000039299761319   0.013090207843268 0
force S  -0.001950496661361   0.008110693557475   0.018354035597502 0
force S   0.002244333200582   0.007962841080173   0.017264377174214 0
force S   0.006877004210553   0.000812828790805   0.015887199195527 0
force S   0.001061866346191   0.003361463453887   0.004734683737888 0
force S   0.004622474448760  -0.003314403926839  -0.002479587337762 0
force S  -0.006068075345488  -0.004552747483853  -0.002074292089683 0
force S   0.001092448656646  -0.001506214651934   0.013948684301820 0
force S  -0.000136824439086   0.007780438628279   0.011792757292190 0
force S  -0.002079133939699   0.008129125442496   0.018722284487336 0
force S   0.001984308115225   0.008297232126139   0.018330577291032 0
force S   0.002264730991093   0.000624668288479  -0.004771610714065 0
force S  -0.001108071786161  -0.001763319947994   0.014028912131036 0
force S   0.005139357242742  -0.004140419219683  -0.003135429817195 0
force S  -0.005300323583032  -0.003894975439461  -0.003329291992473 0
force S   0.000563037901972  -0.003602759768812   0.003733946100945 0
force S  -0.002653374462495   0.008286004020237   0.003159634337134 0
force S  -0.001793951694337   0.008256173263432   0.018553085940035 0
force S   0.002715104669833   0.007622046610463   0.017754998115802 0
force S  -0.002181566834065   0.006788513322347   0.015264898638577 0
force S  -0.000567238183135  -0.001750377502723   0.013903944188721 0
force S   0.004671459847112  -0.004148949415115  -0.003818598456545 0
force S  -0.004752149490016  -0.003891395262328  -0.002859715538840 0
force S   0.000430682470825  -0.003848962817187   0.004472216129005 0
force S   0.005844571400438  -0.001284902028190   0.008589999294034 0
force S  -0.001902871961627   0.008127807816536   0.018641830675534 0
force S   0.002147914764646   0.008194794281266   0.018542449823728 0
force S  -0.000082230549440   0.008083779565816   0.011482717950679 0
force S  -0.000968329931592  -0.001678327728356   0.014603421184274 0
force S   0.005337149786483  -0.004915518919609  -0.001679973025269 0
force S   0.003109686267415   0.001987516635349   0.000408793371339 1
force S  -0.002543348414978  -0.002460918561936  -0.000097895947718 1
force S  -0.000252403151895   0.000556980092077  -0.000650681085430 1
force S   0.000162287607298  -0.000214921578729   0.000353339733410 1
force S   0.000004158335221  -0.000225689087436   0.000339566272257 1
force S   0.001130693436928   0.000766282030489  -0.001451294967339 1
force Na  -0.000116914655290  -0.000064370977148   0.000498470904262 1
force Na   0.000052317039748   0.000281744158980   0.000601343563667 1

# Energy components:
   A_diel =       -1.6169669933494573
   Eewald =    40276.2199199340029736
       EH =    46513.4436704824765911
     Eloc =   -95082.1116042718349490
      Enl =      916.1738211750218852
      Exc =     -979.0020969970728402
 Exc_core =      152.3221723705019599
       KE =     1143.9035572176323967
-------------------------------------
     Etot =    -7060.6675270826235646
       TS =        0.9949894852802058
-------------------------------------
        F =    -7061.6625165679033671

IonicMinimize: Iter:  16  F: -7061.662516567903367  |grad|_K:  1.158e-03  alpha:  4.552e-03  linmin: -6.714e-03  t[s]:  23914.42
IonicMinimize: Converged (|Delta F|<1.000000e-06 for 2 iters).

#--- Lowdin population analysis ---
# oxidation-state Ni +0.260 -0.445 -0.446 -0.214 +0.247 +0.251 -0.461 -0.461 -0.451 -0.449 -0.210 -0.201 +0.254 +0.251 -0.446 -0.448 +0.258 +0.252 -0.445 -0.450 -0.446 -0.224 -0.443 -0.457 -0.446 -0.468 +0.238 +0.265 -0.369 +0.261 -0.445 -0.460 -0.445 -0.450 -0.390 +0.265
# oxidation-state S +0.298 +0.444 +0.025 -0.190 -0.190 +0.052 +0.442 +0.293 +0.285 +0.446 +0.028 -0.190 -0.190 +0.370 +0.434 +0.295 +0.297 +0.426 -0.191 +0.032 +0.445 +0.296 +0.055 -0.188 +0.288 +0.445 +0.046 -0.189 -0.188 +0.356 +0.445 +0.295 +0.295 +0.442 -0.188 +0.048 +0.444 +0.299 +0.353 -0.188 +0.297 +0.448 +0.077 -0.189 -0.192 +0.363 +0.447 +0.300 +0.280 +0.445 +0.048 -0.189 -0.190 +0.132 +0.444 +0.295 +0.295 +0.451 +0.129 -0.189 -0.193 +0.046 +0.430 +0.301 +0.296 +0.455 +0.077 -0.188 -0.189 +0.051 +0.431 +0.283 -0.046 -0.021 +0.124 +0.128 +0.141 +0.102
# oxidation-state Na +0.983 +0.958


Dumping 'Na2S6@NiS2-PC.fillings' ... done
Dumping 'Na2S6@NiS2-PC.wfns' ... done
Dumping 'Na2S6@NiS2-PC.fluidState' ... done
Dumping 'Na2S6@NiS2-PC.ionpos' ... done
Dumping 'Na2S6@NiS2-PC.eigenvals' ... done
End date and time: Sun Oct  6 14:13:02 2024  (Duration: 0-6:38:42.38)
Done!
