
*************** JDFTx 1.7.0  ***************

Start date and time: Tue Oct 15 05:34:56 2024
Executable jdftx_gpu with command-line: -i /home/akim2/JDFTx/Na2S4@NiS2-PC/Na2S4@NiS2-PC.in -o /home/akim2/JDFTx/Na2S4@NiS2-PC/Na2S4@NiS2-PC.out
Running on hosts (process indices):  exp-4-57 (0)
Divided in process groups (process indices):  0 (0)
gpuInit: Found compatible cuda device 0 'Tesla V100-SXM2-32GB'
gpuInit: Selected device 0
Resource initialization completed at t[s]:      0.39
Run totals: 1 processes, 1 threads, 1 GPUs


Input parsed successfully to the following command list (including defaults):

basis kpoint-dependent
coords-type Cartesian
core-overlap-check vector
coulomb-interaction Slab 001
coulomb-truncation-embed 0 0 10
davidson-band-ratio 1.1
dump End State
dump Ionic State
dump-interval Ionic 5
dump-name Na2S4@NiS2-PC.$VAR
elec-cutoff 20 100
elec-eigen-algo Davidson
elec-ex-corr gga-PBE
elec-smearing Fermi 0.01
electronic-minimize  \
	dirUpdateScheme      FletcherReeves \
	linminMethod         DirUpdateRecommended \
	nIterations          100 \
	history              15 \
	knormThreshold       0 \
	energyDiffThreshold  1e-08 \
	nEnergyDiff          2 \
	alphaTstart          1 \
	alphaTmin            1e-10 \
	updateTestStepSize   yes \
	alphaTreduceFactor   0.1 \
	alphaTincreaseFactor 3 \
	nAlphaAdjustMax      3 \
	wolfeEnergy          0.0001 \
	wolfeGradient        0.9 \
	fdTest               no
exchange-regularization WignerSeitzTruncated
fluid LinearPCM 298.000000 1.013250
fluid-ex-corr lda-TF lda-PZ
fluid-gummel-loop 10 1.000000e-05
fluid-minimize  \
	dirUpdateScheme      PolakRibiere \
	linminMethod         DirUpdateRecommended \
	nIterations          400 \
	history              15 \
	knormThreshold       1e-11 \
	energyDiffThreshold  0 \
	nEnergyDiff          2 \
	alphaTstart          1 \
	alphaTmin            1e-10 \
	updateTestStepSize   yes \
	alphaTreduceFactor   0.1 \
	alphaTincreaseFactor 3 \
	nAlphaAdjustMax      6 \
	wolfeEnergy          0.0001 \
	wolfeGradient        0.9 \
	fdTest               no
fluid-solvent PC 11.6429 ScalarEOS \
	epsBulk 64 \
	pMol 2.95 \
	epsInf 2.02 \
	Pvap 1.53277e-13 \
	sigmaBulk 2.88e-05 \
	Rvdw 0 \
	Res 0 \
	tauNuc 343133
forces-output-coords Positions
ion Ni  32.181155145269997   0.000000000000000  10.727052344999993 0
ion Ni   5.363526172499999   0.000000000000000   5.363526172499998 0
ion Ni  32.181155145269997   5.363526172499999   5.363526172499998 0
ion Ni   5.363526172499999   5.363526172499999  10.727052344999993 0
ion Ni  32.181155145269997  10.727052344999999  10.727052344999993 0
ion Ni  32.181155145269997  21.454102800270000  10.727052344999993 0
ion Ni   5.363526172499999  21.454102800270000   5.363526172499998 0
ion Ni   5.363526172499999  10.727052344999999   5.363526172499998 0
ion Ni  32.181155145269997  16.090578517499999   5.363526172499998 0
ion Ni  32.181155145269997  26.817628972769999   5.363526172499998 0
ion Ni   5.363526172499999  26.817628972769999  10.727052344999993 0
ion Ni   5.363526172499999  16.090578517499999  10.727052344999993 0
ion Ni  10.727052344999999   0.000000000000000  10.727052344999993 0
ion Ni  21.454102800270000   0.000000000000000  10.727052344999993 0
ion Ni  21.454102800270000   5.363526172499999   5.363526172499998 0
ion Ni  10.727052344999999   5.363526172499999   5.363526172499998 0
ion Ni  16.090578517499999   5.363526172499999  10.727052344999993 0
ion Ni  26.817628972769999   5.363526172499999  10.727052344999993 0
ion Ni  26.817628972769999   0.000000000000000   5.363526172499998 0
ion Ni  16.090578517499999   0.000000000000000   5.363526172499998 0
ion Ni  10.727052344999999  10.727052344999999  10.727052344999993 0
ion Ni  21.454102800270000  21.454102800270000  10.727052344999993 0
ion Ni  26.817628972769999  21.454102800270000   5.363526172499998 0
ion Ni  16.090578517499999  10.727052344999999   5.363526172499998 0
ion Ni  21.454102800270000  16.090578517499999   5.363526172499998 0
ion Ni  10.727052344999999  26.817628972769999   5.363526172499998 0
ion Ni  16.090578517499999  26.817628972769999  10.727052344999993 0
ion Ni  26.817628972769999  16.090578517499999  10.727052344999993 0
ion Ni  10.727052344999999  21.454102800270000  10.727052344999993 0
ion Ni  21.454102800270000  10.727052344999999  10.727052344999981 0
ion Ni  26.817628972769999  10.727052344999999   5.363526172499998 0
ion Ni  16.090578517499999  21.454102800270000   5.363526172499998 0
ion Ni  21.454102800270000  26.817628972769999   5.363526172499998 0
ion Ni  10.727052344999999  16.090578517499999   5.363526172499998 0
ion Ni  16.090578517499999  16.090578517499999  10.727052344999993 0
ion Ni  26.817628972769999  26.817628972769999  10.727052344999993 0
ion S   4.232241197730000   4.232241197730000   4.232250646379994 0
ion S  27.948915837270000  27.948915837270000   6.494801698619989 0
ion S   1.131284974770000  27.948915837270000   9.595776818879989 0
ion S   9.595765480499999   4.232241197730000   1.131275526120000 0
ion S  27.948915837270000   9.595765480499999   1.131275526120000 0
ion S   4.232241197730000   1.131284974770000   9.595776818879989 0
ion S   9.595765480499999   1.131284974770000   6.494801698619989 0
ion S   1.131284974770000   9.595765480499999   4.232250646379994 0
ion S   4.232241197730000  14.959291652999985   4.232250646379994 0
ion S  27.948915837270000  17.221863492269968   6.494801698619989 0
ion S   1.131284974770000  17.221863492269968   9.595776818879989 0
ion S   9.595765480499999  14.959291652999985   1.131275526120000 0
ion S  27.948915837270000  20.322817825500000   1.131275526120000 0
ion S   4.232241197730000  22.585389664769998   9.595776818879989 0
ion S   9.595765480499999  22.585389664769998   6.494801698619989 0
ion S   1.131284974770000  20.322817825500000   4.232250646379994 0
ion S  14.959291652999985   4.232250646380000   4.232241197729998 0
ion S  17.221863492269968  27.948904498889998   6.494811147269995 0
ion S  17.221863492269968   9.595776818879999   1.131284974770000 0
ion S  14.959291652999985   1.131275526120000   9.595765480499988 0
ion S  20.322817825500000   1.131275526120000   6.494811147269995 0
ion S  22.585389664769998   9.595776818879999   4.232241197729998 0
ion S  22.585389664769998  27.948904498889998   9.595765480499988 0
ion S  20.322817825500000   4.232250646380000   1.131284974770000 0
ion S   4.232241197730000  25.686343997999970   4.232250646379994 0
ion S  27.948915837270000   6.494811147269997   6.494801698619989 0
ion S   1.131284974770000   6.494811147269997   9.595776818879989 0
ion S   9.595765480499999  25.686343997999970   1.131275526120000 0
ion S  27.948915837270000  31.049870170499968   1.131275526120000 0
ion S   4.232241197730000  11.858337319769999   9.595776818879989 0
ion S   9.595765480499999  11.858337319769999   6.494801698619989 0
ion S   1.131284974770000  31.049870170499968   4.232250646379994 0
ion S  25.686343997999970   4.232250646380000   4.232241197729998 0
ion S   6.494811147269997  27.948904498889998   6.494811147269995 0
ion S   6.494811147269997   9.595776818879999   1.131284974770000 0
ion S  25.686343997999970   1.131275526120000   9.595765480499988 0
ion S  31.049870170499968   1.131275526120000   6.494811147269995 0
ion S  11.858337319769999   9.595776818879999   4.232241197729998 0
ion S  11.858337319769999  27.948904498889998   9.595765480499988 0
ion S  31.049870170499968   4.232250646380000   1.131284974770000 0
ion S  14.959291652999985  14.959291652999985   4.232250646379994 0
ion S  17.221863492269968  17.221863492269968   6.494801698619989 0
ion S  22.585389664769998  17.221863492269968   9.595776818879989 0
ion S  20.322817825500000  14.959291652999985   1.131275526120000 0
ion S  17.221863492269968  20.322817825500000   1.131275526120000 0
ion S  14.959291652999985  22.585389664769998   9.595776818879989 0
ion S  20.322817825500000  22.585389664769998   6.494801698619989 0
ion S  22.585389664769998  20.322817825500000   4.232250646379994 0
ion S  14.959291652999985  25.686343997999970   4.232250646379994 0
ion S  17.221863492269968   6.494811147269997   6.494801698619989 0
ion S  22.585389664769998   6.494811147269997   9.595776818879989 0
ion S  20.322817825500000  25.686343997999970   1.131275526120000 0
ion S  17.221863492269968  31.049870170499968   1.131275526120000 0
ion S  14.959291652999985  11.858337319769999   9.595776818879989 0
ion S  20.322817825500000  11.858337319769999   6.494801698619989 0
ion S  22.585389664769998  31.049870170499968   4.232250646379994 0
ion S  25.686343997999970  14.959291652999985   4.232250646379994 0
ion S   6.494811147269997  17.221863492269968   6.494801698619989 0
ion S  11.858337319769999  17.221863492269968   9.595776818879989 0
ion S  31.049870170499968  14.959291652999985   1.131275526120000 0
ion S   6.494811147269997  20.322817825500000   1.131275526120000 0
ion S  25.686343997999970  22.585389664769998   9.595776818879989 0
ion S  31.049870170499968  22.585389664769998   6.494801698619989 0
ion S  11.858337319769999  20.322817825500000   4.232250646379994 0
ion S  25.686343997999970  25.686343997999970   4.232250646379994 0
ion S   6.494811147269997   6.494811147269997   6.494801698619989 0
ion S  11.858337319769999   6.494811147269997   9.595776818879989 0
ion S  31.049870170499968  25.686343997999970   1.131275526120000 0
ion S   6.494811147269997  31.049870170499968   1.131275526120000 0
ion S  25.686343997999970  11.858337319769999   9.595776818879989 0
ion S  31.049870170499968  11.858337319769999   6.494801698619989 0
ion S  11.858337319769999  31.049870170499968   4.232250646379994 0
ion S  17.414526106665161  20.278369012245427  11.856209344887931 1
ion S  20.127944712134934  14.684125088206889  11.838386311396794 1
ion S   9.415040330627054  14.929099561239379  11.857365983070018 1
ion S   6.697107750716488   9.327014510488064  11.840830904212861 1
ion Na  15.878687558276299  11.155190862387633  22.025362139825141 1
ion Na   9.665778615937493  19.700263514476180  23.758801813054625 1
ion-species GBRV/$ID_pbe.uspp
ion-width Ecut
ionic-minimize  \
	dirUpdateScheme      FletcherReeves \
	linminMethod         DirUpdateRecommended \
	nIterations          200 \
	history              15 \
	knormThreshold       0.0001 \
	energyDiffThreshold  1e-06 \
	nEnergyDiff          2 \
	alphaTstart          1 \
	alphaTmin            1e-10 \
	updateTestStepSize   yes \
	alphaTreduceFactor   0.1 \
	alphaTincreaseFactor 3 \
	nAlphaAdjustMax      3 \
	wolfeEnergy          0.0001 \
	wolfeGradient        0.9 \
	fdTest               no
kpoint   0.000000000000   0.000000000000   0.000000000000  1.00000000000000
kpoint-folding 1 1 1 
latt-move-scale 1 1 1
latt-scale 1 1 1 
lattice Triclinic 32.1811 32.1811 50 90 90 90
lattice-minimize  \
	dirUpdateScheme      L-BFGS \
	linminMethod         DirUpdateRecommended \
	nIterations          0 \
	history              15 \
	knormThreshold       0 \
	energyDiffThreshold  1e-06 \
	nEnergyDiff          2 \
	alphaTstart          1 \
	alphaTmin            1e-10 \
	updateTestStepSize   yes \
	alphaTreduceFactor   0.1 \
	alphaTincreaseFactor 3 \
	nAlphaAdjustMax      3 \
	wolfeEnergy          0.0001 \
	wolfeGradient        0.9 \
	fdTest               no
lcao-params -1 1e-06 0.01
pcm-variant GLSSA13
spintype no-spin
subspace-rotation-factor 1 yes
symmetries automatic
symmetry-threshold 0.0001



---------- Setting up symmetries ----------

Found 16 point-group symmetries of the bravais lattice
Found 1 space-group symmetries with basis
Applied RMS atom displacement 0 bohrs to make symmetries exact.

---------- Initializing the Grid ----------
R = 
[      32.1811            0            0  ]
[            0      32.1811            0  ]
[            0            0           50  ]
unit cell volume = 51781.1
G =
[   0.195245          0          0  ]
[          0   0.195245          0  ]
[          0          0   0.125664  ]
Minimum fftbox size, Smin = [  148  148  228  ]
Chosen fftbox size, S = [  150  150  240  ]

---------- Initializing tighter grid for wavefunction operations ----------
R = 
[      32.1811            0            0  ]
[            0      32.1811            0  ]
[            0            0           50  ]
unit cell volume = 51781.1
G =
[   0.195245          0          0  ]
[          0   0.195245          0  ]
[          0          0   0.125664  ]
Minimum fftbox size, Smin = [  132  132  204  ]
Chosen fftbox size, S = [  140  140  210  ]

---------- Exchange Correlation functional ----------
Initalized PBE GGA exchange.
Initalized PBE GGA correlation.

---------- Setting up pseudopotentials ----------
Width of ionic core gaussian charges (only for fluid interactions / plotting) set to 0.397384

Reading pseudopotential file '/home/akim2/jdftx_install/build/pseudopotentials/GBRV/ni_pbe.uspp':
  Title: Ni.  Created by USPP 7.3.6 on 1-4-15
  Reference state energy: -170.398381.  18 valence electrons in orbitals:
    |300>  occupation: 2  eigenvalue: -4.804705
    |310>  occupation: 6  eigenvalue: -3.347751
    |320>  occupation: 8  eigenvalue: -1.042415
    |400>  occupation: 0  eigenvalue: -0.795539
    |410>  occupation: 0  eigenvalue: -0.551375
  lMax: 2  lLocal: 3  QijEcut: 6.5
  6 projectors sampled on a log grid with 611 points:
    l: 0  eig: -4.804708  rCut: 1.44
    l: 0  eig: -0.795541  rCut: 1.44
    l: 1  eig: -3.347753  rCut: 1.55
    l: 1  eig: 0.500000  rCut: 1.55
    l: 2  eig: -1.042418  rCut: 1.5
    l: 2  eig: -0.450000  rCut: 1.5
  Partial core density with radius 0.65
  Transforming core density to a uniform radial grid of dG=0.02 with 1286 points.
  Transforming local potential to a uniform radial grid of dG=0.02 with 1286 points.
  Transforming nonlocal projectors to a uniform radial grid of dG=0.02 with 432 points.
  Transforming density augmentations to a uniform radial grid of dG=0.02 with 1286 points.
  Transforming atomic orbitals to a uniform radial grid of dG=0.02 with 432 points.
  Core radius for overlap checks: 1.55 bohrs.

Reading pseudopotential file '/home/akim2/jdftx_install/build/pseudopotentials/GBRV/s_pbe.uspp':
  Title: S.  Created by USPP 7.3.6 on 1-4-15
  Reference state energy: -11.898476.  6 valence electrons in orbitals:
    |300>  occupation: 2  eigenvalue: -0.634167
    |310>  occupation: 4  eigenvalue: -0.257568
  lMax: 2  lLocal: 3  QijEcut: 6
  6 projectors sampled on a log grid with 635 points:
    l: 0  eig: -0.634161  rCut: 1.5
    l: 0  eig: 1.500000  rCut: 1.5
    l: 1  eig: -0.257567  rCut: 1.5
    l: 1  eig: 1.500000  rCut: 1.5
    l: 2  eig: -1.000000  rCut: 1.5
    l: 2  eig: 1.500000  rCut: 1.5
  Partial core density with radius 1.15
  Transforming core density to a uniform radial grid of dG=0.02 with 1286 points.
  Transforming local potential to a uniform radial grid of dG=0.02 with 1286 points.
  Transforming nonlocal projectors to a uniform radial grid of dG=0.02 with 432 points.
  Transforming density augmentations to a uniform radial grid of dG=0.02 with 1286 points.
  Transforming atomic orbitals to a uniform radial grid of dG=0.02 with 432 points.
  Core radius for overlap checks: 1.50 bohrs.

Reading pseudopotential file '/home/akim2/jdftx_install/build/pseudopotentials/GBRV/na_pbe.uspp':
  Title: Na.  Created by USPP 7.3.6 on 23-9-15
  Reference state energy: -47.625620.  9 valence electrons in orbitals:
    |200>  occupation: 2  eigenvalue: -2.085638
    |210>  occupation: 6  eigenvalue: -1.053708
    |300>  occupation: 1  eigenvalue: -0.100838
  lMax: 2  lLocal: 0  QijEcut: 6
  5 projectors sampled on a log grid with 657 points:
    l: 0  eig: -2.085640  rCut: 1.37
    l: 0  eig: -0.100839  rCut: 1.37
    l: 1  eig: -1.053708  rCut: 1.47
    l: 1  eig: 0.500000  rCut: 1.47
    l: 2  eig: 0.750000  rCut: 2
  Transforming local potential to a uniform radial grid of dG=0.02 with 1286 points.
  Transforming nonlocal projectors to a uniform radial grid of dG=0.02 with 432 points.
  Transforming density augmentations to a uniform radial grid of dG=0.02 with 1286 points.
  Transforming atomic orbitals to a uniform radial grid of dG=0.02 with 432 points.
  Core radius for overlap checks: 2.00 bohrs.

Initialized 3 species with 114 total atoms.

Folded 1 k-points by 1x1x1 to 1 k-points.

---------- Setting up k-points, bands, fillings ----------
No reducable k-points. 
Computing the number of bands and number of electrons
Calculating initial fillings.
nElectrons: 1122.000000   nBands: 782   nStates: 1

----- Setting up reduced wavefunction bases (one per k-point) -----
average nbasis = 221253.000 , ideal nbasis = 221212.906

---------- Setting up coulomb interaction ----------
Fluid mode embedding: using embedded box, but periodic Coulomb kernel.
(Fluid response is responsible for (approximate) separation between periodic images.)
Setting up double-sized grid for truncated Coulomb potentials:
R = 
[      32.1811            0            0  ]
[            0      32.1811            0  ]
[            0            0          100  ]
unit cell volume = 103562
G =
[   0.195245          0          0  ]
[          0   0.195245          0  ]
[          0          0  0.0628319  ]
Chosen fftbox size, S = [  150  150  480  ]
Integer grid location selected as the embedding center:
   Grid: [  0  0  48  ]
   Lattice: [  0  0  0.2  ]
   Cartesian: [  0  0  10  ]
Constructing Wigner-Seitz cell: 6 faces (6 quadrilaterals, 0 hexagons)
Range-separation parameter for embedded mesh potentials due to point charges: 0.584339 bohrs.

---------- Setting up ewald sum ----------
Optimum gaussian width for ewald sums = 8.507979 bohr.
Real space sum over 405 unit cells with max indices [  4  4  2  ]
Reciprocal space sum over 8775 terms with max indices [  7  7  19  ]

---------- Allocating electronic variables ----------
Initializing wave functions:  linear combination of atomic orbitals
Ni pseudo-atom occupations:   s ( 2 0 )  p ( 6 0 )  d ( 10 )
S pseudo-atom occupations:   s ( 2 )  p ( 4 )
Na pseudo-atom occupations:   s ( 2 1 )  p ( 6 )
	FillingsUpdate:  mu: -1.124370482  nElectrons: 1122.000000
LCAOMinimize: Iter:   0  F: -6328.4031372611952975  |grad|_K:  3.167e-02  alpha:  1.000e+00
	FillingsUpdate:  mu: +3.311970960  nElectrons: 1122.000000
LCAOMinimize: Iter:   1  F: -6568.7705320385157393  |grad|_K:  1.071e-01  alpha:  2.529e-01  linmin:  6.921e-02  cgtest: -6.233e-01  t[s]:     25.19
LCAOMinimize: 	Bad step direction: g.d > 0.
LCAOMinimize: 	Undoing step.
LCAOMinimize: 	Step failed: resetting search direction.
	FillingsUpdate:  mu: +3.311970960  nElectrons: 1122.000000
LCAOMinimize: Iter:   2  F: -6568.7705320385157393  |grad|_K:  1.071e-01  alpha:  0.000e+00
	FillingsUpdate:  mu: +0.971039922  nElectrons: 1122.000000
LCAOMinimize: Iter:   3  F: -6940.5383507121468938  |grad|_K:  6.811e-02  alpha:  7.166e-02  linmin:  3.044e-01  cgtest: -5.217e-01  t[s]:     38.46
LCAOMinimize: 	Bad step direction: g.d > 0.
LCAOMinimize: 	Undoing step.
LCAOMinimize: 	Step failed: resetting search direction.
	FillingsUpdate:  mu: +0.971039922  nElectrons: 1122.000000
LCAOMinimize: Iter:   4  F: -6940.5383507121468938  |grad|_K:  6.811e-02  alpha:  0.000e+00
	FillingsUpdate:  mu: +1.035581488  nElectrons: 1122.000000
LCAOMinimize: Iter:   5  F: -6984.7210930561013811  |grad|_K:  2.715e-02  alpha:  3.282e-02  linmin:  1.063e-01  cgtest: -3.039e-01  t[s]:     51.89
LCAOMinimize: 	Wrong curvature in test step, increasing alphaT to 9.846582e-02.
	FillingsUpdate:  mu: +0.892088735  nElectrons: 1122.000000
LCAOMinimize: Iter:   6  F: -6997.7117294527079139  |grad|_K:  2.811e-02  alpha: -1.242e-01  linmin: -1.255e-01  cgtest:  7.874e-01  t[s]:     59.13
LCAOMinimize: 	Step increased F by 2.213022e+02, reducing alpha to 2.244882e-02.
	FillingsUpdate:  mu: +0.425311882  nElectrons: 1122.000000
LCAOMinimize: Iter:   7  F: -7009.4751400809991537  |grad|_K:  1.984e-02  alpha:  2.245e-02  linmin: -2.007e-01  cgtest:  4.460e-01  t[s]:     72.49
LCAOMinimize: 	Wrong curvature in test step, increasing alphaT to 6.734645e-02.
	FillingsUpdate:  mu: +0.268876172  nElectrons: 1122.000000
LCAOMinimize: Iter:   8  F: -7016.6600187372787332  |grad|_K:  1.980e-02  alpha: -4.473e-01  linmin: -2.181e-01  cgtest:  8.010e-01  t[s]:     79.72
LCAOMinimize: 	Step increased F by 6.522358e+01, reducing alpha to 1.316582e-02.
	FillingsUpdate:  mu: +0.301924287  nElectrons: 1122.000000
LCAOMinimize: Iter:   9  F: -7020.6486572146231993  |grad|_K:  1.799e-02  alpha:  1.317e-02  linmin: -2.874e-01  cgtest:  9.030e-01  t[s]:     93.02
LCAOMinimize: 	Predicted alpha/alphaT>3.000000, increasing alphaT to 3.949747e-02.
LCAOMinimize: 	Predicted alpha/alphaT>3.000000, increasing alphaT to 1.184924e-01.
	FillingsUpdate:  mu: +0.259396082  nElectrons: 1122.000000
LCAOMinimize: Iter:  10  F: -7029.8952884449481644  |grad|_K:  1.204e-02  alpha:  5.424e-02  linmin: -2.130e-01  cgtest:  5.496e-01  t[s]:    104.70
	FillingsUpdate:  mu: +0.130631385  nElectrons: 1122.000000
LCAOMinimize: Iter:  11  F: -7031.9185986563170445  |grad|_K:  1.162e-02  alpha:  3.795e-02  linmin:  4.977e-03  cgtest:  1.101e-02  t[s]:    112.40
	FillingsUpdate:  mu: +0.019265092  nElectrons: 1122.000000
LCAOMinimize: Iter:  12  F: -7033.6817947044728498  |grad|_K:  7.995e-03  alpha:  4.336e-02  linmin: -2.927e-03  cgtest:  2.490e-01  t[s]:    120.16
	FillingsUpdate:  mu: -0.052612711  nElectrons: 1122.000000
LCAOMinimize: Iter:  13  F: -7034.5201892020204468  |grad|_K:  8.016e-03  alpha:  4.154e-02  linmin:  5.033e-02  cgtest: -2.570e-01  t[s]:    127.90
	FillingsUpdate:  mu: -0.094262638  nElectrons: 1122.000000
LCAOMinimize: Iter:  14  F: -7034.6522598104393182  |grad|_K:  5.916e-03  alpha:  1.032e-02  linmin:  1.570e-02  cgtest:  8.592e-01  t[s]:    135.64
LCAOMinimize: Encountered beta<0, resetting CG.
	FillingsUpdate:  mu: -0.112238615  nElectrons: 1122.000000
LCAOMinimize: Iter:  15  F: -7034.8035278683673823  |grad|_K:  2.043e-03  alpha:  1.424e-02  linmin:  3.788e-02  cgtest: -6.450e-02  t[s]:    143.32
	FillingsUpdate:  mu: -0.100910420  nElectrons: 1122.000000
LCAOMinimize: Iter:  16  F: -7034.8522043514212783  |grad|_K:  2.041e-03  alpha:  3.871e-02  linmin: -8.753e-03  cgtest:  4.474e-02  t[s]:    151.08
	FillingsUpdate:  mu: -0.080269662  nElectrons: 1122.000000
LCAOMinimize: Iter:  17  F: -7034.9069808506574191  |grad|_K:  1.832e-03  alpha:  4.175e-02  linmin: -3.281e-03  cgtest: -8.331e-02  t[s]:    160.04
	FillingsUpdate:  mu: -0.078273930  nElectrons: 1122.000000
LCAOMinimize: Iter:  18  F: -7034.9419361716054482  |grad|_K:  1.730e-03  alpha:  3.336e-02  linmin:  2.130e-04  cgtest:  1.072e-02  t[s]:    167.79
	FillingsUpdate:  mu: -0.076865144  nElectrons: 1122.000000
LCAOMinimize: Iter:  19  F: -7034.9823157920227459  |grad|_K:  1.322e-03  alpha:  4.426e-02  linmin:  2.599e-03  cgtest:  2.618e-02  t[s]:    175.43
	FillingsUpdate:  mu: -0.090757162  nElectrons: 1122.000000
LCAOMinimize: Iter:  20  F: -7034.9999927392054815  |grad|_K:  9.739e-04  alpha:  3.316e-02  linmin:  9.199e-04  cgtest:  7.209e-02  t[s]:    183.04
	FillingsUpdate:  mu: -0.104628309  nElectrons: 1122.000000
LCAOMinimize: Iter:  21  F: -7035.0083263140986674  |grad|_K:  7.316e-04  alpha:  2.870e-02  linmin:  1.174e-03  cgtest:  9.361e-03  t[s]:    190.74
	FillingsUpdate:  mu: -0.108685467  nElectrons: 1122.000000
LCAOMinimize: Iter:  22  F: -7035.0131087394356655  |grad|_K:  6.012e-04  alpha:  2.929e-02  linmin:  1.370e-03  cgtest:  1.442e-02  t[s]:    198.48
	FillingsUpdate:  mu: -0.108823932  nElectrons: 1122.000000
LCAOMinimize: Iter:  23  F: -7035.0189539059047092  |grad|_K:  5.753e-04  alpha:  5.354e-02  linmin:  2.925e-03  cgtest:  1.576e-02  t[s]:    206.23
	FillingsUpdate:  mu: -0.105900918  nElectrons: 1122.000000
LCAOMinimize: Iter:  24  F: -7035.0214455862260365  |grad|_K:  3.087e-04  alpha:  2.474e-02  linmin: -1.684e-03  cgtest:  6.802e-02  t[s]:    213.98
	FillingsUpdate:  mu: -0.103218313  nElectrons: 1122.000000
LCAOMinimize: Iter:  25  F: -7035.0222460671238878  |grad|_K:  1.864e-04  alpha:  2.726e-02  linmin: -2.256e-04  cgtest: -1.839e-02  t[s]:    221.70
	FillingsUpdate:  mu: -0.101411414  nElectrons: 1122.000000
LCAOMinimize: Iter:  26  F: -7035.0227219944808894  |grad|_K:  2.388e-04  alpha:  4.466e-02  linmin:  1.198e-04  cgtest:  1.648e-05  t[s]:    229.47
	FillingsUpdate:  mu: -0.099162604  nElectrons: 1122.000000
LCAOMinimize: Iter:  27  F: -7035.0233025388943133  |grad|_K:  1.827e-04  alpha:  3.326e-02  linmin: -2.659e-05  cgtest:  2.609e-03  t[s]:    237.31
	FillingsUpdate:  mu: -0.099973759  nElectrons: 1122.000000
LCAOMinimize: Iter:  28  F: -7035.0237404115696336  |grad|_K:  1.709e-04  alpha:  4.279e-02  linmin:  6.438e-05  cgtest:  1.863e-03  t[s]:    245.07
	FillingsUpdate:  mu: -0.101959065  nElectrons: 1122.000000
LCAOMinimize: Iter:  29  F: -7035.0240585726578502  |grad|_K:  1.285e-04  alpha:  3.554e-02  linmin:  8.116e-05  cgtest:  4.041e-03  t[s]:    252.79
	FillingsUpdate:  mu: -0.102544983  nElectrons: 1122.000000
LCAOMinimize: Iter:  30  F: -7035.0241753017298834  |grad|_K:  7.294e-05  alpha:  2.307e-02  linmin: -2.182e-06  cgtest:  1.990e-03  t[s]:    260.52
LCAOMinimize: None of the convergence criteria satisfied after 30 iterations.
----- createFluidSolver() ----- (Fluid-side solver setup)
   Initializing fluid molecule 'PC'
     Net charge: 0   dipole magnitude: 0
     Initializing spherical shell mfKernel with radius 0 Bohr
     deltaS corrections:

Correction to mu due to finite nuclear width = -0.0107496
   Cavity determined by nc: 0.00098 and sigma: 0.6
   Effective cavity tension: 9.53e-06 Eh/bohr^2 to account for cavitation and dispersion.


---- Citations for features of the code used in this run ----

   Software package:
      R. Sundararaman, K. Letchworth-Weaver, K.A. Schwarz, D. Gunceler, Y. Ozhabes and T.A. Arias, 'JDFTx: software for joint density-functional theory', SoftwareX 6, 278 (2017)

   gga-PBE exchange-correlation functional:
      J.P. Perdew, K. Burke and M. Ernzerhof, Phys. Rev. Lett. 77, 3865 (1996)

   Pseudopotentials:
      KF Garrity, JW Bennett, KM Rabe and D Vanderbilt, Comput. Mater. Sci. 81, 446 (2014)

   Truncated Coulomb potentials:
      R. Sundararaman and T.A. Arias, Phys. Rev. B 87, 165122 (2013)

   Linear/nonlinear dielectric/ionic fluid model with effective cavity tension:
      D. Gunceler, K. Letchworth-Weaver, R. Sundararaman, K.A. Schwarz and T.A. Arias, Modelling Simul. Mater. Sci. Eng. 21, 074005 (2013)

   Total energy minimization with Auxiliary Hamiltonian:
      C. Freysoldt, S. Boeck, and J. Neugebauer, Phys. Rev. B 79, 241103(R) (2009)

This list may not be complete. Please suggest additional citations or
report any other bugs at https://github.com/shankar1729/jdftx/issues

Initialization completed successfully at t[s]:    262.56

Fluid solver invoked on fresh (random / LCAO) wavefunctions
Running a vacuum solve first:

-------- Initial electronic minimization -----------
	FillingsUpdate:  mu: -0.102544983  nElectrons: 1122.000000
ElecMinimize: Iter:   0  F: -7035.024175301720788  |grad|_K:  1.885e-04  alpha:  1.000e+00
	FillingsUpdate:  mu: -0.140761952  nElectrons: 1122.000000
	SubspaceRotationAdjust: set factor to 0.688
ElecMinimize: Iter:   1  F: -7036.881403644220882  |grad|_K:  2.721e-04  alpha:  2.938e-01  linmin: -1.293e-05  t[s]:    284.45
	FillingsUpdate:  mu: +0.013304609  nElectrons: 1122.000000
	SubspaceRotationAdjust: set factor to 0.378
ElecMinimize: Iter:   2  F: -7037.061779759005731  |grad|_K:  4.666e-04  alpha:  5.941e-02  linmin:  3.507e-04  t[s]:    297.99
	FillingsUpdate:  mu: +0.086704960  nElectrons: 1122.000000
	SubspaceRotationAdjust: set factor to 0.215
ElecMinimize: Iter:   3  F: -7037.369597430785689  |grad|_K:  3.907e-04  alpha:  2.681e-02  linmin:  1.334e-05  t[s]:    311.52
	FillingsUpdate:  mu: +0.036420192  nElectrons: 1122.000000
	SubspaceRotationAdjust: set factor to 0.31
ElecMinimize: Iter:   4  F: -7038.409542699891972  |grad|_K:  1.747e-04  alpha:  3.988e-02  linmin: -1.340e-05  t[s]:    325.03
	FillingsUpdate:  mu: +0.032186600  nElectrons: 1122.000000
	SubspaceRotationAdjust: set factor to 0.215
ElecMinimize: Iter:   5  F: -7038.966903752839244  |grad|_K:  1.810e-04  alpha:  1.035e-01  linmin:  1.644e-05  t[s]:    338.53
	FillingsUpdate:  mu: -0.018807628  nElectrons: 1122.000000
	SubspaceRotationAdjust: set factor to 0.219
ElecMinimize: Iter:   6  F: -7039.358460888395712  |grad|_K:  1.146e-04  alpha:  7.116e-02  linmin: -6.890e-07  t[s]:    352.04
	FillingsUpdate:  mu: -0.029742590  nElectrons: 1122.000000
	SubspaceRotationAdjust: set factor to 0.22
ElecMinimize: Iter:   7  F: -7039.650343687741952  |grad|_K:  1.274e-04  alpha:  1.319e-01  linmin:  6.328e-05  t[s]:    365.47
	FillingsUpdate:  mu: -0.111681328  nElectrons: 1122.000000
	SubspaceRotationAdjust: set factor to 0.163
ElecMinimize: Iter:   8  F: -7039.898099781436940  |grad|_K:  1.027e-04  alpha:  9.296e-02  linmin:  1.849e-05  t[s]:    378.95
	FillingsUpdate:  mu: -0.165210001  nElectrons: 1122.000000
	SubspaceRotationAdjust: set factor to 0.199
ElecMinimize: Iter:   9  F: -7040.009112140804973  |grad|_K:  6.521e-05  alpha:  6.071e-02  linmin:  1.203e-06  t[s]:    392.48
	FillingsUpdate:  mu: -0.154553081  nElectrons: 1122.000000
	SubspaceRotationAdjust: set factor to 0.189
ElecMinimize: Iter:  10  F: -7040.096300002966018  |grad|_K:  8.156e-05  alpha:  1.198e-01  linmin:  6.531e-05  t[s]:    405.93
	FillingsUpdate:  mu: -0.120928004  nElectrons: 1122.000000
	SubspaceRotationAdjust: set factor to 0.161
ElecMinimize: Iter:  11  F: -7040.217063625192168  |grad|_K:  7.665e-05  alpha:  1.075e-01  linmin:  1.198e-05  t[s]:    419.44
	FillingsUpdate:  mu: -0.106286408  nElectrons: 1122.000000
	SubspaceRotationAdjust: set factor to 0.243
ElecMinimize: Iter:  12  F: -7040.279552139199950  |grad|_K:  4.378e-05  alpha:  6.202e-02  linmin:  2.039e-05  t[s]:    432.98
	FillingsUpdate:  mu: -0.096906290  nElectrons: 1122.000000
	SubspaceRotationAdjust: set factor to 0.264
ElecMinimize: Iter:  13  F: -7040.306618308005454  |grad|_K:  4.084e-05  alpha:  8.150e-02  linmin: -4.830e-05  t[s]:    446.46
	FillingsUpdate:  mu: -0.088444204  nElectrons: 1122.000000
	SubspaceRotationAdjust: set factor to 0.251
ElecMinimize: Iter:  14  F: -7040.340437385749283  |grad|_K:  4.790e-05  alpha:  1.156e-01  linmin: -7.414e-06  t[s]:    460.00
	FillingsUpdate:  mu: -0.092048814  nElectrons: 1122.000000
	SubspaceRotationAdjust: set factor to 0.245
ElecMinimize: Iter:  15  F: -7040.374148975235585  |grad|_K:  3.833e-05  alpha:  8.432e-02  linmin:  5.558e-07  t[s]:    473.51
	FillingsUpdate:  mu: -0.097393452  nElectrons: 1122.000000
	SubspaceRotationAdjust: set factor to 0.243
ElecMinimize: Iter:  16  F: -7040.392212566463058  |grad|_K:  2.921e-05  alpha:  7.103e-02  linmin: -1.500e-06  t[s]:    487.07
	FillingsUpdate:  mu: -0.101216994  nElectrons: 1122.000000
	SubspaceRotationAdjust: set factor to 0.222
ElecMinimize: Iter:  17  F: -7040.405742989886676  |grad|_K:  2.819e-05  alpha:  9.132e-02  linmin: -1.512e-06  t[s]:    503.03
	FillingsUpdate:  mu: -0.108618912  nElectrons: 1122.000000
	SubspaceRotationAdjust: set factor to 0.202
ElecMinimize: Iter:  18  F: -7040.419319567878119  |grad|_K:  2.618e-05  alpha:  9.835e-02  linmin:  2.708e-07  t[s]:    516.90
	FillingsUpdate:  mu: -0.113586584  nElectrons: 1122.000000
	SubspaceRotationAdjust: set factor to 0.261
ElecMinimize: Iter:  19  F: -7040.430055400694982  |grad|_K:  2.229e-05  alpha:  9.033e-02  linmin:  1.195e-06  t[s]:    530.48
	FillingsUpdate:  mu: -0.112835945  nElectrons: 1122.000000
	SubspaceRotationAdjust: set factor to 0.268
ElecMinimize: Iter:  20  F: -7040.438347109218739  |grad|_K:  2.134e-05  alpha:  9.660e-02  linmin:  9.251e-07  t[s]:    544.00
	FillingsUpdate:  mu: -0.109652881  nElectrons: 1122.000000
	SubspaceRotationAdjust: set factor to 0.269
ElecMinimize: Iter:  21  F: -7040.444940163421052  |grad|_K:  1.862e-05  alpha:  8.373e-02  linmin: -6.462e-07  t[s]:    557.52
	FillingsUpdate:  mu: -0.106970244  nElectrons: 1122.000000
	SubspaceRotationAdjust: set factor to 0.31
ElecMinimize: Iter:  22  F: -7040.449916787965776  |grad|_K:  1.688e-05  alpha:  8.269e-02  linmin: -1.009e-06  t[s]:    571.15
	FillingsUpdate:  mu: -0.105566968  nElectrons: 1122.000000
	SubspaceRotationAdjust: set factor to 0.322
ElecMinimize: Iter:  23  F: -7040.454683813763950  |grad|_K:  1.774e-05  alpha:  9.619e-02  linmin:  6.860e-08  t[s]:    584.69
	FillingsUpdate:  mu: -0.105950769  nElectrons: 1122.000000
	SubspaceRotationAdjust: set factor to 0.29
ElecMinimize: Iter:  24  F: -7040.459178254459403  |grad|_K:  1.469e-05  alpha:  8.236e-02  linmin:  5.690e-07  t[s]:    598.20
	FillingsUpdate:  mu: -0.106424872  nElectrons: 1122.000000
	SubspaceRotationAdjust: set factor to 0.346
ElecMinimize: Iter:  25  F: -7040.461442455708493  |grad|_K:  1.062e-05  alpha:  6.067e-02  linmin: -6.422e-08  t[s]:    611.75
	FillingsUpdate:  mu: -0.106495778  nElectrons: 1122.000000
	SubspaceRotationAdjust: set factor to 0.311
ElecMinimize: Iter:  26  F: -7040.463298115782891  |grad|_K:  1.204e-05  alpha:  9.468e-02  linmin: -1.316e-06  t[s]:    625.25
	FillingsUpdate:  mu: -0.107214203  nElectrons: 1122.000000
	SubspaceRotationAdjust: set factor to 0.341
ElecMinimize: Iter:  27  F: -7040.465319271479530  |grad|_K:  9.768e-06  alpha:  8.013e-02  linmin: -1.759e-07  t[s]:    638.71
	FillingsUpdate:  mu: -0.107723385  nElectrons: 1122.000000
	SubspaceRotationAdjust: set factor to 0.373
ElecMinimize: Iter:  28  F: -7040.466522652494859  |grad|_K:  8.462e-06  alpha:  7.274e-02  linmin: -8.586e-08  t[s]:    652.24
	FillingsUpdate:  mu: -0.107602236  nElectrons: 1122.000000
	SubspaceRotationAdjust: set factor to 0.376
ElecMinimize: Iter:  29  F: -7040.467549422195589  |grad|_K:  7.811e-06  alpha:  8.269e-02  linmin: -3.297e-07  t[s]:    665.73
	FillingsUpdate:  mu: -0.107358423  nElectrons: 1122.000000
	SubspaceRotationAdjust: set factor to 0.354
ElecMinimize: Iter:  30  F: -7040.468298070379205  |grad|_K:  6.745e-06  alpha:  7.075e-02  linmin: -2.140e-07  t[s]:    679.26
	FillingsUpdate:  mu: -0.107545804  nElectrons: 1122.000000
	SubspaceRotationAdjust: set factor to 0.378
ElecMinimize: Iter:  31  F: -7040.468850761934846  |grad|_K:  5.132e-06  alpha:  7.005e-02  linmin:  7.566e-08  t[s]:    692.84
	FillingsUpdate:  mu: -0.107944359  nElectrons: 1122.000000
	SubspaceRotationAdjust: set factor to 0.399
ElecMinimize: Iter:  32  F: -7040.469164940018345  |grad|_K:  4.628e-06  alpha:  6.883e-02  linmin:  4.988e-07  t[s]:    706.37
	FillingsUpdate:  mu: -0.108158857  nElectrons: 1122.000000
	SubspaceRotationAdjust: set factor to 0.364
ElecMinimize: Iter:  33  F: -7040.469510022561735  |grad|_K:  4.805e-06  alpha:  9.309e-02  linmin:  6.796e-07  t[s]:    719.97
	FillingsUpdate:  mu: -0.107871076  nElectrons: 1122.000000
	SubspaceRotationAdjust: set factor to 0.409
ElecMinimize: Iter:  34  F: -7040.469771431778099  |grad|_K:  3.955e-06  alpha:  6.545e-02  linmin:  2.047e-07  t[s]:    733.55
	FillingsUpdate:  mu: -0.107343489  nElectrons: 1122.000000
	SubspaceRotationAdjust: set factor to 0.34
ElecMinimize: Iter:  35  F: -7040.469991521389602  |grad|_K:  3.705e-06  alpha:  8.121e-02  linmin:  2.310e-07  t[s]:    747.03
	FillingsUpdate:  mu: -0.107099097  nElectrons: 1122.000000
	SubspaceRotationAdjust: set factor to 0.413
ElecMinimize: Iter:  36  F: -7040.470129475220347  |grad|_K:  2.661e-06  alpha:  5.800e-02  linmin:  3.386e-07  t[s]:    760.60
	FillingsUpdate:  mu: -0.107058702  nElectrons: 1122.000000
	SubspaceRotationAdjust: set factor to 0.394
ElecMinimize: Iter:  37  F: -7040.470230996791543  |grad|_K:  2.687e-06  alpha:  8.277e-02  linmin:  3.486e-07  t[s]:    774.13
	FillingsUpdate:  mu: -0.107179414  nElectrons: 1122.000000
	SubspaceRotationAdjust: set factor to 0.429
ElecMinimize: Iter:  38  F: -7040.470316327902765  |grad|_K:  2.401e-06  alpha:  6.821e-02  linmin:  3.254e-07  t[s]:    787.54
	FillingsUpdate:  mu: -0.107582630  nElectrons: 1122.000000
	SubspaceRotationAdjust: set factor to 0.321
ElecMinimize: Iter:  39  F: -7040.470404606748161  |grad|_K:  2.605e-06  alpha:  8.841e-02  linmin:  6.466e-07  t[s]:    801.02
	FillingsUpdate:  mu: -0.107968538  nElectrons: 1122.000000
	SubspaceRotationAdjust: set factor to 0.372
ElecMinimize: Iter:  40  F: -7040.470475256528516  |grad|_K:  1.860e-06  alpha:  6.012e-02  linmin:  3.312e-07  t[s]:    814.53
	FillingsUpdate:  mu: -0.108014093  nElectrons: 1122.000000
	SubspaceRotationAdjust: set factor to 0.311
ElecMinimize: Iter:  41  F: -7040.470527327877790  |grad|_K:  1.940e-06  alpha:  8.692e-02  linmin:  5.047e-07  t[s]:    828.05
	FillingsUpdate:  mu: -0.107728232  nElectrons: 1122.000000
	SubspaceRotationAdjust: set factor to 0.364
ElecMinimize: Iter:  42  F: -7040.470576463246289  |grad|_K:  1.571e-06  alpha:  7.542e-02  linmin:  3.046e-07  t[s]:    841.55
	FillingsUpdate:  mu: -0.107363089  nElectrons: 1122.000000
	SubspaceRotationAdjust: set factor to 0.34
ElecMinimize: Iter:  43  F: -7040.470613570591013  |grad|_K:  1.591e-06  alpha:  8.685e-02  linmin:  2.158e-07  t[s]:    855.09
	FillingsUpdate:  mu: -0.107106387  nElectrons: 1122.000000
	SubspaceRotationAdjust: set factor to 0.309
ElecMinimize: Iter:  44  F: -7040.470648919545965  |grad|_K:  1.331e-06  alpha:  8.063e-02  linmin:  3.103e-07  t[s]:    868.67
	FillingsUpdate:  mu: -0.107095986  nElectrons: 1122.000000
	SubspaceRotationAdjust: set factor to 0.305
ElecMinimize: Iter:  45  F: -7040.470673094579979  |grad|_K:  1.217e-06  alpha:  7.875e-02  linmin:  2.944e-07  t[s]:    882.26
	FillingsUpdate:  mu: -0.107241480  nElectrons: 1122.000000
	SubspaceRotationAdjust: set factor to 0.302
ElecMinimize: Iter:  46  F: -7040.470698316950802  |grad|_K:  1.124e-06  alpha:  9.838e-02  linmin:  4.360e-07  t[s]:    895.80
	FillingsUpdate:  mu: -0.107413340  nElectrons: 1122.000000
	SubspaceRotationAdjust: set factor to 0.345
ElecMinimize: Iter:  47  F: -7040.470714511340702  |grad|_K:  8.951e-07  alpha:  7.410e-02  linmin:  2.459e-07  t[s]:    909.36
	FillingsUpdate:  mu: -0.107597274  nElectrons: 1122.000000
	SubspaceRotationAdjust: set factor to 0.338
ElecMinimize: Iter:  48  F: -7040.470728502900783  |grad|_K:  9.913e-07  alpha:  1.008e-01  linmin:  3.579e-07  t[s]:    922.89
	FillingsUpdate:  mu: -0.107717267  nElectrons: 1122.000000
	SubspaceRotationAdjust: set factor to 0.404
ElecMinimize: Iter:  49  F: -7040.470743410084651  |grad|_K:  9.020e-07  alpha:  8.764e-02  linmin:  3.164e-07  t[s]:    936.43
	FillingsUpdate:  mu: -0.107664234  nElectrons: 1122.000000
	SubspaceRotationAdjust: set factor to 0.386
ElecMinimize: Iter:  50  F: -7040.470754464306083  |grad|_K:  8.159e-07  alpha:  7.850e-02  linmin:  3.110e-07  t[s]:    949.92
	FillingsUpdate:  mu: -0.107529022  nElectrons: 1122.000000
	SubspaceRotationAdjust: set factor to 0.386
ElecMinimize: Iter:  51  F: -7040.470762518616539  |grad|_K:  6.829e-07  alpha:  6.989e-02  linmin:  2.827e-07  t[s]:    963.46
	FillingsUpdate:  mu: -0.107410198  nElectrons: 1122.000000
	SubspaceRotationAdjust: set factor to 0.35
ElecMinimize: Iter:  52  F: -7040.470769013083554  |grad|_K:  6.526e-07  alpha:  8.045e-02  linmin:  2.983e-07  t[s]:    977.00
	FillingsUpdate:  mu: -0.107339981  nElectrons: 1122.000000
	SubspaceRotationAdjust: set factor to 0.412
ElecMinimize: Iter:  53  F: -7040.470774594588875  |grad|_K:  5.518e-07  alpha:  7.571e-02  linmin:  3.323e-07  t[s]:    990.54
	FillingsUpdate:  mu: -0.107330255  nElectrons: 1122.000000
	SubspaceRotationAdjust: set factor to 0.345
ElecMinimize: Iter:  54  F: -7040.470779367089563  |grad|_K:  6.247e-07  alpha:  9.059e-02  linmin:  3.959e-07  t[s]:   1012.06
	FillingsUpdate:  mu: -0.107392091  nElectrons: 1122.000000
	SubspaceRotationAdjust: set factor to 0.331
ElecMinimize: Iter:  55  F: -7040.470785509694906  |grad|_K:  5.746e-07  alpha:  9.105e-02  linmin:  5.872e-07  t[s]:   1025.52
	FillingsUpdate:  mu: -0.107471817  nElectrons: 1122.000000
	SubspaceRotationAdjust: set factor to 0.353
ElecMinimize: Iter:  56  F: -7040.470789967303972  |grad|_K:  5.042e-07  alpha:  7.823e-02  linmin:  3.968e-07  t[s]:   1039.11
	FillingsUpdate:  mu: -0.107528674  nElectrons: 1122.000000
	SubspaceRotationAdjust: set factor to 0.359
ElecMinimize: Iter:  57  F: -7040.470794169293185  |grad|_K:  4.784e-07  alpha:  9.569e-02  linmin:  5.861e-07  t[s]:   1052.61
	FillingsUpdate:  mu: -0.107526175  nElectrons: 1122.000000
	SubspaceRotationAdjust: set factor to 0.394
ElecMinimize: Iter:  58  F: -7040.470797057090749  |grad|_K:  4.093e-07  alpha:  7.313e-02  linmin:  3.590e-07  t[s]:   1066.12
	FillingsUpdate:  mu: -0.107490557  nElectrons: 1122.000000
	SubspaceRotationAdjust: set factor to 0.361
ElecMinimize: Iter:  59  F: -7040.470800042946394  |grad|_K:  4.629e-07  alpha:  1.032e-01  linmin:  5.237e-07  t[s]:   1079.60
	FillingsUpdate:  mu: -0.107464375  nElectrons: 1122.000000
	SubspaceRotationAdjust: set factor to 0.399
ElecMinimize: Iter:  60  F: -7040.470802843534329  |grad|_K:  4.002e-07  alpha:  7.577e-02  linmin:  4.088e-07  t[s]:   1093.12
	FillingsUpdate:  mu: -0.107453146  nElectrons: 1122.000000
	SubspaceRotationAdjust: set factor to 0.357
ElecMinimize: Iter:  61  F: -7040.470805420977740  |grad|_K:  4.155e-07  alpha:  9.329e-02  linmin:  5.969e-07  t[s]:   1106.67
	FillingsUpdate:  mu: -0.107449825  nElectrons: 1122.000000
	SubspaceRotationAdjust: set factor to 0.397
ElecMinimize: Iter:  62  F: -7040.470807457156297  |grad|_K:  3.336e-07  alpha:  6.841e-02  linmin:  3.297e-07  t[s]:   1120.27
	FillingsUpdate:  mu: -0.107461141  nElectrons: 1122.000000
	SubspaceRotationAdjust: set factor to 0.323
ElecMinimize: Iter:  63  F: -7040.470809312871097  |grad|_K:  3.844e-07  alpha:  9.666e-02  linmin:  5.544e-07  t[s]:   1133.82
	FillingsUpdate:  mu: -0.107478643  nElectrons: 1122.000000
	SubspaceRotationAdjust: set factor to 0.414
ElecMinimize: Iter:  64  F: -7040.470811250958832  |grad|_K:  3.062e-07  alpha:  7.604e-02  linmin:  3.444e-07  t[s]:   1147.35
	FillingsUpdate:  mu: -0.107472469  nElectrons: 1122.000000
	SubspaceRotationAdjust: set factor to 0.43
ElecMinimize: Iter:  65  F: -7040.470812578732875  |grad|_K:  2.994e-07  alpha:  8.215e-02  linmin:  3.771e-07  t[s]:   1160.87
	FillingsUpdate:  mu: -0.107449082  nElectrons: 1122.000000
	SubspaceRotationAdjust: set factor to 0.431
ElecMinimize: Iter:  66  F: -7040.470813769687993  |grad|_K:  2.753e-07  alpha:  7.705e-02  linmin:  3.498e-07  t[s]:   1174.44
	FillingsUpdate:  mu: -0.107437492  nElectrons: 1122.000000
	SubspaceRotationAdjust: set factor to 0.418
ElecMinimize: Iter:  67  F: -7040.470814816931124  |grad|_K:  2.783e-07  alpha:  8.013e-02  linmin:  3.276e-07  t[s]:   1187.93
	FillingsUpdate:  mu: -0.107447370  nElectrons: 1122.000000
	SubspaceRotationAdjust: set factor to 0.487
ElecMinimize: Iter:  68  F: -7040.470815761386802  |grad|_K:  2.312e-07  alpha:  7.062e-02  linmin:  2.429e-07  t[s]:   1201.48
	FillingsUpdate:  mu: -0.107464821  nElectrons: 1122.000000
	SubspaceRotationAdjust: set factor to 0.454
ElecMinimize: Iter:  69  F: -7040.470816452185318  |grad|_K:  2.409e-07  alpha:  7.485e-02  linmin:  2.867e-07  t[s]:   1215.03
	FillingsUpdate:  mu: -0.107479368  nElectrons: 1122.000000
	SubspaceRotationAdjust: set factor to 0.478
ElecMinimize: Iter:  70  F: -7040.470817191592687  |grad|_K:  2.291e-07  alpha:  7.385e-02  linmin:  5.506e-07  t[s]:   1228.53
	FillingsUpdate:  mu: -0.107478540  nElectrons: 1122.000000
	SubspaceRotationAdjust: set factor to 0.44
ElecMinimize: Iter:  71  F: -7040.470817849217383  |grad|_K:  2.392e-07  alpha:  7.307e-02  linmin:  1.126e-06  t[s]:   1247.46
	FillingsUpdate:  mu: -0.107462469  nElectrons: 1122.000000
	SubspaceRotationAdjust: set factor to 0.476
ElecMinimize: Iter:  72  F: -7040.470818407731713  |grad|_K:  2.117e-07  alpha:  5.582e-02  linmin:  7.238e-07  t[s]:   1261.05
	FillingsUpdate:  mu: -0.107443383  nElectrons: 1122.000000
	SubspaceRotationAdjust: set factor to 0.475
ElecMinimize: Iter:  73  F: -7040.470818766131742  |grad|_K:  2.008e-07  alpha:  4.592e-02  linmin:  1.213e-06  t[s]:   1274.60
	FillingsUpdate:  mu: -0.107429652  nElectrons: 1122.000000
	SubspaceRotationAdjust: set factor to 0.457
ElecMinimize: Iter:  74  F: -7040.470819023726108  |grad|_K:  1.865e-07  alpha:  3.704e-02  linmin:  1.046e-06  t[s]:   1288.13
	FillingsUpdate:  mu: -0.107425551  nElectrons: 1122.000000
	SubspaceRotationAdjust: set factor to 0.469
ElecMinimize: Iter:  75  F: -7040.470819204474537  |grad|_K:  1.705e-07  alpha:  3.018e-02  linmin:  7.625e-07  t[s]:   1301.68
	FillingsUpdate:  mu: -0.107429542  nElectrons: 1122.000000
	SubspaceRotationAdjust: set factor to 0.412
ElecMinimize: Iter:  76  F: -7040.470819359301458  |grad|_K:  1.788e-07  alpha:  3.120e-02  linmin:  1.285e-06  t[s]:   1315.21
	FillingsUpdate:  mu: -0.107439861  nElectrons: 1122.000000
	SubspaceRotationAdjust: set factor to 0.34
ElecMinimize: Iter:  77  F: -7040.470819514980576  |grad|_K:  1.802e-07  alpha:  2.864e-02  linmin:  1.243e-06  t[s]:   1328.68
	FillingsUpdate:  mu: -0.107451620  nElectrons: 1122.000000
	SubspaceRotationAdjust: set factor to 0.311
ElecMinimize: Iter:  78  F: -7040.470819650190606  |grad|_K:  1.631e-07  alpha:  2.441e-02  linmin:  8.790e-07  t[s]:   1342.15
	FillingsUpdate:  mu: -0.107461700  nElectrons: 1122.000000
	SubspaceRotationAdjust: set factor to 0.305
ElecMinimize: Iter:  79  F: -7040.470819760112136  |grad|_K:  1.527e-07  alpha:  2.427e-02  linmin:  1.019e-06  t[s]:   1355.78
	FillingsUpdate:  mu: -0.107469879  nElectrons: 1122.000000
	SubspaceRotationAdjust: set factor to 0.276
ElecMinimize: Iter:  80  F: -7040.470819859548101  |grad|_K:  1.564e-07  alpha:  2.518e-02  linmin:  9.374e-07  t[s]:   1369.34
	FillingsUpdate:  mu: -0.107476454  nElectrons: 1122.000000
	SubspaceRotationAdjust: set factor to 0.233
ElecMinimize: Iter:  81  F: -7040.470819963862596  |grad|_K:  1.619e-07  alpha:  2.510e-02  linmin:  1.179e-06  t[s]:   1382.90
	FillingsUpdate:  mu: -0.107480848  nElectrons: 1122.000000
	SubspaceRotationAdjust: set factor to 0.202
ElecMinimize: Iter:  82  F: -7040.470820068286230  |grad|_K:  1.585e-07  alpha:  2.352e-02  linmin:  1.039e-06  t[s]:   1396.39
	FillingsUpdate:  mu: -0.107482742  nElectrons: 1122.000000
	SubspaceRotationAdjust: set factor to 0.19
ElecMinimize: Iter:  83  F: -7040.470820165120131  |grad|_K:  1.510e-07  alpha:  2.268e-02  linmin:  9.472e-07  t[s]:   1409.90
	FillingsUpdate:  mu: -0.107482300  nElectrons: 1122.000000
	SubspaceRotationAdjust: set factor to 0.192
ElecMinimize: Iter:  84  F: -7040.470820251766781  |grad|_K:  1.467e-07  alpha:  2.235e-02  linmin:  8.225e-07  t[s]:   1423.43
	FillingsUpdate:  mu: -0.107479837  nElectrons: 1122.000000
	SubspaceRotationAdjust: set factor to 0.191
ElecMinimize: Iter:  85  F: -7040.470820331584946  |grad|_K:  1.474e-07  alpha:  2.186e-02  linmin:  7.781e-07  t[s]:   1436.92
	FillingsUpdate:  mu: -0.107475674  nElectrons: 1122.000000
	SubspaceRotationAdjust: set factor to 0.181
ElecMinimize: Iter:  86  F: -7040.470820408823784  |grad|_K:  1.501e-07  alpha:  2.086e-02  linmin:  7.241e-07  t[s]:   1450.48
	FillingsUpdate:  mu: -0.107470268  nElectrons: 1122.000000
	SubspaceRotationAdjust: set factor to 0.163
ElecMinimize: Iter:  87  F: -7040.470820484665637  |grad|_K:  1.508e-07  alpha:  1.979e-02  linmin:  8.153e-07  t[s]:   1464.02
	FillingsUpdate:  mu: -0.107464378  nElectrons: 1122.000000
	SubspaceRotationAdjust: set factor to 0.146
ElecMinimize: Iter:  88  F: -7040.470820557553452  |grad|_K:  1.477e-07  alpha:  1.889e-02  linmin:  8.563e-07  t[s]:   1477.59
	FillingsUpdate:  mu: -0.107458768  nElectrons: 1122.000000
	SubspaceRotationAdjust: set factor to 0.133
	SubspaceRotationAdjust: resetting CG because factor has changed by 0.132669
ElecMinimize: 	State modified externally: resetting search direction.
ElecMinimize: Iter:  89  F: -7040.470820626002933  |grad|_K:  1.390e-07  alpha:  1.852e-02
ElecMinimize: 	Predicted alpha/alphaT>3.000000, increasing alphaT to 5.554575e-02.
ElecMinimize: 	Predicted alpha/alphaT>3.000000, increasing alphaT to 1.666372e-01.
ElecMinimize: 	Predicted alpha/alphaT>3.000000, increasing alphaT to 4.999117e-01.
	FillingsUpdate:  mu: -0.107462847  nElectrons: 1122.000000
	SubspaceRotationAdjust: set factor to 0.124
ElecMinimize: Iter:  90  F: -7040.470822504423268  |grad|_K:  2.238e-07  alpha:  5.586e-01  linmin: -3.555e-06  t[s]:   1518.45
	FillingsUpdate:  mu: -0.107488647  nElectrons: 1122.000000
	SubspaceRotationAdjust: set factor to 0.117
ElecMinimize: Iter:  91  F: -7040.470826007433971  |grad|_K:  2.152e-07  alpha:  4.064e-01  linmin: -6.296e-07  t[s]:   1531.99
	FillingsUpdate:  mu: -0.107462466  nElectrons: 1122.000000
	SubspaceRotationAdjust: set factor to 0.113
ElecMinimize: Iter:  92  F: -7040.470828833897940  |grad|_K:  1.918e-07  alpha:  3.530e-01  linmin: -1.432e-06  t[s]:   1545.49
	FillingsUpdate:  mu: -0.107458114  nElectrons: 1122.000000
	SubspaceRotationAdjust: set factor to 0.0994
ElecMinimize: Iter:  93  F: -7040.470830856495013  |grad|_K:  1.509e-07  alpha:  3.160e-01  linmin:  3.915e-08  t[s]:   1559.03
	FillingsUpdate:  mu: -0.107456778  nElectrons: 1122.000000
	SubspaceRotationAdjust: set factor to 0.0891
ElecMinimize: Iter:  94  F: -7040.470832121784952  |grad|_K:  1.027e-07  alpha:  3.208e-01  linmin:  9.250e-07  t[s]:   1572.53
	FillingsUpdate:  mu: -0.107465354  nElectrons: 1122.000000
	SubspaceRotationAdjust: set factor to 0.089
ElecMinimize: Iter:  95  F: -7040.470832858931317  |grad|_K:  9.255e-08  alpha:  4.047e-01  linmin:  1.150e-06  t[s]:   1587.92
	FillingsUpdate:  mu: -0.107476107  nElectrons: 1122.000000
	SubspaceRotationAdjust: set factor to 0.0895
ElecMinimize: Iter:  96  F: -7040.470833413988657  |grad|_K:  8.957e-08  alpha:  3.765e-01  linmin:  1.159e-06  t[s]:   1601.40
	FillingsUpdate:  mu: -0.107486421  nElectrons: 1122.000000
	SubspaceRotationAdjust: set factor to 0.0926
ElecMinimize: Iter:  97  F: -7040.470834239314172  |grad|_K:  1.095e-07  alpha:  6.008e-01  linmin:  2.345e-06  t[s]:   1614.93
	FillingsUpdate:  mu: -0.107487233  nElectrons: 1122.000000
	SubspaceRotationAdjust: set factor to 0.0922
ElecMinimize: Iter:  98  F: -7040.470835457852445  |grad|_K:  1.295e-07  alpha:  6.071e-01  linmin:  5.787e-06  t[s]:   1628.46
	FillingsUpdate:  mu: -0.107479900  nElectrons: 1122.000000
	SubspaceRotationAdjust: set factor to 0.112
ElecMinimize: Iter:  99  F: -7040.470836118835905  |grad|_K:  8.540e-08  alpha:  2.044e-01  linmin: -1.338e-05  t[s]:   1641.99
	FillingsUpdate:  mu: -0.107475042  nElectrons: 1122.000000
	SubspaceRotationAdjust: set factor to 0.117
ElecMinimize: Iter: 100  F: -7040.470836485143991  |grad|_K:  8.067e-08  alpha:  2.455e-01  linmin:  2.941e-06  t[s]:   1655.56
ElecMinimize: None of the convergence criteria satisfied after 100 iterations.
Setting wave functions to eigenvectors of Hamiltonian
Vacuum energy after initial minimize, F = -7040.470836485143991


-------- Electronic minimization -----------
	Linear fluid (dielectric constant: 64) occupying 0.838593 of unit cell:	Completed after 41 iterations at t[s]:   1658.27
	FillingsUpdate:  mu: -0.117864132  nElectrons: 1122.000000
ElecMinimize: Iter:   0  F: -7040.666322848504933  |grad|_K:  3.692e-05  alpha:  1.000e+00
	Linear fluid (dielectric constant: 64) occupying 0.841804 of unit cell:	Completed after 34 iterations at t[s]:   1670.07
	Linear fluid (dielectric constant: 64) occupying 0.841009 of unit cell:	Completed after 29 iterations at t[s]:   1674.52
	FillingsUpdate:  mu: -0.114395542  nElectrons: 1122.000000
	SubspaceRotationAdjust: set factor to 0.101
ElecMinimize: Iter:   1  F: -7040.819828637387218  |grad|_K:  4.391e-05  alpha:  6.443e-01  linmin:  8.830e-05  t[s]:   1680.24
	Linear fluid (dielectric constant: 64) occupying 0.842378 of unit cell:	Completed after 37 iterations at t[s]:   1685.70
	Linear fluid (dielectric constant: 64) occupying 0.842113 of unit cell:	Completed after 30 iterations at t[s]:   1690.26
	FillingsUpdate:  mu: -0.109564646  nElectrons: 1122.000000
	SubspaceRotationAdjust: set factor to 0.133
ElecMinimize: Iter:   2  F: -7040.898586037807036  |grad|_K:  3.130e-05  alpha:  2.639e-01  linmin:  5.616e-04  t[s]:   1696.03
	Linear fluid (dielectric constant: 64) occupying 0.842261 of unit cell:	Completed after 26 iterations at t[s]:   1701.28
	Linear fluid (dielectric constant: 64) occupying 0.842279 of unit cell:	Completed after 20 iterations at t[s]:   1705.39
	FillingsUpdate:  mu: -0.110728821  nElectrons: 1122.000000
	SubspaceRotationAdjust: set factor to 0.172
ElecMinimize: Iter:   3  F: -7040.964393473045675  |grad|_K:  1.486e-05  alpha:  3.991e-01  linmin: -1.131e-03  t[s]:   1711.12
	Linear fluid (dielectric constant: 64) occupying 0.842257 of unit cell:	Completed after 25 iterations at t[s]:   1716.28
	Linear fluid (dielectric constant: 64) occupying 0.842262 of unit cell:	Completed after 14 iterations at t[s]:   1720.37
	FillingsUpdate:  mu: -0.109449890  nElectrons: 1122.000000
	SubspaceRotationAdjust: set factor to 0.154
ElecMinimize: Iter:   4  F: -7040.978382049128413  |grad|_K:  1.554e-05  alpha:  3.425e-01  linmin: -7.532e-05  t[s]:   1726.08
	Linear fluid (dielectric constant: 64) occupying 0.842187 of unit cell:	Completed after 25 iterations at t[s]:   1731.25
	Linear fluid (dielectric constant: 64) occupying 0.842204 of unit cell:	Completed after 13 iterations at t[s]:   1735.31
	FillingsUpdate:  mu: -0.110767615  nElectrons: 1122.000000
	SubspaceRotationAdjust: set factor to 0.15
ElecMinimize: Iter:   5  F: -7040.990068902944586  |grad|_K:  1.049e-05  alpha:  2.787e-01  linmin: -6.469e-05  t[s]:   1740.99
	Linear fluid (dielectric constant: 64) occupying 0.842161 of unit cell:	Completed after 18 iterations at t[s]:   1746.05
	Linear fluid (dielectric constant: 64) occupying 0.842118 of unit cell:	Completed after 17 iterations at t[s]:   1750.07
	FillingsUpdate:  mu: -0.110078838  nElectrons: 1122.000000
	SubspaceRotationAdjust: set factor to 0.157
ElecMinimize: Iter:   6  F: -7041.000070517433414  |grad|_K:  1.031e-05  alpha:  5.016e-01  linmin: -1.271e-04  t[s]:   1755.83
	Linear fluid (dielectric constant: 64) occupying 0.842008 of unit cell:	Completed after 23 iterations at t[s]:   1761.04
	Linear fluid (dielectric constant: 64) occupying 0.842054 of unit cell:	Completed after 17 iterations at t[s]:   1765.11
	FillingsUpdate:  mu: -0.112481733  nElectrons: 1122.000000
	SubspaceRotationAdjust: set factor to 0.149
ElecMinimize: Iter:   7  F: -7041.006182918469676  |grad|_K:  9.963e-06  alpha:  3.139e-01  linmin: -2.115e-06  t[s]:   1770.78
	Linear fluid (dielectric constant: 64) occupying 0.842018 of unit cell:	Completed after 23 iterations at t[s]:   1775.94
	Linear fluid (dielectric constant: 64) occupying 0.842000 of unit cell:	Completed after 18 iterations at t[s]:   1779.97
	FillingsUpdate:  mu: -0.111240667  nElectrons: 1122.000000
	SubspaceRotationAdjust: set factor to 0.141
ElecMinimize: Iter:   8  F: -7041.013617239090308  |grad|_K:  1.040e-05  alpha:  4.302e-01  linmin: -1.297e-05  t[s]:   1785.67
	Linear fluid (dielectric constant: 64) occupying 0.841973 of unit cell:	Completed after 29 iterations at t[s]:   1790.92
	Linear fluid (dielectric constant: 64) occupying 0.841981 of unit cell:	Completed after 18 iterations at t[s]:   1795.10
	FillingsUpdate:  mu: -0.107503400  nElectrons: 1122.000000
	SubspaceRotationAdjust: set factor to 0.124
ElecMinimize: Iter:   9  F: -7041.020295818784689  |grad|_K:  9.000e-06  alpha:  3.531e-01  linmin: -5.668e-06  t[s]:   1800.75
	Linear fluid (dielectric constant: 64) occupying 0.841995 of unit cell:	Completed after 26 iterations at t[s]:   1805.93
	Linear fluid (dielectric constant: 64) occupying 0.841995 of unit cell:	Completed after 5 iterations at t[s]:   1809.76
	FillingsUpdate:  mu: -0.107772496  nElectrons: 1122.000000
	SubspaceRotationAdjust: set factor to 0.115
ElecMinimize: Iter:  10  F: -7041.024942432696662  |grad|_K:  7.227e-06  alpha:  3.294e-01  linmin:  2.669e-06  t[s]:   1815.42
	Linear fluid (dielectric constant: 64) occupying 0.842045 of unit cell:	Completed after 25 iterations at t[s]:   1820.61
	Linear fluid (dielectric constant: 64) occupying 0.842054 of unit cell:	Completed after 13 iterations at t[s]:   1824.64
	FillingsUpdate:  mu: -0.106323552  nElectrons: 1122.000000
	SubspaceRotationAdjust: set factor to 0.105
ElecMinimize: Iter:  11  F: -7041.028522995832645  |grad|_K:  5.725e-06  alpha:  3.962e-01  linmin: -5.627e-06  t[s]:   1830.25
	Linear fluid (dielectric constant: 64) occupying 0.842127 of unit cell:	Completed after 22 iterations at t[s]:   1835.37
	Linear fluid (dielectric constant: 64) occupying 0.842112 of unit cell:	Completed after 11 iterations at t[s]:   1839.27
	FillingsUpdate:  mu: -0.105638796  nElectrons: 1122.000000
	SubspaceRotationAdjust: set factor to 0.0999
ElecMinimize: Iter:  12  F: -7041.030296455340249  |grad|_K:  4.710e-06  alpha:  3.114e-01  linmin: -1.663e-06  t[s]:   1852.21
	Linear fluid (dielectric constant: 64) occupying 0.842172 of unit cell:	Completed after 19 iterations at t[s]:   1857.23
	Linear fluid (dielectric constant: 64) occupying 0.842187 of unit cell:	Completed after 11 iterations at t[s]:   1861.20
	FillingsUpdate:  mu: -0.106222454  nElectrons: 1122.000000
	SubspaceRotationAdjust: set factor to 0.0972
ElecMinimize: Iter:  13  F: -7041.031795166500160  |grad|_K:  3.550e-06  alpha:  3.897e-01  linmin:  2.412e-06  t[s]:   1866.82
	Linear fluid (dielectric constant: 64) occupying 0.842236 of unit cell:	Completed after 19 iterations at t[s]:   1871.86
	Linear fluid (dielectric constant: 64) occupying 0.842244 of unit cell:	Completed after 5 iterations at t[s]:   1875.63
	FillingsUpdate:  mu: -0.105766354  nElectrons: 1122.000000
	SubspaceRotationAdjust: set factor to 0.103
ElecMinimize: Iter:  14  F: -7041.032788461288874  |grad|_K:  3.209e-06  alpha:  4.546e-01  linmin: -2.168e-05  t[s]:   1881.31
	Linear fluid (dielectric constant: 64) occupying 0.842285 of unit cell:	Completed after 20 iterations at t[s]:   1886.45
	Linear fluid (dielectric constant: 64) occupying 0.842277 of unit cell:	Completed after 10 iterations at t[s]:   1890.36
	FillingsUpdate:  mu: -0.105351165  nElectrons: 1122.000000
	SubspaceRotationAdjust: set factor to 0.102
ElecMinimize: Iter:  15  F: -7041.033449542474045  |grad|_K:  3.025e-06  alpha:  3.687e-01  linmin: -8.760e-06  t[s]:   1896.06
	Linear fluid (dielectric constant: 64) occupying 0.842297 of unit cell:	Completed after 18 iterations at t[s]:   1901.08
	Linear fluid (dielectric constant: 64) occupying 0.842301 of unit cell:	Completed after 5 iterations at t[s]:   1904.94
	FillingsUpdate:  mu: -0.105089000  nElectrons: 1122.000000
	SubspaceRotationAdjust: set factor to 0.101
ElecMinimize: Iter:  16  F: -7041.034148246342738  |grad|_K:  2.781e-06  alpha:  4.393e-01  linmin: -5.040e-06  t[s]:   1910.64
	Linear fluid (dielectric constant: 64) occupying 0.842315 of unit cell:	Completed after 19 iterations at t[s]:   1915.65
	Linear fluid (dielectric constant: 64) occupying 0.842314 of unit cell:	Completed after 2 iterations at t[s]:   1919.42
	FillingsUpdate:  mu: -0.104118751  nElectrons: 1122.000000
	SubspaceRotationAdjust: set factor to 0.103
ElecMinimize: Iter:  17  F: -7041.034714369256108  |grad|_K:  2.605e-06  alpha:  4.216e-01  linmin: -1.935e-06  t[s]:   1925.16
	Linear fluid (dielectric constant: 64) occupying 0.842319 of unit cell:	Completed after 15 iterations at t[s]:   1930.15
	Linear fluid (dielectric constant: 64) occupying 0.842319 of unit cell:	Completed after 3 iterations at t[s]:   1933.91
	FillingsUpdate:  mu: -0.104486924  nElectrons: 1122.000000
	SubspaceRotationAdjust: set factor to 0.103
ElecMinimize: Iter:  18  F: -7041.035238713873696  |grad|_K:  2.512e-06  alpha:  4.454e-01  linmin: -8.719e-06  t[s]:   1939.61
	Linear fluid (dielectric constant: 64) occupying 0.842318 of unit cell:	Completed after 18 iterations at t[s]:   1944.66
	Linear fluid (dielectric constant: 64) occupying 0.842318 of unit cell:	Completed after 1 iterations at t[s]:   1948.43
	FillingsUpdate:  mu: -0.104481779  nElectrons: 1122.000000
	SubspaceRotationAdjust: set factor to 0.0976
ElecMinimize: Iter:  19  F: -7041.035713998117899  |grad|_K:  2.224e-06  alpha:  4.318e-01  linmin:  1.486e-05  t[s]:   1954.05
	Linear fluid (dielectric constant: 64) occupying 0.842310 of unit cell:	Completed after 15 iterations at t[s]:   1959.04
	Linear fluid (dielectric constant: 64) occupying 0.842311 of unit cell:	Completed after 5 iterations at t[s]:   1962.85
	FillingsUpdate:  mu: -0.104405097  nElectrons: 1122.000000
	SubspaceRotationAdjust: set factor to 0.0917
ElecMinimize: Iter:  20  F: -7041.036024372134307  |grad|_K:  2.049e-06  alpha:  3.672e-01  linmin: -1.734e-06  t[s]:   1968.46
	Linear fluid (dielectric constant: 64) occupying 0.842296 of unit cell:	Completed after 13 iterations at t[s]:   1973.40
	Linear fluid (dielectric constant: 64) occupying 0.842294 of unit cell:	Completed after 3 iterations at t[s]:   1977.19
	FillingsUpdate:  mu: -0.104686506  nElectrons: 1122.000000
	SubspaceRotationAdjust: set factor to 0.0902
ElecMinimize: Iter:  21  F: -7041.036315993582321  |grad|_K:  1.575e-06  alpha:  4.004e-01  linmin: -3.734e-06  t[s]:   1982.84
	Linear fluid (dielectric constant: 64) occupying 0.842280 of unit cell:	Completed after 12 iterations at t[s]:   1987.76
	Linear fluid (dielectric constant: 64) occupying 0.842278 of unit cell:	Completed after 3 iterations at t[s]:   1991.52
	FillingsUpdate:  mu: -0.104231378  nElectrons: 1122.000000
	SubspaceRotationAdjust: set factor to 0.0877
ElecMinimize: Iter:  22  F: -7041.036505081960968  |grad|_K:  1.390e-06  alpha:  4.394e-01  linmin: -5.148e-06  t[s]:   1997.23
	Linear fluid (dielectric constant: 64) occupying 0.842263 of unit cell:	Completed after 12 iterations at t[s]:   2002.16
	Linear fluid (dielectric constant: 64) occupying 0.842267 of unit cell:	Completed after 4 iterations at t[s]:   2005.95
	FillingsUpdate:  mu: -0.104323516  nElectrons: 1122.000000
	SubspaceRotationAdjust: set factor to 0.0851
ElecMinimize: Iter:  23  F: -7041.036618992773583  |grad|_K:  1.066e-06  alpha:  3.397e-01  linmin:  1.742e-06  t[s]:   2011.64
	Linear fluid (dielectric constant: 64) occupying 0.842262 of unit cell:	Completed after 7 iterations at t[s]:   2016.47
	Linear fluid (dielectric constant: 64) occupying 0.842261 of unit cell:	Completed after 4 iterations at t[s]:   2020.24
	FillingsUpdate:  mu: -0.104341075  nElectrons: 1122.000000
	SubspaceRotationAdjust: set factor to 0.0842
ElecMinimize: Iter:  24  F: -7041.036702051242173  |grad|_K:  9.231e-07  alpha:  4.244e-01  linmin:  8.790e-06  t[s]:   2025.94
	Linear fluid (dielectric constant: 64) occupying 0.842259 of unit cell:	Completed after 11 iterations at t[s]:   2030.86
	Linear fluid (dielectric constant: 64) occupying 0.842259 of unit cell:	Completed after 3 iterations at t[s]:   2034.64
	FillingsUpdate:  mu: -0.104204674  nElectrons: 1122.000000
	SubspaceRotationAdjust: set factor to 0.0832
ElecMinimize: Iter:  25  F: -7041.036754232025487  |grad|_K:  7.500e-07  alpha:  3.593e-01  linmin: -1.485e-05  t[s]:   2040.24
	Linear fluid (dielectric constant: 64) occupying 0.842259 of unit cell:	Completed after 5 iterations at t[s]:   2045.04
	Linear fluid (dielectric constant: 64) occupying 0.842259 of unit cell:	Completed after 0 iterations at t[s]:   2048.66
	FillingsUpdate:  mu: -0.104375253  nElectrons: 1122.000000
	SubspaceRotationAdjust: set factor to 0.0854
ElecMinimize: Iter:  26  F: -7041.036789719034459  |grad|_K:  5.961e-07  alpha:  3.602e-01  linmin: -1.900e-05  t[s]:   2054.33
	Linear fluid (dielectric constant: 64) occupying 0.842261 of unit cell:	Completed after 5 iterations at t[s]:   2059.13
	Linear fluid (dielectric constant: 64) occupying 0.842261 of unit cell:	Completed after 3 iterations at t[s]:   2062.88
	FillingsUpdate:  mu: -0.104257951  nElectrons: 1122.000000
	SubspaceRotationAdjust: set factor to 0.0917
ElecMinimize: Iter:  27  F: -7041.036818147053964  |grad|_K:  5.336e-07  alpha:  4.567e-01  linmin: -4.417e-06  t[s]:   2068.57
	Linear fluid (dielectric constant: 64) occupying 0.842263 of unit cell:	Completed after 5 iterations at t[s]:   2073.36
	Linear fluid (dielectric constant: 64) occupying 0.842263 of unit cell:	Completed after 0 iterations at t[s]:   2076.99
	FillingsUpdate:  mu: -0.104304646  nElectrons: 1122.000000
	SubspaceRotationAdjust: set factor to 0.09
ElecMinimize: Iter:  28  F: -7041.036838406820607  |grad|_K:  5.774e-07  alpha:  4.068e-01  linmin:  4.958e-05  t[s]:   2082.62
	Linear fluid (dielectric constant: 64) occupying 0.842267 of unit cell:	Completed after 5 iterations at t[s]:   2087.41
	Linear fluid (dielectric constant: 64) occupying 0.842266 of unit cell:	Completed after 3 iterations at t[s]:   2091.15
	FillingsUpdate:  mu: -0.104235647  nElectrons: 1122.000000
	SubspaceRotationAdjust: set factor to 0.0897
ElecMinimize: Iter:  29  F: -7041.036855223159364  |grad|_K:  4.216e-07  alpha:  3.261e-01  linmin: -4.544e-05  t[s]:   2096.79
	Linear fluid (dielectric constant: 64) occupying 0.842268 of unit cell:	Completed after 5 iterations at t[s]:   2101.60
	Linear fluid (dielectric constant: 64) occupying 0.842269 of unit cell:	Completed after 4 iterations at t[s]:   2105.36
	FillingsUpdate:  mu: -0.104187585  nElectrons: 1122.000000
	SubspaceRotationAdjust: set factor to 0.0948
ElecMinimize: Iter:  30  F: -7041.036872069940728  |grad|_K:  3.969e-07  alpha:  5.090e-01  linmin: -4.669e-05  t[s]:   2111.02
	Linear fluid (dielectric constant: 64) occupying 0.842272 of unit cell:	Completed after 5 iterations at t[s]:   2115.81
	Linear fluid (dielectric constant: 64) occupying 0.842271 of unit cell:	Completed after 3 iterations at t[s]:   2119.60
	FillingsUpdate:  mu: -0.104188010  nElectrons: 1122.000000
	SubspaceRotationAdjust: set factor to 0.0929
ElecMinimize: Iter:  31  F: -7041.036882220115331  |grad|_K:  3.762e-07  alpha:  3.641e-01  linmin: -5.411e-06  t[s]:   2125.17
	Linear fluid (dielectric constant: 64) occupying 0.842273 of unit cell:	Completed after 4 iterations at t[s]:   2129.95
	Linear fluid (dielectric constant: 64) occupying 0.842273 of unit cell:	Completed after 0 iterations at t[s]:   2133.59
	FillingsUpdate:  mu: -0.104199377  nElectrons: 1122.000000
	SubspaceRotationAdjust: set factor to 0.0927
ElecMinimize: Iter:  32  F: -7041.036891752395604  |grad|_K:  3.061e-07  alpha:  3.833e-01  linmin: -4.638e-05  t[s]:   2139.22
	Linear fluid (dielectric constant: 64) occupying 0.842274 of unit cell:	Completed after 3 iterations at t[s]:   2143.99
	Linear fluid (dielectric constant: 64) occupying 0.842274 of unit cell:	Completed after 0 iterations at t[s]:   2163.80
	FillingsUpdate:  mu: -0.104166585  nElectrons: 1122.000000
	SubspaceRotationAdjust: set factor to 0.101
ElecMinimize: Iter:  33  F: -7041.036899662900396  |grad|_K:  2.650e-07  alpha:  4.503e-01  linmin: -3.186e-05  t[s]:   2169.36
	Linear fluid (dielectric constant: 64) occupying 0.842275 of unit cell:	Completed after 3 iterations at t[s]:   2174.08
	Linear fluid (dielectric constant: 64) occupying 0.842275 of unit cell:	Completed after 0 iterations at t[s]:   2177.76
	FillingsUpdate:  mu: -0.104200039  nElectrons: 1122.000000
	SubspaceRotationAdjust: set factor to 0.106
ElecMinimize: Iter:  34  F: -7041.036904537947521  |grad|_K:  2.536e-07  alpha:  3.816e-01  linmin:  3.257e-06  t[s]:   2183.32
	Linear fluid (dielectric constant: 64) occupying 0.842275 of unit cell:	Completed after 3 iterations at t[s]:   2188.11
	Linear fluid (dielectric constant: 64) occupying 0.842275 of unit cell:	Completed after 0 iterations at t[s]:   2191.80
	FillingsUpdate:  mu: -0.104163548  nElectrons: 1122.000000
	SubspaceRotationAdjust: set factor to 0.1
ElecMinimize: Iter:  35  F: -7041.036907652116497  |grad|_K:  2.815e-07  alpha:  2.728e-01  linmin:  5.370e-05  t[s]:   2197.37
	Linear fluid (dielectric constant: 64) occupying 0.842275 of unit cell:	Completed after 3 iterations at t[s]:   2202.11
	Linear fluid (dielectric constant: 64) occupying 0.842275 of unit cell:	Completed after 0 iterations at t[s]:   2205.81
	FillingsUpdate:  mu: -0.104158168  nElectrons: 1122.000000
	SubspaceRotationAdjust: set factor to 0.0962
ElecMinimize: Iter:  36  F: -7041.036909895116878  |grad|_K:  1.686e-07  alpha:  2.058e-01  linmin: -1.891e-05  t[s]:   2211.37
	Linear fluid (dielectric constant: 64) occupying 0.842275 of unit cell:	Completed after 0 iterations at t[s]:   2216.05
	Linear fluid (dielectric constant: 64) occupying 0.842275 of unit cell:	Completed after 3 iterations at t[s]:   2219.79
	FillingsUpdate:  mu: -0.104180548  nElectrons: 1122.000000
	SubspaceRotationAdjust: set factor to 0.0954
ElecMinimize: Iter:  37  F: -7041.036911692769536  |grad|_K:  2.029e-07  alpha:  5.675e-01  linmin:  1.023e-04  t[s]:   2225.35
	Linear fluid (dielectric constant: 64) occupying 0.842274 of unit cell:	Completed after 4 iterations at t[s]:   2230.15
	Linear fluid (dielectric constant: 64) occupying 0.842275 of unit cell:	Completed after 0 iterations at t[s]:   2233.86
	FillingsUpdate:  mu: -0.104156477  nElectrons: 1122.000000
	SubspaceRotationAdjust: set factor to 0.0939
ElecMinimize: Iter:  38  F: -7041.036913543164701  |grad|_K:  1.987e-07  alpha:  2.881e-01  linmin:  6.725e-05  t[s]:   2239.48
	Linear fluid (dielectric constant: 64) occupying 0.842274 of unit cell:	Completed after 2 iterations at t[s]:   2244.22
	Linear fluid (dielectric constant: 64) occupying 0.842274 of unit cell:	Completed after 0 iterations at t[s]:   2247.90
	FillingsUpdate:  mu: -0.104173769  nElectrons: 1122.000000
	SubspaceRotationAdjust: set factor to 0.0873
ElecMinimize: Iter:  39  F: -7041.036914041027558  |grad|_K:  1.444e-07  alpha:  1.648e-01  linmin: -2.584e-05  t[s]:   2253.58
	Linear fluid (dielectric constant: 64) occupying 0.842274 of unit cell:	Completed after 0 iterations at t[s]:   2258.26
	Linear fluid (dielectric constant: 64) occupying 0.842274 of unit cell:	Completed after 2 iterations at t[s]:   2261.94
	FillingsUpdate:  mu: -0.104171753  nElectrons: 1122.000000
	SubspaceRotationAdjust: set factor to 0.0865
ElecMinimize: Iter:  40  F: -7041.036914782836902  |grad|_K:  1.346e-07  alpha:  3.798e-01  linmin:  1.164e-04  t[s]:   2267.59
	Linear fluid (dielectric constant: 64) occupying 0.842273 of unit cell:	Completed after 0 iterations at t[s]:   2272.30
	Linear fluid (dielectric constant: 64) occupying 0.842273 of unit cell:	Completed after 0 iterations at t[s]:   2275.99
	FillingsUpdate:  mu: -0.104167375  nElectrons: 1122.000000
	SubspaceRotationAdjust: set factor to 0.0931
ElecMinimize: Iter:  41  F: -7041.036915359972227  |grad|_K:  1.149e-07  alpha:  3.031e-01  linmin: -1.686e-05  t[s]:   2281.59
	Linear fluid (dielectric constant: 64) occupying 0.842273 of unit cell:	Completed after 2 iterations at t[s]:   2286.29
	Linear fluid (dielectric constant: 64) occupying 0.842273 of unit cell:	Completed after 0 iterations at t[s]:   2289.98
	FillingsUpdate:  mu: -0.104156164  nElectrons: 1122.000000
	SubspaceRotationAdjust: set factor to 0.0997
ElecMinimize: Iter:  42  F: -7041.036915674942975  |grad|_K:  1.012e-07  alpha:  2.054e-01  linmin: -3.548e-05  t[s]:   2295.59
	Linear fluid (dielectric constant: 64) occupying 0.842273 of unit cell:	Completed after 0 iterations at t[s]:   2300.24
	Linear fluid (dielectric constant: 64) occupying 0.842273 of unit cell:	Completed after 0 iterations at t[s]:   2303.87
	FillingsUpdate:  mu: -0.104155264  nElectrons: 1122.000000
	SubspaceRotationAdjust: set factor to 0.119
ElecMinimize: Iter:  43  F: -7041.036916302936334  |grad|_K:  9.856e-08  alpha:  3.185e-01  linmin:  1.762e-07  t[s]:   2309.49
	Linear fluid (dielectric constant: 64) occupying 0.842273 of unit cell:	Completed after 3 iterations at t[s]:   2314.24
	Linear fluid (dielectric constant: 64) occupying 0.842273 of unit cell:	Completed after 0 iterations at t[s]:   2317.92
	FillingsUpdate:  mu: -0.104184954  nElectrons: 1122.000000
	SubspaceRotationAdjust: set factor to 0.112
ElecMinimize: Iter:  44  F: -7041.036916384856340  |grad|_K:  1.982e-07  alpha:  8.656e-02  linmin:  1.210e-04  t[s]:   2323.50
ElecMinimize: 	Bad step direction: g.d > 0.
ElecMinimize: 	Undoing step.
	Linear fluid (dielectric constant: 64) occupying 0.842273 of unit cell:	Completed after 0 iterations at t[s]:   2328.06
ElecMinimize: 	Step failed: resetting search direction.
	FillingsUpdate:  mu: -0.104184954  nElectrons: 1122.000000
	SubspaceRotationAdjust: set factor to 0.144
ElecMinimize: Iter:  45  F: -7041.036916384883625  |grad|_K:  1.965e-07  alpha:  0.000e+00
	Linear fluid (dielectric constant: 64) occupying 0.842273 of unit cell:	Completed after 3 iterations at t[s]:   2338.34
	Linear fluid (dielectric constant: 64) occupying 0.842273 of unit cell:	Completed after 0 iterations at t[s]:   2342.09
ElecMinimize: 	Step increased F by 8.495226e-08, reducing alpha to 4.287514e-03.
	Linear fluid (dielectric constant: 64) occupying 0.842273 of unit cell:	Completed after 0 iterations at t[s]:   2350.97
ElecMinimize: 	Step increased F by 1.854714e-07, reducing alpha to 4.287514e-04.
	Linear fluid (dielectric constant: 64) occupying 0.842273 of unit cell:	Completed after 0 iterations at t[s]:   2359.79
ElecMinimize: 	Step increased F by 1.971057e-07, reducing alpha to 4.287514e-05.
ElecMinimize: 	Step failed to reduce F after 3 attempts. Quitting step.
ElecMinimize: 	Undoing step.
	Linear fluid (dielectric constant: 64) occupying 0.842273 of unit cell:	Completed after 0 iterations at t[s]:   2368.70
ElecMinimize: 	Step failed along negative gradient direction.
ElecMinimize: Probably at roundoff error limit. (Stopping)
Setting wave functions to eigenvectors of Hamiltonian
Single-point solvation energy estimate, DeltaF = -0.566079702391107

# Ionic positions in cartesian coordinates:
ion Ni  32.181155145269997   0.000000000000000  10.727052344999993 0
ion Ni   5.363526172499999   0.000000000000000   5.363526172499998 0
ion Ni  32.181155145269997   5.363526172499999   5.363526172499998 0
ion Ni   5.363526172499999   5.363526172499999  10.727052344999993 0
ion Ni  32.181155145269997  10.727052344999999  10.727052344999993 0
ion Ni  32.181155145269997  21.454102800270000  10.727052344999993 0
ion Ni   5.363526172499999  21.454102800270000   5.363526172499998 0
ion Ni   5.363526172499999  10.727052344999999   5.363526172499998 0
ion Ni  32.181155145269997  16.090578517499999   5.363526172499998 0
ion Ni  32.181155145269997  26.817628972769999   5.363526172499998 0
ion Ni   5.363526172499999  26.817628972769999  10.727052344999993 0
ion Ni   5.363526172499999  16.090578517499999  10.727052344999993 0
ion Ni  10.727052344999999   0.000000000000000  10.727052344999993 0
ion Ni  21.454102800270000   0.000000000000000  10.727052344999993 0
ion Ni  21.454102800270000   5.363526172499999   5.363526172499998 0
ion Ni  10.727052344999999   5.363526172499999   5.363526172499998 0
ion Ni  16.090578517499999   5.363526172499999  10.727052344999993 0
ion Ni  26.817628972769999   5.363526172499999  10.727052344999993 0
ion Ni  26.817628972769999   0.000000000000000   5.363526172499998 0
ion Ni  16.090578517499999   0.000000000000000   5.363526172499998 0
ion Ni  10.727052344999999  10.727052344999999  10.727052344999993 0
ion Ni  21.454102800270000  21.454102800270000  10.727052344999993 0
ion Ni  26.817628972769999  21.454102800270000   5.363526172499998 0
ion Ni  16.090578517499999  10.727052344999999   5.363526172499998 0
ion Ni  21.454102800270000  16.090578517499999   5.363526172499998 0
ion Ni  10.727052344999999  26.817628972769999   5.363526172499998 0
ion Ni  16.090578517499999  26.817628972769999  10.727052344999993 0
ion Ni  26.817628972769999  16.090578517499999  10.727052344999993 0
ion Ni  10.727052344999999  21.454102800270000  10.727052344999993 0
ion Ni  21.454102800270000  10.727052344999999  10.727052344999981 0
ion Ni  26.817628972769999  10.727052344999999   5.363526172499998 0
ion Ni  16.090578517499999  21.454102800270000   5.363526172499998 0
ion Ni  21.454102800270000  26.817628972769999   5.363526172499998 0
ion Ni  10.727052344999999  16.090578517499999   5.363526172499998 0
ion Ni  16.090578517499999  16.090578517499999  10.727052344999993 0
ion Ni  26.817628972769999  26.817628972769999  10.727052344999993 0
ion S   4.232241197730000   4.232241197730000   4.232250646379994 0
ion S  27.948915837270000  27.948915837270000   6.494801698619989 0
ion S   1.131284974770000  27.948915837270000   9.595776818879989 0
ion S   9.595765480499999   4.232241197730000   1.131275526120000 0
ion S  27.948915837270000   9.595765480499999   1.131275526120000 0
ion S   4.232241197730000   1.131284974770000   9.595776818879989 0
ion S   9.595765480499999   1.131284974770000   6.494801698619989 0
ion S   1.131284974770000   9.595765480499999   4.232250646379994 0
ion S   4.232241197730000  14.959291652999985   4.232250646379994 0
ion S  27.948915837270000  17.221863492269968   6.494801698619989 0
ion S   1.131284974770000  17.221863492269968   9.595776818879989 0
ion S   9.595765480499999  14.959291652999985   1.131275526120000 0
ion S  27.948915837270000  20.322817825500000   1.131275526120000 0
ion S   4.232241197730000  22.585389664769998   9.595776818879989 0
ion S   9.595765480499999  22.585389664769998   6.494801698619989 0
ion S   1.131284974770000  20.322817825500000   4.232250646379994 0
ion S  14.959291652999985   4.232250646380000   4.232241197729998 0
ion S  17.221863492269968  27.948904498889998   6.494811147269995 0
ion S  17.221863492269968   9.595776818879999   1.131284974770000 0
ion S  14.959291652999985   1.131275526120000   9.595765480499988 0
ion S  20.322817825500000   1.131275526120000   6.494811147269995 0
ion S  22.585389664769998   9.595776818879999   4.232241197729998 0
ion S  22.585389664769998  27.948904498889998   9.595765480499988 0
ion S  20.322817825500000   4.232250646380000   1.131284974770000 0
ion S   4.232241197730000  25.686343997999970   4.232250646379994 0
ion S  27.948915837270000   6.494811147269997   6.494801698619989 0
ion S   1.131284974770000   6.494811147269997   9.595776818879989 0
ion S   9.595765480499999  25.686343997999970   1.131275526120000 0
ion S  27.948915837270000  31.049870170499968   1.131275526120000 0
ion S   4.232241197730000  11.858337319769999   9.595776818879989 0
ion S   9.595765480499999  11.858337319769999   6.494801698619989 0
ion S   1.131284974770000  31.049870170499968   4.232250646379994 0
ion S  25.686343997999970   4.232250646380000   4.232241197729998 0
ion S   6.494811147269997  27.948904498889998   6.494811147269995 0
ion S   6.494811147269997   9.595776818879999   1.131284974770000 0
ion S  25.686343997999970   1.131275526120000   9.595765480499988 0
ion S  31.049870170499968   1.131275526120000   6.494811147269995 0
ion S  11.858337319769999   9.595776818879999   4.232241197729998 0
ion S  11.858337319769999  27.948904498889998   9.595765480499988 0
ion S  31.049870170499968   4.232250646380000   1.131284974770000 0
ion S  14.959291652999985  14.959291652999985   4.232250646379994 0
ion S  17.221863492269968  17.221863492269968   6.494801698619989 0
ion S  22.585389664769998  17.221863492269968   9.595776818879989 0
ion S  20.322817825500000  14.959291652999985   1.131275526120000 0
ion S  17.221863492269968  20.322817825500000   1.131275526120000 0
ion S  14.959291652999985  22.585389664769998   9.595776818879989 0
ion S  20.322817825500000  22.585389664769998   6.494801698619989 0
ion S  22.585389664769998  20.322817825500000   4.232250646379994 0
ion S  14.959291652999985  25.686343997999970   4.232250646379994 0
ion S  17.221863492269968   6.494811147269997   6.494801698619989 0
ion S  22.585389664769998   6.494811147269997   9.595776818879989 0
ion S  20.322817825500000  25.686343997999970   1.131275526120000 0
ion S  17.221863492269968  31.049870170499968   1.131275526120000 0
[...]
ElecMinimize: 	Step increased F by 1.776625e-07, reducing alpha to 2.652605e-03.
	Linear fluid (dielectric constant: 64) occupying 0.842256 of unit cell:	Completed after 0 iterations at t[s]:  32420.27
	FillingsUpdate:  mu: -0.103932347  nElectrons: 1122.000000
	SubspaceRotationAdjust: set factor to 0.155
ElecMinimize: Iter:  20  F: -7041.038560412350307  |grad|_K:  2.748e-07  alpha:  2.653e-03  linmin:  4.205e-03  t[s]:  32425.79
ElecMinimize: 	Bad step direction: g.d > 0.
ElecMinimize: 	Undoing step.
	Linear fluid (dielectric constant: 64) occupying 0.842256 of unit cell:	Completed after 0 iterations at t[s]:  32430.33
ElecMinimize: 	Step failed: resetting search direction.
	FillingsUpdate:  mu: -0.103932347  nElectrons: 1122.000000
	SubspaceRotationAdjust: set factor to 0.205
ElecMinimize: Iter:  21  F: -7041.038560412381230  |grad|_K:  2.706e-07  alpha:  0.000e+00
	Linear fluid (dielectric constant: 64) occupying 0.842256 of unit cell:	Completed after 2 iterations at t[s]:  32440.51
	Linear fluid (dielectric constant: 64) occupying 0.842256 of unit cell:	Completed after 0 iterations at t[s]:  32444.20
ElecMinimize: 	Step increased F by 6.378277e-07, reducing alpha to 1.328823e-05.
	Linear fluid (dielectric constant: 64) occupying 0.842256 of unit cell:	Completed after 0 iterations at t[s]:  32453.04
ElecMinimize: 	Step increased F by 6.393620e-07, reducing alpha to 1.328823e-06.
	Linear fluid (dielectric constant: 64) occupying 0.842256 of unit cell:	Completed after 0 iterations at t[s]:  32461.80
ElecMinimize: 	Step increased F by 6.395239e-07, reducing alpha to 1.328823e-07.
ElecMinimize: 	Step failed to reduce F after 3 attempts. Quitting step.
ElecMinimize: 	Undoing step.
	Linear fluid (dielectric constant: 64) occupying 0.842256 of unit cell:	Completed after 0 iterations at t[s]:  32470.53
ElecMinimize: 	Step failed along negative gradient direction.
ElecMinimize: Probably at roundoff error limit. (Stopping)
Setting wave functions to eigenvectors of Hamiltonian

# Ionic positions in cartesian coordinates:
ion Ni  32.181155145269997   0.000000000000000  10.727052344999993 0
ion Ni   5.363526172499999   0.000000000000000   5.363526172499998 0
ion Ni  32.181155145269997   5.363526172499999   5.363526172499998 0
ion Ni   5.363526172499999   5.363526172499999  10.727052344999993 0
ion Ni  32.181155145269997  10.727052344999999  10.727052344999993 0
ion Ni  32.181155145269997  21.454102800270000  10.727052344999993 0
ion Ni   5.363526172499999  21.454102800270000   5.363526172499998 0
ion Ni   5.363526172499999  10.727052344999999   5.363526172499998 0
ion Ni  32.181155145269997  16.090578517499999   5.363526172499998 0
ion Ni  32.181155145269997  26.817628972769999   5.363526172499998 0
ion Ni   5.363526172499999  26.817628972769999  10.727052344999993 0
ion Ni   5.363526172499999  16.090578517499999  10.727052344999993 0
ion Ni  10.727052344999999   0.000000000000000  10.727052344999993 0
ion Ni  21.454102800270000   0.000000000000000  10.727052344999993 0
ion Ni  21.454102800270000   5.363526172499999   5.363526172499998 0
ion Ni  10.727052344999999   5.363526172499999   5.363526172499998 0
ion Ni  16.090578517499999   5.363526172499999  10.727052344999993 0
ion Ni  26.817628972769999   5.363526172499999  10.727052344999993 0
ion Ni  26.817628972769999   0.000000000000000   5.363526172499998 0
ion Ni  16.090578517499999   0.000000000000000   5.363526172499998 0
ion Ni  10.727052344999999  10.727052344999999  10.727052344999993 0
ion Ni  21.454102800270000  21.454102800270000  10.727052344999993 0
ion Ni  26.817628972769999  21.454102800270000   5.363526172499998 0
ion Ni  16.090578517499999  10.727052344999999   5.363526172499998 0
ion Ni  21.454102800270000  16.090578517499999   5.363526172499998 0
ion Ni  10.727052344999999  26.817628972769999   5.363526172499998 0
ion Ni  16.090578517499999  26.817628972769999  10.727052344999993 0
ion Ni  26.817628972769999  16.090578517499999  10.727052344999993 0
ion Ni  10.727052344999999  21.454102800270000  10.727052344999993 0
ion Ni  21.454102800270000  10.727052344999999  10.727052344999981 0
ion Ni  26.817628972769999  10.727052344999999   5.363526172499998 0
ion Ni  16.090578517499999  21.454102800270000   5.363526172499998 0
ion Ni  21.454102800270000  26.817628972769999   5.363526172499998 0
ion Ni  10.727052344999999  16.090578517499999   5.363526172499998 0
ion Ni  16.090578517499999  16.090578517499999  10.727052344999993 0
ion Ni  26.817628972769999  26.817628972769999  10.727052344999993 0
ion S   4.232241197730000   4.232241197730000   4.232250646379994 0
ion S  27.948915837270000  27.948915837270000   6.494801698619989 0
ion S   1.131284974770000  27.948915837270000   9.595776818879989 0
ion S   9.595765480499999   4.232241197730000   1.131275526120000 0
ion S  27.948915837270000   9.595765480499999   1.131275526120000 0
ion S   4.232241197730000   1.131284974770000   9.595776818879989 0
ion S   9.595765480499999   1.131284974770000   6.494801698619989 0
ion S   1.131284974770000   9.595765480499999   4.232250646379994 0
ion S   4.232241197730000  14.959291652999985   4.232250646379994 0
ion S  27.948915837270000  17.221863492269968   6.494801698619989 0
ion S   1.131284974770000  17.221863492269968   9.595776818879989 0
ion S   9.595765480499999  14.959291652999985   1.131275526120000 0
ion S  27.948915837270000  20.322817825500000   1.131275526120000 0
ion S   4.232241197730000  22.585389664769998   9.595776818879989 0
ion S   9.595765480499999  22.585389664769998   6.494801698619989 0
ion S   1.131284974770000  20.322817825500000   4.232250646379994 0
ion S  14.959291652999985   4.232250646380000   4.232241197729998 0
ion S  17.221863492269968  27.948904498889998   6.494811147269995 0
ion S  17.221863492269968   9.595776818879999   1.131284974770000 0
ion S  14.959291652999985   1.131275526120000   9.595765480499988 0
ion S  20.322817825500000   1.131275526120000   6.494811147269995 0
ion S  22.585389664769998   9.595776818879999   4.232241197729998 0
ion S  22.585389664769998  27.948904498889998   9.595765480499988 0
ion S  20.322817825500000   4.232250646380000   1.131284974770000 0
ion S   4.232241197730000  25.686343997999970   4.232250646379994 0
ion S  27.948915837270000   6.494811147269997   6.494801698619989 0
ion S   1.131284974770000   6.494811147269997   9.595776818879989 0
ion S   9.595765480499999  25.686343997999970   1.131275526120000 0
ion S  27.948915837270000  31.049870170499968   1.131275526120000 0
ion S   4.232241197730000  11.858337319769999   9.595776818879989 0
ion S   9.595765480499999  11.858337319769999   6.494801698619989 0
ion S   1.131284974770000  31.049870170499968   4.232250646379994 0
ion S  25.686343997999970   4.232250646380000   4.232241197729998 0
ion S   6.494811147269997  27.948904498889998   6.494811147269995 0
ion S   6.494811147269997   9.595776818879999   1.131284974770000 0
ion S  25.686343997999970   1.131275526120000   9.595765480499988 0
ion S  31.049870170499968   1.131275526120000   6.494811147269995 0
ion S  11.858337319769999   9.595776818879999   4.232241197729998 0
ion S  11.858337319769999  27.948904498889998   9.595765480499988 0
ion S  31.049870170499968   4.232250646380000   1.131284974770000 0
ion S  14.959291652999985  14.959291652999985   4.232250646379994 0
ion S  17.221863492269968  17.221863492269968   6.494801698619989 0
ion S  22.585389664769998  17.221863492269968   9.595776818879989 0
ion S  20.322817825500000  14.959291652999985   1.131275526120000 0
ion S  17.221863492269968  20.322817825500000   1.131275526120000 0
ion S  14.959291652999985  22.585389664769998   9.595776818879989 0
ion S  20.322817825500000  22.585389664769998   6.494801698619989 0
ion S  22.585389664769998  20.322817825500000   4.232250646379994 0
ion S  14.959291652999985  25.686343997999970   4.232250646379994 0
ion S  17.221863492269968   6.494811147269997   6.494801698619989 0
ion S  22.585389664769998   6.494811147269997   9.595776818879989 0
ion S  20.322817825500000  25.686343997999970   1.131275526120000 0
ion S  17.221863492269968  31.049870170499968   1.131275526120000 0
ion S  14.959291652999985  11.858337319769999   9.595776818879989 0
ion S  20.322817825500000  11.858337319769999   6.494801698619989 0
ion S  22.585389664769998  31.049870170499968   4.232250646379994 0
ion S  25.686343997999970  14.959291652999985   4.232250646379994 0
ion S   6.494811147269997  17.221863492269968   6.494801698619989 0
ion S  11.858337319769999  17.221863492269968   9.595776818879989 0
ion S  31.049870170499968  14.959291652999985   1.131275526120000 0
ion S   6.494811147269997  20.322817825500000   1.131275526120000 0
ion S  25.686343997999970  22.585389664769998   9.595776818879989 0
ion S  31.049870170499968  22.585389664769998   6.494801698619989 0
ion S  11.858337319769999  20.322817825500000   4.232250646379994 0
ion S  25.686343997999970  25.686343997999970   4.232250646379994 0
ion S   6.494811147269997   6.494811147269997   6.494801698619989 0
ion S  11.858337319769999   6.494811147269997   9.595776818879989 0
ion S  31.049870170499968  25.686343997999970   1.131275526120000 0
ion S   6.494811147269997  31.049870170499968   1.131275526120000 0
ion S  25.686343997999970  11.858337319769999   9.595776818879989 0
ion S  31.049870170499968  11.858337319769999   6.494801698619989 0
ion S  11.858337319769999  31.049870170499968   4.232250646379994 0
ion S  17.437463466861939  20.282332310729064  11.860284196745415 1
ion S  20.134641152185885  14.687215708893396  11.843793352366335 1
ion S   9.399025516144205  14.917941419095232  11.858602863572640 1
ion S   6.704186566292329   9.290761589359791  11.873872516210392 1
ion Na  15.884146352219291  11.144936421112211  23.681850521271976 1
ion Na   9.653139269323933  19.856914644124586  25.949496695606989 1

# Forces in Cartesian coordinates:
force Ni   0.022066128233832  -0.009782964598443  -0.035338096413784 0
force Ni  -0.002261193261066   0.000949156589247  -0.008812577193902 0
force Ni   0.002536441011686  -0.000194890728051  -0.008087683635503 0
force Ni  -0.015552524773675   0.002356787147045  -0.031882526982337 0
force Ni   0.018345773598885  -0.011193629103747  -0.034155480795873 0
force Ni   0.023198815358350  -0.008771537648354  -0.034521603933658 0
force Ni  -0.002999811376138  -0.000702345124177  -0.008323659769667 0
force Ni  -0.000411158063385  -0.001316448975143  -0.011524494516985 0
force Ni   0.003381983832612   0.000109606508338  -0.009290930045402 0
force Ni   0.002586987697422   0.000081629128416  -0.008396997662895 0
force Ni  -0.022547717643618  -0.010110987229956  -0.035591883519628 0
force Ni  -0.003842837124556  -0.012879935598872  -0.030644656977617 0
force Ni   0.022199087812779  -0.009439783689004  -0.034886499834380 0
force Ni   0.022296437856237  -0.009951420879402  -0.035212726648570 0
force Ni   0.002142700510212   0.000912202135479  -0.008927272233981 0
force Ni   0.001765577716555   0.001655686233884  -0.008010254046796 0
force Ni  -0.022465156145765  -0.009438225243705  -0.035625764235185 0
force Ni  -0.021909109506070  -0.009723685615457  -0.035213767366421 0
force Ni  -0.002776840501663   0.000123449620704  -0.008369936169309 0
force Ni  -0.002795144214561   0.000329956979972  -0.008124067858566 0
force Ni  -0.001894215612850  -0.002089625366923  -0.023849554199534 0
force Ni   0.004550581791371  -0.013246532110044  -0.030315505683376 0
force Ni  -0.002895396410902   0.000344129494507  -0.009274149573063 0
force Ni  -0.002370375250325   0.001031545995197  -0.008370040010212 0
force Ni   0.000709231419153  -0.001525571942594  -0.011721818805015 0
force Ni   0.002573037896432   0.000646490469637  -0.008421846550481 0
force Ni  -0.019690961648636  -0.003106633743111  -0.033708992122312 0
force Ni  -0.018763229081510  -0.011668368955355  -0.034250337569524 0
force Ni   0.015296138587443  -0.005537885460017  -0.032391149639471 0
force Ni   0.015704173404754   0.002809105970080  -0.031994789308228 0
force Ni  -0.002723662064748  -0.000473009959959  -0.008065878040998 0
force Ni  -0.000284836130942  -0.002389383842372  -0.012114781542538 0
force Ni   0.002647644460053  -0.000546698652969  -0.008406400133583 0
force Ni   0.001121758979288  -0.002868359782473  -0.012282123584233 0
force Ni   0.005519535585453  -0.003640581082850  -0.020456650053066 0
force Ni  -0.022662746509249  -0.008460923719050  -0.034711424205231 0
force S  -0.004448179836520  -0.004045406095178  -0.004265859113011 0
force S   0.001090871959095  -0.001681650210351   0.013671671895413 0
force S  -0.001248244429951   0.006826378012158   0.013068948884674 0
force S  -0.001989038125216   0.007944157533401   0.018227035977574 0
force S   0.001947547016549   0.008240074931917   0.018563239978900 0
force S   0.002253257453029   0.010375410829451   0.016234880636779 0
force S  -0.001185704151446  -0.001818238177226   0.013729698225074 0
force S   0.005808816344505  -0.004394238454600  -0.003034644382114 0
force S  -0.004945731081878  -0.004852640733159  -0.000880251724176 0
force S   0.000782530153831  -0.001668889914292   0.014019189477310 0
force S   0.001474001641018   0.005660835879388   0.016510649081064 0
force S  -0.002444267029524   0.007679082010689   0.017782791458332 0
force S   0.001861241183912   0.008096153975021   0.018499832626891 0
force S   0.000609435885354   0.006800900939127   0.013093664410947 0
force S  -0.001437544747433  -0.001125938610926   0.014892473115044 0
force S   0.004697033820943  -0.003691470135026  -0.002704925583865 0
force S  -0.004933795419858  -0.004188784891379  -0.003137641484340 0
force S   0.001343776415380  -0.001283955533271   0.014396405620009 0
force S   0.001993215554997   0.007970302633601   0.018232498294710 0
force S   0.000525628571477   0.008037168075489   0.012941764450261 0
force S  -0.001141795976049  -0.001829969526110   0.014050756797650 0
force S   0.004293965515909  -0.004127187102202  -0.004175137963341 0
force S  -0.000426921023704   0.007130861891058   0.013159629928214 0
force S  -0.002012314900174   0.008061981380530   0.018636738073410 0
force S  -0.005041469765003  -0.004251317608757  -0.003028141185842 0
force S   0.001175861150325  -0.001695525243664   0.013996359734036 0
force S  -0.005119304853650   0.007171463757523   0.012242071498185 0
force S  -0.001991583227192   0.008441124136210   0.018252189794405 0
force S   0.001823472870791   0.008182912027051   0.018465504714651 0
force S  -0.000755313832908  -0.005868879156006   0.018391507521786 0
force S   0.001091723257988  -0.000398325769047  -0.000901829450509 0
force S   0.005194308585105  -0.004197326666015  -0.002970269368997 0
force S  -0.005214259532508  -0.004173575144013  -0.003011895471680 0
force S   0.001143129077828  -0.001863037982369   0.013691478613015 0
force S   0.002372450897769   0.007607628146204   0.018034530690562 0
force S   0.000871936477776   0.006849760724325   0.013061502514169 0
force S  -0.001084105934118  -0.001578600695994   0.013896668230043 0
force S   0.004325813600583  -0.003492105719413  -0.003838184009322 0
force S  -0.001118439735709   0.006929367779104   0.013049826509684 0
force S  -0.001771633016321   0.008203798629390   0.018501280090421 0
force S  -0.004589806918991  -0.003579742731101  -0.003547875656322 0
force S  -0.001528214022927   0.000133937512223  -0.001655760250087 0
force S   0.000695054651020  -0.005495379454283   0.017560140485303 0
force S  -0.002522516236249   0.007529455835384   0.017910574772330 0
force S   0.002427826945128   0.007631868873387   0.017683589489196 0
force S   0.005124640716915   0.004724831823800   0.014709491801271 0
force S   0.000231018142282   0.003072919080136   0.005688527075604 0
force S   0.004845386781531  -0.004413928524539  -0.001083080448637 0
force S  -0.005436037732489  -0.004833292697142  -0.001730946694381 0
force S   0.001324391238667  -0.001981055946427   0.013943725559841 0
force S  -0.002297177907296   0.010216880513400   0.016366514002594 0
force S  -0.002037320458821   0.008323193189861   0.018452289940633 0
force S   0.001994280639189   0.008437401076661   0.018372783889732 0
force S  -0.006140180495079   0.001323671206482   0.017223527508080 0
force S   0.000038442100175  -0.004042347004126   0.003694944715177 0
force S   0.005091539021473  -0.004364254271152  -0.003068383065925 0
force S  -0.005496063635606  -0.004085231567308  -0.002796148954449 0
force S  -0.000053951889672   0.003204515791279   0.006190291329558 0
force S  -0.004485625561401   0.002864212255986   0.015599785148435 0
force S  -0.002032684769467   0.008132404968806   0.018551573694526 0
force S   0.002159964704633   0.008296547615129   0.018507535550266 0
force S  -0.001498488133775   0.006088354048304   0.016408625062184 0
force S  -0.000666397705920  -0.001799248631355   0.013119200289370 0
force S   0.005999940699318  -0.004889679134404  -0.001692388858567 0
force S  -0.004875604272207  -0.003849507662175  -0.002885292915419 0
force S  -0.000049120747086  -0.003827952543838   0.004033808962689 0
force S   0.006976186015888   0.003795708696876   0.015375142699379 0
force S  -0.001857049605916   0.008202603000070   0.018551210698668 0
force S   0.001994041280886   0.008002075911680   0.018592226157370 0
force S   0.005234374271384   0.006796794987081   0.012252356874005 0
force S  -0.001350538309067  -0.001562014056070   0.014691700162824 0
force S   0.004966905696365  -0.004095338846317  -0.003049155233664 0
force S  -0.000866624059165   0.000245301076618   0.000310518322687 1
force S  -0.000175112612108  -0.000397616181760   0.000371665276400 1
force S   0.000113662819401  -0.000228959107034   0.000624904702803 1
force S   0.000204813117486   0.000732049252530  -0.001300672965163 1
force Na   0.000004263994712   0.000008841145787   0.000297065782369 1
force Na  -0.000036130807271   0.000064448418815   0.000472063663571 1

# Energy components:
   A_diel =       -1.7024299413378001
   Eewald =    45384.9123292626245529
       EH =    51658.6995676042206469
     Eloc =  -105309.3676272732554935
      Enl =      912.7308084952621812
      Exc =     -970.6381956227929777
 Exc_core =      148.7846194358187120
       KE =     1136.5355987157192885
-------------------------------------
     Etot =    -7040.0453293237342223
       TS =        0.9932304491246611
-------------------------------------
        F =    -7041.0385597728591165


Dumping 'Na2S4@NiS2-PC.fillings' ... done
Dumping 'Na2S4@NiS2-PC.wfns' ... done
Dumping 'Na2S4@NiS2-PC.fluidState' ... done
Dumping 'Na2S4@NiS2-PC.ionpos' ... done
Dumping 'Na2S4@NiS2-PC.eigenvals' ... done
IonicMinimize: Iter:  29  F: -7041.038559772859116  |grad|_K:  4.874e-04  alpha:  1.934e-01  linmin:  3.193e-04  t[s]:  32488.37
IonicMinimize: Converged (|Delta F|<1.000000e-06 for 2 iters).

#--- Lowdin population analysis ---
# oxidation-state Ni +0.209 -0.443 -0.446 -0.246 +0.223 +0.220 -0.442 -0.462 -0.449 -0.446 +0.206 -0.228 +0.217 +0.221 -0.444 -0.449 +0.230 +0.215 -0.447 -0.446 -0.375 -0.235 -0.451 -0.447 -0.462 -0.451 +0.212 +0.209 +0.193 -0.244 -0.446 -0.470 -0.445 -0.465 -0.383 +0.222
# oxidation-state S +0.297 +0.443 +0.042 -0.188 -0.189 +0.041 +0.444 +0.293 +0.289 +0.430 +0.023 -0.189 -0.188 +0.050 +0.425 +0.296 +0.295 +0.440 -0.188 +0.046 +0.444 +0.298 +0.050 -0.187 +0.295 +0.445 +0.047 -0.190 -0.189 +0.358 +0.450 +0.295 +0.295 +0.444 -0.189 +0.044 +0.444 +0.299 +0.025 -0.188 +0.297 +0.432 +0.364 -0.191 -0.189 +0.350 +0.442 +0.287 +0.283 +0.446 +0.041 -0.189 -0.189 +0.068 +0.454 +0.295 +0.294 +0.442 +0.370 -0.189 -0.190 +0.021 +0.443 +0.279 +0.295 +0.455 +0.076 -0.188 -0.187 +0.045 +0.432 +0.296 +0.098 +0.116 +0.103 +0.108
# oxidation-state Na +1.000 +1.001


Dumping 'Na2S4@NiS2-PC.fillings' ... done
Dumping 'Na2S4@NiS2-PC.wfns' ... done
Dumping 'Na2S4@NiS2-PC.fluidState' ... done
Dumping 'Na2S4@NiS2-PC.ionpos' ... done
Dumping 'Na2S4@NiS2-PC.eigenvals' ... done
End date and time: Tue Oct 15 14:36:35 2024  (Duration: 0-9:01:39.68)
Done!
