
*************** JDFTx 1.7.0  ***************

Start date and time: Thu Sep 19 15:28:00 2024
Executable jdftx_gpu with command-line: -i /home/akim2/JDFTx/Na2S@NiS2/Na2S@NiS2.in -o /home/akim2/JDFTx/Na2S@NiS2/Na2S@NiS2.out
Running on hosts (process indices):  exp-2-57 (0)
Divided in process groups (process indices):  0 (0)
gpuInit: Found compatible cuda device 0 'Tesla V100-SXM2-32GB'
gpuInit: Selected device 0
Resource initialization completed at t[s]:      0.68
Run totals: 1 processes, 1 threads, 1 GPUs


Input parsed successfully to the following command list (including defaults):

basis kpoint-dependent
coords-type Cartesian
core-overlap-check vector
coulomb-interaction Slab 001
coulomb-truncation-embed 0 0 6.36353
davidson-band-ratio 1.1
dump End State
dump-name Na2S@NiS2.$VAR
elec-cutoff 20 100
elec-eigen-algo Davidson
elec-ex-corr gga-PBE
elec-smearing Fermi 0.01
electronic-minimize  \
	dirUpdateScheme      FletcherReeves \
	linminMethod         DirUpdateRecommended \
	nIterations          100 \
	history              15 \
	knormThreshold       0 \
	energyDiffThreshold  1e-08 \
	nEnergyDiff          2 \
	alphaTstart          1 \
	alphaTmin            1e-10 \
	updateTestStepSize   yes \
	alphaTreduceFactor   0.1 \
	alphaTincreaseFactor 3 \
	nAlphaAdjustMax      3 \
	wolfeEnergy          0.0001 \
	wolfeGradient        0.9 \
	fdTest               no
exchange-regularization WignerSeitzTruncated
fluid None
fluid-ex-corr lda-TF lda-PZ
fluid-gummel-loop 10 1.000000e-05
fluid-minimize  \
	dirUpdateScheme      PolakRibiere \
	linminMethod         DirUpdateRecommended \
	nIterations          100 \
	history              15 \
	knormThreshold       0 \
	energyDiffThreshold  0 \
	nEnergyDiff          2 \
	alphaTstart          1 \
	alphaTmin            1e-10 \
	updateTestStepSize   yes \
	alphaTreduceFactor   0.1 \
	alphaTincreaseFactor 3 \
	nAlphaAdjustMax      3 \
	wolfeEnergy          0.0001 \
	wolfeGradient        0.9 \
	fdTest               no
fluid-solvent H2O 55.338 ScalarEOS \
	epsBulk 78.4 \
	pMol 0.92466 \
	epsInf 1.77 \
	Pvap 1.06736e-10 \
	sigmaBulk 4.62e-05 \
	Rvdw 2.61727 \
	Res 1.42 \
	tauNuc 343133 \
	poleEl 15 7 1
forces-output-coords Positions
ion Ni  32.181155145269997   0.000000000000000  10.727052344999997 0
ion Ni   5.363526172499999   0.000000000000000   5.363526172499999 0
ion Ni  32.181155145269997   5.363526172499999   5.363526172499999 0
ion Ni   5.363526172499999   5.363526172499999  10.727052344999997 0
ion Ni  32.181155145269997  10.727052344999999  10.727052344999997 0
ion Ni  32.181155145269997  21.454102800270000  10.727052344999997 0
ion Ni   5.363526172499999  21.454102800270000   5.363526172499999 0
ion Ni   5.363526172499999  10.727052344999999   5.363526172499999 0
ion Ni  32.181155145269997  16.090578517499999   5.363526172499999 0
ion Ni  32.181155145269997  26.817628972769999   5.363526172499999 0
ion Ni   5.363526172499999  26.817628972769999  10.727052344999997 0
ion Ni   5.363526172499999  16.090578517499999  10.727052344999997 0
ion Ni  10.727052344999999   0.000000000000000  10.727052344999997 0
ion Ni  21.454102800270000   0.000000000000000  10.727052344999997 0
ion Ni  21.454102800270000   5.363526172499999   5.363526172499999 0
ion Ni  10.727052344999999   5.363526172499999   5.363526172499999 0
ion Ni  16.090578517499999   5.363526172499999  10.727052344999997 0
ion Ni  26.817628972769999   5.363526172499999  10.727052344999997 0
ion Ni  26.817628972769999   0.000000000000000   5.363526172499999 0
ion Ni  16.090578517499999   0.000000000000000   5.363526172499999 0
ion Ni  10.727052344999999  10.727052344999999  10.727052344999997 0
ion Ni  21.454102800270000  21.454102800270000  10.727052344999997 0
ion Ni  26.817628972769999  21.454102800270000   5.363526172499999 0
ion Ni  16.090578517499999  10.727052344999999   5.363526172499999 0
ion Ni  21.454102800270000  16.090578517499999   5.363526172499999 0
ion Ni  10.727052344999999  26.817628972769999   5.363526172499999 0
ion Ni  16.090578517499999  26.817628972769999  10.727052344999997 0
ion Ni  26.817628972769999  16.090578517499999  10.727052344999997 0
ion Ni  10.727052344999999  21.454102800270000  10.727052344999997 0
ion Ni  21.454102800270000  10.727052344999999  10.727052344999985 0
ion Ni  26.817628972769999  10.727052344999999   5.363526172499999 0
ion Ni  16.090578517499999  21.454102800270000   5.363526172499999 0
ion Ni  21.454102800270000  26.817628972769999   5.363526172499999 0
ion Ni  10.727052344999999  16.090578517499999   5.363526172499999 0
ion Ni  16.090578517499999  16.090578517499999  10.727052344999997 0
ion Ni  26.817628972769999  26.817628972769999  10.727052344999997 0
ion S   4.232241197730000   4.232241197730000   4.232250646379997 0
ion S  27.948915837270000  27.948915837270000   6.494801698619996 0
ion S   1.131284974770000  27.948915837270000   9.595776818879994 0
ion S   9.595765480499999   4.232241197730000   1.131275526120000 0
ion S  27.948915837270000   9.595765480499999   1.131275526120000 0
ion S   4.232241197730000   1.131284974770000   9.595776818879994 0
ion S   9.595765480499999   1.131284974770000   6.494801698619996 0
ion S   1.131284974770000   9.595765480499999   4.232250646379997 0
ion S   4.232241197730000  14.959291652999994   4.232250646379997 0
ion S  27.948915837270000  17.221863492269986   6.494801698619996 0
ion S   1.131284974770000  17.221863492269986   9.595776818879994 0
ion S   9.595765480499999  14.959291652999994   1.131275526120000 0
ion S  27.948915837270000  20.322817825500000   1.131275526120000 0
ion S   4.232241197730000  22.585389664769998   9.595776818879994 0
ion S   9.595765480499999  22.585389664769998   6.494801698619996 0
ion S   1.131284974770000  20.322817825500000   4.232250646379997 0
ion S  14.959291652999994   4.232250646380000   4.232241197729999 0
ion S  17.221863492269986  27.948904498889998   6.494811147269997 0
ion S  17.221863492269986   9.595776818879999   1.131284974770000 0
ion S  14.959291652999994   1.131275526120000   9.595765480499994 0
ion S  20.322817825500000   1.131275526120000   6.494811147269997 0
ion S  22.585389664769998   9.595776818879999   4.232241197729999 0
ion S  22.585389664769998  27.948904498889998   9.595765480499994 0
ion S  20.322817825500000   4.232250646380000   1.131284974770000 0
ion S   4.232241197730000  25.686343997999987   4.232250646379997 0
ion S  27.948915837270000   6.494811147269997   6.494801698619996 0
ion S   1.131284974770000   6.494811147269997   9.595776818879994 0
ion S   9.595765480499999  25.686343997999987   1.131275526120000 0
ion S  27.948915837270000  31.049870170499986   1.131275526120000 0
ion S   4.232241197730000  11.858337319769999   9.595776818879994 0
ion S   9.595765480499999  11.858337319769999   6.494801698619996 0
ion S   1.131284974770000  31.049870170499986   4.232250646379997 0
ion S  25.686343997999987   4.232250646380000   4.232241197729999 0
ion S   6.494811147269997  27.948904498889998   6.494811147269997 0
ion S   6.494811147269997   9.595776818879999   1.131284974770000 0
ion S  25.686343997999987   1.131275526120000   9.595765480499994 0
ion S  31.049870170499986   1.131275526120000   6.494811147269997 0
ion S  11.858337319769999   9.595776818879999   4.232241197729999 0
ion S  11.858337319769999  27.948904498889998   9.595765480499994 0
ion S  31.049870170499986   4.232250646380000   1.131284974770000 0
ion S  14.959291652999994  14.959291652999994   4.232250646379997 0
ion S  17.221863492269986  17.221863492269986   6.494801698619996 0
ion S  22.585389664769998  17.221863492269986   9.595776818879994 0
ion S  20.322817825500000  14.959291652999994   1.131275526120000 0
ion S  17.221863492269986  20.322817825500000   1.131275526120000 0
ion S  14.959291652999994  22.585389664769998   9.595776818879994 0
ion S  20.322817825500000  22.585389664769998   6.494801698619996 0
ion S  22.585389664769998  20.322817825500000   4.232250646379997 0
ion S  14.959291652999994  25.686343997999987   4.232250646379997 0
ion S  17.221863492269986   6.494811147269997   6.494801698619996 0
ion S  22.585389664769998   6.494811147269997   9.595776818879994 0
ion S  20.322817825500000  25.686343997999987   1.131275526120000 0
ion S  17.221863492269986  31.049870170499986   1.131275526120000 0
ion S  14.959291652999994  11.858337319769999   9.595776818879994 0
ion S  20.322817825500000  11.858337319769999   6.494801698619996 0
ion S  22.585389664769998  31.049870170499986   4.232250646379997 0
ion S  25.686343997999987  14.959291652999994   4.232250646379997 0
ion S   6.494811147269997  17.221863492269986   6.494801698619996 0
ion S  11.858337319769999  17.221863492269986   9.595776818879994 0
ion S  31.049870170499986  14.959291652999994   1.131275526120000 0
ion S   6.494811147269997  20.322817825500000   1.131275526120000 0
ion S  25.686343997999987  22.585389664769998   9.595776818879994 0
ion S  31.049870170499986  22.585389664769998   6.494801698619996 0
ion S  11.858337319769999  20.322817825500000   4.232250646379997 0
ion S  25.686343997999987  25.686343997999987   4.232250646379997 0
ion S   6.494811147269997   6.494811147269997   6.494801698619996 0
ion S  11.858337319769999   6.494811147269997   9.595776818879994 0
ion S  31.049870170499986  25.686343997999987   1.131275526120000 0
ion S   6.494811147269997  31.049870170499986   1.131275526120000 0
ion S  25.686343997999987  11.858337319769999   9.595776818879994 0
ion S  31.049870170499986  11.858337319769999   6.494801698619996 0
ion S  11.858337319769999  31.049870170499986   4.232250646379997 0
ion S  16.923788969407859  10.317310403456167  16.132611455068087 1
ion Na  12.923463557474662  12.896328039108512  16.571994681472233 1
ion Na  20.881517465649530  12.909227344235736  17.096146600410258 1
ion-species GBRV/$ID_pbe.uspp
ion-width 0
ionic-minimize  \
	dirUpdateScheme      FletcherReeves \
	linminMethod         DirUpdateRecommended \
	nIterations          200 \
	history              15 \
	knormThreshold       0.0001 \
	energyDiffThreshold  1e-06 \
	nEnergyDiff          2 \
	alphaTstart          1 \
	alphaTmin            1e-10 \
	updateTestStepSize   yes \
	alphaTreduceFactor   0.1 \
	alphaTincreaseFactor 3 \
	nAlphaAdjustMax      3 \
	wolfeEnergy          0.0001 \
	wolfeGradient        0.9 \
	fdTest               no
kpoint   0.000000000000   0.000000000000   0.000000000000  1.00000000000000
kpoint-folding 1 1 1 
latt-move-scale 1 1 1
latt-scale 1 1 1 
lattice Triclinic 32.1811 32.1811 37.7946 90 90 90
lattice-minimize  \
	dirUpdateScheme      L-BFGS \
	linminMethod         DirUpdateRecommended \
	nIterations          0 \
	history              15 \
	knormThreshold       0 \
	energyDiffThreshold  1e-06 \
	nEnergyDiff          2 \
	alphaTstart          1 \
	alphaTmin            1e-10 \
	updateTestStepSize   yes \
	alphaTreduceFactor   0.1 \
	alphaTincreaseFactor 3 \
	nAlphaAdjustMax      3 \
	wolfeEnergy          0.0001 \
	wolfeGradient        0.9 \
	fdTest               no
lcao-params -1 1e-06 0.01
pcm-variant GLSSA13
spintype no-spin
subspace-rotation-factor 1 yes
symmetries automatic
symmetry-threshold 0.0001



---------- Setting up symmetries ----------

Found 16 point-group symmetries of the bravais lattice
Found 1 space-group symmetries with basis
Applied RMS atom displacement 0 bohrs to make symmetries exact.

---------- Initializing the Grid ----------
R = 
[      32.1811            0            0  ]
[            0      32.1811            0  ]
[            0            0      37.7946  ]
unit cell volume = 39140.9
G =
[   0.195245          0          0  ]
[          0   0.195245          0  ]
[          0          0   0.166246  ]
Minimum fftbox size, Smin = [  148  148  172  ]
Chosen fftbox size, S = [  150  150  180  ]

---------- Initializing tighter grid for wavefunction operations ----------
R = 
[      32.1811            0            0  ]
[            0      32.1811            0  ]
[            0            0      37.7946  ]
unit cell volume = 39140.9
G =
[   0.195245          0          0  ]
[          0   0.195245          0  ]
[          0          0   0.166246  ]
Minimum fftbox size, Smin = [  132  132  156  ]
Chosen fftbox size, S = [  140  140  160  ]

---------- Exchange Correlation functional ----------
Initalized PBE GGA exchange.
Initalized PBE GGA correlation.

---------- Setting up pseudopotentials ----------
Width of ionic core gaussian charges (only for fluid interactions / plotting) set to 0

Reading pseudopotential file '/home/akim2/jdftx_install/build/pseudopotentials/GBRV/ni_pbe.uspp':
  Title: Ni.  Created by USPP 7.3.6 on 1-4-15
  Reference state energy: -170.398381.  18 valence electrons in orbitals:
    |300>  occupation: 2  eigenvalue: -4.804705
    |310>  occupation: 6  eigenvalue: -3.347751
    |320>  occupation: 8  eigenvalue: -1.042415
    |400>  occupation: 0  eigenvalue: -0.795539
    |410>  occupation: 0  eigenvalue: -0.551375
  lMax: 2  lLocal: 3  QijEcut: 6.5
  6 projectors sampled on a log grid with 611 points:
    l: 0  eig: -4.804708  rCut: 1.44
    l: 0  eig: -0.795541  rCut: 1.44
    l: 1  eig: -3.347753  rCut: 1.55
    l: 1  eig: 0.500000  rCut: 1.55
    l: 2  eig: -1.042418  rCut: 1.5
    l: 2  eig: -0.450000  rCut: 1.5
  Partial core density with radius 0.65
  Transforming core density to a uniform radial grid of dG=0.02 with 1283 points.
  Transforming local potential to a uniform radial grid of dG=0.02 with 1283 points.
  Transforming nonlocal projectors to a uniform radial grid of dG=0.02 with 432 points.
  Transforming density augmentations to a uniform radial grid of dG=0.02 with 1283 points.
  Transforming atomic orbitals to a uniform radial grid of dG=0.02 with 432 points.
  Core radius for overlap checks: 1.55 bohrs.

Reading pseudopotential file '/home/akim2/jdftx_install/build/pseudopotentials/GBRV/s_pbe.uspp':
  Title: S.  Created by USPP 7.3.6 on 1-4-15
  Reference state energy: -11.898476.  6 valence electrons in orbitals:
    |300>  occupation: 2  eigenvalue: -0.634167
    |310>  occupation: 4  eigenvalue: -0.257568
  lMax: 2  lLocal: 3  QijEcut: 6
  6 projectors sampled on a log grid with 635 points:
    l: 0  eig: -0.634161  rCut: 1.5
    l: 0  eig: 1.500000  rCut: 1.5
    l: 1  eig: -0.257567  rCut: 1.5
    l: 1  eig: 1.500000  rCut: 1.5
    l: 2  eig: -1.000000  rCut: 1.5
    l: 2  eig: 1.500000  rCut: 1.5
  Partial core density with radius 1.15
  Transforming core density to a uniform radial grid of dG=0.02 with 1283 points.
  Transforming local potential to a uniform radial grid of dG=0.02 with 1283 points.
  Transforming nonlocal projectors to a uniform radial grid of dG=0.02 with 432 points.
  Transforming density augmentations to a uniform radial grid of dG=0.02 with 1283 points.
  Transforming atomic orbitals to a uniform radial grid of dG=0.02 with 432 points.
  Core radius for overlap checks: 1.50 bohrs.

Reading pseudopotential file '/home/akim2/jdftx_install/build/pseudopotentials/GBRV/na_pbe.uspp':
  Title: Na.  Created by USPP 7.3.6 on 23-9-15
  Reference state energy: -47.625620.  9 valence electrons in orbitals:
    |200>  occupation: 2  eigenvalue: -2.085638
    |210>  occupation: 6  eigenvalue: -1.053708
    |300>  occupation: 1  eigenvalue: -0.100838
  lMax: 2  lLocal: 0  QijEcut: 6
  5 projectors sampled on a log grid with 657 points:
    l: 0  eig: -2.085640  rCut: 1.37
    l: 0  eig: -0.100839  rCut: 1.37
    l: 1  eig: -1.053708  rCut: 1.47
    l: 1  eig: 0.500000  rCut: 1.47
    l: 2  eig: 0.750000  rCut: 2
  Transforming local potential to a uniform radial grid of dG=0.02 with 1283 points.
  Transforming nonlocal projectors to a uniform radial grid of dG=0.02 with 432 points.
  Transforming density augmentations to a uniform radial grid of dG=0.02 with 1283 points.
  Transforming atomic orbitals to a uniform radial grid of dG=0.02 with 432 points.
  Core radius for overlap checks: 2.00 bohrs.

Initialized 3 species with 111 total atoms.

Folded 1 k-points by 1x1x1 to 1 k-points.

---------- Setting up k-points, bands, fillings ----------
No reducable k-points. 
Computing the number of bands and number of electrons
Calculating initial fillings.
nElectrons: 1104.000000   nBands: 770   nStates: 1

----- Setting up reduced wavefunction bases (one per k-point) -----
average nbasis = 167141.000 , ideal nbasis = 167213.066

---------- Setting up coulomb interaction ----------
Setting up double-sized grid for truncated Coulomb potentials:
R = 
[      32.1811            0            0  ]
[            0      32.1811            0  ]
[            0            0      75.5892  ]
unit cell volume = 78281.9
G =
[   0.195245          0          0  ]
[          0   0.195245          0  ]
[          0          0  0.0831228  ]
Chosen fftbox size, S = [  150  150  360  ]
Integer grid location selected as the embedding center:
   Grid: [  0  0  30  ]
   Lattice: [  0  0  0.168371  ]
   Cartesian: [  0  0  6.36353  ]
Constructing Wigner-Seitz cell: 6 faces (6 quadrilaterals, 0 hexagons)
Range-separation parameter for embedded mesh potentials due to point charges: 0.584339 bohrs.
Initialized slab truncation along lattice direction 001

---------- Setting up 2D ewald sum ----------
Optimum gaussian width for ewald sums = 19.197881 bohr.
Real space sums over 225 unit cells with max indices [  7  7  0  ]
Reciprocal space sums over 81 terms with max indices [  4  4  0  ]

---------- Allocating electronic variables ----------
Initializing wave functions:  linear combination of atomic orbitals
Ni pseudo-atom occupations:   s ( 2 0 )  p ( 6 0 )  d ( 10 )
S pseudo-atom occupations:   s ( 2 )  p ( 4 )
Na pseudo-atom occupations:   s ( 2 1 )  p ( 6 )
	FillingsUpdate:  mu: -1.278410559  nElectrons: 1104.000000
LCAOMinimize: Iter:   0  F: -6302.6630645549021210  |grad|_K:  3.279e-02  alpha:  1.000e+00
	FillingsUpdate:  mu: +3.390340944  nElectrons: 1104.000000
LCAOMinimize: Iter:   1  F: -6516.3855784959432640  |grad|_K:  1.199e-01  alpha:  2.325e-01  linmin:  6.741e-02  cgtest: -6.439e-01  t[s]:     20.00
LCAOMinimize: 	Bad step direction: g.d > 0.
LCAOMinimize: 	Undoing step.
LCAOMinimize: 	Step failed: resetting search direction.
	FillingsUpdate:  mu: +3.390340944  nElectrons: 1104.000000
LCAOMinimize: Iter:   2  F: -6516.3855784959432640  |grad|_K:  1.199e-01  alpha:  0.000e+00
	FillingsUpdate:  mu: +1.508589513  nElectrons: 1104.000000
LCAOMinimize: Iter:   3  F: -6840.5199721500403029  |grad|_K:  1.268e-01  alpha:  6.737e-02  linmin:  2.281e-01  cgtest: -5.241e-01  t[s]:     30.18
LCAOMinimize: 	Bad step direction: g.d > 0.
LCAOMinimize: 	Undoing step.
LCAOMinimize: 	Step failed: resetting search direction.
	FillingsUpdate:  mu: +1.508589513  nElectrons: 1104.000000
LCAOMinimize: Iter:   4  F: -6840.5199721500403029  |grad|_K:  1.268e-01  alpha:  0.000e+00
	FillingsUpdate:  mu: +1.242927039  nElectrons: 1104.000000
LCAOMinimize: Iter:   5  F: -6944.9477632837042620  |grad|_K:  5.852e-02  alpha:  3.168e-02  linmin:  1.921e-01  cgtest: -8.010e-01  t[s]:     40.41
LCAOMinimize: 	Bad step direction: g.d > 0.
LCAOMinimize: 	Undoing step.
LCAOMinimize: 	Step failed: resetting search direction.
	FillingsUpdate:  mu: +1.242927039  nElectrons: 1104.000000
LCAOMinimize: Iter:   6  F: -6944.9477632837042620  |grad|_K:  5.852e-02  alpha:  0.000e+00
	FillingsUpdate:  mu: +0.376548783  nElectrons: 1104.000000
LCAOMinimize: Iter:   7  F: -6973.0137236373739142  |grad|_K:  2.428e-02  alpha:  2.445e-02  linmin:  5.298e-02  cgtest: -2.415e-01  t[s]:     50.68
LCAOMinimize: 	Wrong curvature in test step, increasing alphaT to 7.335549e-02.
	FillingsUpdate:  mu: +0.311864261  nElectrons: 1104.000000
LCAOMinimize: Iter:   8  F: -6984.1856088276344963  |grad|_K:  3.429e-02  alpha: -2.588e-02  linmin: -1.910e-01  cgtest:  6.175e-01  t[s]:     56.21
LCAOMinimize: 	Step increased F by 7.084805e+02, reducing alpha to 2.233716e-02.
	FillingsUpdate:  mu: +0.005196205  nElectrons: 1104.000000
LCAOMinimize: Iter:   9  F: -6998.9601659151066997  |grad|_K:  1.677e-02  alpha:  2.234e-02  linmin:  6.139e-03  cgtest: -7.477e-03  t[s]:     66.52
	FillingsUpdate:  mu: -0.090666046  nElectrons: 1104.000000
LCAOMinimize: Iter:  10  F: -7000.7453388057956545  |grad|_K:  1.279e-02  alpha:  2.180e-02  linmin:  2.373e-02  cgtest:  5.333e-01  t[s]:     72.53
	FillingsUpdate:  mu: -0.102283491  nElectrons: 1104.000000
LCAOMinimize: Iter:  11  F: -7002.0329093144391663  |grad|_K:  1.381e-02  alpha:  3.070e-02  linmin:  7.845e-02  cgtest: -6.541e-02  t[s]:     78.53
	FillingsUpdate:  mu: -0.036256930  nElectrons: 1104.000000
LCAOMinimize: Iter:  12  F: -7002.7441021892745994  |grad|_K:  1.304e-02  alpha:  1.794e-02  linmin: -1.716e-03  cgtest:  7.993e-01  t[s]:     84.51
	FillingsUpdate:  mu: -0.072929979  nElectrons: 1104.000000
LCAOMinimize: Iter:  13  F: -7003.3659233534817758  |grad|_K:  3.496e-03  alpha:  1.251e-02  linmin: -4.520e-03  cgtest: -4.035e-02  t[s]:     90.52
LCAOMinimize: 	Predicted alpha/alphaT>3.000000, increasing alphaT to 3.754500e-02.
	FillingsUpdate:  mu: -0.109943496  nElectrons: 1104.000000
LCAOMinimize: Iter:  14  F: -7003.5499241769975924  |grad|_K:  4.036e-03  alpha:  5.128e-02  linmin:  9.816e-03  cgtest: -1.183e-02  t[s]:     98.36
	FillingsUpdate:  mu: -0.150531513  nElectrons: 1104.000000
LCAOMinimize: Iter:  15  F: -7003.7259181468498355  |grad|_K:  3.713e-03  alpha:  3.684e-02  linmin:  1.249e-03  cgtest:  9.737e-02  t[s]:    104.57
	FillingsUpdate:  mu: -0.143779657  nElectrons: 1104.000000
LCAOMinimize: Iter:  16  F: -7003.9359495296876048  |grad|_K:  4.103e-03  alpha:  5.323e-02  linmin:  1.063e-02  cgtest: -3.378e-02  t[s]:    110.80
	FillingsUpdate:  mu: -0.156272559  nElectrons: 1104.000000
LCAOMinimize: Iter:  17  F: -7004.0042576311770972  |grad|_K:  2.593e-03  alpha:  9.942e-03  linmin: -8.933e-02  cgtest:  8.887e-01  t[s]:    116.97
LCAOMinimize: Encountered beta<0, resetting CG.
	FillingsUpdate:  mu: -0.162337866  nElectrons: 1104.000000
LCAOMinimize: Iter:  18  F: -7004.0440930796776229  |grad|_K:  1.513e-03  alpha:  1.982e-02  linmin: -8.196e-03  cgtest:  1.138e-02  t[s]:    123.11
	FillingsUpdate:  mu: -0.152906821  nElectrons: 1104.000000
LCAOMinimize: Iter:  19  F: -7004.0681771624358589  |grad|_K:  1.620e-03  alpha:  3.496e-02  linmin: -8.325e-04  cgtest: -3.800e-02  t[s]:    129.33
	FillingsUpdate:  mu: -0.148768889  nElectrons: 1104.000000
LCAOMinimize: Iter:  20  F: -7004.0975516478738427  |grad|_K:  1.155e-03  alpha:  3.784e-02  linmin:  1.657e-02  cgtest:  1.463e-01  t[s]:    135.54
	FillingsUpdate:  mu: -0.150566600  nElectrons: 1104.000000
LCAOMinimize: Iter:  21  F: -7004.1070079718483612  |grad|_K:  7.240e-04  alpha:  2.531e-02  linmin: -2.780e-05  cgtest:  1.289e-01  t[s]:    141.65
	FillingsUpdate:  mu: -0.157884529  nElectrons: 1104.000000
LCAOMinimize: Iter:  22  F: -7004.1170903639813332  |grad|_K:  8.146e-04  alpha:  6.412e-02  linmin: -3.687e-03  cgtest: -6.867e-03  t[s]:    147.72
	FillingsUpdate:  mu: -0.165153166  nElectrons: 1104.000000
LCAOMinimize: Iter:  23  F: -7004.1215324104750835  |grad|_K:  4.915e-04  alpha:  2.193e-02  linmin: -2.486e-03  cgtest: -4.505e-02  t[s]:    153.72
	FillingsUpdate:  mu: -0.166336422  nElectrons: 1104.000000
LCAOMinimize: Iter:  24  F: -7004.1235405892766721  |grad|_K:  3.283e-04  alpha:  2.775e-02  linmin:  9.287e-04  cgtest: -8.078e-03  t[s]:    159.68
	FillingsUpdate:  mu: -0.166504373  nElectrons: 1104.000000
LCAOMinimize: Iter:  25  F: -7004.1256773901823180  |grad|_K:  4.779e-04  alpha:  6.766e-02  linmin:  2.764e-03  cgtest: -5.394e-03  t[s]:    169.65
	FillingsUpdate:  mu: -0.167626125  nElectrons: 1104.000000
LCAOMinimize: Iter:  26  F: -7004.1277483231815495  |grad|_K:  2.143e-04  alpha:  3.017e-02  linmin: -5.139e-03  cgtest:  2.416e-01  t[s]:    175.53
	FillingsUpdate:  mu: -0.167674779  nElectrons: 1104.000000
LCAOMinimize: Iter:  27  F: -7004.1281306465634771  |grad|_K:  1.731e-04  alpha:  2.775e-02  linmin: -1.629e-04  cgtest: -1.383e-02  t[s]:    181.50
	FillingsUpdate:  mu: -0.168820415  nElectrons: 1104.000000
LCAOMinimize: Iter:  28  F: -7004.1284327201092310  |grad|_K:  1.533e-04  alpha:  3.389e-02  linmin:  7.303e-05  cgtest:  8.665e-03  t[s]:    187.47
	FillingsUpdate:  mu: -0.168151514  nElectrons: 1104.000000
LCAOMinimize: Iter:  29  F: -7004.1286887626401949  |grad|_K:  1.623e-04  alpha:  3.664e-02  linmin: -8.966e-05  cgtest:  1.720e-03  t[s]:    193.34
	FillingsUpdate:  mu: -0.166875877  nElectrons: 1104.000000
LCAOMinimize: Iter:  30  F: -7004.1291183407456629  |grad|_K:  1.561e-04  alpha:  5.482e-02  linmin: -4.739e-05  cgtest: -4.527e-03  t[s]:    199.20
LCAOMinimize: None of the convergence criteria satisfied after 30 iterations.


---- Citations for features of the code used in this run ----

   Software package:
      R. Sundararaman, K. Letchworth-Weaver, K.A. Schwarz, D. Gunceler, Y. Ozhabes and T.A. Arias, 'JDFTx: software for joint density-functional theory', SoftwareX 6, 278 (2017)

   gga-PBE exchange-correlation functional:
      J.P. Perdew, K. Burke and M. Ernzerhof, Phys. Rev. Lett. 77, 3865 (1996)

   Pseudopotentials:
      KF Garrity, JW Bennett, KM Rabe and D Vanderbilt, Comput. Mater. Sci. 81, 446 (2014)

   Truncated Coulomb potentials:
      R. Sundararaman and T.A. Arias, Phys. Rev. B 87, 165122 (2013)

   Total energy minimization with Auxiliary Hamiltonian:
      C. Freysoldt, S. Boeck, and J. Neugebauer, Phys. Rev. B 79, 241103(R) (2009)

This list may not be complete. Please suggest additional citations or
report any other bugs at https://github.com/shankar1729/jdftx/issues

Initialization completed successfully at t[s]:    200.85


-------- Electronic minimization -----------
	FillingsUpdate:  mu: -0.166875877  nElectrons: 1104.000000
ElecMinimize: Iter:   0  F: -7004.129118340820241  |grad|_K:  2.168e-04  alpha:  1.000e+00
	FillingsUpdate:  mu: -0.206851342  nElectrons: 1104.000000
	SubspaceRotationAdjust: set factor to 0.687
ElecMinimize: Iter:   1  F: -7005.901317920037400  |grad|_K:  3.081e-04  alpha:  2.846e-01  linmin: -1.318e-05  t[s]:    217.48
	FillingsUpdate:  mu: -0.082954446  nElectrons: 1104.000000
	SubspaceRotationAdjust: set factor to 0.379
ElecMinimize: Iter:   2  F: -7006.126069326931429  |grad|_K:  5.131e-04  alpha:  5.466e-02  linmin:  3.071e-04  t[s]:    227.91
	FillingsUpdate:  mu: -0.032374305  nElectrons: 1104.000000
	SubspaceRotationAdjust: set factor to 0.221
ElecMinimize: Iter:   3  F: -7006.511564709667255  |grad|_K:  4.287e-04  alpha:  2.934e-02  linmin:  5.462e-06  t[s]:    238.33
	FillingsUpdate:  mu: -0.067497460  nElectrons: 1104.000000
	SubspaceRotationAdjust: set factor to 0.247
ElecMinimize: Iter:   4  F: -7007.383591350362622  |grad|_K:  2.176e-04  alpha:  3.712e-02  linmin: -3.851e-06  t[s]:    248.79
	FillingsUpdate:  mu: -0.079504525  nElectrons: 1104.000000
	SubspaceRotationAdjust: set factor to 0.17
ElecMinimize: Iter:   5  F: -7007.953756753635389  |grad|_K:  2.098e-04  alpha:  9.283e-02  linmin:  3.566e-06  t[s]:    259.27
	FillingsUpdate:  mu: -0.117981608  nElectrons: 1104.000000
	SubspaceRotationAdjust: set factor to 0.191
ElecMinimize: Iter:   6  F: -7008.323058183695139  |grad|_K:  1.302e-04  alpha:  6.651e-02  linmin: -3.862e-06  t[s]:    269.73
	FillingsUpdate:  mu: -0.115215281  nElectrons: 1104.000000
	SubspaceRotationAdjust: set factor to 0.207
ElecMinimize: Iter:   7  F: -7008.587175287020727  |grad|_K:  1.287e-04  alpha:  1.166e-01  linmin: -5.924e-05  t[s]:    280.20
	FillingsUpdate:  mu: -0.163916337  nElectrons: 1104.000000
	SubspaceRotationAdjust: set factor to 0.219
ElecMinimize: Iter:   8  F: -7008.903697233892672  |grad|_K:  9.923e-05  alpha:  1.387e-01  linmin: -8.304e-06  t[s]:    290.64
	FillingsUpdate:  mu: -0.192077715  nElectrons: 1104.000000
	SubspaceRotationAdjust: set factor to 0.235
ElecMinimize: Iter:   9  F: -7009.032311051552824  |grad|_K:  7.766e-05  alpha:  9.986e-02  linmin:  6.584e-06  t[s]:    301.06
	FillingsUpdate:  mu: -0.184248398  nElectrons: 1104.000000
	SubspaceRotationAdjust: set factor to 0.253
ElecMinimize: Iter:  10  F: -7009.132508031078032  |grad|_K:  7.368e-05  alpha:  1.294e-01  linmin:  1.010e-05  t[s]:    311.51
	FillingsUpdate:  mu: -0.170068389  nElectrons: 1104.000000
	SubspaceRotationAdjust: set factor to 0.234
ElecMinimize: Iter:  11  F: -7009.214018998077336  |grad|_K:  6.614e-05  alpha:  1.168e-01  linmin:  1.264e-05  t[s]:    322.00
	FillingsUpdate:  mu: -0.169880479  nElectrons: 1104.000000
	SubspaceRotationAdjust: set factor to 0.274
ElecMinimize: Iter:  12  F: -7009.263327510364434  |grad|_K:  4.272e-05  alpha:  8.686e-02  linmin:  2.687e-05  t[s]:    332.47
	FillingsUpdate:  mu: -0.168742195  nElectrons: 1104.000000
	SubspaceRotationAdjust: set factor to 0.208
ElecMinimize: Iter:  13  F: -7009.289748001988301  |grad|_K:  4.705e-05  alpha:  1.130e-01  linmin:  1.606e-05  t[s]:    342.96
	FillingsUpdate:  mu: -0.167832046  nElectrons: 1104.000000
	SubspaceRotationAdjust: set factor to 0.191
ElecMinimize: Iter:  14  F: -7009.325987993096533  |grad|_K:  4.106e-05  alpha:  1.276e-01  linmin: -9.672e-06  t[s]:    353.43
	FillingsUpdate:  mu: -0.170264954  nElectrons: 1104.000000
	SubspaceRotationAdjust: set factor to 0.193
ElecMinimize: Iter:  15  F: -7009.349530450966995  |grad|_K:  3.020e-05  alpha:  1.076e-01  linmin: -2.715e-06  t[s]:    363.89
	FillingsUpdate:  mu: -0.175800007  nElectrons: 1104.000000
	SubspaceRotationAdjust: set factor to 0.227
ElecMinimize: Iter:  16  F: -7009.365280962794714  |grad|_K:  2.779e-05  alpha:  1.336e-01  linmin:  7.666e-07  t[s]:    374.37
	FillingsUpdate:  mu: -0.179608941  nElectrons: 1104.000000
	SubspaceRotationAdjust: set factor to 0.25
ElecMinimize: Iter:  17  F: -7009.379931396832035  |grad|_K:  2.619e-05  alpha:  1.472e-01  linmin: -3.920e-07  t[s]:    385.02
	FillingsUpdate:  mu: -0.179554797  nElectrons: 1104.000000
	SubspaceRotationAdjust: set factor to 0.287
ElecMinimize: Iter:  18  F: -7009.389166751082485  |grad|_K:  2.003e-05  alpha:  1.044e-01  linmin: -5.793e-07  t[s]:    395.76
	FillingsUpdate:  mu: -0.177997232  nElectrons: 1104.000000
	SubspaceRotationAdjust: set factor to 0.264
ElecMinimize: Iter:  19  F: -7009.396127935860932  |grad|_K:  2.250e-05  alpha:  1.344e-01  linmin:  7.380e-08  t[s]:    406.51
	FillingsUpdate:  mu: -0.178624173  nElectrons: 1104.000000
	SubspaceRotationAdjust: set factor to 0.274
ElecMinimize: Iter:  20  F: -7009.404095296714331  |grad|_K:  1.827e-05  alpha:  1.219e-01  linmin:  1.412e-06  t[s]:    417.24
	FillingsUpdate:  mu: -0.178816755  nElectrons: 1104.000000
	SubspaceRotationAdjust: set factor to 0.278
ElecMinimize: Iter:  21  F: -7009.407880016165109  |grad|_K:  1.416e-05  alpha:  8.812e-02  linmin:  5.751e-08  t[s]:    427.97
	FillingsUpdate:  mu: -0.178872244  nElectrons: 1104.000000
	SubspaceRotationAdjust: set factor to 0.226
ElecMinimize: Iter:  22  F: -7009.411663300216787  |grad|_K:  1.571e-05  alpha:  1.464e-01  linmin:  6.580e-07  t[s]:    438.72
	FillingsUpdate:  mu: -0.179977237  nElectrons: 1104.000000
	SubspaceRotationAdjust: set factor to 0.264
ElecMinimize: Iter:  23  F: -7009.414633856878027  |grad|_K:  1.087e-05  alpha:  9.318e-02  linmin: -1.125e-07  t[s]:    449.47
	FillingsUpdate:  mu: -0.179707092  nElectrons: 1104.000000
	SubspaceRotationAdjust: set factor to 0.236
ElecMinimize: Iter:  24  F: -7009.416438192211899  |grad|_K:  1.010e-05  alpha:  1.183e-01  linmin:  4.493e-07  t[s]:    460.28
	FillingsUpdate:  mu: -0.178706699  nElectrons: 1104.000000
	SubspaceRotationAdjust: set factor to 0.264
ElecMinimize: Iter:  25  F: -7009.417845336168284  |grad|_K:  8.916e-06  alpha:  1.070e-01  linmin: -8.598e-07  t[s]:    471.16
	FillingsUpdate:  mu: -0.178489091  nElectrons: 1104.000000
	SubspaceRotationAdjust: set factor to 0.25
ElecMinimize: Iter:  26  F: -7009.419265755797824  |grad|_K:  8.222e-06  alpha:  1.381e-01  linmin: -1.977e-06  t[s]:    482.02
	FillingsUpdate:  mu: -0.179469335  nElectrons: 1104.000000
	SubspaceRotationAdjust: set factor to 0.266
ElecMinimize: Iter:  27  F: -7009.419992208915573  |grad|_K:  5.618e-06  alpha:  8.296e-02  linmin:  3.554e-08  t[s]:    492.87
	FillingsUpdate:  mu: -0.180187516  nElectrons: 1104.000000
	SubspaceRotationAdjust: set factor to 0.311
ElecMinimize: Iter:  28  F: -7009.420482010228625  |grad|_K:  5.020e-06  alpha:  1.203e-01  linmin:  1.529e-07  t[s]:    503.74
	FillingsUpdate:  mu: -0.179963293  nElectrons: 1104.000000
	SubspaceRotationAdjust: set factor to 0.285
ElecMinimize: Iter:  29  F: -7009.420808686374585  |grad|_K:  4.671e-06  alpha:  1.005e-01  linmin: -1.222e-08  t[s]:    514.54
	FillingsUpdate:  mu: -0.179525374  nElectrons: 1104.000000
	SubspaceRotationAdjust: set factor to 0.276
ElecMinimize: Iter:  30  F: -7009.421154204231243  |grad|_K:  3.852e-06  alpha:  1.227e-01  linmin:  3.068e-07  t[s]:    525.34
	FillingsUpdate:  mu: -0.179464466  nElectrons: 1104.000000
	SubspaceRotationAdjust: set factor to 0.256
ElecMinimize: Iter:  31  F: -7009.421334111287251  |grad|_K:  3.341e-06  alpha:  9.400e-02  linmin:  4.484e-07  t[s]:    536.16
	FillingsUpdate:  mu: -0.179281201  nElectrons: 1104.000000
	SubspaceRotationAdjust: set factor to 0.315
ElecMinimize: Iter:  32  F: -7009.421510897042936  |grad|_K:  2.582e-06  alpha:  1.229e-01  linmin:  7.035e-07  t[s]:    546.98
	FillingsUpdate:  mu: -0.179210256  nElectrons: 1104.000000
	SubspaceRotationAdjust: set factor to 0.283
ElecMinimize: Iter:  33  F: -7009.421600388473962  |grad|_K:  2.434e-06  alpha:  1.042e-01  linmin:  2.387e-07  t[s]:    557.79
	FillingsUpdate:  mu: -0.179422171  nElectrons: 1104.000000
	SubspaceRotationAdjust: set factor to 0.284
ElecMinimize: Iter:  34  F: -7009.421691673377609  |grad|_K:  1.889e-06  alpha:  1.195e-01  linmin:  8.301e-07  t[s]:    568.62
	FillingsUpdate:  mu: -0.179465206  nElectrons: 1104.000000
	SubspaceRotationAdjust: set factor to 0.292
ElecMinimize: Iter:  35  F: -7009.421745849110266  |grad|_K:  1.814e-06  alpha:  1.178e-01  linmin:  4.383e-07  t[s]:    579.44
	FillingsUpdate:  mu: -0.179207820  nElectrons: 1104.000000
	SubspaceRotationAdjust: set factor to 0.264
ElecMinimize: Iter:  36  F: -7009.421801254538877  |grad|_K:  1.723e-06  alpha:  1.306e-01  linmin:  4.432e-07  t[s]:    590.27
	FillingsUpdate:  mu: -0.179096856  nElectrons: 1104.000000
	SubspaceRotationAdjust: set factor to 0.319
ElecMinimize: Iter:  37  F: -7009.421845270647282  |grad|_K:  1.306e-06  alpha:  1.150e-01  linmin:  3.361e-07  t[s]:    601.09
	FillingsUpdate:  mu: -0.179206113  nElectrons: 1104.000000
	SubspaceRotationAdjust: set factor to 0.293
ElecMinimize: Iter:  38  F: -7009.421871049203219  |grad|_K:  1.277e-06  alpha:  1.172e-01  linmin:  2.099e-07  t[s]:    611.92
	FillingsUpdate:  mu: -0.179267497  nElectrons: 1104.000000
	SubspaceRotationAdjust: set factor to 0.351
ElecMinimize: Iter:  39  F: -7009.421897211776923  |grad|_K:  1.024e-06  alpha:  1.244e-01  linmin:  1.067e-07  t[s]:    622.75
	FillingsUpdate:  mu: -0.179251573  nElectrons: 1104.000000
	SubspaceRotationAdjust: set factor to 0.324
ElecMinimize: Iter:  40  F: -7009.421913924720684  |grad|_K:  9.831e-07  alpha:  1.235e-01  linmin:  8.895e-08  t[s]:    633.58
	FillingsUpdate:  mu: -0.179271900  nElectrons: 1104.000000
	SubspaceRotationAdjust: set factor to 0.329
ElecMinimize: Iter:  41  F: -7009.421926439263189  |grad|_K:  7.768e-07  alpha:  1.004e-01  linmin:  1.095e-07  t[s]:    644.39
	FillingsUpdate:  mu: -0.179241894  nElectrons: 1104.000000
	SubspaceRotationAdjust: set factor to 0.263
ElecMinimize: Iter:  42  F: -7009.421938246482569  |grad|_K:  8.666e-07  alpha:  1.518e-01  linmin:  1.704e-07  t[s]:    655.19
	FillingsUpdate:  mu: -0.179242535  nElectrons: 1104.000000
	SubspaceRotationAdjust: set factor to 0.291
ElecMinimize: Iter:  43  F: -7009.421948328218605  |grad|_K:  5.611e-07  alpha:  1.041e-01  linmin:  2.862e-08  t[s]:    666.02
	FillingsUpdate:  mu: -0.179268213  nElectrons: 1104.000000
	SubspaceRotationAdjust: set factor to 0.264
ElecMinimize: Iter:  44  F: -7009.421953850547652  |grad|_K:  5.288e-07  alpha:  1.360e-01  linmin:  7.059e-08  t[s]:    676.82
	FillingsUpdate:  mu: -0.179239637  nElectrons: 1104.000000
	SubspaceRotationAdjust: set factor to 0.284
ElecMinimize: Iter:  45  F: -7009.421958016946519  |grad|_K:  4.018e-07  alpha:  1.155e-01  linmin:  2.582e-08  t[s]:    687.63
	FillingsUpdate:  mu: -0.179226822  nElectrons: 1104.000000
	SubspaceRotationAdjust: set factor to 0.266
ElecMinimize: Iter:  46  F: -7009.421961047120931  |grad|_K:  3.602e-07  alpha:  1.455e-01  linmin:  4.048e-08  t[s]:    698.48
	FillingsUpdate:  mu: -0.179271203  nElectrons: 1104.000000
	SubspaceRotationAdjust: set factor to 0.263
ElecMinimize: Iter:  47  F: -7009.421963464165856  |grad|_K:  3.598e-07  alpha:  1.444e-01  linmin:  5.520e-08  t[s]:    709.28
	FillingsUpdate:  mu: -0.179295813  nElectrons: 1104.000000
	SubspaceRotationAdjust: set factor to 0.277
ElecMinimize: Iter:  48  F: -7009.421965519827609  |grad|_K:  2.471e-07  alpha:  1.231e-01  linmin:  3.451e-08  t[s]:    720.09
	FillingsUpdate:  mu: -0.179296762  nElectrons: 1104.000000
	SubspaceRotationAdjust: set factor to 0.266
ElecMinimize: Iter:  49  F: -7009.421966574117505  |grad|_K:  2.150e-07  alpha:  1.339e-01  linmin:  2.913e-08  t[s]:    730.90
	FillingsUpdate:  mu: -0.179300233  nElectrons: 1104.000000
	SubspaceRotationAdjust: set factor to 0.255
ElecMinimize: Iter:  50  F: -7009.421967329363724  |grad|_K:  1.968e-07  alpha:  1.267e-01  linmin:  1.146e-07  t[s]:    741.71
	FillingsUpdate:  mu: -0.179281705  nElectrons: 1104.000000
	SubspaceRotationAdjust: set factor to 0.285
ElecMinimize: Iter:  51  F: -7009.421968044367532  |grad|_K:  1.521e-07  alpha:  1.432e-01  linmin:  8.071e-08  t[s]:    752.52
	FillingsUpdate:  mu: -0.179272638  nElectrons: 1104.000000
	SubspaceRotationAdjust: set factor to 0.281
ElecMinimize: Iter:  52  F: -7009.421968472030130  |grad|_K:  1.496e-07  alpha:  1.434e-01  linmin:  7.552e-08  t[s]:    763.35
	FillingsUpdate:  mu: -0.179284793  nElectrons: 1104.000000
	SubspaceRotationAdjust: set factor to 0.267
ElecMinimize: Iter:  53  F: -7009.421968826330158  |grad|_K:  1.277e-07  alpha:  1.228e-01  linmin:  2.808e-08  t[s]:    774.15
	FillingsUpdate:  mu: -0.179287895  nElectrons: 1104.000000
	SubspaceRotationAdjust: set factor to 0.3
ElecMinimize: Iter:  54  F: -7009.421969140785222  |grad|_K:  1.059e-07  alpha:  1.495e-01  linmin: -4.712e-08  t[s]:    784.95
	FillingsUpdate:  mu: -0.179279622  nElectrons: 1104.000000
	SubspaceRotationAdjust: set factor to 0.289
ElecMinimize: Iter:  55  F: -7009.421969342733973  |grad|_K:  1.072e-07  alpha:  1.394e-01  linmin:  5.418e-08  t[s]:    795.77
	FillingsUpdate:  mu: -0.179283622  nElectrons: 1104.000000
	SubspaceRotationAdjust: set factor to 0.277
ElecMinimize: Iter:  56  F: -7009.421969515723504  |grad|_K:  8.151e-08  alpha:  1.168e-01  linmin:  4.690e-08  t[s]:    806.57
	FillingsUpdate:  mu: -0.179293257  nElectrons: 1104.000000
	SubspaceRotationAdjust: set factor to 0.273
ElecMinimize: Iter:  57  F: -7009.421969675578111  |grad|_K:  8.655e-08  alpha:  1.870e-01  linmin:  1.212e-07  t[s]:    817.39
	FillingsUpdate:  mu: -0.179294793  nElectrons: 1104.000000
	SubspaceRotationAdjust: set factor to 0.247
ElecMinimize: Iter:  58  F: -7009.421969782098131  |grad|_K:  6.521e-08  alpha:  1.104e-01  linmin:  2.810e-08  t[s]:    828.18
	FillingsUpdate:  mu: -0.179293831  nElectrons: 1104.000000
	SubspaceRotationAdjust: set factor to 0.248
ElecMinimize: Iter:  59  F: -7009.421969868078122  |grad|_K:  6.300e-08  alpha:  1.572e-01  linmin:  2.021e-07  t[s]:    839.00
	FillingsUpdate:  mu: -0.179285176  nElectrons: 1104.000000
	SubspaceRotationAdjust: set factor to 0.268
ElecMinimize: Iter:  60  F: -7009.421969947296020  |grad|_K:  5.375e-08  alpha:  1.558e-01  linmin:  8.606e-08  t[s]:    849.87
	FillingsUpdate:  mu: -0.179278912  nElectrons: 1104.000000
	SubspaceRotationAdjust: set factor to 0.238
ElecMinimize: Iter:  61  F: -7009.421969994336905  |grad|_K:  4.489e-08  alpha:  1.265e-01  linmin:  5.232e-08  t[s]:    860.74
	FillingsUpdate:  mu: -0.179282484  nElectrons: 1104.000000
	SubspaceRotationAdjust: set factor to 0.252
ElecMinimize: Iter:  62  F: -7009.421970038414656  |grad|_K:  4.357e-08  alpha:  1.697e-01  linmin: -1.740e-07  t[s]:    871.64
	FillingsUpdate:  mu: -0.179286246  nElectrons: 1104.000000
	SubspaceRotationAdjust: set factor to 0.24
ElecMinimize: Iter:  63  F: -7009.421970071522992  |grad|_K:  3.321e-08  alpha:  1.353e-01  linmin:  2.697e-07  t[s]:    882.53
	FillingsUpdate:  mu: -0.179286657  nElectrons: 1104.000000
	SubspaceRotationAdjust: set factor to 0.23
ElecMinimize: Iter:  64  F: -7009.421970095029792  |grad|_K:  3.298e-08  alpha:  1.689e-01  linmin:  6.299e-07  t[s]:    893.39
	FillingsUpdate:  mu: -0.179287998  nElectrons: 1104.000000
	SubspaceRotationAdjust: set factor to 0.235
ElecMinimize: Iter:  65  F: -7009.421970113441603  |grad|_K:  2.571e-08  alpha:  1.341e-01  linmin:  4.097e-08  t[s]:    904.23
	FillingsUpdate:  mu: -0.179286652  nElectrons: 1104.000000
	SubspaceRotationAdjust: set factor to 0.227
ElecMinimize: Iter:  66  F: -7009.421970127450550  |grad|_K:  2.513e-08  alpha:  1.688e-01  linmin:  4.708e-07  t[s]:    915.01
	FillingsUpdate:  mu: -0.179283611  nElectrons: 1104.000000
	SubspaceRotationAdjust: set factor to 0.249
ElecMinimize: Iter:  67  F: -7009.421970140061603  |grad|_K:  2.125e-08  alpha:  1.576e-01  linmin:  4.099e-08  t[s]:    925.84
	FillingsUpdate:  mu: -0.179283770  nElectrons: 1104.000000
	SubspaceRotationAdjust: set factor to 0.229
ElecMinimize: Iter:  68  F: -7009.421970147357570  |grad|_K:  1.694e-08  alpha:  1.227e-01  linmin: -1.294e-07  t[s]:    936.67
	FillingsUpdate:  mu: -0.179284389  nElectrons: 1104.000000
	SubspaceRotationAdjust: set factor to 0.252
ElecMinimize: Iter:  69  F: -7009.421970155475719  |grad|_K:  1.881e-08  alpha:  2.216e-01  linmin:  2.330e-07  t[s]:    947.48
ElecMinimize: Converged (|Delta F|<1.000000e-08 for 2 iters).
Setting wave functions to eigenvectors of Hamiltonian

# Ionic positions in cartesian coordinates:
ion Ni  32.181155145269997   0.000000000000000  10.727052344999997 0
ion Ni   5.363526172499999   0.000000000000000   5.363526172499999 0
ion Ni  32.181155145269997   5.363526172499999   5.363526172499999 0
ion Ni   5.363526172499999   5.363526172499999  10.727052344999997 0
ion Ni  32.181155145269997  10.727052344999999  10.727052344999997 0
ion Ni  32.181155145269997  21.454102800270000  10.727052344999997 0
ion Ni   5.363526172499999  21.454102800270000   5.363526172499999 0
ion Ni   5.363526172499999  10.727052344999999   5.363526172499999 0
ion Ni  32.181155145269997  16.090578517499999   5.363526172499999 0
ion Ni  32.181155145269997  26.817628972769999   5.363526172499999 0
ion Ni   5.363526172499999  26.817628972769999  10.727052344999997 0
ion Ni   5.363526172499999  16.090578517499999  10.727052344999997 0
ion Ni  10.727052344999999   0.000000000000000  10.727052344999997 0
ion Ni  21.454102800270000   0.000000000000000  10.727052344999997 0
ion Ni  21.454102800270000   5.363526172499999   5.363526172499999 0
ion Ni  10.727052344999999   5.363526172499999   5.363526172499999 0
ion Ni  16.090578517499999   5.363526172499999  10.727052344999997 0
ion Ni  26.817628972769999   5.363526172499999  10.727052344999997 0
ion Ni  26.817628972769999   0.000000000000000   5.363526172499999 0
ion Ni  16.090578517499999   0.000000000000000   5.363526172499999 0
ion Ni  10.727052344999999  10.727052344999999  10.727052344999997 0
ion Ni  21.454102800270000  21.454102800270000  10.727052344999997 0
ion Ni  26.817628972769999  21.454102800270000   5.363526172499999 0
ion Ni  16.090578517499999  10.727052344999999   5.363526172499999 0
ion Ni  21.454102800270000  16.090578517499999   5.363526172499999 0
ion Ni  10.727052344999999  26.817628972769999   5.363526172499999 0
ion Ni  16.090578517499999  26.817628972769999  10.727052344999997 0
ion Ni  26.817628972769999  16.090578517499999  10.727052344999997 0
ion Ni  10.727052344999999  21.454102800270000  10.727052344999997 0
ion Ni  21.454102800270000  10.727052344999999  10.727052344999985 0
ion Ni  26.817628972769999  10.727052344999999   5.363526172499999 0
ion Ni  16.090578517499999  21.454102800270000   5.363526172499999 0
ion Ni  21.454102800270000  26.817628972769999   5.363526172499999 0
ion Ni  10.727052344999999  16.090578517499999   5.363526172499999 0
ion Ni  16.090578517499999  16.090578517499999  10.727052344999997 0
ion Ni  26.817628972769999  26.817628972769999  10.727052344999997 0
ion S   4.232241197730000   4.232241197730000   4.232250646379997 0
ion S  27.948915837270000  27.948915837270000   6.494801698619996 0
ion S   1.131284974770000  27.948915837270000   9.595776818879994 0
ion S   9.595765480499999   4.232241197730000   1.131275526120000 0
ion S  27.948915837270000   9.595765480499999   1.131275526120000 0
ion S   4.232241197730000   1.131284974770000   9.595776818879994 0
ion S   9.595765480499999   1.131284974770000   6.494801698619996 0
ion S   1.131284974770000   9.595765480499999   4.232250646379997 0
ion S   4.232241197730000  14.959291652999994   4.232250646379997 0
ion S  27.948915837270000  17.221863492269986   6.494801698619996 0
ion S   1.131284974770000  17.221863492269986   9.595776818879994 0
ion S   9.595765480499999  14.959291652999994   1.131275526120000 0
ion S  27.948915837270000  20.322817825500000   1.131275526120000 0
ion S   4.232241197730000  22.585389664769998   9.595776818879994 0
ion S   9.595765480499999  22.585389664769998   6.494801698619996 0
ion S   1.131284974770000  20.322817825500000   4.232250646379997 0
ion S  14.959291652999994   4.232250646380000   4.232241197729999 0
ion S  17.221863492269986  27.948904498889998   6.494811147269997 0
ion S  17.221863492269986   9.595776818879999   1.131284974770000 0
ion S  14.959291652999994   1.131275526120000   9.595765480499994 0
ion S  20.322817825500000   1.131275526120000   6.494811147269997 0
ion S  22.585389664769998   9.595776818879999   4.232241197729999 0
ion S  22.585389664769998  27.948904498889998   9.595765480499994 0
ion S  20.322817825500000   4.232250646380000   1.131284974770000 0
ion S   4.232241197730000  25.686343997999987   4.232250646379997 0
ion S  27.948915837270000   6.494811147269997   6.494801698619996 0
ion S   1.131284974770000   6.494811147269997   9.595776818879994 0
ion S   9.595765480499999  25.686343997999987   1.131275526120000 0
ion S  27.948915837270000  31.049870170499986   1.131275526120000 0
ion S   4.232241197730000  11.858337319769999   9.595776818879994 0
ion S   9.595765480499999  11.858337319769999   6.494801698619996 0
ion S   1.131284974770000  31.049870170499986   4.232250646379997 0
ion S  25.686343997999987   4.232250646380000   4.232241197729999 0
ion S   6.494811147269997  27.948904498889998   6.494811147269997 0
ion S   6.494811147269997   9.595776818879999   1.131284974770000 0
ion S  25.686343997999987   1.131275526120000   9.595765480499994 0
ion S  31.049870170499986   1.131275526120000   6.494811147269997 0
ion S  11.858337319769999   9.595776818879999   4.232241197729999 0
ion S  11.858337319769999  27.948904498889998   9.595765480499994 0
ion S  31.049870170499986   4.232250646380000   1.131284974770000 0
ion S  14.959291652999994  14.959291652999994   4.232250646379997 0
ion S  17.221863492269986  17.221863492269986   6.494801698619996 0
ion S  22.585389664769998  17.221863492269986   9.595776818879994 0
ion S  20.322817825500000  14.959291652999994   1.131275526120000 0
ion S  17.221863492269986  20.322817825500000   1.131275526120000 0
ion S  14.959291652999994  22.585389664769998   9.595776818879994 0
ion S  20.322817825500000  22.585389664769998   6.494801698619996 0
ion S  22.585389664769998  20.322817825500000   4.232250646379997 0
ion S  14.959291652999994  25.686343997999987   4.232250646379997 0
ion S  17.221863492269986   6.494811147269997   6.494801698619996 0
ion S  22.585389664769998   6.494811147269997   9.595776818879994 0
ion S  20.322817825500000  25.686343997999987   1.131275526120000 0
ion S  17.221863492269986  31.049870170499986   1.131275526120000 0
ion S  14.959291652999994  11.858337319769999   9.595776818879994 0
ion S  20.322817825500000  11.858337319769999   6.494801698619996 0
ion S  22.585389664769998  31.049870170499986   4.232250646379997 0
ion S  25.686343997999987  14.959291652999994   4.232250646379997 0
ion S   6.494811147269997  17.221863492269986   6.494801698619996 0
ion S  11.858337319769999  17.221863492269986   9.595776818879994 0
ion S  31.049870170499986  14.959291652999994   1.131275526120000 0
ion S   6.494811147269997  20.322817825500000   1.131275526120000 0
ion S  25.686343997999987  22.585389664769998   9.595776818879994 0
ion S  31.049870170499986  22.585389664769998   6.494801698619996 0
ion S  11.858337319769999  20.322817825500000   4.232250646379997 0
ion S  25.686343997999987  25.686343997999987   4.232250646379997 0
ion S   6.494811147269997   6.494811147269997   6.494801698619996 0
ion S  11.858337319769999   6.494811147269997   9.595776818879994 0
ion S  31.049870170499986  25.686343997999987   1.131275526120000 0
ion S   6.494811147269997  31.049870170499986   1.131275526120000 0
ion S  25.686343997999987  11.858337319769999   9.595776818879994 0
ion S  31.049870170499986  11.858337319769999   6.494801698619996 0
ion S  11.858337319769999  31.049870170499986   4.232250646379997 0
ion S  16.923788969407859  10.317310403456167  16.132611455068087 1
ion Na  12.923463557474662  12.896328039108512  16.571994681472233 1
ion Na  20.881517465649530  12.909227344235736  17.096146600410258 1

# Forces in Cartesian coordinates:
force Ni   0.023474591310017  -0.011634843901417  -0.039307391849517 0
force Ni  -0.001655602413730  -0.000729631866892  -0.009123861841943 0
force Ni   0.001597818763700  -0.000740797290541  -0.009166119761621 0
force Ni  -0.023373174396251  -0.011612780865532  -0.039281685759474 0
force Ni   0.023440046119209  -0.011703612845876  -0.039377617229697 0
force Ni   0.023437772980322  -0.011650787471735  -0.039325674188696 0
force Ni  -0.001615472298151  -0.000758097322768  -0.009144561242813 0
force Ni  -0.001384158007321  -0.000710964992466  -0.009186924937061 0
force Ni   0.001556949549336  -0.000720842002693  -0.009164184467583 0
force Ni   0.001650607004520  -0.000730084330343  -0.009132893176540 0
force Ni  -0.023444706354454  -0.011607727383427  -0.039279568836459 0
force Ni  -0.023247968558435  -0.011933353874573  -0.039189341934472 0
force Ni   0.023545191924182  -0.011520139474519  -0.039263155368763 0
force Ni   0.023463426206970  -0.011557713271244  -0.039183356911144 0
force Ni   0.002166592339327  -0.000713110302962  -0.008959793133395 0
force Ni   0.001695572729738  -0.000646386252142  -0.008729319670882 0
force Ni  -0.022563081256858  -0.008552733945329  -0.033815861341963 0
force Ni  -0.023826769352626  -0.011610623731780  -0.039551990213650 0
force Ni  -0.001663103361712  -0.000690370712152  -0.009096041315847 0
force Ni  -0.001801411926630  -0.000648635209848  -0.008985348331930 0
force Ni   0.024427188768625  -0.011694766783618  -0.038895415318435 0
force Ni   0.023378374876813  -0.011535529877479  -0.039290189928586 0
force Ni  -0.001608075338061  -0.000835477937830  -0.009179578971427 0
force Ni  -0.002641059894844  -0.000041891603672  -0.009122205161778 0
force Ni   0.001391060738045  -0.001076546261795  -0.009440328517039 0
force Ni   0.001626884552567  -0.000741181906187  -0.009136443745702 0
force Ni  -0.023429672006608  -0.011576787779476  -0.039270636481716 0
force Ni  -0.023344499950091  -0.011714883123587  -0.039056430692207 0
force Ni   0.023344034769167  -0.011411805697208  -0.039260126411808 0
force Ni   0.018852549580338  -0.011629901829032  -0.031747721679548 0
force Ni  -0.001612385975869  -0.000862022391452  -0.009512936646549 0
force Ni  -0.001623989827235  -0.000878798874694  -0.009138367410390 0
force Ni   0.001638715434858  -0.000750135545169  -0.009126882602911 0
force Ni   0.001251081068322  -0.001232379733807  -0.009491181120498 0
force Ni  -0.022588491787604  -0.013454327529831  -0.036649008885183 0
force Ni  -0.023450559399527  -0.011580791712376  -0.039314004375053 0
force S  -0.004561560779817  -0.004181762110526  -0.003900440344383 0
force S   0.003276288732574   0.001049660485194   0.011272295070865 0
force S  -0.002561448271691   0.006964078726947   0.019975287700668 0
force S  -0.004063950134946   0.008525847565087   0.021307595585589 0
force S   0.004098261615820   0.008498629166093   0.021192734303899 0
force S   0.002587252664550   0.006971810183436   0.019958964182597 0
force S  -0.003263160601748   0.001042340805831   0.011296914112673 0
force S   0.004521526055654  -0.004204591498597  -0.003864987553840 0
force S  -0.004478150973144  -0.004221113749958  -0.003945171878108 0
force S   0.003444053026564   0.001182613545036   0.010933804183841 0
force S  -0.002621755662920   0.007047542216106   0.020271934069720 0
force S  -0.004091094159195   0.008556076452447   0.021074276576648 0
force S   0.004059330022595   0.008561017554240   0.021285827322104 0
force S   0.002619061960855   0.006983153612513   0.020114204445631 0
force S  -0.003331020914274   0.001141498591035   0.011149598583833 0
force S   0.004544045497565  -0.004200213480418  -0.003911976397441 0
force S  -0.004605842007082  -0.004111587648027  -0.003911156906829 0
force S   0.003257513677094   0.001027065862909   0.011308093003989 0
force S   0.004289577179887   0.008326570809568   0.020779617304250 0
force S   0.002712574879636   0.007457541769136   0.019134862168312 0
force S  -0.003281130738337   0.001047115464774   0.011387408543752 0
force S   0.004503091403815  -0.004239919617723  -0.004048119821437 0
force S  -0.002579893210958   0.006991042197898   0.019986993617166 0
force S  -0.004142650937034   0.008610462121127   0.021334488997571 0
force S  -0.004534962927968  -0.004190249295985  -0.003912588264033 0
force S   0.003324710116354   0.001075265481022   0.011307036026383 0
force S  -0.002595712920638   0.007008662098341   0.020134459038111 0
force S  -0.004064094806328   0.008556536998190   0.021336237130160 0
force S   0.004055854350570   0.008524099048303   0.021349886676102 0
force S   0.002637330477399   0.007092014762522   0.020518234338416 0
force S  -0.003787450744662   0.001429179586634   0.010479283300168 0
force S   0.004545926314699  -0.004189193793046  -0.003910332085851 0
force S  -0.004549795098555  -0.004203265132737  -0.003958407859515 0
force S   0.003254617006867   0.001040376760563   0.011310740825945 0
force S   0.004144250218547   0.008526432617396   0.021311663014705 0
force S   0.002562138210827   0.006985420956801   0.019916538489932 0
force S  -0.003270038851666   0.001034905800695   0.011305968648308 0
force S   0.004831839668465  -0.004211205766006  -0.003960169142995 0
force S  -0.002541730863012   0.006997257761155   0.019994824694675 0
force S  -0.004079695111477   0.008531019588768   0.021351349657340 0
force S  -0.004460122924244  -0.004843568252010  -0.003186331683199 0
force S   0.003439187948969   0.001276160358210   0.011029424566293 0
force S  -0.002354296768712   0.007181801771536   0.022024174094725 0
force S  -0.004083247363914   0.008484061300074   0.021105697334212 0
force S   0.004029170185365   0.008516892106699   0.021230148163559 0
force S   0.002600829845935   0.006991844754402   0.020363655578095 0
force S  -0.003297472757715   0.001128918985754   0.011134965586896 0
force S   0.004539359517658  -0.004236482367603  -0.003876361909334 0
force S  -0.004522168565474  -0.004209147241229  -0.003905656969287 0
force S   0.002938276151130   0.000495783688036   0.011985829851136 0
force S  -0.001427421196947   0.006045482104249   0.018314144853097 0
force S  -0.004040424132107   0.008571635264012   0.021326588023983 0
force S   0.004047921043643   0.008557436741244   0.021376594095678 0
force S  -0.000236929315353   0.007681243288144   0.016458173774007 0
force S  -0.003161508621801   0.000927152886598   0.011096055630156 0
force S   0.004534450207582  -0.004161255110963  -0.003916669445544 0
force S  -0.004581975584038  -0.004257521116079  -0.003891484610416 0
force S   0.003215285924417   0.001191404614151   0.011098521064905 0
force S  -0.002474407179405   0.006899469441357   0.022515374874240 0
force S  -0.004033419912870   0.008519583459915   0.021307108595358 0
force S   0.004047991858773   0.008542164480841   0.021318653865924 0
force S   0.002557013043827   0.006993065686396   0.020279260496640 0
force S  -0.003274395606555   0.001069520672392   0.011270325756919 0
force S   0.004507369742156  -0.004262351217261  -0.003840975164394 0
force S  -0.004510957149664  -0.004202328716627  -0.003919981639964 0
force S   0.003249507277275   0.001022777086018   0.011276819103665 0
force S  -0.002966475575118   0.006421101355149   0.018752411599156 0
force S  -0.004050393342065   0.008536829993666   0.021344519793290 0
force S   0.004059858549686   0.008536956094529   0.021362577474331 0
force S   0.001614550700676   0.006883985229917   0.021505928547813 0
force S  -0.003228214197385   0.001081197260714   0.011251764233648 0
force S   0.004484783380021  -0.004214143326910  -0.003966253202045 0
force S   0.007105506673338   0.001034060839557  -0.003542717389443 1
force Na  -0.000321819059054   0.000065566931499  -0.005902572379462 1
force Na  -0.001125547862589  -0.001491058431696  -0.004558988267774 1

# Energy components:
   Eewald =   -17963.6686705903375696
       EH =   -11852.6814261181643815
     Eloc =    21589.4339513089144020
      Enl =      907.3066496919414021
      Exc =     -957.3119346471335120
 Exc_core =      143.4819589999158609
       KE =     1125.0554070305556706
-------------------------------------
     Etot =    -7008.3840643243074737
       TS =        1.0379058311685911
-------------------------------------
        F =    -7009.4219701554757194

IonicMinimize: Iter:   0  F: -7009.421970155475719  |grad|_K:  3.702e-03  alpha:  1.000e+00

#--- Lowdin population analysis ---
# oxidation-state Ni -0.009 -0.449 -0.449 -0.011 -0.017 -0.013 -0.449 -0.449 -0.449 -0.449 -0.009 -0.029 -0.006 -0.003 -0.450 -0.450 +0.027 -0.011 -0.449 -0.449 -0.078 -0.024 -0.449 -0.452 -0.448 -0.449 -0.010 -0.038 -0.023 -0.053 -0.449 -0.449 -0.449 -0.448 -0.049 -0.010
# oxidation-state S +0.318 +0.445 +0.084 -0.014 -0.014 +0.084 +0.445 +0.318 +0.318 +0.444 +0.083 -0.014 -0.013 +0.083 +0.445 +0.318 +0.318 +0.445 -0.014 +0.087 +0.445 +0.318 +0.083 -0.013 +0.318 +0.445 +0.083 -0.013 -0.013 +0.084 +0.446 +0.318 +0.318 +0.445 -0.014 +0.085 +0.445 +0.319 +0.084 -0.013 +0.320 +0.445 +0.076 -0.014 -0.014 +0.082 +0.445 +0.317 +0.318 +0.445 +0.093 -0.014 -0.014 +0.137 +0.445 +0.318 +0.317 +0.444 +0.076 -0.014 -0.014 +0.082 +0.445 +0.317 +0.318 +0.445 +0.092 -0.013 -0.013 +0.081 +0.444 +0.318 -0.930
# oxidation-state Na +0.685 +0.700


-------- Electronic minimization -----------
	FillingsUpdate:  mu: -0.179289542  nElectrons: 1104.000000
ElecMinimize: Iter:   0  F: -7009.422085635292206  |grad|_K:  7.020e-07  alpha:  1.000e+00
	FillingsUpdate:  mu: -0.179332563  nElectrons: 1104.000000
	SubspaceRotationAdjust: set factor to 0.187
ElecMinimize: Iter:   1  F: -7009.422089564882299  |grad|_K:  1.918e-07  alpha:  6.164e-02  linmin: -1.407e-04  t[s]:    973.04
	FillingsUpdate:  mu: -0.179309154  nElectrons: 1104.000000
	SubspaceRotationAdjust: set factor to 0.126
ElecMinimize: Iter:   2  F: -7009.422090358989408  |grad|_K:  1.527e-07  alpha:  1.667e-01  linmin: -8.516e-06  t[s]:    983.90
	FillingsUpdate:  mu: -0.179302524  nElectrons: 1104.000000
	SubspaceRotationAdjust: set factor to 0.169
ElecMinimize: Iter:   3  F: -7009.422091063685002  |grad|_K:  8.970e-08  alpha:  2.341e-01  linmin: -2.592e-06  t[s]:    994.77
	FillingsUpdate:  mu: -0.179313527  nElectrons: 1104.000000
	SubspaceRotationAdjust: set factor to 0.159
ElecMinimize: Iter:   4  F: -7009.422091332728996  |grad|_K:  7.850e-08  alpha:  2.589e-01  linmin:  1.373e-06  t[s]:   1005.65
	FillingsUpdate:  mu: -0.179309900  nElectrons: 1104.000000
	SubspaceRotationAdjust: set factor to 0.122
ElecMinimize: Iter:   5  F: -7009.422091474311856  |grad|_K:  4.640e-08  alpha:  1.785e-01  linmin: -1.340e-07  t[s]:   1016.51
	FillingsUpdate:  mu: -0.179310954  nElectrons: 1104.000000
	SubspaceRotationAdjust: set factor to 0.12
ElecMinimize: Iter:   6  F: -7009.422091545960939  |grad|_K:  3.979e-08  alpha:  2.572e-01  linmin: -1.646e-06  t[s]:   1027.35
	FillingsUpdate:  mu: -0.179309477  nElectrons: 1104.000000
	SubspaceRotationAdjust: set factor to 0.127
ElecMinimize: Iter:   7  F: -7009.422091611999349  |grad|_K:  3.412e-08  alpha:  3.231e-01  linmin:  7.211e-07  t[s]:   1038.17
	FillingsUpdate:  mu: -0.179309211  nElectrons: 1104.000000
	SubspaceRotationAdjust: set factor to 0.119
ElecMinimize: Iter:   8  F: -7009.422091661044760  |grad|_K:  3.215e-08  alpha:  3.271e-01  linmin:  1.205e-06  t[s]:   1048.97
	FillingsUpdate:  mu: -0.179304913  nElectrons: 1104.000000
	SubspaceRotationAdjust: set factor to 0.13
ElecMinimize: Iter:   9  F: -7009.422091697261749  |grad|_K:  2.503e-08  alpha:  2.745e-01  linmin:  1.660e-07  t[s]:   1059.78
	FillingsUpdate:  mu: -0.179299029  nElectrons: 1104.000000
	SubspaceRotationAdjust: set factor to 0.134
ElecMinimize: Iter:  10  F: -7009.422091725416976  |grad|_K:  2.321e-08  alpha:  3.505e-01  linmin:  9.111e-08  t[s]:   1070.62
	FillingsUpdate:  mu: -0.179302776  nElectrons: 1104.000000
	SubspaceRotationAdjust: set factor to 0.126
ElecMinimize: Iter:  11  F: -7009.422091745504986  |grad|_K:  2.163e-08  alpha:  2.857e-01  linmin:  2.304e-07  t[s]:   1081.44
	FillingsUpdate:  mu: -0.179302385  nElectrons: 1104.000000
	SubspaceRotationAdjust: set factor to 0.113
ElecMinimize: Iter:  12  F: -7009.422091760467993  |grad|_K:  1.418e-08  alpha:  2.494e-01  linmin: -1.080e-06  t[s]:   1092.27
	FillingsUpdate:  mu: -0.179300478  nElectrons: 1104.000000
	SubspaceRotationAdjust: set factor to 0.116
ElecMinimize: Iter:  13  F: -7009.422091769883082  |grad|_K:  1.491e-08  alpha:  3.678e-01  linmin:  8.834e-07  t[s]:   1103.08
	FillingsUpdate:  mu: -0.179302560  nElectrons: 1104.000000
	SubspaceRotationAdjust: set factor to 0.106
ElecMinimize: Iter:  14  F: -7009.422091779272705  |grad|_K:  1.251e-08  alpha:  3.389e-01  linmin:  6.463e-07  t[s]:   1113.92
ElecMinimize: Converged (|Delta F|<1.000000e-08 for 2 iters).
Setting wave functions to eigenvectors of Hamiltonian
IonicMinimize: 	Predicted alpha/alphaT>3.000000, increasing alphaT to 3.000000e+00.

-------- Electronic minimization -----------
	FillingsUpdate:  mu: -0.179299000  nElectrons: 1104.000000
ElecMinimize: Iter:   0  F: -7009.422311951860138  |grad|_K:  5.259e-07  alpha:  1.000e+00
	FillingsUpdate:  mu: -0.179373693  nElectrons: 1104.000000
	SubspaceRotationAdjust: set factor to 0.0691
ElecMinimize: Iter:   1  F: -7009.422317595052846  |grad|_K:  2.835e-07  alpha:  1.580e-01  linmin: -1.635e-05  t[s]:   1133.82
	FillingsUpdate:  mu: -0.179351997  nElectrons: 1104.000000
	SubspaceRotationAdjust: set factor to 0.078
ElecMinimize: Iter:   2  F: -7009.422321081245173  |grad|_K:  1.778e-07  alpha:  3.361e-01  linmin: -8.434e-07  t[s]:   1144.67
	FillingsUpdate:  mu: -0.179367614  nElectrons: 1104.000000
	SubspaceRotationAdjust: set factor to 0.0874
ElecMinimize: Iter:   3  F: -7009.422322283827270  |grad|_K:  1.021e-07  alpha:  2.948e-01  linmin: -1.350e-07  t[s]:   1155.47
	FillingsUpdate:  mu: -0.179357407  nElectrons: 1104.000000
	SubspaceRotationAdjust: set factor to 0.0822
ElecMinimize: Iter:   4  F: -7009.422322738785624  |grad|_K:  8.193e-08  alpha:  3.384e-01  linmin:  2.595e-06  t[s]:   1166.34
	FillingsUpdate:  mu: -0.179359426  nElectrons: 1104.000000
	SubspaceRotationAdjust: set factor to 0.0718
ElecMinimize: Iter:   5  F: -7009.422323000271717  |grad|_K:  5.591e-08  alpha:  3.021e-01  linmin:  1.712e-07  t[s]:   1178.73
	FillingsUpdate:  mu: -0.179345063  nElectrons: 1104.000000
	SubspaceRotationAdjust: set factor to 0.0826
ElecMinimize: Iter:   6  F: -7009.422323286473329  |grad|_K:  5.770e-08  alpha:  7.075e-01  linmin: -1.335e-06  t[s]:   1189.39
	FillingsUpdate:  mu: -0.179351020  nElectrons: 1104.000000
	SubspaceRotationAdjust: set factor to 0.0918
ElecMinimize: Iter:   7  F: -7009.422323425028480  |grad|_K:  5.220e-08  alpha:  3.222e-01  linmin:  1.215e-07  t[s]:   1200.05
	FillingsUpdate:  mu: -0.179341080  nElectrons: 1104.000000
	SubspaceRotationAdjust: set factor to 0.0969
ElecMinimize: Iter:   8  F: -7009.422323636538749  |grad|_K:  5.134e-08  alpha:  6.034e-01  linmin:  6.953e-07  t[s]:   1210.73
	FillingsUpdate:  mu: -0.179340050  nElectrons: 1104.000000
	SubspaceRotationAdjust: set factor to 0.0853
ElecMinimize: Iter:   9  F: -7009.422323765570582  |grad|_K:  4.460e-08  alpha:  3.792e-01  linmin:  1.226e-07  t[s]:   1221.39
	FillingsUpdate:  mu: -0.179335220  nElectrons: 1104.000000
	SubspaceRotationAdjust: set factor to 0.0798
ElecMinimize: Iter:  10  F: -7009.422323874457106  |grad|_K:  4.447e-08  alpha:  4.254e-01  linmin: -1.833e-08  t[s]:   1232.06
	FillingsUpdate:  mu: -0.179334181  nElectrons: 1104.000000
	SubspaceRotationAdjust: set factor to 0.079
ElecMinimize: Iter:  11  F: -7009.422323963659437  |grad|_K:  3.662e-08  alpha:  3.505e-01  linmin:  8.983e-08  t[s]:   1242.85
	FillingsUpdate:  mu: -0.179329133  nElectrons: 1104.000000
	SubspaceRotationAdjust: set factor to 0.0811
ElecMinimize: Iter:  12  F: -7009.422324047229267  |grad|_K:  2.916e-08  alpha:  4.838e-01  linmin:  3.554e-07  t[s]:   1253.72
	FillingsUpdate:  mu: -0.179334213  nElectrons: 1104.000000
	SubspaceRotationAdjust: set factor to 0.0734
ElecMinimize: Iter:  13  F: -7009.422324085328910  |grad|_K:  2.409e-08  alpha:  3.506e-01  linmin:  1.141e-07  t[s]:   1264.53
	FillingsUpdate:  mu: -0.179331851  nElectrons: 1104.000000
	SubspaceRotationAdjust: set factor to 0.0686
ElecMinimize: Iter:  14  F: -7009.422324109277724  |grad|_K:  1.510e-08  alpha:  3.194e-01  linmin: -3.745e-07  t[s]:   1275.37
	FillingsUpdate:  mu: -0.179332824  nElectrons: 1104.000000
	SubspaceRotationAdjust: set factor to 0.0709
ElecMinimize: Iter:  15  F: -7009.422324121623205  |grad|_K:  1.222e-08  alpha:  4.215e-01  linmin:  1.568e-06  t[s]:   1286.25
	FillingsUpdate:  mu: -0.179333192  nElectrons: 1104.000000
	SubspaceRotationAdjust: set factor to 0.0702
ElecMinimize: Iter:  16  F: -7009.422324127900538  |grad|_K:  8.445e-09  alpha:  3.407e-01  linmin: -1.101e-06  t[s]:   1297.13
	FillingsUpdate:  mu: -0.179332678  nElectrons: 1104.000000
	SubspaceRotationAdjust: set factor to 0.0719
ElecMinimize: Iter:  17  F: -7009.422324131382084  |grad|_K:  7.015e-09  alpha:  3.756e-01  linmin:  3.996e-06  t[s]:   1307.99
ElecMinimize: Converged (|Delta F|<1.000000e-08 for 2 iters).
Setting wave functions to eigenvectors of Hamiltonian
IonicMinimize: 	Predicted alpha/alphaT>3.000000, increasing alphaT to 9.000000e+00.

-------- Electronic minimization -----------
	FillingsUpdate:  mu: -0.182064486  nElectrons: 1104.000000
ElecMinimize: Iter:   0  F: -7009.376148599292719  |grad|_K:  3.354e-05  alpha:  1.000e+00
	FillingsUpdate:  mu: -0.180451972  nElectrons: 1104.000000
	SubspaceRotationAdjust: set factor to 0.072
ElecMinimize: Iter:   1  F: -7009.418648917310747  |grad|_K:  7.070e-06  alpha:  2.950e-01  linmin:  2.352e-03  t[s]:   1327.71
	FillingsUpdate:  mu: -0.179926733  nElectrons: 1104.000000
	SubspaceRotationAdjust: set factor to 0.0697
ElecMinimize: Iter:   2  F: -7009.421473019623591  |grad|_K:  4.358e-06  alpha:  4.408e-01  linmin:  3.960e-06  t[s]:   1338.60
	FillingsUpdate:  mu: -0.179845714  nElectrons: 1104.000000
	SubspaceRotationAdjust: set factor to 0.0639
ElecMinimize: Iter:   3  F: -7009.422057200587915  |grad|_K:  2.662e-06  alpha:  2.386e-01  linmin:  2.989e-06  t[s]:   1349.49
	FillingsUpdate:  mu: -0.179753039  nElectrons: 1104.000000
	SubspaceRotationAdjust: set factor to 0.0665
ElecMinimize: Iter:   4  F: -7009.422343328103125  |grad|_K:  1.791e-06  alpha:  3.131e-01  linmin:  2.202e-08  t[s]:   1360.39
	FillingsUpdate:  mu: -0.179681729  nElectrons: 1104.000000
	SubspaceRotationAdjust: set factor to 0.0813
ElecMinimize: Iter:   5  F: -7009.422509038949102  |grad|_K:  9.701e-07  alpha:  4.005e-01  linmin:  1.695e-06  t[s]:   1371.24
	FillingsUpdate:  mu: -0.179632849  nElectrons: 1104.000000
	SubspaceRotationAdjust: set factor to 0.094
ElecMinimize: Iter:   6  F: -7009.422592006253581  |grad|_K:  1.044e-06  alpha:  6.835e-01  linmin: -8.939e-07  t[s]:   1382.11
	FillingsUpdate:  mu: -0.179589934  nElectrons: 1104.000000
	SubspaceRotationAdjust: set factor to 0.106
ElecMinimize: Iter:   7  F: -7009.422639989889831  |grad|_K:  9.830e-07  alpha:  3.415e-01  linmin: -3.866e-07  t[s]:   1392.94
	FillingsUpdate:  mu: -0.179562546  nElectrons: 1104.000000
	SubspaceRotationAdjust: set factor to 0.115
ElecMinimize: Iter:   8  F: -7009.422697134306873  |grad|_K:  1.004e-06  alpha:  4.583e-01  linmin: -7.741e-07  t[s]:   1403.80
	FillingsUpdate:  mu: -0.179456262  nElectrons: 1104.000000
	SubspaceRotationAdjust: set factor to 0.121
ElecMinimize: Iter:   9  F: -7009.422774955728528  |grad|_K:  9.490e-07  alpha:  5.985e-01  linmin: -9.995e-07  t[s]:   1414.68
	FillingsUpdate:  mu: -0.179472839  nElectrons: 1104.000000
	SubspaceRotationAdjust: set factor to 0.116
ElecMinimize: Iter:  10  F: -7009.422808877555326  |grad|_K:  9.204e-07  alpha:  2.919e-01  linmin: -8.755e-08  t[s]:   1425.58
	FillingsUpdate:  mu: -0.179394295  nElectrons: 1104.000000
	SubspaceRotationAdjust: set factor to 0.111
ElecMinimize: Iter:  11  F: -7009.422864895674138  |grad|_K:  7.516e-07  alpha:  5.125e-01  linmin: -2.492e-07  t[s]:   1436.47
	FillingsUpdate:  mu: -0.179430119  nElectrons: 1104.000000
	SubspaceRotationAdjust: set factor to 0.0972
ElecMinimize: Iter:  12  F: -7009.422887016446111  |grad|_K:  7.238e-07  alpha:  3.035e-01  linmin:  4.526e-08  t[s]:   1447.35
	FillingsUpdate:  mu: -0.179368212  nElectrons: 1104.000000
	SubspaceRotationAdjust: set factor to 0.0753
ElecMinimize: Iter:  13  F: -7009.422908740990351  |grad|_K:  4.727e-07  alpha:  3.215e-01  linmin:  8.903e-08  t[s]:   1458.23
	FillingsUpdate:  mu: -0.179395008  nElectrons: 1104.000000
	SubspaceRotationAdjust: set factor to 0.0749
ElecMinimize: Iter:  14  F: -7009.422918554693752  |grad|_K:  3.478e-07  alpha:  3.405e-01  linmin:  7.278e-08  t[s]:   1469.09
	FillingsUpdate:  mu: -0.179388440  nElectrons: 1104.000000
	SubspaceRotationAdjust: set factor to 0.0725
ElecMinimize: Iter:  15  F: -7009.422924265967595  |grad|_K:  2.513e-07  alpha:  3.660e-01  linmin:  6.438e-08  t[s]:   1479.96
	FillingsUpdate:  mu: -0.179398420  nElectrons: 1104.000000
	SubspaceRotationAdjust: set factor to 0.0694
ElecMinimize: Iter:  16  F: -7009.422926723552337  |grad|_K:  1.749e-07  alpha:  3.017e-01  linmin:  2.522e-07  t[s]:   1490.86
	FillingsUpdate:  mu: -0.179400840  nElectrons: 1104.000000
	SubspaceRotationAdjust: set factor to 0.0746
ElecMinimize: Iter:  17  F: -7009.422928039713042  |grad|_K:  1.271e-07  alpha:  3.337e-01  linmin:  5.733e-07  t[s]:   1501.76
	FillingsUpdate:  mu: -0.179397210  nElectrons: 1104.000000
	SubspaceRotationAdjust: set factor to 0.0888
ElecMinimize: Iter:  18  F: -7009.422928767305166  |grad|_K:  9.316e-08  alpha:  3.490e-01  linmin:  8.110e-07  t[s]:   1512.61
	FillingsUpdate:  mu: -0.179406634  nElectrons: 1104.000000
	SubspaceRotationAdjust: set factor to 0.101
ElecMinimize: Iter:  19  F: -7009.422929205997207  |grad|_K:  7.934e-08  alpha:  3.918e-01  linmin: -1.272e-06  t[s]:   1523.42
	FillingsUpdate:  mu: -0.179404126  nElectrons: 1104.000000
	SubspaceRotationAdjust: set factor to 0.115
ElecMinimize: Iter:  20  F: -7009.422929540242876  |grad|_K:  8.603e-08  alpha:  4.110e-01  linmin:  3.061e-07  t[s]:   1534.28
	FillingsUpdate:  mu: -0.179415344  nElectrons: 1104.000000
	SubspaceRotationAdjust: set factor to 0.13
ElecMinimize: Iter:  21  F: -7009.422929925395692  |grad|_K:  7.820e-08  alpha:  4.034e-01  linmin: -2.924e-07  t[s]:   1545.08
	FillingsUpdate:  mu: -0.179420176  nElectrons: 1104.000000
	SubspaceRotationAdjust: set factor to 0.129
ElecMinimize: Iter:  22  F: -7009.422930263997841  |grad|_K:  8.215e-08  alpha:  4.293e-01  linmin:  2.120e-07  t[s]:   1555.93
	FillingsUpdate:  mu: -0.179430557  nElectrons: 1104.000000
	SubspaceRotationAdjust: set factor to 0.122
ElecMinimize: Iter:  23  F: -7009.422930558324879  |grad|_K:  8.368e-08  alpha:  3.384e-01  linmin:  4.960e-08  t[s]:   1566.81
	FillingsUpdate:  mu: -0.179434913  nElectrons: 1104.000000
	SubspaceRotationAdjust: set factor to 0.113
ElecMinimize: Iter:  24  F: -7009.422930845675182  |grad|_K:  6.097e-08  alpha:  3.182e-01  linmin: -6.478e-08  t[s]:   1577.69
	FillingsUpdate:  mu: -0.179442351  nElectrons: 1104.000000
	SubspaceRotationAdjust: set factor to 0.101
ElecMinimize: Iter:  25  F: -7009.422930992673173  |grad|_K:  5.509e-08  alpha:  3.061e-01  linmin:  9.668e-08  t[s]:   1588.57
	FillingsUpdate:  mu: -0.179444303  nElectrons: 1104.000000
	SubspaceRotationAdjust: set factor to 0.1
ElecMinimize: Iter:  26  F: -7009.422931149773831  |grad|_K:  4.147e-08  alpha:  4.007e-01  linmin: -5.042e-07  t[s]:   1599.49
	FillingsUpdate:  mu: -0.179443864  nElectrons: 1104.000000
	SubspaceRotationAdjust: set factor to 0.102
ElecMinimize: Iter:  27  F: -7009.422931227546542  |grad|_K:  3.247e-08  alpha:  3.509e-01  linmin: -7.687e-08  t[s]:   1610.30
	FillingsUpdate:  mu: -0.179446112  nElectrons: 1104.000000
	SubspaceRotationAdjust: set factor to 0.0978
ElecMinimize: Iter:  28  F: -7009.422931276628333  |grad|_K:  2.900e-08  alpha:  3.615e-01  linmin:  7.936e-07  t[s]:   1620.76
	FillingsUpdate:  mu: -0.179444248  nElectrons: 1104.000000
	SubspaceRotationAdjust: set factor to 0.1
ElecMinimize: Iter:  29  F: -7009.422931311263710  |grad|_K:  2.289e-08  alpha:  3.165e-01  linmin: -5.844e-07  t[s]:   1631.23
	FillingsUpdate:  mu: -0.179443810  nElectrons: 1104.000000
	SubspaceRotationAdjust: set factor to 0.113
ElecMinimize: Iter:  30  F: -7009.422931333469933  |grad|_K:  1.791e-08  alpha:  3.265e-01  linmin: -2.907e-06  t[s]:   1641.70
	FillingsUpdate:  mu: -0.179443248  nElectrons: 1104.000000
	SubspaceRotationAdjust: set factor to 0.128
ElecMinimize: Iter:  31  F: -7009.422931349738974  |grad|_K:  1.590e-08  alpha:  3.956e-01  linmin:  7.781e-07  t[s]:   1652.17
	FillingsUpdate:  mu: -0.179441714  nElectrons: 1104.000000
	SubspaceRotationAdjust: set factor to 0.141
ElecMinimize: Iter:  32  F: -7009.422931361534211  |grad|_K:  1.525e-08  alpha:  3.644e-01  linmin:  4.237e-06  t[s]:   1662.64
	FillingsUpdate:  mu: -0.179440571  nElectrons: 1104.000000
	SubspaceRotationAdjust: set factor to 0.166
ElecMinimize: Iter:  33  F: -7009.422931370464539  |grad|_K:  1.199e-08  alpha:  3.096e-01  linmin: -3.087e-06  t[s]:   1673.43
	FillingsUpdate:  mu: -0.179440213  nElectrons: 1104.000000
	SubspaceRotationAdjust: set factor to 0.164
ElecMinimize: Iter:  34  F: -7009.422931379346664  |grad|_K:  1.527e-08  alpha:  5.184e-01  linmin:  9.630e-06  t[s]:   1684.34
ElecMinimize: Converged (|Delta F|<1.000000e-08 for 2 iters).
Setting wave functions to eigenvectors of Hamiltonian
IonicMinimize: 	Predicted alpha/alphaT>3.000000, increasing alphaT to 2.700000e+01.

-------- Electronic minimization -----------
	FillingsUpdate:  mu: -0.190412819  nElectrons: 1104.000000
ElecMinimize: Iter:   0  F: -7008.617648833207568  |grad|_K:  1.439e-04  alpha:  1.000e+00
	FillingsUpdate:  mu: -0.180848172  nElectrons: 1104.000000
	SubspaceRotationAdjust: set factor to 0.157
ElecMinimize: Iter:   1  F: -7009.319730836235067  |grad|_K:  4.914e-05  alpha:  3.020e-01  linmin:  1.197e-02  t[s]:   1704.04
	FillingsUpdate:  mu: -0.179141354  nElectrons: 1104.000000
	SubspaceRotationAdjust: set factor to 0.114
ElecMinimize: Iter:   2  F: -7009.376995565334255  |grad|_K:  3.421e-05  alpha:  2.082e-01  linmin: -4.050e-05  t[s]:   1714.90
	FillingsUpdate:  mu: -0.181129668  nElectrons: 1104.000000
	SubspaceRotationAdjust: set factor to 0.0874
ElecMinimize: Iter:   3  F: -7009.401678354888645  |grad|_K:  1.675e-05  alpha:  1.633e-01  linmin: -4.380e-06  t[s]:   1725.79
	FillingsUpdate:  mu: -0.180997411  nElectrons: 1104.000000
	SubspaceRotationAdjust: set factor to 0.103
ElecMinimize: Iter:   4  F: -7009.412694594797358  |grad|_K:  8.962e-06  alpha:  3.042e-01  linmin: -2.028e-05  t[s]:   1736.68
	FillingsUpdate:  mu: -0.180605752  nElectrons: 1104.000000
	SubspaceRotationAdjust: set factor to 0.0991
ElecMinimize: Iter:   5  F: -7009.416246293561926  |grad|_K:  8.367e-06  alpha:  3.424e-01  linmin:  4.757e-06  t[s]:   1747.54
	FillingsUpdate:  mu: -0.180459177  nElectrons: 1104.000000
	SubspaceRotationAdjust: set factor to 0.11
ElecMinimize: Iter:   6  F: -7009.418494097177245  |grad|_K:  4.464e-06  alpha:  2.491e-01  linmin:  5.207e-07  t[s]:   1758.38
	FillingsUpdate:  mu: -0.180310101  nElectrons: 1104.000000
	SubspaceRotationAdjust: set factor to 0.128
ElecMinimize: Iter:   7  F: -7009.419592247234505  |grad|_K:  4.444e-06  alpha:  4.272e-01  linmin:  4.239e-07  t[s]:   1769.22
	FillingsUpdate:  mu: -0.180202233  nElectrons: 1104.000000
	SubspaceRotationAdjust: set factor to 0.133
ElecMinimize: Iter:   8  F: -7009.420454020035322  |grad|_K:  4.431e-06  alpha:  3.384e-01  linmin: -2.976e-07  t[s]:   1780.04
	FillingsUpdate:  mu: -0.180144600  nElectrons: 1104.000000
	SubspaceRotationAdjust: set factor to 0.129
ElecMinimize: Iter:   9  F: -7009.421185345110644  |grad|_K:  3.555e-06  alpha:  2.887e-01  linmin: -5.584e-07  t[s]:   1790.86
	FillingsUpdate:  mu: -0.180005369  nElectrons: 1104.000000
	SubspaceRotationAdjust: set factor to 0.146
ElecMinimize: Iter:  10  F: -7009.422119653723712  |grad|_K:  3.438e-06  alpha:  5.724e-01  linmin: -2.092e-06  t[s]:   1801.69
	FillingsUpdate:  mu: -0.179893495  nElectrons: 1104.000000
	SubspaceRotationAdjust: set factor to 0.143
ElecMinimize: Iter:  11  F: -7009.422627317604565  |grad|_K:  3.315e-06  alpha:  3.325e-01  linmin: -1.908e-08  t[s]:   1812.51
	FillingsUpdate:  mu: -0.179830009  nElectrons: 1104.000000
	SubspaceRotationAdjust: set factor to 0.135
ElecMinimize: Iter:  12  F: -7009.423063017699860  |grad|_K:  2.553e-06  alpha:  3.074e-01  linmin: -3.642e-07  t[s]:   1823.33
	FillingsUpdate:  mu: -0.179891619  nElectrons: 1104.000000
	SubspaceRotationAdjust: set factor to 0.126
ElecMinimize: Iter:  13  F: -7009.423366049750257  |grad|_K:  2.356e-06  alpha:  3.604e-01  linmin: -1.380e-07  t[s]:   1834.15
	FillingsUpdate:  mu: -0.179753821  nElectrons: 1104.000000
	SubspaceRotationAdjust: set factor to 0.108
ElecMinimize: Iter:  14  F: -7009.423559506914899  |grad|_K:  1.867e-06  alpha:  2.701e-01  linmin: -5.440e-09  t[s]:   1845.03
	FillingsUpdate:  mu: -0.179782206  nElectrons: 1104.000000
	SubspaceRotationAdjust: set factor to 0.0862
ElecMinimize: Iter:  15  F: -7009.423698177965889  |grad|_K:  1.356e-06  alpha:  3.086e-01  linmin:  1.245e-07  t[s]:   1855.91
	FillingsUpdate:  mu: -0.179752522  nElectrons: 1104.000000
	SubspaceRotationAdjust: set factor to 0.0833
ElecMinimize: Iter:  16  F: -7009.423761220098640  |grad|_K:  9.909e-07  alpha:  2.659e-01  linmin: -6.317e-09  t[s]:   1866.82
	FillingsUpdate:  mu: -0.179796566  nElectrons: 1104.000000
	SubspaceRotationAdjust: set factor to 0.0779
ElecMinimize: Iter:  17  F: -7009.423801898517013  |grad|_K:  6.666e-07  alpha:  3.212e-01  linmin:  4.701e-09  t[s]:   1877.72
	FillingsUpdate:  mu: -0.179812572  nElectrons: 1104.000000
	SubspaceRotationAdjust: set factor to 0.0814
ElecMinimize: Iter:  18  F: -7009.423821156458871  |grad|_K:  4.576e-07  alpha:  3.360e-01  linmin:  2.950e-07  t[s]:   1888.63
	FillingsUpdate:  mu: -0.179806147  nElectrons: 1104.000000
	SubspaceRotationAdjust: set factor to 0.0748
ElecMinimize: Iter:  19  F: -7009.423828925671842  |grad|_K:  3.619e-07  alpha:  2.876e-01  linmin:  2.497e-07  t[s]:   1899.53
	FillingsUpdate:  mu: -0.179809364  nElectrons: 1104.000000
	SubspaceRotationAdjust: set factor to 0.0855
[...]
	FillingsUpdate:  mu: -0.178729534  nElectrons: 1104.000000
	SubspaceRotationAdjust: set factor to 0.0786
ElecMinimize: Iter:  12  F: -7009.522282595744400  |grad|_K:  3.192e-08  alpha:  3.892e-01  linmin: -2.633e-05  t[s]:  85115.23
	FillingsUpdate:  mu: -0.178731113  nElectrons: 1104.000000
	SubspaceRotationAdjust: set factor to 0.0747
ElecMinimize: Iter:  13  F: -7009.522282631909547  |grad|_K:  2.139e-08  alpha:  2.750e-01  linmin: -2.138e-05  t[s]:  85126.05
	FillingsUpdate:  mu: -0.178731726  nElectrons: 1104.000000
	SubspaceRotationAdjust: set factor to 0.0744
ElecMinimize: Iter:  14  F: -7009.522282657896540  |grad|_K:  1.595e-08  alpha:  4.467e-01  linmin:  2.634e-04  t[s]:  85136.84
	FillingsUpdate:  mu: -0.178730724  nElectrons: 1104.000000
	SubspaceRotationAdjust: set factor to 0.0733
ElecMinimize: Iter:  15  F: -7009.522282667240688  |grad|_K:  1.109e-08  alpha:  2.866e-01  linmin: -3.601e-05  t[s]:  85147.66
	FillingsUpdate:  mu: -0.178732207  nElectrons: 1104.000000
	SubspaceRotationAdjust: set factor to 0.0816
ElecMinimize: Iter:  16  F: -7009.522282673137852  |grad|_K:  7.707e-09  alpha:  3.543e-01  linmin: -1.385e-03  t[s]:  85158.44
ElecMinimize: Converged (|Delta F|<1.000000e-08 for 2 iters).
Setting wave functions to eigenvectors of Hamiltonian

-------- Electronic minimization -----------
	FillingsUpdate:  mu: -0.178719432  nElectrons: 1104.000000
ElecMinimize: Iter:   0  F: -7009.522281765703156  |grad|_K:  2.064e-07  alpha:  1.000e+00
	FillingsUpdate:  mu: -0.178743416  nElectrons: 1104.000000
	SubspaceRotationAdjust: set factor to 0.153
ElecMinimize: Iter:   1  F: -7009.522282583448032  |grad|_K:  5.861e-08  alpha:  1.488e-01  linmin: -1.279e-05  t[s]:  85178.30
	FillingsUpdate:  mu: -0.178738788  nElectrons: 1104.000000
	SubspaceRotationAdjust: set factor to 0.163
ElecMinimize: Iter:   2  F: -7009.522282666469437  |grad|_K:  1.948e-08  alpha:  1.867e-01  linmin: -2.756e-04  t[s]:  85189.10
	FillingsUpdate:  mu: -0.178736964  nElectrons: 1104.000000
	SubspaceRotationAdjust: set factor to 0.123
ElecMinimize: Iter:   3  F: -7009.522282680743956  |grad|_K:  1.439e-08  alpha:  2.910e-01  linmin:  1.786e-04  t[s]:  85199.88
	FillingsUpdate:  mu: -0.178737680  nElectrons: 1104.000000
	SubspaceRotationAdjust: set factor to 0.109
ElecMinimize: Iter:   4  F: -7009.522282685599748  |grad|_K:  1.025e-08  alpha:  1.944e-01  linmin:  1.120e-04  t[s]:  85210.68
	FillingsUpdate:  mu: -0.178735907  nElectrons: 1104.000000
	SubspaceRotationAdjust: set factor to 0.102
ElecMinimize: Iter:   5  F: -7009.522282689536041  |grad|_K:  9.193e-09  alpha:  3.494e-01  linmin:  2.170e-03  t[s]:  85221.48
ElecMinimize: Converged (|Delta F|<1.000000e-08 for 2 iters).
Setting wave functions to eigenvectors of Hamiltonian

# Ionic positions in cartesian coordinates:
ion Ni  32.181155145269997   0.000000000000000  10.727052344999997 0
ion Ni   5.363526172499999   0.000000000000000   5.363526172499999 0
ion Ni  32.181155145269997   5.363526172499999   5.363526172499999 0
ion Ni   5.363526172499999   5.363526172499999  10.727052344999997 0
ion Ni  32.181155145269997  10.727052344999999  10.727052344999997 0
ion Ni  32.181155145269997  21.454102800270000  10.727052344999997 0
ion Ni   5.363526172499999  21.454102800270000   5.363526172499999 0
ion Ni   5.363526172499999  10.727052344999999   5.363526172499999 0
ion Ni  32.181155145269997  16.090578517499999   5.363526172499999 0
ion Ni  32.181155145269997  26.817628972769999   5.363526172499999 0
ion Ni   5.363526172499999  26.817628972769999  10.727052344999997 0
ion Ni   5.363526172499999  16.090578517499999  10.727052344999997 0
ion Ni  10.727052344999999   0.000000000000000  10.727052344999997 0
ion Ni  21.454102800270000   0.000000000000000  10.727052344999997 0
ion Ni  21.454102800270000   5.363526172499999   5.363526172499999 0
ion Ni  10.727052344999999   5.363526172499999   5.363526172499999 0
ion Ni  16.090578517499999   5.363526172499999  10.727052344999997 0
ion Ni  26.817628972769999   5.363526172499999  10.727052344999997 0
ion Ni  26.817628972769999   0.000000000000000   5.363526172499999 0
ion Ni  16.090578517499999   0.000000000000000   5.363526172499999 0
ion Ni  10.727052344999999  10.727052344999999  10.727052344999997 0
ion Ni  21.454102800270000  21.454102800270000  10.727052344999997 0
ion Ni  26.817628972769999  21.454102800270000   5.363526172499999 0
ion Ni  16.090578517499999  10.727052344999999   5.363526172499999 0
ion Ni  21.454102800270000  16.090578517499999   5.363526172499999 0
ion Ni  10.727052344999999  26.817628972769999   5.363526172499999 0
ion Ni  16.090578517499999  26.817628972769999  10.727052344999997 0
ion Ni  26.817628972769999  16.090578517499999  10.727052344999997 0
ion Ni  10.727052344999999  21.454102800270000  10.727052344999997 0
ion Ni  21.454102800270000  10.727052344999999  10.727052344999985 0
ion Ni  26.817628972769999  10.727052344999999   5.363526172499999 0
ion Ni  16.090578517499999  21.454102800270000   5.363526172499999 0
ion Ni  21.454102800270000  26.817628972769999   5.363526172499999 0
ion Ni  10.727052344999999  16.090578517499999   5.363526172499999 0
ion Ni  16.090578517499999  16.090578517499999  10.727052344999997 0
ion Ni  26.817628972769999  26.817628972769999  10.727052344999997 0
ion S   4.232241197730000   4.232241197730000   4.232250646379997 0
ion S  27.948915837270000  27.948915837270000   6.494801698619996 0
ion S   1.131284974770000  27.948915837270000   9.595776818879994 0
ion S   9.595765480499999   4.232241197730000   1.131275526120000 0
ion S  27.948915837270000   9.595765480499999   1.131275526120000 0
ion S   4.232241197730000   1.131284974770000   9.595776818879994 0
ion S   9.595765480499999   1.131284974770000   6.494801698619996 0
ion S   1.131284974770000   9.595765480499999   4.232250646379997 0
ion S   4.232241197730000  14.959291652999994   4.232250646379997 0
ion S  27.948915837270000  17.221863492269986   6.494801698619996 0
ion S   1.131284974770000  17.221863492269986   9.595776818879994 0
ion S   9.595765480499999  14.959291652999994   1.131275526120000 0
ion S  27.948915837270000  20.322817825500000   1.131275526120000 0
ion S   4.232241197730000  22.585389664769998   9.595776818879994 0
ion S   9.595765480499999  22.585389664769998   6.494801698619996 0
ion S   1.131284974770000  20.322817825500000   4.232250646379997 0
ion S  14.959291652999994   4.232250646380000   4.232241197729999 0
ion S  17.221863492269986  27.948904498889998   6.494811147269997 0
ion S  17.221863492269986   9.595776818879999   1.131284974770000 0
ion S  14.959291652999994   1.131275526120000   9.595765480499994 0
ion S  20.322817825500000   1.131275526120000   6.494811147269997 0
ion S  22.585389664769998   9.595776818879999   4.232241197729999 0
ion S  22.585389664769998  27.948904498889998   9.595765480499994 0
ion S  20.322817825500000   4.232250646380000   1.131284974770000 0
ion S   4.232241197730000  25.686343997999987   4.232250646379997 0
ion S  27.948915837270000   6.494811147269997   6.494801698619996 0
ion S   1.131284974770000   6.494811147269997   9.595776818879994 0
ion S   9.595765480499999  25.686343997999987   1.131275526120000 0
ion S  27.948915837270000  31.049870170499986   1.131275526120000 0
ion S   4.232241197730000  11.858337319769999   9.595776818879994 0
ion S   9.595765480499999  11.858337319769999   6.494801698619996 0
ion S   1.131284974770000  31.049870170499986   4.232250646379997 0
ion S  25.686343997999987   4.232250646380000   4.232241197729999 0
ion S   6.494811147269997  27.948904498889998   6.494811147269997 0
ion S   6.494811147269997   9.595776818879999   1.131284974770000 0
ion S  25.686343997999987   1.131275526120000   9.595765480499994 0
ion S  31.049870170499986   1.131275526120000   6.494811147269997 0
ion S  11.858337319769999   9.595776818879999   4.232241197729999 0
ion S  11.858337319769999  27.948904498889998   9.595765480499994 0
ion S  31.049870170499986   4.232250646380000   1.131284974770000 0
ion S  14.959291652999994  14.959291652999994   4.232250646379997 0
ion S  17.221863492269986  17.221863492269986   6.494801698619996 0
ion S  22.585389664769998  17.221863492269986   9.595776818879994 0
ion S  20.322817825500000  14.959291652999994   1.131275526120000 0
ion S  17.221863492269986  20.322817825500000   1.131275526120000 0
ion S  14.959291652999994  22.585389664769998   9.595776818879994 0
ion S  20.322817825500000  22.585389664769998   6.494801698619996 0
ion S  22.585389664769998  20.322817825500000   4.232250646379997 0
ion S  14.959291652999994  25.686343997999987   4.232250646379997 0
ion S  17.221863492269986   6.494811147269997   6.494801698619996 0
ion S  22.585389664769998   6.494811147269997   9.595776818879994 0
ion S  20.322817825500000  25.686343997999987   1.131275526120000 0
ion S  17.221863492269986  31.049870170499986   1.131275526120000 0
ion S  14.959291652999994  11.858337319769999   9.595776818879994 0
ion S  20.322817825500000  11.858337319769999   6.494801698619996 0
ion S  22.585389664769998  31.049870170499986   4.232250646379997 0
ion S  25.686343997999987  14.959291652999994   4.232250646379997 0
ion S   6.494811147269997  17.221863492269986   6.494801698619996 0
ion S  11.858337319769999  17.221863492269986   9.595776818879994 0
ion S  31.049870170499986  14.959291652999994   1.131275526120000 0
ion S   6.494811147269997  20.322817825500000   1.131275526120000 0
ion S  25.686343997999987  22.585389664769998   9.595776818879994 0
ion S  31.049870170499986  22.585389664769998   6.494801698619996 0
ion S  11.858337319769999  20.322817825500000   4.232250646379997 0
ion S  25.686343997999987  25.686343997999987   4.232250646379997 0
ion S   6.494811147269997   6.494811147269997   6.494801698619996 0
ion S  11.858337319769999   6.494811147269997   9.595776818879994 0
ion S  31.049870170499986  25.686343997999987   1.131275526120000 0
ion S   6.494811147269997  31.049870170499986   1.131275526120000 0
ion S  25.686343997999987  11.858337319769999   9.595776818879994 0
ion S  31.049870170499986  11.858337319769999   6.494801698619996 0
ion S  11.858337319769999  31.049870170499986   4.232250646379997 0
ion S  17.579768886536296   9.376637655174987  11.948425154757571 1
ion Na  13.175921376673752   7.736324995107685  14.561329413696432 1
ion Na  20.963510608577138  15.045474768662812  13.861582241979280 1

# Forces in Cartesian coordinates:
force Ni   0.023436014399112  -0.011669079581381  -0.039266313941285 0
force Ni  -0.001591126840862  -0.000690573728896  -0.009173125025551 0
force Ni   0.001451412948582  -0.000751643338139  -0.009297033806754 0
force Ni  -0.023557328079313  -0.011596541115753  -0.039194814602350 0
force Ni   0.023799146011985  -0.011807564625215  -0.039143818663176 0
force Ni   0.023482081404960  -0.011658107091992  -0.039260555274911 0
force Ni  -0.001623161226637  -0.000777637988203  -0.009058142327833 0
force Ni  -0.001636691083284  -0.000882180800552  -0.008960961941000 0
force Ni   0.001666559977411  -0.000654009123881  -0.009134478972624 0
force Ni   0.001680219185285  -0.000753073602963  -0.009083258911667 0
force Ni  -0.023462024917122  -0.011645734352803  -0.039275497413221 0
force Ni  -0.023343499316413  -0.011691936216003  -0.039238519725273 0
force Ni   0.023118027101344  -0.011820079697461  -0.039377031956810 0
force Ni   0.023311809396473  -0.011485651460656  -0.039200675115236 0
force Ni   0.001824203591901  -0.000248290862423  -0.008187101409695 0
force Ni   0.000428700576294  -0.001633440109106  -0.011449151650546 0
force Ni  -0.007834181923531  -0.000750020556600  -0.030613932072144 0
force Ni  -0.024764400222678  -0.011595402296760  -0.040460017435728 0
force Ni  -0.001696618147662  -0.000637378437063  -0.009015436912413 0
force Ni  -0.001689995125371  -0.000062528332782  -0.009559452515088 0
force Ni   0.017489777928917  -0.010314997806309  -0.038057793835791 0
force Ni   0.022342861128105  -0.010232145103127  -0.037997213453667 0
force Ni  -0.001636614944983  -0.000960825826896  -0.009142262773835 0
force Ni   0.000058215960303  -0.003211371357650  -0.011897026680511 0
force Ni   0.000039260545378  -0.002765950049751  -0.011289097510727 0
force Ni   0.001597118148294  -0.000650315263352  -0.009178568176696 0
force Ni  -0.023420873130609  -0.011787241133808  -0.039285250914595 0
force Ni  -0.021343134435365  -0.011552816420878  -0.037859091998132 0
force Ni   0.023356894974532  -0.011247487982931  -0.039100990141141 0
force Ni   0.008862464693723  -0.020897818257390  -0.031357562084258 0
force Ni  -0.002228975209176  -0.000869609615390  -0.010017897110058 0
force Ni  -0.001577825063870  -0.000717582231362  -0.008970724174142 0
force Ni   0.001573376427536  -0.000853909939822  -0.009155413892689 0
force Ni   0.000743764218381  -0.000564574248657  -0.009649922261545 0
force Ni  -0.022600693105456  -0.006000092253485  -0.038214653630755 0
force Ni  -0.023396520255380  -0.011618956096954  -0.039289782514711 0
force S  -0.004494969993569  -0.004152371129193  -0.003915754634318 0
force S   0.003279105969734   0.001104959091349   0.011274366072748 0
force S  -0.002570338288129   0.006987991159269   0.020015669778902 0
force S  -0.004121303967499   0.008498125791814   0.020938474481183 0
force S   0.004121731329308   0.008520179375501   0.021108245786558 0
force S   0.002690866221680   0.007072088443676   0.020259746960757 0
force S  -0.003169909636590   0.001075287967354   0.011095635622057 0
force S   0.004318636951115  -0.004158625638655  -0.003712918561282 0
force S  -0.004435375956389  -0.004042991655911  -0.004007535044474 0
force S   0.003604348217011   0.001275592859035   0.010410855432553 0
force S  -0.002592098246296   0.006993411799702   0.020124096870418 0
force S  -0.004058341824378   0.008709363007776   0.021000549680987 0
force S   0.004062151877657   0.008609456905391   0.021188048848632 0
force S   0.002535879803148   0.007016509801431   0.020015874016822 0
force S  -0.003153441873381   0.001083228340049   0.011040351192492 0
force S   0.004527893903762  -0.004179777097480  -0.003940433767989 0
force S  -0.004579359540721  -0.003971031538920  -0.005482210120475 0
force S   0.003260317887447   0.000906709460074   0.011302197154107 0
force S   0.004500462485553   0.008012426755812   0.020764167609907 0
force S   0.002723322823615   0.009657471729966   0.020814403521949 0
force S  -0.003294316082759   0.001079259982708   0.011303252885698 0
force S   0.004640580719686  -0.004164216701458  -0.004287472881780 0
force S  -0.002543120408423   0.007040005438233   0.020116976171564 0
force S  -0.004086766706940   0.008480625972752   0.021052009921971 0
force S  -0.004515092496081  -0.004175766382063  -0.003910707793205 0
force S   0.003638115435179   0.001109040177346   0.011246413861489 0
force S  -0.002734826139920   0.007127197154653   0.020224426315299 0
force S  -0.004062008354200   0.008567274617961   0.021342338298568 0
force S   0.004030213809953   0.008511508131075   0.021315748234898 0
force S   0.002582298228378   0.007042715818514   0.020097515891289 0
force S  -0.003505881165876   0.002378279169758   0.009754230886279 0
force S   0.004535715168859  -0.004181086404465  -0.003898400840307 0
force S  -0.004548059922821  -0.004084523387649  -0.004188880592933 0
force S   0.003245716516823   0.001033517805810   0.011316225937647 0
force S   0.004286355528642   0.008482193062971   0.021309418557868 0
force S   0.002327943630659   0.007561959453024   0.020100916634853 0
force S  -0.003190544024787   0.001020382055166   0.011362431278185 0
force S   0.004990880049084  -0.004831446159895  -0.004445253035293 0
force S  -0.002664053107502   0.006423332147168   0.020206435879329 0
force S  -0.004153647283390   0.008607994962440   0.021411274946878 0
force S  -0.004742168385035  -0.005067988277640  -0.001971441946286 0
force S   0.003334035594144   0.001752703695805   0.010672507049978 0
force S  -0.000318500694422   0.010710628266572   0.020723804846509 0
force S  -0.004108017208716   0.008582660526308   0.020907246685603 0
force S   0.004178598768546   0.008737671913547   0.021069451726513 0
force S   0.002609859378393   0.006853278600979   0.020146012386309 0
force S  -0.003213968976078   0.001411651877763   0.010660647328439 0
force S   0.004451465984651  -0.004205354496727  -0.003910635927522 0
force S  -0.004514301996065  -0.004257246290703  -0.003827835991278 0
force S   0.000677719734966  -0.002167237850370   0.003715367593093 0
force S   0.009613663588040  -0.002959586687611   0.015969045991647 0
force S  -0.004099598317839   0.008762637549302   0.021288582603325 0
force S   0.004129264104314   0.008443265600374   0.021364329435416 0
force S   0.003288108881676   0.005666727149025   0.024709850358098 0
force S  -0.000582752252009   0.003500853419902   0.005489327559752 0
force S   0.004419200019159  -0.004173134988363  -0.003931853772569 0
force S  -0.004596439117016  -0.004061578985689  -0.003910449504718 0
force S   0.003105927089534   0.000939940571264   0.011160689503331 0
force S  -0.004321971864644   0.006430976477419   0.019981542335755 0
force S  -0.003996167667503   0.008487245904762   0.021323764025042 0
force S   0.004053869933836   0.008501802184798   0.021354054905929 0
force S   0.002727244846999   0.007369748295101   0.020523204206659 0
force S  -0.003275829506979   0.001014972654343   0.011348216101603 0
force S   0.004354989102470  -0.004202889994314  -0.003716207716662 0
force S  -0.004547563110853  -0.004229408394373  -0.003859790708248 0
force S   0.002929547020313   0.001128214294946   0.011030437129996 0
force S  -0.006824714074010   0.006357058641732   0.022071034996017 0
force S  -0.004026814679892   0.008531577552697   0.021321555693494 0
force S   0.004062007824114   0.008546602121295   0.021310927929006 0
force S  -0.000619525637600   0.005837743282722   0.023240336229681 0
force S  -0.002979264149377   0.000968449376184   0.011098658158589 0
force S   0.004523654873333  -0.004213948053943  -0.003943046971564 0
force S   0.000056293908921   0.000044612645521   0.000075223685317 1
force Na  -0.000015891388003   0.000068620184203   0.000066974793593 1
force Na  -0.000019811440851  -0.000030993563925   0.000049550235162 1

# Energy components:
   Eewald =   -17510.6762539087212645
       EH =   -11400.2253572097088181
     Eloc =    20683.8730362770220381
      Enl =      907.1737160480340663
      Exc =     -957.5101199427413121
 Exc_core =      143.4819589744638506
       KE =     1125.3833629270718575
-------------------------------------
     Etot =    -7008.4996568345814012
       TS =        1.0226258549546718
-------------------------------------
        F =    -7009.5222826895360413

IonicMinimize: Iter: 110  F: -7009.522282689536041  |grad|_K:  5.172e-05  alpha:  3.493e+01  linmin:  1.022e-04  t[s]:  85224.98
IonicMinimize: Converged (|grad|_K<1.000000e-04).

#--- Lowdin population analysis ---
# oxidation-state Ni -0.010 -0.449 -0.450 -0.025 -0.011 -0.010 -0.449 -0.448 -0.449 -0.449 -0.009 -0.012 -0.025 -0.007 -0.451 -0.446 -0.318 -0.010 -0.449 -0.449 -0.169 -0.048 -0.450 -0.464 -0.447 -0.449 -0.011 -0.061 -0.009 -0.355 -0.448 -0.449 -0.449 -0.453 -0.136 -0.010
# oxidation-state S +0.318 +0.445 +0.084 -0.012 -0.013 +0.083 +0.445 +0.319 +0.318 +0.443 +0.083 -0.013 -0.013 +0.084 +0.444 +0.318 +0.317 +0.444 -0.014 +0.084 +0.445 +0.319 +0.084 -0.014 +0.318 +0.446 +0.083 -0.014 -0.014 +0.085 +0.431 +0.318 +0.319 +0.445 -0.014 +0.086 +0.445 +0.312 +0.083 -0.014 +0.307 +0.442 +0.021 -0.013 -0.015 +0.086 +0.445 +0.313 +0.318 +0.454 +0.113 -0.013 -0.013 +0.337 +0.448 +0.318 +0.317 +0.446 +0.067 -0.014 -0.014 +0.082 +0.445 +0.318 +0.318 +0.444 +0.034 -0.014 -0.014 +0.079 +0.444 +0.318 +0.070
# oxidation-state Na +0.681 +0.631


Dumping 'Na2S@NiS2.fillings' ... done
Dumping 'Na2S@NiS2.wfns' ... done
Dumping 'Na2S@NiS2.ionpos' ... done
Dumping 'Na2S@NiS2.eigenvals' ... done
End date and time: Fri Sep 20 15:08:32 2024  (Duration: 0-23:40:31.98)
Done!
