
*************** JDFTx 1.7.0  ***************

Start date and time: Sat Sep 21 16:31:34 2024
Executable jdftx_gpu with command-line: -i /home/akim2/JDFTx/Na2S2@NiS2-glyme/Na2S2@NiS2-glyme.in -o /home/akim2/JDFTx/Na2S2@NiS2-glyme/Na2S2@NiS2-glyme.out
Running on hosts (process indices):  exp-3-60 (0)
Divided in process groups (process indices):  0 (0)
gpuInit: Found compatible cuda device 0 'Tesla V100-SXM2-32GB'
gpuInit: Selected device 0
Resource initialization completed at t[s]:      0.39
Run totals: 1 processes, 1 threads, 1 GPUs


Input parsed successfully to the following command list (including defaults):

basis kpoint-dependent
coords-type Cartesian
core-overlap-check vector
coulomb-interaction Slab 001
coulomb-truncation-embed 0 0 10
davidson-band-ratio 1.1
dump End State
dump Ionic State
dump-interval Ionic 5
dump-name Na2S2@NiS2-glyme.$VAR
elec-cutoff 20 100
elec-eigen-algo Davidson
elec-ex-corr gga-PBE
elec-smearing Fermi 0.01
electronic-minimize  \
	dirUpdateScheme      FletcherReeves \
	linminMethod         DirUpdateRecommended \
	nIterations          100 \
	history              15 \
	knormThreshold       0 \
	energyDiffThreshold  1e-08 \
	nEnergyDiff          2 \
	alphaTstart          1 \
	alphaTmin            1e-10 \
	updateTestStepSize   yes \
	alphaTreduceFactor   0.1 \
	alphaTincreaseFactor 3 \
	nAlphaAdjustMax      3 \
	wolfeEnergy          0.0001 \
	wolfeGradient        0.9 \
	fdTest               no
exchange-regularization WignerSeitzTruncated
fluid LinearPCM 298.000000 1.013250
fluid-ex-corr lda-TF lda-PZ
fluid-gummel-loop 10 1.000000e-05
fluid-minimize  \
	dirUpdateScheme      PolakRibiere \
	linminMethod         DirUpdateRecommended \
	nIterations          400 \
	history              15 \
	knormThreshold       1e-11 \
	energyDiffThreshold  0 \
	nEnergyDiff          2 \
	alphaTstart          1 \
	alphaTmin            1e-10 \
	updateTestStepSize   yes \
	alphaTreduceFactor   0.1 \
	alphaTincreaseFactor 3 \
	nAlphaAdjustMax      6 \
	wolfeEnergy          0.0001 \
	wolfeGradient        0.9 \
	fdTest               no
fluid-solvent Glyme 9.62137 ScalarEOS \
	epsBulk 7.2 \
	pMol 0 \
	epsInf 1.9 \
	Pvap 0 \
	sigmaBulk 0 \
	Rvdw 0 \
	Res 0 \
	tauNuc 343133
forces-output-coords Positions
ion Ni  32.181155145269997   0.000000000000000  10.727052344999997 0
ion Ni   5.363526172499999   0.000000000000000   5.363526172499999 0
ion Ni  32.181155145269997   5.363526172499999   5.363526172499999 0
ion Ni   5.363526172499999   5.363526172499999  10.727052344999997 0
ion Ni  32.181155145269997  10.727052344999999  10.727052344999997 0
ion Ni  32.181155145269997  21.454102800270000  10.727052344999997 0
ion Ni   5.363526172499999  21.454102800270000   5.363526172499999 0
ion Ni   5.363526172499999  10.727052344999999   5.363526172499999 0
ion Ni  32.181155145269997  16.090578517499999   5.363526172499999 0
ion Ni  32.181155145269997  26.817628972769999   5.363526172499999 0
ion Ni   5.363526172499999  26.817628972769999  10.727052344999997 0
ion Ni   5.363526172499999  16.090578517499999  10.727052344999997 0
ion Ni  10.727052344999999   0.000000000000000  10.727052344999997 0
ion Ni  21.454102800270000   0.000000000000000  10.727052344999997 0
ion Ni  21.454102800270000   5.363526172499999   5.363526172499999 0
ion Ni  10.727052344999999   5.363526172499999   5.363526172499999 0
ion Ni  16.090578517499999   5.363526172499999  10.727052344999997 0
ion Ni  26.817628972769999   5.363526172499999  10.727052344999997 0
ion Ni  26.817628972769999   0.000000000000000   5.363526172499999 0
ion Ni  16.090578517499999   0.000000000000000   5.363526172499999 0
ion Ni  10.727052344999999  10.727052344999999  10.727052344999997 0
ion Ni  21.454102800270000  21.454102800270000  10.727052344999997 0
ion Ni  26.817628972769999  21.454102800270000   5.363526172499999 0
ion Ni  16.090578517499999  10.727052344999999   5.363526172499999 0
ion Ni  21.454102800270000  16.090578517499999   5.363526172499999 0
ion Ni  10.727052344999999  26.817628972769999   5.363526172499999 0
ion Ni  16.090578517499999  26.817628972769999  10.727052344999997 0
ion Ni  26.817628972769999  16.090578517499999  10.727052344999997 0
ion Ni  10.727052344999999  21.454102800270000  10.727052344999997 0
ion Ni  21.454102800270000  10.727052344999999  10.727052344999985 0
ion Ni  26.817628972769999  10.727052344999999   5.363526172499999 0
ion Ni  16.090578517499999  21.454102800270000   5.363526172499999 0
ion Ni  21.454102800270000  26.817628972769999   5.363526172499999 0
ion Ni  10.727052344999999  16.090578517499999   5.363526172499999 0
ion Ni  16.090578517499999  16.090578517499999  10.727052344999997 0
ion Ni  26.817628972769999  26.817628972769999  10.727052344999997 0
ion S   4.232241197730000   4.232241197730000   4.232250646379996 0
ion S  27.948915837270000  27.948915837270000   6.494801698619995 0
ion S   1.131284974770000  27.948915837270000   9.595776818879992 0
ion S   9.595765480499999   4.232241197730000   1.131275526120000 0
ion S  27.948915837270000   9.595765480499999   1.131275526120000 0
ion S   4.232241197730000   1.131284974770000   9.595776818879992 0
ion S   9.595765480499999   1.131284974770000   6.494801698619995 0
ion S   1.131284974770000   9.595765480499999   4.232250646379996 0
ion S   4.232241197730000  14.959291652999992   4.232250646379996 0
ion S  27.948915837270000  17.221863492269982   6.494801698619995 0
ion S   1.131284974770000  17.221863492269982   9.595776818879992 0
ion S   9.595765480499999  14.959291652999992   1.131275526120000 0
ion S  27.948915837270000  20.322817825500000   1.131275526120000 0
ion S   4.232241197730000  22.585389664769998   9.595776818879992 0
ion S   9.595765480499999  22.585389664769998   6.494801698619995 0
ion S   1.131284974770000  20.322817825500000   4.232250646379996 0
ion S  14.959291652999992   4.232250646380000   4.232241197729999 0
ion S  17.221863492269982  27.948904498889998   6.494811147269997 0
ion S  17.221863492269982   9.595776818879999   1.131284974770000 0
ion S  14.959291652999992   1.131275526120000   9.595765480499992 0
ion S  20.322817825500000   1.131275526120000   6.494811147269997 0
ion S  22.585389664769998   9.595776818879999   4.232241197729999 0
ion S  22.585389664769998  27.948904498889998   9.595765480499992 0
ion S  20.322817825500000   4.232250646380000   1.131284974770000 0
ion S   4.232241197730000  25.686343997999984   4.232250646379996 0
ion S  27.948915837270000   6.494811147269997   6.494801698619995 0
ion S   1.131284974770000   6.494811147269997   9.595776818879992 0
ion S   9.595765480499999  25.686343997999984   1.131275526120000 0
ion S  27.948915837270000  31.049870170499982   1.131275526120000 0
ion S   4.232241197730000  11.858337319769999   9.595776818879992 0
ion S   9.595765480499999  11.858337319769999   6.494801698619995 0
ion S   1.131284974770000  31.049870170499982   4.232250646379996 0
ion S  25.686343997999984   4.232250646380000   4.232241197729999 0
ion S   6.494811147269997  27.948904498889998   6.494811147269997 0
ion S   6.494811147269997   9.595776818879999   1.131284974770000 0
ion S  25.686343997999984   1.131275526120000   9.595765480499992 0
ion S  31.049870170499982   1.131275526120000   6.494811147269997 0
ion S  11.858337319769999   9.595776818879999   4.232241197729999 0
ion S  11.858337319769999  27.948904498889998   9.595765480499992 0
ion S  31.049870170499982   4.232250646380000   1.131284974770000 0
ion S  14.959291652999992  14.959291652999992   4.232250646379996 0
ion S  17.221863492269982  17.221863492269982   6.494801698619995 0
ion S  22.585389664769998  17.221863492269982   9.595776818879992 0
ion S  20.322817825500000  14.959291652999992   1.131275526120000 0
ion S  17.221863492269982  20.322817825500000   1.131275526120000 0
ion S  14.959291652999992  22.585389664769998   9.595776818879992 0
ion S  20.322817825500000  22.585389664769998   6.494801698619995 0
ion S  22.585389664769998  20.322817825500000   4.232250646379996 0
ion S  14.959291652999992  25.686343997999984   4.232250646379996 0
ion S  17.221863492269982   6.494811147269997   6.494801698619995 0
ion S  22.585389664769998   6.494811147269997   9.595776818879992 0
ion S  20.322817825500000  25.686343997999984   1.131275526120000 0
ion S  17.221863492269982  31.049870170499982   1.131275526120000 0
ion S  14.959291652999992  11.858337319769999   9.595776818879992 0
ion S  20.322817825500000  11.858337319769999   6.494801698619995 0
ion S  22.585389664769998  31.049870170499982   4.232250646379996 0
ion S  25.686343997999984  14.959291652999992   4.232250646379996 0
ion S   6.494811147269997  17.221863492269982   6.494801698619995 0
ion S  11.858337319769999  17.221863492269982   9.595776818879992 0
ion S  31.049870170499982  14.959291652999992   1.131275526120000 0
ion S   6.494811147269997  20.322817825500000   1.131275526120000 0
ion S  25.686343997999984  22.585389664769998   9.595776818879992 0
ion S  31.049870170499982  22.585389664769998   6.494801698619995 0
ion S  11.858337319769999  20.322817825500000   4.232250646379996 0
ion S  25.686343997999984  25.686343997999984   4.232250646379996 0
ion S   6.494811147269997   6.494811147269997   6.494801698619995 0
ion S  11.858337319769999   6.494811147269997   9.595776818879992 0
ion S  31.049870170499982  25.686343997999984   1.131275526120000 0
ion S   6.494811147269997  31.049870170499982   1.131275526120000 0
ion S  25.686343997999984  11.858337319769999   9.595776818879992 0
ion S  31.049870170499982  11.858337319769999   6.494801698619995 0
ion S  11.858337319769999  31.049870170499982   4.232250646379996 0
ion S  17.329879628633826  16.520706924028417  16.050501858346649 1
ion S  18.034380852960304  12.485979525592663  16.271320705704241 1
ion Na  14.565167045299550  14.226086201763191  19.500198136102970 1
ion Na  22.234126488603103  15.213945712017891  16.425698021349127 1
ion-species GBRV/$ID_pbe.uspp
ion-width Ecut
ionic-minimize  \
	dirUpdateScheme      FletcherReeves \
	linminMethod         DirUpdateRecommended \
	nIterations          200 \
	history              15 \
	knormThreshold       0.0001 \
	energyDiffThreshold  1e-06 \
	nEnergyDiff          2 \
	alphaTstart          1 \
	alphaTmin            1e-10 \
	updateTestStepSize   yes \
	alphaTreduceFactor   0.1 \
	alphaTincreaseFactor 3 \
	nAlphaAdjustMax      3 \
	wolfeEnergy          0.0001 \
	wolfeGradient        0.9 \
	fdTest               no
kpoint   0.000000000000   0.000000000000   0.000000000000  1.00000000000000
kpoint-folding 1 1 1 
latt-move-scale 1 1 1
latt-scale 1 1 1 
lattice Triclinic 32.1811 32.1811 37.7946 90 90 90
lattice-minimize  \
	dirUpdateScheme      L-BFGS \
	linminMethod         DirUpdateRecommended \
	nIterations          0 \
	history              15 \
	knormThreshold       0 \
	energyDiffThreshold  1e-06 \
	nEnergyDiff          2 \
	alphaTstart          1 \
	alphaTmin            1e-10 \
	updateTestStepSize   yes \
	alphaTreduceFactor   0.1 \
	alphaTincreaseFactor 3 \
	nAlphaAdjustMax      3 \
	wolfeEnergy          0.0001 \
	wolfeGradient        0.9 \
	fdTest               no
lcao-params -1 1e-06 0.01
pcm-variant GLSSA13
spintype no-spin
subspace-rotation-factor 1 yes
symmetries automatic
symmetry-threshold 0.0001



---------- Setting up symmetries ----------

Found 16 point-group symmetries of the bravais lattice
Found 1 space-group symmetries with basis
Applied RMS atom displacement 0 bohrs to make symmetries exact.

---------- Initializing the Grid ----------
R = 
[      32.1811            0            0  ]
[            0      32.1811            0  ]
[            0            0      37.7946  ]
unit cell volume = 39140.9
G =
[   0.195245          0          0  ]
[          0   0.195245          0  ]
[          0          0   0.166246  ]
Minimum fftbox size, Smin = [  148  148  172  ]
Chosen fftbox size, S = [  150  150  180  ]

---------- Initializing tighter grid for wavefunction operations ----------
R = 
[      32.1811            0            0  ]
[            0      32.1811            0  ]
[            0            0      37.7946  ]
unit cell volume = 39140.9
G =
[   0.195245          0          0  ]
[          0   0.195245          0  ]
[          0          0   0.166246  ]
Minimum fftbox size, Smin = [  132  132  156  ]
Chosen fftbox size, S = [  140  140  160  ]

---------- Exchange Correlation functional ----------
Initalized PBE GGA exchange.
Initalized PBE GGA correlation.

---------- Setting up pseudopotentials ----------
Width of ionic core gaussian charges (only for fluid interactions / plotting) set to 0.397384

Reading pseudopotential file '/home/akim2/jdftx_install/build/pseudopotentials/GBRV/ni_pbe.uspp':
  Title: Ni.  Created by USPP 7.3.6 on 1-4-15
  Reference state energy: -170.398381.  18 valence electrons in orbitals:
    |300>  occupation: 2  eigenvalue: -4.804705
    |310>  occupation: 6  eigenvalue: -3.347751
    |320>  occupation: 8  eigenvalue: -1.042415
    |400>  occupation: 0  eigenvalue: -0.795539
    |410>  occupation: 0  eigenvalue: -0.551375
  lMax: 2  lLocal: 3  QijEcut: 6.5
  6 projectors sampled on a log grid with 611 points:
    l: 0  eig: -4.804708  rCut: 1.44
    l: 0  eig: -0.795541  rCut: 1.44
    l: 1  eig: -3.347753  rCut: 1.55
    l: 1  eig: 0.500000  rCut: 1.55
    l: 2  eig: -1.042418  rCut: 1.5
    l: 2  eig: -0.450000  rCut: 1.5
  Partial core density with radius 0.65
  Transforming core density to a uniform radial grid of dG=0.02 with 1283 points.
  Transforming local potential to a uniform radial grid of dG=0.02 with 1283 points.
  Transforming nonlocal projectors to a uniform radial grid of dG=0.02 with 432 points.
  Transforming density augmentations to a uniform radial grid of dG=0.02 with 1283 points.
  Transforming atomic orbitals to a uniform radial grid of dG=0.02 with 432 points.
  Core radius for overlap checks: 1.55 bohrs.

Reading pseudopotential file '/home/akim2/jdftx_install/build/pseudopotentials/GBRV/s_pbe.uspp':
  Title: S.  Created by USPP 7.3.6 on 1-4-15
  Reference state energy: -11.898476.  6 valence electrons in orbitals:
    |300>  occupation: 2  eigenvalue: -0.634167
    |310>  occupation: 4  eigenvalue: -0.257568
  lMax: 2  lLocal: 3  QijEcut: 6
  6 projectors sampled on a log grid with 635 points:
    l: 0  eig: -0.634161  rCut: 1.5
    l: 0  eig: 1.500000  rCut: 1.5
    l: 1  eig: -0.257567  rCut: 1.5
    l: 1  eig: 1.500000  rCut: 1.5
    l: 2  eig: -1.000000  rCut: 1.5
    l: 2  eig: 1.500000  rCut: 1.5
  Partial core density with radius 1.15
  Transforming core density to a uniform radial grid of dG=0.02 with 1283 points.
  Transforming local potential to a uniform radial grid of dG=0.02 with 1283 points.
  Transforming nonlocal projectors to a uniform radial grid of dG=0.02 with 432 points.
  Transforming density augmentations to a uniform radial grid of dG=0.02 with 1283 points.
  Transforming atomic orbitals to a uniform radial grid of dG=0.02 with 432 points.
  Core radius for overlap checks: 1.50 bohrs.

Reading pseudopotential file '/home/akim2/jdftx_install/build/pseudopotentials/GBRV/na_pbe.uspp':
  Title: Na.  Created by USPP 7.3.6 on 23-9-15
  Reference state energy: -47.625620.  9 valence electrons in orbitals:
    |200>  occupation: 2  eigenvalue: -2.085638
    |210>  occupation: 6  eigenvalue: -1.053708
    |300>  occupation: 1  eigenvalue: -0.100838
  lMax: 2  lLocal: 0  QijEcut: 6
  5 projectors sampled on a log grid with 657 points:
    l: 0  eig: -2.085640  rCut: 1.37
    l: 0  eig: -0.100839  rCut: 1.37
    l: 1  eig: -1.053708  rCut: 1.47
    l: 1  eig: 0.500000  rCut: 1.47
    l: 2  eig: 0.750000  rCut: 2
  Transforming local potential to a uniform radial grid of dG=0.02 with 1283 points.
  Transforming nonlocal projectors to a uniform radial grid of dG=0.02 with 432 points.
  Transforming density augmentations to a uniform radial grid of dG=0.02 with 1283 points.
  Transforming atomic orbitals to a uniform radial grid of dG=0.02 with 432 points.
  Core radius for overlap checks: 2.00 bohrs.

Initialized 3 species with 112 total atoms.

Folded 1 k-points by 1x1x1 to 1 k-points.

---------- Setting up k-points, bands, fillings ----------
No reducable k-points. 
Computing the number of bands and number of electrons
Calculating initial fillings.
nElectrons: 1110.000000   nBands: 774   nStates: 1

----- Setting up reduced wavefunction bases (one per k-point) -----
average nbasis = 167141.000 , ideal nbasis = 167213.066

---------- Setting up coulomb interaction ----------
Fluid mode embedding: using embedded box, but periodic Coulomb kernel.
(Fluid response is responsible for (approximate) separation between periodic images.)
Setting up double-sized grid for truncated Coulomb potentials:
R = 
[      32.1811            0            0  ]
[            0      32.1811            0  ]
[            0            0      75.5892  ]
unit cell volume = 78281.9
G =
[   0.195245          0          0  ]
[          0   0.195245          0  ]
[          0          0  0.0831228  ]
Chosen fftbox size, S = [  150  150  360  ]
Integer grid location selected as the embedding center:
   Grid: [  0  0  48  ]
   Lattice: [  0  0  0.264588  ]
   Cartesian: [  0  0  10  ]
Constructing Wigner-Seitz cell: 6 faces (6 quadrilaterals, 0 hexagons)
Range-separation parameter for embedded mesh potentials due to point charges: 0.584339 bohrs.

---------- Setting up ewald sum ----------
Optimum gaussian width for ewald sums = 7.773098 bohr.
Real space sum over 405 unit cells with max indices [  4  4  2  ]
Reciprocal space sum over 9537 terms with max indices [  8  8  16  ]

---------- Allocating electronic variables ----------
Initializing wave functions:  linear combination of atomic orbitals
Ni pseudo-atom occupations:   s ( 2 0 )  p ( 6 0 )  d ( 10 )
S pseudo-atom occupations:   s ( 2 )  p ( 4 )
Na pseudo-atom occupations:   s ( 2 1 )  p ( 6 )
	FillingsUpdate:  mu: -1.034856936  nElectrons: 1110.000000
LCAOMinimize: Iter:   0  F: -6313.4891012101334127  |grad|_K:  3.008e-02  alpha:  1.000e+00
	FillingsUpdate:  mu: +2.925332000  nElectrons: 1110.000000
LCAOMinimize: Iter:   1  F: -6619.7995215707414900  |grad|_K:  9.345e-02  alpha:  2.570e-01  linmin:  7.909e-02  cgtest: -5.799e-01  t[s]:     19.69
LCAOMinimize: 	Bad step direction: g.d > 0.
LCAOMinimize: 	Undoing step.
LCAOMinimize: 	Step failed: resetting search direction.
	FillingsUpdate:  mu: +2.925332000  nElectrons: 1110.000000
LCAOMinimize: Iter:   2  F: -6619.7995215707414900  |grad|_K:  9.345e-02  alpha:  0.000e+00
	FillingsUpdate:  mu: +1.164983800  nElectrons: 1110.000000
LCAOMinimize: Iter:   3  F: -6946.1339695911710805  |grad|_K:  2.171e-02  alpha:  6.550e-02  linmin: -1.800e-01  cgtest:  4.512e-03  t[s]:     29.81
LCAOMinimize: 	Predicted alpha/alphaT>3.000000, increasing alphaT to 1.964884e-01.
	FillingsUpdate:  mu: +1.060956499  nElectrons: 1110.000000
LCAOMinimize: Iter:   4  F: -6951.1764398619397980  |grad|_K:  2.009e-02  alpha:  1.758e-02  linmin: -1.123e-01  cgtest:  7.659e-01  t[s]:     37.28
LCAOMinimize: 	Wrong curvature in test step, increasing alphaT to 5.274493e-02.
	FillingsUpdate:  mu: +1.031241760  nElectrons: 1110.000000
LCAOMinimize: Iter:   5  F: -6958.0814438000124937  |grad|_K:  3.012e-02  alpha: -2.106e-02  linmin: -1.714e-01  cgtest:  5.828e-01  t[s]:     42.76
LCAOMinimize: 	Step increased F by 7.248024e+02, reducing alpha to 2.340692e-02.
	FillingsUpdate:  mu: +0.532767441  nElectrons: 1110.000000
LCAOMinimize: Iter:   6  F: -6983.7148459293539418  |grad|_K:  2.337e-02  alpha:  2.341e-02  linmin: -1.349e-01  cgtest:  1.955e-01  t[s]:     52.91
LCAOMinimize: 	Predicted alpha/alphaT>3.000000, increasing alphaT to 7.022077e-02.
	FillingsUpdate:  mu: +0.296819641  nElectrons: 1110.000000
LCAOMinimize: Iter:   7  F: -6996.6152199983280298  |grad|_K:  4.634e-02  alpha:  3.077e-02  linmin:  4.186e-02  cgtest: -4.227e-02  t[s]:     60.36
LCAOMinimize: 	Bad step direction: g.d > 0.
LCAOMinimize: 	Undoing step.
LCAOMinimize: 	Step failed: resetting search direction.
	FillingsUpdate:  mu: +0.296819641  nElectrons: 1110.000000
LCAOMinimize: Iter:   8  F: -6996.6152199983280298  |grad|_K:  4.634e-02  alpha:  0.000e+00
	FillingsUpdate:  mu: +0.227671128  nElectrons: 1110.000000
LCAOMinimize: Iter:   9  F: -7007.2330784770820173  |grad|_K:  1.604e-02  alpha:  1.856e-02  linmin:  4.149e-02  cgtest: -3.386e-01  t[s]:     70.61
LCAOMinimize: 	Predicted alpha/alphaT>3.000000, increasing alphaT to 5.568607e-02.
	FillingsUpdate:  mu: +0.142694323  nElectrons: 1110.000000
LCAOMinimize: Iter:  10  F: -7009.9209967887336461  |grad|_K:  1.414e-02  alpha:  2.457e-02  linmin: -1.146e-01  cgtest:  7.899e-01  t[s]:     78.22
	FillingsUpdate:  mu: +0.060912947  nElectrons: 1110.000000
LCAOMinimize: Iter:  11  F: -7011.6083884691424828  |grad|_K:  1.103e-02  alpha:  2.790e-02  linmin:  6.186e-02  cgtest: -1.604e-01  t[s]:     84.61
	FillingsUpdate:  mu: -0.052699555  nElectrons: 1110.000000
LCAOMinimize: Iter:  12  F: -7013.0491290648824361  |grad|_K:  1.095e-02  alpha:  4.941e-02  linmin:  9.216e-03  cgtest:  5.949e-01  t[s]:     91.02
	FillingsUpdate:  mu: -0.022002985  nElectrons: 1110.000000
LCAOMinimize: Iter:  13  F: -7013.6912054841186546  |grad|_K:  5.442e-03  alpha:  1.756e-02  linmin: -1.684e-02  cgtest:  3.775e-02  t[s]:     97.45
	FillingsUpdate:  mu: -0.016771098  nElectrons: 1110.000000
LCAOMinimize: Iter:  14  F: -7013.9821581196119951  |grad|_K:  3.936e-03  alpha:  3.279e-02  linmin:  2.060e-02  cgtest: -3.005e-02  t[s]:    103.86
	FillingsUpdate:  mu: -0.015276550  nElectrons: 1110.000000
LCAOMinimize: Iter:  15  F: -7014.0737971991593440  |grad|_K:  2.448e-03  alpha:  2.091e-02  linmin:  7.302e-05  cgtest:  1.433e-01  t[s]:    110.26
	FillingsUpdate:  mu: -0.011638173  nElectrons: 1110.000000
LCAOMinimize: Iter:  16  F: -7014.1749902212532106  |grad|_K:  3.655e-03  alpha:  5.834e-02  linmin:  8.797e-03  cgtest: -7.405e-02  t[s]:    116.65
	FillingsUpdate:  mu: -0.056168299  nElectrons: 1110.000000
LCAOMinimize: Iter:  17  F: -7014.2857924021545841  |grad|_K:  2.781e-03  alpha:  2.773e-02  linmin: -6.285e-03  cgtest:  3.990e-01  t[s]:    123.03
	FillingsUpdate:  mu: -0.067437279  nElectrons: 1110.000000
LCAOMinimize: Iter:  18  F: -7014.3420966682551807  |grad|_K:  1.871e-03  alpha:  2.369e-02  linmin:  2.697e-03  cgtest: -3.789e-02  t[s]:    129.44
	FillingsUpdate:  mu: -0.059202961  nElectrons: 1110.000000
LCAOMinimize: Iter:  19  F: -7014.3720344335024492  |grad|_K:  1.362e-03  alpha:  2.873e-02  linmin:  1.315e-03  cgtest:  8.451e-03  t[s]:    135.51
	FillingsUpdate:  mu: -0.058888733  nElectrons: 1110.000000
LCAOMinimize: Iter:  20  F: -7014.3929644821419060  |grad|_K:  1.233e-03  alpha:  3.770e-02  linmin: -1.558e-04  cgtest: -2.748e-03  t[s]:    141.44
	FillingsUpdate:  mu: -0.063612247  nElectrons: 1110.000000
LCAOMinimize: Iter:  21  F: -7014.4113930525008982  |grad|_K:  1.347e-03  alpha:  4.037e-02  linmin:  9.907e-04  cgtest: -1.318e-02  t[s]:    147.40
	FillingsUpdate:  mu: -0.068997287  nElectrons: 1110.000000
LCAOMinimize: Iter:  22  F: -7014.4286644991161666  |grad|_K:  6.644e-04  alpha:  3.154e-02  linmin:  1.783e-03  cgtest:  1.135e-01  t[s]:    153.34
	FillingsUpdate:  mu: -0.070951255  nElectrons: 1110.000000
LCAOMinimize: Iter:  23  F: -7014.4309944017531961  |grad|_K:  3.560e-04  alpha:  1.754e-02  linmin: -1.277e-03  cgtest:  3.573e-02  t[s]:    159.31
	FillingsUpdate:  mu: -0.068813077  nElectrons: 1110.000000
LCAOMinimize: Iter:  24  F: -7014.4327117773145801  |grad|_K:  2.917e-04  alpha:  4.505e-02  linmin:  4.152e-04  cgtest: -7.541e-03  t[s]:    165.25
	FillingsUpdate:  mu: -0.068292443  nElectrons: 1110.000000
LCAOMinimize: Iter:  25  F: -7014.4337127590579257  |grad|_K:  3.209e-04  alpha:  3.916e-02  linmin:  5.558e-04  cgtest:  7.376e-03  t[s]:    171.20
	FillingsUpdate:  mu: -0.071133470  nElectrons: 1110.000000
LCAOMinimize: Iter:  26  F: -7014.4350862977362340  |grad|_K:  2.607e-04  alpha:  4.463e-02  linmin:  1.516e-03  cgtest:  2.528e-02  t[s]:    177.14
	FillingsUpdate:  mu: -0.071484959  nElectrons: 1110.000000
LCAOMinimize: Iter:  27  F: -7014.4355084775534124  |grad|_K:  1.471e-04  alpha:  2.086e-02  linmin: -8.537e-06  cgtest:  2.474e-02  t[s]:    183.09
	FillingsUpdate:  mu: -0.071751684  nElectrons: 1110.000000
LCAOMinimize: Iter:  28  F: -7014.4357144133427937  |grad|_K:  1.074e-04  alpha:  3.171e-02  linmin:  1.481e-04  cgtest: -3.589e-03  t[s]:    189.04
	FillingsUpdate:  mu: -0.071947330  nElectrons: 1110.000000
LCAOMinimize: Iter:  29  F: -7014.4359692432362863  |grad|_K:  1.956e-04  alpha:  7.364e-02  linmin:  7.958e-05  cgtest: -1.703e-05  t[s]:    194.99
	FillingsUpdate:  mu: -0.071148169  nElectrons: 1110.000000
LCAOMinimize: Iter:  30  F: -7014.4363493717628444  |grad|_K:  1.075e-04  alpha:  3.299e-02  linmin: -3.149e-04  cgtest:  1.457e-02  t[s]:    200.94
LCAOMinimize: None of the convergence criteria satisfied after 30 iterations.
----- createFluidSolver() ----- (Fluid-side solver setup)
   Initializing fluid molecule 'Glyme'
     Net charge: 0   dipole magnitude: 0
     Initializing spherical shell mfKernel with radius 0 Bohr
     deltaS corrections:

Correction to mu due to finite nuclear width = -0.0140689
   Cavity determined by nc: 8.36e-05 and sigma: 0.6
   Effective cavity tension: -8.03e-06 Eh/bohr^2 to account for cavitation and dispersion.


---- Citations for features of the code used in this run ----

   Software package:
      R. Sundararaman, K. Letchworth-Weaver, K.A. Schwarz, D. Gunceler, Y. Ozhabes and T.A. Arias, 'JDFTx: software for joint density-functional theory', SoftwareX 6, 278 (2017)

   gga-PBE exchange-correlation functional:
      J.P. Perdew, K. Burke and M. Ernzerhof, Phys. Rev. Lett. 77, 3865 (1996)

   Pseudopotentials:
      KF Garrity, JW Bennett, KM Rabe and D Vanderbilt, Comput. Mater. Sci. 81, 446 (2014)

   Truncated Coulomb potentials:
      R. Sundararaman and T.A. Arias, Phys. Rev. B 87, 165122 (2013)

   Linear/nonlinear dielectric/ionic fluid model with effective cavity tension:
      D. Gunceler, K. Letchworth-Weaver, R. Sundararaman, K.A. Schwarz and T.A. Arias, Modelling Simul. Mater. Sci. Eng. 21, 074005 (2013)

   Total energy minimization with Auxiliary Hamiltonian:
      C. Freysoldt, S. Boeck, and J. Neugebauer, Phys. Rev. B 79, 241103(R) (2009)

This list may not be complete. Please suggest additional citations or
report any other bugs at https://github.com/shankar1729/jdftx/issues

Initialization completed successfully at t[s]:    202.53

Fluid solver invoked on fresh (random / LCAO) wavefunctions
Running a vacuum solve first:

-------- Initial electronic minimization -----------
	FillingsUpdate:  mu: -0.071148169  nElectrons: 1110.000000
ElecMinimize: Iter:   0  F: -7014.436349371843789  |grad|_K:  2.167e-04  alpha:  1.000e+00
	FillingsUpdate:  mu: -0.114765026  nElectrons: 1110.000000
	SubspaceRotationAdjust: set factor to 0.689
ElecMinimize: Iter:   1  F: -7016.212445362800281  |grad|_K:  3.073e-04  alpha:  2.842e-01  linmin: -1.396e-05  t[s]:    219.11
	FillingsUpdate:  mu: +0.005408896  nElectrons: 1110.000000
	SubspaceRotationAdjust: set factor to 0.386
ElecMinimize: Iter:   2  F: -7016.528431675343199  |grad|_K:  4.668e-04  alpha:  5.505e-02  linmin:  2.779e-04  t[s]:    229.35
	FillingsUpdate:  mu: +0.051968279  nElectrons: 1110.000000
	SubspaceRotationAdjust: set factor to 0.229
ElecMinimize: Iter:   3  F: -7017.101375160777934  |grad|_K:  3.717e-04  alpha:  4.010e-02  linmin: -5.412e-06  t[s]:    239.58
	FillingsUpdate:  mu: +0.017302274  nElectrons: 1110.000000
	SubspaceRotationAdjust: set factor to 0.275
ElecMinimize: Iter:   4  F: -7017.859268706135481  |grad|_K:  1.994e-04  alpha:  4.190e-02  linmin:  5.610e-07  t[s]:    249.83
	FillingsUpdate:  mu: -0.005372569  nElectrons: 1110.000000
	SubspaceRotationAdjust: set factor to 0.175
ElecMinimize: Iter:   5  F: -7018.406629152640562  |grad|_K:  1.986e-04  alpha:  1.077e-01  linmin:  2.406e-05  t[s]:    260.07
	FillingsUpdate:  mu: -0.048830779  nElectrons: 1110.000000
	SubspaceRotationAdjust: set factor to 0.225
ElecMinimize: Iter:   6  F: -7018.713050781575475  |grad|_K:  1.220e-04  alpha:  6.312e-02  linmin:  8.481e-06  t[s]:    270.31
	FillingsUpdate:  mu: -0.026440040  nElectrons: 1110.000000
	SubspaceRotationAdjust: set factor to 0.231
ElecMinimize: Iter:   7  F: -7018.991876018654693  |grad|_K:  1.355e-04  alpha:  1.398e-01  linmin: -7.101e-05  t[s]:    280.57
	FillingsUpdate:  mu: -0.085135394  nElectrons: 1110.000000
	SubspaceRotationAdjust: set factor to 0.225
ElecMinimize: Iter:   8  F: -7019.316617931880501  |grad|_K:  7.871e-05  alpha:  1.270e-01  linmin: -3.493e-06  t[s]:    290.82
	FillingsUpdate:  mu: -0.102980047  nElectrons: 1110.000000
	SubspaceRotationAdjust: set factor to 0.202
ElecMinimize: Iter:   9  F: -7019.407292039050844  |grad|_K:  7.330e-05  alpha:  1.123e-01  linmin:  2.000e-05  t[s]:    301.08
	FillingsUpdate:  mu: -0.093907647  nElectrons: 1110.000000
	SubspaceRotationAdjust: set factor to 0.236
ElecMinimize: Iter:  10  F: -7019.532349716550925  |grad|_K:  6.558e-05  alpha:  1.815e-01  linmin:  1.679e-05  t[s]:    311.32
	FillingsUpdate:  mu: -0.088142448  nElectrons: 1110.000000
	SubspaceRotationAdjust: set factor to 0.257
ElecMinimize: Iter:  11  F: -7019.585446301933189  |grad|_K:  4.404e-05  alpha:  9.591e-02  linmin:  2.064e-05  t[s]:    321.60
	FillingsUpdate:  mu: -0.084675921  nElectrons: 1110.000000
	SubspaceRotationAdjust: set factor to 0.271
ElecMinimize: Iter:  12  F: -7019.620557115307747  |grad|_K:  4.344e-05  alpha:  1.399e-01  linmin: -7.430e-07  t[s]:    331.84
	FillingsUpdate:  mu: -0.085552109  nElectrons: 1110.000000
	SubspaceRotationAdjust: set factor to 0.207
ElecMinimize: Iter:  13  F: -7019.656669123390202  |grad|_K:  4.583e-05  alpha:  1.476e-01  linmin:  2.260e-06  t[s]:    342.08
	FillingsUpdate:  mu: -0.088076038  nElectrons: 1110.000000
	SubspaceRotationAdjust: set factor to 0.279
ElecMinimize: Iter:  14  F: -7019.684953090988529  |grad|_K:  2.689e-05  alpha:  1.044e-01  linmin: -2.367e-07  t[s]:    352.34
	FillingsUpdate:  mu: -0.088765811  nElectrons: 1110.000000
	SubspaceRotationAdjust: set factor to 0.257
ElecMinimize: Iter:  15  F: -7019.697780716584020  |grad|_K:  2.701e-05  alpha:  1.366e-01  linmin: -5.806e-06  t[s]:    362.62
	FillingsUpdate:  mu: -0.093387010  nElectrons: 1110.000000
	SubspaceRotationAdjust: set factor to 0.306
ElecMinimize: Iter:  16  F: -7019.712004680951395  |grad|_K:  2.373e-05  alpha:  1.496e-01  linmin:  2.139e-06  t[s]:    372.87
	FillingsUpdate:  mu: -0.093633149  nElectrons: 1110.000000
	SubspaceRotationAdjust: set factor to 0.286
ElecMinimize: Iter:  17  F: -7019.722959658197396  |grad|_K:  2.284e-05  alpha:  1.506e-01  linmin:  9.213e-07  t[s]:    383.14
	FillingsUpdate:  mu: -0.091170669  nElectrons: 1110.000000
	SubspaceRotationAdjust: set factor to 0.29
ElecMinimize: Iter:  18  F: -7019.730519336448197  |grad|_K:  1.745e-05  alpha:  1.121e-01  linmin: -5.986e-07  t[s]:    393.43
	FillingsUpdate:  mu: -0.091261571  nElectrons: 1110.000000
	SubspaceRotationAdjust: set factor to 0.284
ElecMinimize: Iter:  19  F: -7019.736212561711909  |grad|_K:  1.561e-05  alpha:  1.441e-01  linmin:  4.555e-07  t[s]:    403.69
	FillingsUpdate:  mu: -0.093201317  nElectrons: 1110.000000
	SubspaceRotationAdjust: set factor to 0.24
ElecMinimize: Iter:  20  F: -7019.740692858075818  |grad|_K:  1.469e-05  alpha:  1.419e-01  linmin:  1.778e-06  t[s]:    413.94
	FillingsUpdate:  mu: -0.093982697  nElectrons: 1110.000000
	SubspaceRotationAdjust: set factor to 0.268
ElecMinimize: Iter:  21  F: -7019.743875383230261  |grad|_K:  1.017e-05  alpha:  1.141e-01  linmin:  3.159e-07  t[s]:    424.20
	FillingsUpdate:  mu: -0.093866138  nElectrons: 1110.000000
	SubspaceRotationAdjust: set factor to 0.254
ElecMinimize: Iter:  22  F: -7019.746141138121857  |grad|_K:  1.036e-05  alpha:  1.689e-01  linmin: -9.825e-07  t[s]:    434.48
	FillingsUpdate:  mu: -0.093839878  nElectrons: 1110.000000
	SubspaceRotationAdjust: set factor to 0.252
ElecMinimize: Iter:  23  F: -7019.747887652855752  |grad|_K:  8.238e-06  alpha:  1.252e-01  linmin:  5.183e-08  t[s]:    444.77
	FillingsUpdate:  mu: -0.093189131  nElectrons: 1110.000000
	SubspaceRotationAdjust: set factor to 0.274
ElecMinimize: Iter:  24  F: -7019.749125611388081  |grad|_K:  6.319e-06  alpha:  1.407e-01  linmin: -7.731e-07  t[s]:    455.06
	FillingsUpdate:  mu: -0.092828896  nElectrons: 1110.000000
	SubspaceRotationAdjust: set factor to 0.264
ElecMinimize: Iter:  25  F: -7019.749789847141983  |grad|_K:  5.441e-06  alpha:  1.281e-01  linmin: -2.015e-07  t[s]:    465.30
	FillingsUpdate:  mu: -0.092999165  nElectrons: 1110.000000
	SubspaceRotationAdjust: set factor to 0.269
ElecMinimize: Iter:  26  F: -7019.750274850317510  |grad|_K:  3.968e-06  alpha:  1.263e-01  linmin:  3.344e-07  t[s]:    475.56
	FillingsUpdate:  mu: -0.093120116  nElectrons: 1110.000000
	SubspaceRotationAdjust: set factor to 0.27
ElecMinimize: Iter:  27  F: -7019.750595505513047  |grad|_K:  3.966e-06  alpha:  1.572e-01  linmin:  4.162e-07  t[s]:    485.83
	FillingsUpdate:  mu: -0.093108520  nElectrons: 1110.000000
	SubspaceRotationAdjust: set factor to 0.263
ElecMinimize: Iter:  28  F: -7019.750879345361682  |grad|_K:  3.420e-06  alpha:  1.393e-01  linmin:  4.514e-07  t[s]:    496.08
	FillingsUpdate:  mu: -0.093222918  nElectrons: 1110.000000
	SubspaceRotationAdjust: set factor to 0.33
ElecMinimize: Iter:  29  F: -7019.751070383418664  |grad|_K:  2.217e-06  alpha:  1.261e-01  linmin:  8.559e-07  t[s]:    506.32
	FillingsUpdate:  mu: -0.093235147  nElectrons: 1110.000000
	SubspaceRotationAdjust: set factor to 0.302
ElecMinimize: Iter:  30  F: -7019.751153508029347  |grad|_K:  2.239e-06  alpha:  1.306e-01  linmin:  6.682e-07  t[s]:    516.58
	FillingsUpdate:  mu: -0.093080079  nElectrons: 1110.000000
	SubspaceRotationAdjust: set factor to 0.326
ElecMinimize: Iter:  31  F: -7019.751243360894478  |grad|_K:  1.808e-06  alpha:  1.384e-01  linmin:  8.245e-07  t[s]:    526.84
	FillingsUpdate:  mu: -0.093010803  nElectrons: 1110.000000
	SubspaceRotationAdjust: set factor to 0.329
ElecMinimize: Iter:  32  F: -7019.751318184575211  |grad|_K:  1.781e-06  alpha:  1.768e-01  linmin:  8.139e-07  t[s]:    537.08
	FillingsUpdate:  mu: -0.093053212  nElectrons: 1110.000000
	SubspaceRotationAdjust: set factor to 0.289
ElecMinimize: Iter:  33  F: -7019.751359820756988  |grad|_K:  1.425e-06  alpha:  1.013e-01  linmin:  2.619e-07  t[s]:    547.35
	FillingsUpdate:  mu: -0.093093124  nElectrons: 1110.000000
	SubspaceRotationAdjust: set factor to 0.327
ElecMinimize: Iter:  34  F: -7019.751404365569215  |grad|_K:  1.309e-06  alpha:  1.692e-01  linmin:  4.774e-07  t[s]:    557.62
	FillingsUpdate:  mu: -0.093036526  nElectrons: 1110.000000
	SubspaceRotationAdjust: set factor to 0.323
ElecMinimize: Iter:  35  F: -7019.751435242868865  |grad|_K:  1.089e-06  alpha:  1.390e-01  linmin:  2.661e-07  t[s]:    567.90
	FillingsUpdate:  mu: -0.092953716  nElectrons: 1110.000000
	SubspaceRotationAdjust: set factor to 0.293
ElecMinimize: Iter:  36  F: -7019.751453778269934  |grad|_K:  9.793e-07  alpha:  1.207e-01  linmin:  1.947e-07  t[s]:    578.17
	FillingsUpdate:  mu: -0.092895472  nElectrons: 1110.000000
	SubspaceRotationAdjust: set factor to 0.3
ElecMinimize: Iter:  37  F: -7019.751471671698710  |grad|_K:  8.011e-07  alpha:  1.440e-01  linmin:  2.511e-07  t[s]:    588.42
	FillingsUpdate:  mu: -0.092987953  nElectrons: 1110.000000
	SubspaceRotationAdjust: set factor to 0.305
ElecMinimize: Iter:  38  F: -7019.751485238781243  |grad|_K:  7.550e-07  alpha:  1.632e-01  linmin:  1.425e-07  t[s]:    598.68
	FillingsUpdate:  mu: -0.093073656  nElectrons: 1110.000000
	SubspaceRotationAdjust: set factor to 0.261
ElecMinimize: Iter:  39  F: -7019.751494237354564  |grad|_K:  6.411e-07  alpha:  1.218e-01  linmin:  5.540e-08  t[s]:    608.91
	FillingsUpdate:  mu: -0.093078248  nElectrons: 1110.000000
	SubspaceRotationAdjust: set factor to 0.281
ElecMinimize: Iter:  40  F: -7019.751502244506810  |grad|_K:  4.884e-07  alpha:  1.503e-01  linmin:  1.328e-07  t[s]:    619.16
	FillingsUpdate:  mu: -0.093032592  nElectrons: 1110.000000
	SubspaceRotationAdjust: set factor to 0.27
ElecMinimize: Iter:  41  F: -7019.751506513978711  |grad|_K:  3.845e-07  alpha:  1.381e-01  linmin:  7.513e-08  t[s]:    629.41
	FillingsUpdate:  mu: -0.093019392  nElectrons: 1110.000000
	SubspaceRotationAdjust: set factor to 0.242
ElecMinimize: Iter:  42  F: -7019.751509253494987  |grad|_K:  3.718e-07  alpha:  1.429e-01  linmin:  8.378e-08  t[s]:    639.67
	FillingsUpdate:  mu: -0.093045527  nElectrons: 1110.000000
	SubspaceRotationAdjust: set factor to 0.264
ElecMinimize: Iter:  43  F: -7019.751512427495072  |grad|_K:  2.985e-07  alpha:  1.772e-01  linmin:  1.352e-07  t[s]:    649.93
	FillingsUpdate:  mu: -0.093068621  nElectrons: 1110.000000
	SubspaceRotationAdjust: set factor to 0.257
ElecMinimize: Iter:  44  F: -7019.751514133293313  |grad|_K:  2.531e-07  alpha:  1.478e-01  linmin:  1.128e-07  t[s]:    660.18
	FillingsUpdate:  mu: -0.093070021  nElectrons: 1110.000000
	SubspaceRotationAdjust: set factor to 0.245
ElecMinimize: Iter:  45  F: -7019.751515216421467  |grad|_K:  2.015e-07  alpha:  1.305e-01  linmin:  1.018e-07  t[s]:    670.43
	FillingsUpdate:  mu: -0.093049736  nElectrons: 1110.000000
	SubspaceRotationAdjust: set factor to 0.272
ElecMinimize: Iter:  46  F: -7019.751516230545349  |grad|_K:  1.786e-07  alpha:  1.927e-01  linmin:  1.842e-07  t[s]:    680.68
	FillingsUpdate:  mu: -0.093043623  nElectrons: 1110.000000
	SubspaceRotationAdjust: set factor to 0.266
ElecMinimize: Iter:  47  F: -7019.751516825145700  |grad|_K:  1.600e-07  alpha:  1.439e-01  linmin:  1.048e-07  t[s]:    690.95
	FillingsUpdate:  mu: -0.093054102  nElectrons: 1110.000000
	SubspaceRotationAdjust: set factor to 0.281
ElecMinimize: Iter:  48  F: -7019.751517362167760  |grad|_K:  1.352e-07  alpha:  1.619e-01  linmin:  1.615e-07  t[s]:    701.24
	FillingsUpdate:  mu: -0.093064659  nElectrons: 1110.000000
	SubspaceRotationAdjust: set factor to 0.289
ElecMinimize: Iter:  49  F: -7019.751517744572084  |grad|_K:  1.240e-07  alpha:  1.617e-01  linmin:  1.244e-07  t[s]:    711.49
	FillingsUpdate:  mu: -0.093068594  nElectrons: 1110.000000
	SubspaceRotationAdjust: set factor to 0.305
ElecMinimize: Iter:  50  F: -7019.751518072202089  |grad|_K:  1.143e-07  alpha:  1.646e-01  linmin:  1.130e-07  t[s]:    721.74
	FillingsUpdate:  mu: -0.093071445  nElectrons: 1110.000000
	SubspaceRotationAdjust: set factor to 0.283
ElecMinimize: Iter:  51  F: -7019.751518302619843  |grad|_K:  1.029e-07  alpha:  1.363e-01  linmin:  9.360e-08  t[s]:    732.02
	FillingsUpdate:  mu: -0.093072479  nElectrons: 1110.000000
	SubspaceRotationAdjust: set factor to 0.328
ElecMinimize: Iter:  52  F: -7019.751518554039649  |grad|_K:  8.696e-08  alpha:  1.833e-01  linmin:  1.602e-07  t[s]:    742.26
	FillingsUpdate:  mu: -0.093067128  nElectrons: 1110.000000
	SubspaceRotationAdjust: set factor to 0.304
ElecMinimize: Iter:  53  F: -7019.751518703129477  |grad|_K:  9.004e-08  alpha:  1.525e-01  linmin:  9.244e-08  t[s]:    752.54
	FillingsUpdate:  mu: -0.093061552  nElectrons: 1110.000000
	SubspaceRotationAdjust: set factor to 0.3
ElecMinimize: Iter:  54  F: -7019.751518852016488  |grad|_K:  6.971e-08  alpha:  1.419e-01  linmin:  7.694e-08  t[s]:    762.80
	FillingsUpdate:  mu: -0.093061373  nElectrons: 1110.000000
	SubspaceRotationAdjust: set factor to 0.279
ElecMinimize: Iter:  55  F: -7019.751518945115095  |grad|_K:  6.281e-08  alpha:  1.480e-01  linmin:  9.584e-08  t[s]:    773.07
	FillingsUpdate:  mu: -0.093064081  nElectrons: 1110.000000
	SubspaceRotationAdjust: set factor to 0.309
ElecMinimize: Iter:  56  F: -7019.751519045472378  |grad|_K:  5.776e-08  alpha:  1.969e-01  linmin:  1.525e-07  t[s]:    783.35
	FillingsUpdate:  mu: -0.093065713  nElectrons: 1110.000000
	SubspaceRotationAdjust: set factor to 0.249
ElecMinimize: Iter:  57  F: -7019.751519100105725  |grad|_K:  4.955e-08  alpha:  1.268e-01  linmin:  5.857e-08  t[s]:    793.61
	FillingsUpdate:  mu: -0.093063819  nElectrons: 1110.000000
	SubspaceRotationAdjust: set factor to 0.292
ElecMinimize: Iter:  58  F: -7019.751519160116914  |grad|_K:  3.879e-08  alpha:  1.885e-01  linmin:  6.485e-08  t[s]:    803.87
	FillingsUpdate:  mu: -0.093064834  nElectrons: 1110.000000
	SubspaceRotationAdjust: set factor to 0.273
ElecMinimize: Iter:  59  F: -7019.751519194738648  |grad|_K:  3.731e-08  alpha:  1.786e-01  linmin:  1.206e-07  t[s]:    814.16
	FillingsUpdate:  mu: -0.093068033  nElectrons: 1110.000000
	SubspaceRotationAdjust: set factor to 0.258
ElecMinimize: Iter:  60  F: -7019.751519225630545  |grad|_K:  3.417e-08  alpha:  1.728e-01  linmin:  2.223e-07  t[s]:    824.56
	FillingsUpdate:  mu: -0.093066417  nElectrons: 1110.000000
	SubspaceRotationAdjust: set factor to 0.255
ElecMinimize: Iter:  61  F: -7019.751519250566162  |grad|_K:  3.052e-08  alpha:  1.663e-01  linmin:  8.546e-08  t[s]:    835.32
	FillingsUpdate:  mu: -0.093062641  nElectrons: 1110.000000
	SubspaceRotationAdjust: set factor to 0.277
ElecMinimize: Iter:  62  F: -7019.751519271958387  |grad|_K:  2.412e-08  alpha:  1.779e-01  linmin:  1.562e-07  t[s]:    846.09
	FillingsUpdate:  mu: -0.093061662  nElectrons: 1110.000000
	SubspaceRotationAdjust: set factor to 0.276
ElecMinimize: Iter:  63  F: -7019.751519286617622  |grad|_K:  2.529e-08  alpha:  1.986e-01  linmin:  2.041e-07  t[s]:    856.86
	FillingsUpdate:  mu: -0.093061970  nElectrons: 1110.000000
	SubspaceRotationAdjust: set factor to 0.276
ElecMinimize: Iter:  64  F: -7019.751519301014014  |grad|_K:  2.502e-08  alpha:  1.734e-01  linmin: -3.605e-09  t[s]:    867.64
	FillingsUpdate:  mu: -0.093064356  nElectrons: 1110.000000
	SubspaceRotationAdjust: set factor to 0.277
ElecMinimize: Iter:  65  F: -7019.751519314217148  |grad|_K:  2.076e-08  alpha:  1.635e-01  linmin:  9.611e-08  t[s]:    878.28
	FillingsUpdate:  mu: -0.093064922  nElectrons: 1110.000000
	SubspaceRotationAdjust: set factor to 0.299
ElecMinimize: Iter:  66  F: -7019.751519325687696  |grad|_K:  2.035e-08  alpha:  2.096e-01  linmin:  4.456e-07  t[s]:    888.54
	FillingsUpdate:  mu: -0.093063691  nElectrons: 1110.000000
	SubspaceRotationAdjust: set factor to 0.297
ElecMinimize: Iter:  67  F: -7019.751519332914540  |grad|_K:  1.863e-08  alpha:  1.391e-01  linmin:  1.280e-08  t[s]:    898.80
	FillingsUpdate:  mu: -0.093063607  nElectrons: 1110.000000
	SubspaceRotationAdjust: set factor to 0.302
ElecMinimize: Iter:  68  F: -7019.751519340106825  |grad|_K:  1.711e-08  alpha:  1.610e-01  linmin:  8.115e-08  t[s]:    909.04
ElecMinimize: Converged (|Delta F|<1.000000e-08 for 2 iters).
Setting wave functions to eigenvectors of Hamiltonian
Vacuum energy after initial minimize, F = -7019.751519340106825


-------- Electronic minimization -----------
	Linear fluid (dielectric constant: 7.2) occupying 0.733461 of unit cell:	Completed after 12 iterations at t[s]:    910.66
	FillingsUpdate:  mu: -0.112623315  nElectrons: 1110.000000
ElecMinimize: Iter:   0  F: -7019.822943659415614  |grad|_K:  2.595e-05  alpha:  1.000e+00
	Linear fluid (dielectric constant: 7.2) occupying 0.735511 of unit cell:	Completed after 12 iterations at t[s]:    919.20
	Linear fluid (dielectric constant: 7.2) occupying 0.733795 of unit cell:	Completed after 11 iterations at t[s]:    922.27
	FillingsUpdate:  mu: -0.115792777  nElectrons: 1110.000000
	SubspaceRotationAdjust: set factor to 0.237
ElecMinimize: Iter:   1  F: -7019.831337226314645  |grad|_K:  1.643e-05  alpha:  9.488e-02  linmin: -3.822e-04  t[s]:    926.54
	Linear fluid (dielectric constant: 7.2) occupying 0.734205 of unit cell:	Completed after 8 iterations at t[s]:    930.24
	Linear fluid (dielectric constant: 7.2) occupying 0.734694 of unit cell:	Completed after 8 iterations at t[s]:    933.17
	FillingsUpdate:  mu: -0.113301832  nElectrons: 1110.000000
	SubspaceRotationAdjust: set factor to 0.259
ElecMinimize: Iter:   2  F: -7019.840234465583308  |grad|_K:  1.289e-05  alpha:  2.360e-01  linmin: -2.879e-04  t[s]:    937.39
	Linear fluid (dielectric constant: 7.2) occupying 0.735332 of unit cell:	Completed after 9 iterations at t[s]:    941.09
	Linear fluid (dielectric constant: 7.2) occupying 0.735450 of unit cell:	Completed after 7 iterations at t[s]:    944.11
	FillingsUpdate:  mu: -0.108929473  nElectrons: 1110.000000
	SubspaceRotationAdjust: set factor to 0.22
ElecMinimize: Iter:   3  F: -7019.846997198364079  |grad|_K:  1.233e-05  alpha:  2.883e-01  linmin: -4.733e-05  t[s]:    948.35
	Linear fluid (dielectric constant: 7.2) occupying 0.736075 of unit cell:	Completed after 10 iterations at t[s]:    952.06
	Linear fluid (dielectric constant: 7.2) occupying 0.735757 of unit cell:	Completed after 8 iterations at t[s]:    954.99
	FillingsUpdate:  mu: -0.109194848  nElectrons: 1110.000000
	SubspaceRotationAdjust: set factor to 0.182
ElecMinimize: Iter:   4  F: -7019.849627062603759  |grad|_K:  8.745e-06  alpha:  1.316e-01  linmin: -8.382e-06  t[s]:    959.22
	Linear fluid (dielectric constant: 7.2) occupying 0.735923 of unit cell:	Completed after 7 iterations at t[s]:    962.91
	Linear fluid (dielectric constant: 7.2) occupying 0.736173 of unit cell:	Completed after 8 iterations at t[s]:    965.95
	FillingsUpdate:  mu: -0.110798995  nElectrons: 1110.000000
	SubspaceRotationAdjust: set factor to 0.199
ElecMinimize: Iter:   5  F: -7019.853120617764944  |grad|_K:  8.401e-06  alpha:  3.464e-01  linmin: -4.781e-05  t[s]:    970.21
	Linear fluid (dielectric constant: 7.2) occupying 0.736414 of unit cell:	Completed after 9 iterations at t[s]:    973.92
	Linear fluid (dielectric constant: 7.2) occupying 0.736341 of unit cell:	Completed after 7 iterations at t[s]:    976.86
	FillingsUpdate:  mu: -0.108958682  nElectrons: 1110.000000
	SubspaceRotationAdjust: set factor to 0.203
ElecMinimize: Iter:   6  F: -7019.855321448471841  |grad|_K:  6.159e-06  alpha:  2.332e-01  linmin: -2.026e-05  t[s]:    981.12
	Linear fluid (dielectric constant: 7.2) occupying 0.736321 of unit cell:	Completed after 7 iterations at t[s]:    984.81
	Linear fluid (dielectric constant: 7.2) occupying 0.736325 of unit cell:	Completed after 4 iterations at t[s]:    987.79
	FillingsUpdate:  mu: -0.109001113  nElectrons: 1110.000000
	SubspaceRotationAdjust: set factor to 0.169
ElecMinimize: Iter:   7  F: -7019.856314637801006  |grad|_K:  5.632e-06  alpha:  1.997e-01  linmin: -1.209e-05  t[s]:    992.03
	Linear fluid (dielectric constant: 7.2) occupying 0.736253 of unit cell:	Completed after 6 iterations at t[s]:    995.71
	Linear fluid (dielectric constant: 7.2) occupying 0.736222 of unit cell:	Completed after 5 iterations at t[s]:    998.60
	FillingsUpdate:  mu: -0.110037145  nElectrons: 1110.000000
	SubspaceRotationAdjust: set factor to 0.178
ElecMinimize: Iter:   8  F: -7019.857492582736995  |grad|_K:  3.871e-06  alpha:  2.820e-01  linmin: -5.366e-05  t[s]:   1002.82
	Linear fluid (dielectric constant: 7.2) occupying 0.736210 of unit cell:	Completed after 6 iterations at t[s]:   1006.50
	Linear fluid (dielectric constant: 7.2) occupying 0.736212 of unit cell:	Completed after 3 iterations at t[s]:   1009.44
	FillingsUpdate:  mu: -0.109419407  nElectrons: 1110.000000
	SubspaceRotationAdjust: set factor to 0.157
ElecMinimize: Iter:   9  F: -7019.857975704773708  |grad|_K:  3.894e-06  alpha:  2.419e-01  linmin: -4.978e-06  t[s]:   1013.65
	Linear fluid (dielectric constant: 7.2) occupying 0.736208 of unit cell:	Completed after 6 iterations at t[s]:   1017.32
	Linear fluid (dielectric constant: 7.2) occupying 0.736206 of unit cell:	Completed after 3 iterations at t[s]:   1020.27
	FillingsUpdate:  mu: -0.108962353  nElectrons: 1110.000000
	SubspaceRotationAdjust: set factor to 0.151
ElecMinimize: Iter:  10  F: -7019.858521605662645  |grad|_K:  2.267e-06  alpha:  2.766e-01  linmin: -1.155e-05  t[s]:   1024.49
	Linear fluid (dielectric constant: 7.2) occupying 0.736159 of unit cell:	Completed after 4 iterations at t[s]:   1028.13
	Linear fluid (dielectric constant: 7.2) occupying 0.736151 of unit cell:	Completed after 2 iterations at t[s]:   1031.07
	FillingsUpdate:  mu: -0.109215551  nElectrons: 1110.000000
	SubspaceRotationAdjust: set factor to 0.15
ElecMinimize: Iter:  11  F: -7019.858737107675552  |grad|_K:  2.285e-06  alpha:  3.220e-01  linmin:  7.267e-06  t[s]:   1035.29
	Linear fluid (dielectric constant: 7.2) occupying 0.736066 of unit cell:	Completed after 5 iterations at t[s]:   1038.95
	Linear fluid (dielectric constant: 7.2) occupying 0.736091 of unit cell:	Completed after 3 iterations at t[s]:   1041.89
	FillingsUpdate:  mu: -0.109123752  nElectrons: 1110.000000
	SubspaceRotationAdjust: set factor to 0.131
ElecMinimize: Iter:  12  F: -7019.858892404141443  |grad|_K:  1.664e-06  alpha:  2.302e-01  linmin:  6.384e-06  t[s]:   1046.10
	Linear fluid (dielectric constant: 7.2) occupying 0.736059 of unit cell:	Completed after 4 iterations at t[s]:   1049.74
	Linear fluid (dielectric constant: 7.2) occupying 0.736045 of unit cell:	Completed after 2 iterations at t[s]:   1052.68
	FillingsUpdate:  mu: -0.108975462  nElectrons: 1110.000000
	SubspaceRotationAdjust: set factor to 0.131
ElecMinimize: Iter:  13  F: -7019.859009096680893  |grad|_K:  1.524e-06  alpha:  3.273e-01  linmin:  1.134e-05  t[s]:   1060.66
	Linear fluid (dielectric constant: 7.2) occupying 0.735997 of unit cell:	Completed after 4 iterations at t[s]:   1064.32
	Linear fluid (dielectric constant: 7.2) occupying 0.736002 of unit cell:	Completed after 1 iterations at t[s]:   1068.95
	FillingsUpdate:  mu: -0.109216788  nElectrons: 1110.000000
	SubspaceRotationAdjust: set factor to 0.133
ElecMinimize: Iter:  14  F: -7019.859096410214988  |grad|_K:  1.209e-06  alpha:  2.923e-01  linmin:  7.517e-06  t[s]:   1073.17
	Linear fluid (dielectric constant: 7.2) occupying 0.735956 of unit cell:	Completed after 4 iterations at t[s]:   1076.81
	Linear fluid (dielectric constant: 7.2) occupying 0.735954 of unit cell:	Completed after 1 iterations at t[s]:   1079.72
	FillingsUpdate:  mu: -0.109366560  nElectrons: 1110.000000
	SubspaceRotationAdjust: set factor to 0.126
ElecMinimize: Iter:  15  F: -7019.859152813853143  |grad|_K:  1.072e-06  alpha:  2.993e-01  linmin:  9.992e-06  t[s]:   1083.93
	Linear fluid (dielectric constant: 7.2) occupying 0.735905 of unit cell:	Completed after 4 iterations at t[s]:   1087.57
	Linear fluid (dielectric constant: 7.2) occupying 0.735912 of unit cell:	Completed after 1 iterations at t[s]:   1090.48
	FillingsUpdate:  mu: -0.109239500  nElectrons: 1110.000000
	SubspaceRotationAdjust: set factor to 0.127
ElecMinimize: Iter:  16  F: -7019.859191195259882  |grad|_K:  7.399e-07  alpha:  2.592e-01  linmin:  1.349e-05  t[s]:   1094.70
	Linear fluid (dielectric constant: 7.2) occupying 0.735891 of unit cell:	Completed after 2 iterations at t[s]:   1098.30
	Linear fluid (dielectric constant: 7.2) occupying 0.735885 of unit cell:	Completed after 1 iterations at t[s]:   1101.20
	FillingsUpdate:  mu: -0.109205544  nElectrons: 1110.000000
	SubspaceRotationAdjust: set factor to 0.125
ElecMinimize: Iter:  17  F: -7019.859214532920305  |grad|_K:  7.174e-07  alpha:  3.342e-01  linmin:  1.911e-05  t[s]:   1105.41
	Linear fluid (dielectric constant: 7.2) occupying 0.735853 of unit cell:	Completed after 3 iterations at t[s]:   1109.05
	Linear fluid (dielectric constant: 7.2) occupying 0.735861 of unit cell:	Completed after 1 iterations at t[s]:   1111.95
	FillingsUpdate:  mu: -0.109310623  nElectrons: 1110.000000
	SubspaceRotationAdjust: set factor to 0.121
ElecMinimize: Iter:  18  F: -7019.859230923907489  |grad|_K:  4.944e-07  alpha:  2.499e-01  linmin:  1.471e-05  t[s]:   1116.16
	Linear fluid (dielectric constant: 7.2) occupying 0.735842 of unit cell:	Completed after 2 iterations at t[s]:   1119.78
	Linear fluid (dielectric constant: 7.2) occupying 0.735832 of unit cell:	Completed after 1 iterations at t[s]:   1122.67
	FillingsUpdate:  mu: -0.109285432  nElectrons: 1110.000000
	SubspaceRotationAdjust: set factor to 0.129
ElecMinimize: Iter:  19  F: -7019.859242188494136  |grad|_K:  4.494e-07  alpha:  3.664e-01  linmin:  2.612e-05  t[s]:   1126.87
	Linear fluid (dielectric constant: 7.2) occupying 0.735805 of unit cell:	Completed after 3 iterations at t[s]:   1130.49
	Linear fluid (dielectric constant: 7.2) occupying 0.735813 of unit cell:	Completed after 1 iterations at t[s]:   1133.39
	FillingsUpdate:  mu: -0.109267410  nElectrons: 1110.000000
	SubspaceRotationAdjust: set factor to 0.115
ElecMinimize: Iter:  20  F: -7019.859248827872761  |grad|_K:  3.774e-07  alpha:  2.617e-01  linmin:  1.446e-05  t[s]:   1137.59
	Linear fluid (dielectric constant: 7.2) occupying 0.735801 of unit cell:	Completed after 2 iterations at t[s]:   1141.20
	Linear fluid (dielectric constant: 7.2) occupying 0.735798 of unit cell:	Completed after 1 iterations at t[s]:   1144.10
	FillingsUpdate:  mu: -0.109335989  nElectrons: 1110.000000
	SubspaceRotationAdjust: set factor to 0.112
ElecMinimize: Iter:  21  F: -7019.859254406916079  |grad|_K:  3.024e-07  alpha:  3.124e-01  linmin:  2.117e-05  t[s]:   1148.32
	Linear fluid (dielectric constant: 7.2) occupying 0.735791 of unit cell:	Completed after 2 iterations at t[s]:   1151.93
	Linear fluid (dielectric constant: 7.2) occupying 0.735791 of unit cell:	Completed after 0 iterations at t[s]:   1154.81
	FillingsUpdate:  mu: -0.109326041  nElectrons: 1110.000000
	SubspaceRotationAdjust: set factor to 0.114
ElecMinimize: Iter:  22  F: -7019.859257935221649  |grad|_K:  2.538e-07  alpha:  3.125e-01  linmin:  1.860e-05  t[s]:   1159.00
	Linear fluid (dielectric constant: 7.2) occupying 0.735786 of unit cell:	Completed after 2 iterations at t[s]:   1162.63
	Linear fluid (dielectric constant: 7.2) occupying 0.735786 of unit cell:	Completed after 0 iterations at t[s]:   1165.50
	FillingsUpdate:  mu: -0.109304612  nElectrons: 1110.000000
	SubspaceRotationAdjust: set factor to 0.107
ElecMinimize: Iter:  23  F: -7019.859260339643697  |grad|_K:  2.083e-07  alpha:  3.012e-01  linmin:  2.080e-05  t[s]:   1169.68
	Linear fluid (dielectric constant: 7.2) occupying 0.735781 of unit cell:	Completed after 1 iterations at t[s]:   1173.28
	Linear fluid (dielectric constant: 7.2) occupying 0.735781 of unit cell:	Completed after 0 iterations at t[s]:   1176.14
	FillingsUpdate:  mu: -0.109338069  nElectrons: 1110.000000
	SubspaceRotationAdjust: set factor to 0.106
ElecMinimize: Iter:  24  F: -7019.859261944339778  |grad|_K:  1.744e-07  alpha:  3.033e-01  linmin:  7.459e-06  t[s]:   1180.33
	Linear fluid (dielectric constant: 7.2) occupying 0.735778 of unit cell:	Completed after 1 iterations at t[s]:   1183.93
	Linear fluid (dielectric constant: 7.2) occupying 0.735778 of unit cell:	Completed after 0 iterations at t[s]:   1186.80
	FillingsUpdate:  mu: -0.109320963  nElectrons: 1110.000000
	SubspaceRotationAdjust: set factor to 0.108
ElecMinimize: Iter:  25  F: -7019.859263144080614  |grad|_K:  1.353e-07  alpha:  3.124e-01  linmin:  7.591e-06  t[s]:   1190.98
	Linear fluid (dielectric constant: 7.2) occupying 0.735778 of unit cell:	Completed after 1 iterations at t[s]:   1194.58
	Linear fluid (dielectric constant: 7.2) occupying 0.735778 of unit cell:	Completed after 0 iterations at t[s]:   1197.45
	FillingsUpdate:  mu: -0.109293870  nElectrons: 1110.000000
	SubspaceRotationAdjust: set factor to 0.108
ElecMinimize: Iter:  26  F: -7019.859263957377152  |grad|_K:  1.147e-07  alpha:  3.560e-01  linmin:  1.010e-05  t[s]:   1201.65
	Linear fluid (dielectric constant: 7.2) occupying 0.735777 of unit cell:	Completed after 1 iterations at t[s]:   1205.27
	Linear fluid (dielectric constant: 7.2) occupying 0.735777 of unit cell:	Completed after 0 iterations at t[s]:   1208.14
	FillingsUpdate:  mu: -0.109316808  nElectrons: 1110.000000
	SubspaceRotationAdjust: set factor to 0.107
ElecMinimize: Iter:  27  F: -7019.859264466852437  |grad|_K:  1.055e-07  alpha:  3.091e-01  linmin:  1.335e-05  t[s]:   1212.34
	Linear fluid (dielectric constant: 7.2) occupying 0.735775 of unit cell:	Completed after 1 iterations at t[s]:   1215.94
	Linear fluid (dielectric constant: 7.2) occupying 0.735775 of unit cell:	Completed after 0 iterations at t[s]:   1218.81
	FillingsUpdate:  mu: -0.109308139  nElectrons: 1110.000000
	SubspaceRotationAdjust: set factor to 0.105
ElecMinimize: Iter:  28  F: -7019.859264886391429  |grad|_K:  8.647e-08  alpha:  3.178e-01  linmin:  7.178e-06  t[s]:   1223.00
	Linear fluid (dielectric constant: 7.2) occupying 0.735774 of unit cell:	Completed after 1 iterations at t[s]:   1226.63
	Linear fluid (dielectric constant: 7.2) occupying 0.735774 of unit cell:	Completed after 0 iterations at t[s]:   1229.50
	FillingsUpdate:  mu: -0.109291120  nElectrons: 1110.000000
	SubspaceRotationAdjust: set factor to 0.105
ElecMinimize: Iter:  29  F: -7019.859265178860369  |grad|_K:  7.660e-08  alpha:  3.165e-01  linmin:  1.224e-05  t[s]:   1233.69
	Linear fluid (dielectric constant: 7.2) occupying 0.735773 of unit cell:	Completed after 1 iterations at t[s]:   1237.30
	Linear fluid (dielectric constant: 7.2) occupying 0.735773 of unit cell:	Completed after 0 iterations at t[s]:   1240.16
	FillingsUpdate:  mu: -0.109302635  nElectrons: 1110.000000
	SubspaceRotationAdjust: set factor to 0.106
ElecMinimize: Iter:  30  F: -7019.859265414276706  |grad|_K:  6.305e-08  alpha:  3.479e-01  linmin:  1.004e-05  t[s]:   1244.35
	Linear fluid (dielectric constant: 7.2) occupying 0.735772 of unit cell:	Completed after 1 iterations at t[s]:   1247.95
	Linear fluid (dielectric constant: 7.2) occupying 0.735772 of unit cell:	Completed after 0 iterations at t[s]:   1250.81
	FillingsUpdate:  mu: -0.109302421  nElectrons: 1110.000000
	SubspaceRotationAdjust: set factor to 0.101
ElecMinimize: Iter:  31  F: -7019.859265555338425  |grad|_K:  6.342e-08  alpha:  2.840e-01  linmin:  1.612e-05  t[s]:   1255.00
	Linear fluid (dielectric constant: 7.2) occupying 0.735772 of unit cell:	Completed after 0 iterations at t[s]:   1258.61
	Linear fluid (dielectric constant: 7.2) occupying 0.735772 of unit cell:	Completed after 0 iterations at t[s]:   1261.46
	FillingsUpdate:  mu: -0.109294944  nElectrons: 1110.000000
	SubspaceRotationAdjust: set factor to 0.102
ElecMinimize: Iter:  32  F: -7019.859265667114414  |grad|_K:  4.429e-08  alpha:  2.671e-01  linmin:  3.435e-06  t[s]:   1265.65
	Linear fluid (dielectric constant: 7.2) occupying 0.735771 of unit cell:	Completed after 1 iterations at t[s]:   1269.25
	Linear fluid (dielectric constant: 7.2) occupying 0.735771 of unit cell:	Completed after 0 iterations at t[s]:   1272.11
	FillingsUpdate:  mu: -0.109297851  nElectrons: 1110.000000
	SubspaceRotationAdjust: set factor to 0.0998
ElecMinimize: Iter:  33  F: -7019.859265734204200  |grad|_K:  3.422e-08  alpha:  2.729e-01  linmin:  4.378e-06  t[s]:   1276.29
	Linear fluid (dielectric constant: 7.2) occupying 0.735771 of unit cell:	Completed after 0 iterations at t[s]:   1279.89
	Linear fluid (dielectric constant: 7.2) occupying 0.735771 of unit cell:	Completed after 0 iterations at t[s]:   1282.75
	FillingsUpdate:  mu: -0.109298605  nElectrons: 1110.000000
	SubspaceRotationAdjust: set factor to 0.0988
ElecMinimize: Iter:  34  F: -7019.859265790511927  |grad|_K:  3.088e-08  alpha:  4.321e-01  linmin:  1.248e-05  t[s]:   1286.94
	Linear fluid (dielectric constant: 7.2) occupying 0.735771 of unit cell:	Completed after 1 iterations at t[s]:   1290.54
	Linear fluid (dielectric constant: 7.2) occupying 0.735771 of unit cell:	Completed after 0 iterations at t[s]:   1293.40
	FillingsUpdate:  mu: -0.109291861  nElectrons: 1110.000000
	SubspaceRotationAdjust: set factor to 0.0987
ElecMinimize: Iter:  35  F: -7019.859265827166382  |grad|_K:  3.140e-08  alpha:  3.307e-01  linmin:  1.268e-05  t[s]:   1297.58
	Linear fluid (dielectric constant: 7.2) occupying 0.735771 of unit cell:	Completed after 0 iterations at t[s]:   1301.17
	Linear fluid (dielectric constant: 7.2) occupying 0.735771 of unit cell:	Completed after 0 iterations at t[s]:   1304.02
	FillingsUpdate:  mu: -0.109295659  nElectrons: 1110.000000
	SubspaceRotationAdjust: set factor to 0.0853
ElecMinimize: Iter:  36  F: -7019.859265853457146  |grad|_K:  2.560e-08  alpha:  2.684e-01  linmin:  8.095e-06  t[s]:   1308.20
	Linear fluid (dielectric constant: 7.2) occupying 0.735771 of unit cell:	Completed after 0 iterations at t[s]:   1311.78
	Linear fluid (dielectric constant: 7.2) occupying 0.735771 of unit cell:	Completed after 0 iterations at t[s]:   1314.66
	FillingsUpdate:  mu: -0.109295092  nElectrons: 1110.000000
	SubspaceRotationAdjust: set factor to 0.094
ElecMinimize: Iter:  37  F: -7019.859265873560616  |grad|_K:  1.659e-08  alpha:  2.776e-01  linmin:  5.197e-07  t[s]:   1318.83
	Linear fluid (dielectric constant: 7.2) occupying 0.735771 of unit cell:	Completed after 0 iterations at t[s]:   1322.41
	Linear fluid (dielectric constant: 7.2) occupying 0.735771 of unit cell:	Completed after 0 iterations at t[s]:   1325.28
	FillingsUpdate:  mu: -0.109295234  nElectrons: 1110.000000
	SubspaceRotationAdjust: set factor to 0.0978
ElecMinimize: Iter:  38  F: -7019.859265882069849  |grad|_K:  1.471e-08  alpha:  2.511e-01  linmin: -8.095e-06  t[s]:   1329.47
	Linear fluid (dielectric constant: 7.2) occupying 0.735771 of unit cell:	Completed after 0 iterations at t[s]:   1333.04
	Linear fluid (dielectric constant: 7.2) occupying 0.735771 of unit cell:	Completed after 0 iterations at t[s]:   1335.92
	FillingsUpdate:  mu: -0.109294028  nElectrons: 1110.000000
	SubspaceRotationAdjust: set factor to 0.104
ElecMinimize: Iter:  39  F: -7019.859265889513154  |grad|_K:  1.628e-08  alpha:  3.844e-01  linmin:  1.247e-05  t[s]:   1340.12
ElecMinimize: Converged (|Delta F|<1.000000e-08 for 2 iters).
Setting wave functions to eigenvectors of Hamiltonian
Single-point solvation energy estimate, DeltaF = -0.107746549406329

# Ionic positions in cartesian coordinates:
ion Ni  32.181155145269997   0.000000000000000  10.727052344999997 0
ion Ni   5.363526172499999   0.000000000000000   5.363526172499999 0
ion Ni  32.181155145269997   5.363526172499999   5.363526172499999 0
ion Ni   5.363526172499999   5.363526172499999  10.727052344999997 0
ion Ni  32.181155145269997  10.727052344999999  10.727052344999997 0
ion Ni  32.181155145269997  21.454102800270000  10.727052344999997 0
ion Ni   5.363526172499999  21.454102800270000   5.363526172499999 0
ion Ni   5.363526172499999  10.727052344999999   5.363526172499999 0
ion Ni  32.181155145269997  16.090578517499999   5.363526172499999 0
ion Ni  32.181155145269997  26.817628972769999   5.363526172499999 0
ion Ni   5.363526172499999  26.817628972769999  10.727052344999997 0
ion Ni   5.363526172499999  16.090578517499999  10.727052344999997 0
ion Ni  10.727052344999999   0.000000000000000  10.727052344999997 0
ion Ni  21.454102800270000   0.000000000000000  10.727052344999997 0
ion Ni  21.454102800270000   5.363526172499999   5.363526172499999 0
ion Ni  10.727052344999999   5.363526172499999   5.363526172499999 0
ion Ni  16.090578517499999   5.363526172499999  10.727052344999997 0
ion Ni  26.817628972769999   5.363526172499999  10.727052344999997 0
ion Ni  26.817628972769999   0.000000000000000   5.363526172499999 0
ion Ni  16.090578517499999   0.000000000000000   5.363526172499999 0
ion Ni  10.727052344999999  10.727052344999999  10.727052344999997 0
ion Ni  21.454102800270000  21.454102800270000  10.727052344999997 0
ion Ni  26.817628972769999  21.454102800270000   5.363526172499999 0
ion Ni  16.090578517499999  10.727052344999999   5.363526172499999 0
ion Ni  21.454102800270000  16.090578517499999   5.363526172499999 0
ion Ni  10.727052344999999  26.817628972769999   5.363526172499999 0
ion Ni  16.090578517499999  26.817628972769999  10.727052344999997 0
ion Ni  26.817628972769999  16.090578517499999  10.727052344999997 0
ion Ni  10.727052344999999  21.454102800270000  10.727052344999997 0
ion Ni  21.454102800270000  10.727052344999999  10.727052344999985 0
ion Ni  26.817628972769999  10.727052344999999   5.363526172499999 0
ion Ni  16.090578517499999  21.454102800270000   5.363526172499999 0
ion Ni  21.454102800270000  26.817628972769999   5.363526172499999 0
ion Ni  10.727052344999999  16.090578517499999   5.363526172499999 0
ion Ni  16.090578517499999  16.090578517499999  10.727052344999997 0
ion Ni  26.817628972769999  26.817628972769999  10.727052344999997 0
ion S   4.232241197730000   4.232241197730000   4.232250646379996 0
ion S  27.948915837270000  27.948915837270000   6.494801698619995 0
ion S   1.131284974770000  27.948915837270000   9.595776818879992 0
ion S   9.595765480499999   4.232241197730000   1.131275526120000 0
ion S  27.948915837270000   9.595765480499999   1.131275526120000 0
ion S   4.232241197730000   1.131284974770000   9.595776818879992 0
ion S   9.595765480499999   1.131284974770000   6.494801698619995 0
ion S   1.131284974770000   9.595765480499999   4.232250646379996 0
ion S   4.232241197730000  14.959291652999992   4.232250646379996 0
ion S  27.948915837270000  17.221863492269982   6.494801698619995 0
ion S   1.131284974770000  17.221863492269982   9.595776818879992 0
ion S   9.595765480499999  14.959291652999992   1.131275526120000 0
ion S  27.948915837270000  20.322817825500000   1.131275526120000 0
ion S   4.232241197730000  22.585389664769998   9.595776818879992 0
ion S   9.595765480499999  22.585389664769998   6.494801698619995 0
ion S   1.131284974770000  20.322817825500000   4.232250646379996 0
ion S  14.959291652999992   4.232250646380000   4.232241197729999 0
ion S  17.221863492269982  27.948904498889998   6.494811147269997 0
ion S  17.221863492269982   9.595776818879999   1.131284974770000 0
ion S  14.959291652999992   1.131275526120000   9.595765480499992 0
ion S  20.322817825500000   1.131275526120000   6.494811147269997 0
ion S  22.585389664769998   9.595776818879999   4.232241197729999 0
ion S  22.585389664769998  27.948904498889998   9.595765480499992 0
ion S  20.322817825500000   4.232250646380000   1.131284974770000 0
ion S   4.232241197730000  25.686343997999984   4.232250646379996 0
ion S  27.948915837270000   6.494811147269997   6.494801698619995 0
ion S   1.131284974770000   6.494811147269997   9.595776818879992 0
ion S   9.595765480499999  25.686343997999984   1.131275526120000 0
ion S  27.948915837270000  31.049870170499982   1.131275526120000 0
ion S   4.232241197730000  11.858337319769999   9.595776818879992 0
ion S   9.595765480499999  11.858337319769999   6.494801698619995 0
ion S   1.131284974770000  31.049870170499982   4.232250646379996 0
ion S  25.686343997999984   4.232250646380000   4.232241197729999 0
ion S   6.494811147269997  27.948904498889998   6.494811147269997 0
ion S   6.494811147269997   9.595776818879999   1.131284974770000 0
ion S  25.686343997999984   1.131275526120000   9.595765480499992 0
ion S  31.049870170499982   1.131275526120000   6.494811147269997 0
ion S  11.858337319769999   9.595776818879999   4.232241197729999 0
ion S  11.858337319769999  27.948904498889998   9.595765480499992 0
ion S  31.049870170499982   4.232250646380000   1.131284974770000 0
ion S  14.959291652999992  14.959291652999992   4.232250646379996 0
ion S  17.221863492269982  17.221863492269982   6.494801698619995 0
ion S  22.585389664769998  17.221863492269982   9.595776818879992 0
ion S  20.322817825500000  14.959291652999992   1.131275526120000 0
ion S  17.221863492269982  20.322817825500000   1.131275526120000 0
ion S  14.959291652999992  22.585389664769998   9.595776818879992 0
ion S  20.322817825500000  22.585389664769998   6.494801698619995 0
ion S  22.585389664769998  20.322817825500000   4.232250646379996 0
ion S  14.959291652999992  25.686343997999984   4.232250646379996 0
ion S  17.221863492269982   6.494811147269997   6.494801698619995 0
ion S  22.585389664769998   6.494811147269997   9.595776818879992 0
ion S  20.322817825500000  25.686343997999984   1.131275526120000 0
ion S  17.221863492269982  31.049870170499982   1.131275526120000 0
ion S  14.959291652999992  11.858337319769999   9.595776818879992 0
ion S  20.322817825500000  11.858337319769999   6.494801698619995 0
ion S  22.585389664769998  31.049870170499982   4.232250646379996 0
ion S  25.686343997999984  14.959291652999992   4.232250646379996 0
ion S   6.494811147269997  17.221863492269982   6.494801698619995 0
ion S  11.858337319769999  17.221863492269982   9.595776818879992 0
ion S  31.049870170499982  14.959291652999992   1.131275526120000 0
ion S   6.494811147269997  20.322817825500000   1.131275526120000 0
ion S  25.686343997999984  22.585389664769998   9.595776818879992 0
ion S  31.049870170499982  22.585389664769998   6.494801698619995 0
ion S  11.858337319769999  20.322817825500000   4.232250646379996 0
ion S  25.686343997999984  25.686343997999984   4.232250646379996 0
ion S   6.494811147269997   6.494811147269997   6.494801698619995 0
ion S  11.858337319769999   6.494811147269997   9.595776818879992 0
ion S  31.049870170499982  25.686343997999984   1.131275526120000 0
ion S   6.494811147269997  31.049870170499982   1.131275526120000 0
ion S  25.686343997999984  11.858337319769999   9.595776818879992 0
ion S  31.049870170499982  11.858337319769999   6.494801698619995 0
ion S  11.858337319769999  31.049870170499982   4.232250646379996 0
ion S  17.329879628633826  16.520706924028417  16.050501858346649 1
ion S  18.034380852960304  12.485979525592663  16.271320705704241 1
ion Na  14.565167045299550  14.226086201763191  19.500198136102970 1
ion Na  22.234126488603103  15.213945712017891  16.425698021349127 1

# Forces in Cartesian coordinates:
force Ni   0.023430625111592  -0.011455877390255  -0.039439253054053 0
force Ni  -0.001947577726618  -0.000434112601389  -0.009235770246341 0
force Ni   0.001841102549976  -0.000467599644457  -0.009225791623203 0
force Ni  -0.023295733720539  -0.011449365646888  -0.039528600834579 0
force Ni   0.023446138861909  -0.011505374117430  -0.039628090910742 0
force Ni   0.023422830857369  -0.011463137833047  -0.039546468675419 0
force Ni  -0.001906913422566  -0.000454782606077  -0.009201859665177 0
force Ni  -0.001814893339732  -0.000477984587815  -0.009229691674531 0
force Ni   0.001764255802179  -0.000473849348451  -0.009233495964195 0
force Ni   0.001869999733557  -0.000474227958693  -0.009204888949711 0
force Ni  -0.023298695908837  -0.011407074598781  -0.039467336166173 0
force Ni  -0.023284769430209  -0.011444738264182  -0.039661843535086 0
force Ni   0.023438782077448  -0.011449245823380  -0.039441921187351 0
force Ni   0.023417822261983  -0.011455285722373  -0.039425366070132 0
force Ni   0.002093055105790  -0.000496228388382  -0.009020056139536 0
force Ni   0.001878148225153  -0.000428431686420  -0.009153897531083 0
force Ni  -0.023222666068173  -0.011184645623592  -0.039355993518865 0
force Ni  -0.023422855916536  -0.011435138581146  -0.039627358355138 0
force Ni  -0.001945783770366  -0.000428043768988  -0.009239552445943 0
force Ni  -0.001948901820651  -0.000429814949770  -0.009206825708620 0
force Ni   0.024310636212597  -0.011262217638574  -0.040249014576368 0
force Ni   0.022898603284442  -0.011316018954895  -0.039297164988322 0
force Ni  -0.001886197853100  -0.000579323401296  -0.009311587308393 0
force Ni  -0.003421697520476   0.000256694282911  -0.010037873015044 0
force Ni   0.002243741832686  -0.000832676606632  -0.011039220541495 0
force Ni   0.001897178152732  -0.000488468995904  -0.009211881227085 0
force Ni  -0.023407425122293  -0.011582869867359  -0.039571939774909 0
force Ni  -0.022869531450471  -0.011416994079064  -0.041156124283050 0
force Ni   0.023653552785422  -0.011582015473761  -0.039723010033919 0
force Ni   0.018960308551322  -0.009885497189185  -0.031569723342786 0
force Ni  -0.001850186289134  -0.000473341953223  -0.009498446708962 0
force Ni  -0.002185808797742  -0.000131428600706  -0.008539867565410 0
force Ni   0.001873797039682  -0.000458758796814  -0.009188890094112 0
force Ni   0.001834925281385  -0.000123799533923  -0.008134491405171 0
force Ni  -0.016763155160714  -0.006450679328958  -0.013520471032550 0
force Ni  -0.023294623270702  -0.011370198746103  -0.039492684255513 0
force S  -0.004582112955326  -0.004143568090149  -0.003596265160282 0
force S   0.003231498982865   0.000907873059816   0.011576853249613 0
force S  -0.002592491522290   0.006936073003377   0.019858132508914 0
force S  -0.003767755504545   0.008390208517607   0.020652351801433 0
force S   0.003795298809696   0.008403609009968   0.020592532442190 0
force S   0.002584496295846   0.006935138741632   0.019857572871511 0
force S  -0.003231084930654   0.000889219841366   0.011620201561410 0
force S   0.004602326280743  -0.004133668814530  -0.003582094944109 0
force S  -0.004612323806294  -0.004154204012061  -0.003585580770597 0
force S   0.003482911338765   0.001110164229162   0.011002214161056 0
force S  -0.002664045460863   0.006978895647403   0.020141405370123 0
force S  -0.003826763256711   0.008425182786093   0.020570874778744 0
force S   0.003780123383906   0.008429447791690   0.020596037247808 0
force S   0.002609425670284   0.006963384396085   0.019946954952402 0
force S  -0.003236362783563   0.000933000689452   0.011681047313403 0
force S   0.004581577286014  -0.004168465325712  -0.003606301294045 0
force S  -0.004559348118595  -0.004145065783644  -0.003600917172330 0
force S   0.003229075280636   0.000897357985207   0.011622812246250 0
force S   0.003836845799138   0.008397846498519   0.020593221146132 0
force S   0.002574873159087   0.007020175955573   0.019840148488175 0
force S  -0.003227066711831   0.000901835379025   0.011622399646771 0
force S   0.004639219213110  -0.004151924633557  -0.003759996560543 0
force S  -0.002575763504469   0.006935631327371   0.019879960803231 0
force S  -0.003811396182487   0.008454426465298   0.020668297148038 0
force S  -0.004576809814023  -0.004139630049763  -0.003605791898560 0
force S   0.003252968705200   0.000941225141607   0.011582014978393 0
force S  -0.002604321986901   0.006954022577204   0.019974551471404 0
force S  -0.003761224438270   0.008375790488503   0.020652292249411 0
force S   0.003772247239403   0.008408368211747   0.020632857590612 0
force S   0.002637509982257   0.006985219132876   0.020129038560656 0
force S  -0.003335333675158   0.001037698820251   0.011605286595668 0
force S   0.004579968679057  -0.004148591976755  -0.003614001434393 0
force S  -0.004585640807171  -0.004161772588152  -0.003652215123325 0
force S   0.003224222002020   0.000908353398977   0.011602514072509 0
force S   0.003852398707671   0.008434879942679   0.020682565110357 0
force S   0.002563421623524   0.006936669431831   0.019871067362856 0
force S  -0.003226424545696   0.000905884397422   0.011619350643073 0
force S   0.004565450167771  -0.004226328672529  -0.003807315828083 0
force S  -0.002546431590390   0.006923992149909   0.019844471122725 0
force S  -0.003792746078488   0.008409497051007   0.020653883439196 0
force S  -0.004664818226836  -0.004443478317651  -0.003940833888863 0
force S   0.001661087991235  -0.000879579922466   0.013232049565625 0
force S  -0.000213622162343   0.006922229487744   0.021397300703689 0
force S  -0.003833992825252   0.008394949094468   0.020586156607106 0
force S   0.003719704124056   0.008388181874180   0.020616734497517 0
force S   0.002154121558489   0.007792354007865   0.019192161364829 0
force S  -0.003180241623599   0.000824693216925   0.011472262626924 0
force S   0.004528963023062  -0.004055374358978  -0.003505848084619 0
force S  -0.004556668309900  -0.004163909222397  -0.003597708509195 0
force S   0.003274351951270   0.000868869790039   0.011700205624399 0
force S  -0.002248220933842   0.006759926708837   0.018983065006755 0
force S  -0.003794900371166   0.008426391189888   0.020627100576905 0
force S   0.003769535046067   0.008394603082135   0.020656085311611 0
force S   0.000328323295569   0.005200503498736   0.013553895714854 0
force S  -0.003032994314334   0.000588557806886   0.011768549589206 0
force S   0.004567557335542  -0.004148984578739  -0.003602792990725 0
force S  -0.004573791532470  -0.004175141907033  -0.003726510639674 0
force S   0.003301010964992   0.000935525424135   0.011511163175180 0
force S  -0.003564056112836   0.006299513676097   0.016947634520633 0
force S  -0.003767954574975   0.008404239415604   0.020644458354002 0
force S   0.003788365405970   0.008390426787064   0.020640237673551 0
force S   0.002472363345584   0.006891779940240   0.020228159925728 0
force S  -0.003247217726959   0.000945252474230   0.011557872571049 0
force S   0.004510649922921  -0.004219850046524  -0.003638129275747 0
force S  -0.004557356248118  -0.004148398740986  -0.003610261445300 0
force S   0.003227652824779   0.000912467991290   0.011601411699263 0
force S  -0.002567561160402   0.007013619565366   0.019858309880241 0
force S  -0.003777134842198   0.008401615634696   0.020647041413021 0
force S   0.003766526475325   0.008410583026104   0.020638550016034 0
force S   0.002394342544423   0.006860174280709   0.020429292911352 0
force S  -0.003236338675485   0.000948070532061   0.011511912042761 0
force S   0.004572499243413  -0.004158671265936  -0.003626698459134 0
force S  -0.001332815998670  -0.016993547469115  -0.024431587832650 1
force S   0.002006355510916   0.013421540447722  -0.007932790524537 1
force Na  -0.008827311931058  -0.001340294303692   0.009316800719091 1
force Na   0.007894922471229   0.002044474316309   0.000315404683718 1

# Energy components:
   A_diel =       -0.1558216357252439
   Eewald =    29867.8946141140768304
       EH =    36086.2608520418070839
     Eloc =   -74194.3580728116066894
      Enl =      908.9287068625184247
      Exc =     -961.6507029769130668
 Exc_core =      145.2496878570487979
       KE =     1129.0088565971643675
-------------------------------------
     Etot =    -7018.8218799516334911
       TS =        1.0373859378794175
-------------------------------------
        F =    -7019.8592658895131535

IonicMinimize: Iter:   0  F: -7019.859265889513154  |grad|_K:  1.068e-02  alpha:  1.000e+00

#--- Lowdin population analysis ---
# oxidation-state Ni -0.001 -0.448 -0.448 -0.004 -0.008 -0.007 -0.447 -0.448 -0.447 -0.448 -0.002 -0.009 -0.002 -0.001 -0.448 -0.447 +0.007 -0.004 -0.448 -0.448 -0.002 +0.002 -0.447 -0.450 -0.446 -0.447 -0.001 -0.035 +0.001 -0.028 -0.447 -0.447 -0.447 -0.449 -0.053 -0.004
# oxidation-state S +0.315 +0.444 +0.084 -0.052 -0.051 +0.084 +0.444 +0.315 +0.315 +0.445 +0.083 -0.052 -0.051 +0.083 +0.445 +0.315 +0.315 +0.444 -0.052 +0.084 +0.444 +0.314 +0.084 -0.052 +0.315 +0.445 +0.084 -0.052 -0.052 +0.083 +0.446 +0.315 +0.315 +0.444 -0.051 +0.084 +0.444 +0.316 +0.084 -0.052 +0.315 +0.447 +0.076 -0.051 -0.052 +0.091 +0.444 +0.314 +0.315 +0.444 +0.087 -0.052 -0.052 +0.116 +0.446 +0.315 +0.315 +0.445 +0.097 -0.051 -0.052 +0.082 +0.444 +0.316 +0.315 +0.444 +0.085 -0.052 -0.052 +0.081 +0.444 +0.315 -0.383 -0.453
# oxidation-state Na +0.897 +0.847


-------- Electronic minimization -----------
	Linear fluid (dielectric constant: 7.2) occupying 0.735772 of unit cell:	Completed after 6 iterations at t[s]:   1347.62
	FillingsUpdate:  mu: -0.109748732  nElectrons: 1110.000000
ElecMinimize: Iter:   0  F: -7019.853531709141862  |grad|_K:  1.172e-05  alpha:  1.000e+00
	Linear fluid (dielectric constant: 7.2) occupying 0.735803 of unit cell:	Completed after 8 iterations at t[s]:   1356.12
	Linear fluid (dielectric constant: 7.2) occupying 0.735783 of unit cell:	Completed after 7 iterations at t[s]:   1359.10
	FillingsUpdate:  mu: -0.109516388  nElectrons: 1110.000000
	SubspaceRotationAdjust: set factor to 0.105
ElecMinimize: Iter:   1  F: -7019.859234640739487  |grad|_K:  3.715e-06  alpha:  3.206e-01  linmin:  1.633e-04  t[s]:   1363.33
	Linear fluid (dielectric constant: 7.2) occupying 0.735770 of unit cell:	Completed after 5 iterations at t[s]:   1366.99
[...]
	FillingsUpdate:  mu: -0.106247427  nElectrons: 1110.000000
	SubspaceRotationAdjust: set factor to 0.135
ElecMinimize: Iter:   7  F: -7019.935451629184172  |grad|_K:  2.024e-08  alpha:  5.915e-01  linmin: -9.048e-05  t[s]:  34988.09
	Linear fluid (dielectric constant: 7.2) occupying 0.738488 of unit cell:	Completed after 0 iterations at t[s]:  34991.68
	Linear fluid (dielectric constant: 7.2) occupying 0.738488 of unit cell:	Completed after 0 iterations at t[s]:  34994.54
	FillingsUpdate:  mu: -0.106244366  nElectrons: 1110.000000
	SubspaceRotationAdjust: set factor to 0.129
ElecMinimize: Iter:   8  F: -7019.935451647397713  |grad|_K:  2.207e-08  alpha:  3.352e-01  linmin:  6.183e-04  t[s]:  34998.72
	Linear fluid (dielectric constant: 7.2) occupying 0.738488 of unit cell:	Completed after 1 iterations at t[s]:  35002.32
	Linear fluid (dielectric constant: 7.2) occupying 0.738488 of unit cell:	Completed after 0 iterations at t[s]:  35005.19
	FillingsUpdate:  mu: -0.106246195  nElectrons: 1110.000000
	SubspaceRotationAdjust: set factor to 0.12
ElecMinimize: Iter:   9  F: -7019.935451658428065  |grad|_K:  2.110e-08  alpha:  1.912e-01  linmin:  1.002e-03  t[s]:  35009.37
	Linear fluid (dielectric constant: 7.2) occupying 0.738488 of unit cell:	Completed after 0 iterations at t[s]:  35012.96
	Linear fluid (dielectric constant: 7.2) occupying 0.738488 of unit cell:	Completed after 0 iterations at t[s]:  35015.80
	FillingsUpdate:  mu: -0.106246262  nElectrons: 1110.000000
	SubspaceRotationAdjust: set factor to 0.101
ElecMinimize: Iter:  10  F: -7019.935451663603999  |grad|_K:  1.274e-08  alpha:  1.385e-01  linmin: -1.132e-03  t[s]:  35019.97
	Linear fluid (dielectric constant: 7.2) occupying 0.738488 of unit cell:	Completed after 0 iterations at t[s]:  35023.55
ElecMinimize: 	Predicted alpha/alphaT>3.000000, increasing alphaT to 4.156485e-01.
	Linear fluid (dielectric constant: 7.2) occupying 0.738488 of unit cell:	Completed after 0 iterations at t[s]:  35026.40
	Linear fluid (dielectric constant: 7.2) occupying 0.738488 of unit cell:	Completed after 0 iterations at t[s]:  35029.26
	FillingsUpdate:  mu: -0.106245967  nElectrons: 1110.000000
	SubspaceRotationAdjust: set factor to 0.0994
ElecMinimize: Iter:  11  F: -7019.935451672135969  |grad|_K:  1.624e-08  alpha:  6.246e-01  linmin:  1.312e-03  t[s]:  35033.45
ElecMinimize: Converged (|Delta F|<1.000000e-08 for 2 iters).
Setting wave functions to eigenvectors of Hamiltonian

# Ionic positions in cartesian coordinates:
ion Ni  32.181155145269997   0.000000000000000  10.727052344999997 0
ion Ni   5.363526172499999   0.000000000000000   5.363526172499999 0
ion Ni  32.181155145269997   5.363526172499999   5.363526172499999 0
ion Ni   5.363526172499999   5.363526172499999  10.727052344999997 0
ion Ni  32.181155145269997  10.727052344999999  10.727052344999997 0
ion Ni  32.181155145269997  21.454102800270000  10.727052344999997 0
ion Ni   5.363526172499999  21.454102800270000   5.363526172499999 0
ion Ni   5.363526172499999  10.727052344999999   5.363526172499999 0
ion Ni  32.181155145269997  16.090578517499999   5.363526172499999 0
ion Ni  32.181155145269997  26.817628972769999   5.363526172499999 0
ion Ni   5.363526172499999  26.817628972769999  10.727052344999997 0
ion Ni   5.363526172499999  16.090578517499999  10.727052344999997 0
ion Ni  10.727052344999999   0.000000000000000  10.727052344999997 0
ion Ni  21.454102800270000   0.000000000000000  10.727052344999997 0
ion Ni  21.454102800270000   5.363526172499999   5.363526172499999 0
ion Ni  10.727052344999999   5.363526172499999   5.363526172499999 0
ion Ni  16.090578517499999   5.363526172499999  10.727052344999997 0
ion Ni  26.817628972769999   5.363526172499999  10.727052344999997 0
ion Ni  26.817628972769999   0.000000000000000   5.363526172499999 0
ion Ni  16.090578517499999   0.000000000000000   5.363526172499999 0
ion Ni  10.727052344999999  10.727052344999999  10.727052344999997 0
ion Ni  21.454102800270000  21.454102800270000  10.727052344999997 0
ion Ni  26.817628972769999  21.454102800270000   5.363526172499999 0
ion Ni  16.090578517499999  10.727052344999999   5.363526172499999 0
ion Ni  21.454102800270000  16.090578517499999   5.363526172499999 0
ion Ni  10.727052344999999  26.817628972769999   5.363526172499999 0
ion Ni  16.090578517499999  26.817628972769999  10.727052344999997 0
ion Ni  26.817628972769999  16.090578517499999  10.727052344999997 0
ion Ni  10.727052344999999  21.454102800270000  10.727052344999997 0
ion Ni  21.454102800270000  10.727052344999999  10.727052344999985 0
ion Ni  26.817628972769999  10.727052344999999   5.363526172499999 0
ion Ni  16.090578517499999  21.454102800270000   5.363526172499999 0
ion Ni  21.454102800270000  26.817628972769999   5.363526172499999 0
ion Ni  10.727052344999999  16.090578517499999   5.363526172499999 0
ion Ni  16.090578517499999  16.090578517499999  10.727052344999997 0
ion Ni  26.817628972769999  26.817628972769999  10.727052344999997 0
ion S   4.232241197730000   4.232241197730000   4.232250646379996 0
ion S  27.948915837270000  27.948915837270000   6.494801698619995 0
ion S   1.131284974770000  27.948915837270000   9.595776818879992 0
ion S   9.595765480499999   4.232241197730000   1.131275526120000 0
ion S  27.948915837270000   9.595765480499999   1.131275526120000 0
ion S   4.232241197730000   1.131284974770000   9.595776818879992 0
ion S   9.595765480499999   1.131284974770000   6.494801698619995 0
ion S   1.131284974770000   9.595765480499999   4.232250646379996 0
ion S   4.232241197730000  14.959291652999992   4.232250646379996 0
ion S  27.948915837270000  17.221863492269982   6.494801698619995 0
ion S   1.131284974770000  17.221863492269982   9.595776818879992 0
ion S   9.595765480499999  14.959291652999992   1.131275526120000 0
ion S  27.948915837270000  20.322817825500000   1.131275526120000 0
ion S   4.232241197730000  22.585389664769998   9.595776818879992 0
ion S   9.595765480499999  22.585389664769998   6.494801698619995 0
ion S   1.131284974770000  20.322817825500000   4.232250646379996 0
ion S  14.959291652999992   4.232250646380000   4.232241197729999 0
ion S  17.221863492269982  27.948904498889998   6.494811147269997 0
ion S  17.221863492269982   9.595776818879999   1.131284974770000 0
ion S  14.959291652999992   1.131275526120000   9.595765480499992 0
ion S  20.322817825500000   1.131275526120000   6.494811147269997 0
ion S  22.585389664769998   9.595776818879999   4.232241197729999 0
ion S  22.585389664769998  27.948904498889998   9.595765480499992 0
ion S  20.322817825500000   4.232250646380000   1.131284974770000 0
ion S   4.232241197730000  25.686343997999984   4.232250646379996 0
ion S  27.948915837270000   6.494811147269997   6.494801698619995 0
ion S   1.131284974770000   6.494811147269997   9.595776818879992 0
ion S   9.595765480499999  25.686343997999984   1.131275526120000 0
ion S  27.948915837270000  31.049870170499982   1.131275526120000 0
ion S   4.232241197730000  11.858337319769999   9.595776818879992 0
ion S   9.595765480499999  11.858337319769999   6.494801698619995 0
ion S   1.131284974770000  31.049870170499982   4.232250646379996 0
ion S  25.686343997999984   4.232250646380000   4.232241197729999 0
ion S   6.494811147269997  27.948904498889998   6.494811147269997 0
ion S   6.494811147269997   9.595776818879999   1.131284974770000 0
ion S  25.686343997999984   1.131275526120000   9.595765480499992 0
ion S  31.049870170499982   1.131275526120000   6.494811147269997 0
ion S  11.858337319769999   9.595776818879999   4.232241197729999 0
ion S  11.858337319769999  27.948904498889998   9.595765480499992 0
ion S  31.049870170499982   4.232250646380000   1.131284974770000 0
ion S  14.959291652999992  14.959291652999992   4.232250646379996 0
ion S  17.221863492269982  17.221863492269982   6.494801698619995 0
ion S  22.585389664769998  17.221863492269982   9.595776818879992 0
ion S  20.322817825500000  14.959291652999992   1.131275526120000 0
ion S  17.221863492269982  20.322817825500000   1.131275526120000 0
ion S  14.959291652999992  22.585389664769998   9.595776818879992 0
ion S  20.322817825500000  22.585389664769998   6.494801698619995 0
ion S  22.585389664769998  20.322817825500000   4.232250646379996 0
ion S  14.959291652999992  25.686343997999984   4.232250646379996 0
ion S  17.221863492269982   6.494811147269997   6.494801698619995 0
ion S  22.585389664769998   6.494811147269997   9.595776818879992 0
ion S  20.322817825500000  25.686343997999984   1.131275526120000 0
ion S  17.221863492269982  31.049870170499982   1.131275526120000 0
ion S  14.959291652999992  11.858337319769999   9.595776818879992 0
ion S  20.322817825500000  11.858337319769999   6.494801698619995 0
ion S  22.585389664769998  31.049870170499982   4.232250646379996 0
ion S  25.686343997999984  14.959291652999992   4.232250646379996 0
ion S   6.494811147269997  17.221863492269982   6.494801698619995 0
ion S  11.858337319769999  17.221863492269982   9.595776818879992 0
ion S  31.049870170499982  14.959291652999992   1.131275526120000 0
ion S   6.494811147269997  20.322817825500000   1.131275526120000 0
ion S  25.686343997999984  22.585389664769998   9.595776818879992 0
ion S  31.049870170499982  22.585389664769998   6.494801698619995 0
ion S  11.858337319769999  20.322817825500000   4.232250646379996 0
ion S  25.686343997999984  25.686343997999984   4.232250646379996 0
ion S   6.494811147269997   6.494811147269997   6.494801698619995 0
ion S  11.858337319769999   6.494811147269997   9.595776818879992 0
ion S  31.049870170499982  25.686343997999984   1.131275526120000 0
ion S   6.494811147269997  31.049870170499982   1.131275526120000 0
ion S  25.686343997999984  11.858337319769999   9.595776818879992 0
ion S  31.049870170499982  11.858337319769999   6.494801698619995 0
ion S  11.858337319769999  31.049870170499982   4.232250646379996 0
ion S  17.467579704226718  14.938545683331226  14.397638095571230 1
ion S  19.600244246040994  11.551561031630001  14.245740183036888 1
ion Na  14.475162044723270  13.846881945054378  19.095462125589552 1
ion Na  22.703898310839687  15.849038524860102  14.968530808310783 1

# Forces in Cartesian coordinates:
force Ni   0.023380421436718  -0.011474659887466  -0.039546088083124 0
force Ni  -0.001889634311511  -0.000456030841511  -0.009200591819229 0
force Ni   0.001777999727128  -0.000489216671364  -0.009261294124083 0
force Ni  -0.023277888320262  -0.011469314505181  -0.039661060770122 0
force Ni   0.023388338044804  -0.011514261477714  -0.039670254035716 0
force Ni   0.023358566819516  -0.011489447521426  -0.039655627224201 0
force Ni  -0.001849487203129  -0.000489920035874  -0.009191116911599 0
force Ni  -0.001606254821664  -0.000534022458430  -0.009311186863925 0
force Ni   0.001584099675996  -0.000409242650707  -0.009266665029500 0
force Ni   0.001829491400257  -0.000503495239253  -0.009159434746394 0
force Ni  -0.023281703129920  -0.011438615922979  -0.039602951734294 0
force Ni  -0.023324338631313  -0.011540488618538  -0.039748836225579 0
force Ni   0.023440497225146  -0.011457365738526  -0.039578424623964 0
force Ni   0.023362032688197  -0.011507258895968  -0.039511441134878 0
force Ni   0.002905729003056  -0.000600851042601  -0.008438361868852 0
force Ni   0.001856775283568  -0.000479681337218  -0.009122873439609 0
force Ni  -0.023046845393827  -0.011661914297454  -0.039117719000174 0
force Ni  -0.023915799149053  -0.011415423417144  -0.040103742128654 0
force Ni  -0.001934475690821  -0.000431212307956  -0.009159129265319 0
force Ni  -0.001860918008686  -0.000445954431292  -0.009115906316264 0
force Ni   0.024847269798068  -0.010855997866170  -0.041528256690774 0
force Ni   0.023349116171370  -0.010447184886717  -0.040280387465214 0
force Ni  -0.001799220671286  -0.000860142164748  -0.009368528785079 0
force Ni  -0.003881644296570   0.000185467950915  -0.008896516353991 0
force Ni   0.001511034532769  -0.001591773871880  -0.011198490535053 0
force Ni   0.001842826772736  -0.000570163571416  -0.009170513964072 0
force Ni  -0.023260022611473  -0.011579967349581  -0.039691141350331 0
force Ni  -0.021200243410137  -0.011473190424241  -0.042627971466684 0
force Ni   0.023537319529488  -0.011615621540195  -0.039869914166716 0
force Ni   0.018537172952566  -0.007107700771441  -0.018525503504521 0
force Ni  -0.001596297725759  -0.000206358547430  -0.008939109687272 0
force Ni  -0.001970563048311  -0.000518184733988  -0.008642190873604 0
force Ni   0.001808503282928  -0.000570224078393  -0.009112968493931 0
force Ni   0.001655898752769   0.000135680733095  -0.008783868291055 0
force Ni  -0.016856573350917  -0.011879570609957  -0.021348953020775 0
force Ni  -0.023292003568670  -0.011360074586631  -0.039617853075290 0
force S  -0.004582247383466  -0.004150900583929  -0.003557690851410 0
force S   0.003264395116356   0.000951419889832   0.011517901804310 0
force S  -0.002621706737174   0.006945109280367   0.020067697219599 0
force S  -0.003707054884690   0.008392525700364   0.020586699246804 0
force S   0.003802745473283   0.008406179442518   0.020347132300262 0
force S   0.002621482176748   0.006951294384287   0.020076321516730 0
force S  -0.003288676750761   0.000921078542316   0.011531040960089 0
force S   0.004636054463564  -0.004142654137643  -0.003490530182099 0
force S  -0.004596564707677  -0.004158318462300  -0.003531104146921 0
force S   0.003858389234300   0.001613217172452   0.010136547994807 0
force S  -0.002714638613292   0.007024094445910   0.020350227827662 0
force S  -0.003829604833702   0.008416921554177   0.020358642759275 0
force S   0.003750236206918   0.008429815526491   0.020454191209216 0
force S   0.002630441217050   0.006986097125005   0.020205373052740 0
force S  -0.003344769473841   0.001185449078089   0.011451691076788 0
force S   0.004560413626613  -0.004184104305245  -0.003608311322988 0
force S  -0.004571192092390  -0.004007625324494  -0.003519039432293 0
force S   0.003268759596095   0.000905266263192   0.011527857660500 0
force S   0.004027256982133   0.008278963368794   0.020217847208079 0
force S   0.002535079604332   0.007187781024697   0.020210090985396 0
force S  -0.003190450192801   0.000951351807123   0.011563501898195 0
force S   0.004780473914145  -0.004298656519257  -0.005125513043389 0
force S  -0.002549140502021   0.006930394345736   0.020138779187892 0
force S  -0.003886497814857   0.008475671534744   0.020578246559996 0
force S  -0.004587985025854  -0.004132702879122  -0.003593789392153 0
force S   0.003158151197208   0.001228895895372   0.011696575823239 0
force S  -0.002651004289129   0.006975361287537   0.020169270443058 0
force S  -0.003713798563121   0.008343337875651   0.020600095224920 0
force S   0.003741171136870   0.008395967655473   0.020573989997863 0
force S   0.002691121057710   0.007003211293865   0.020374875963250 0
force S  -0.003638137724102   0.001356396899707   0.011599083218005 0
force S   0.004588235559651  -0.004159908984768  -0.003601389722879 0
force S  -0.004802530225516  -0.004171579369156  -0.003711484068839 0
force S   0.003245377594692   0.000938507677169   0.011524618709127 0
force S   0.003958995974255   0.008472336879118   0.020687197051835 0
force S   0.002613441025446   0.006933192826279   0.020062461769839 0
force S  -0.003249240230064   0.000968260677342   0.011562156082591 0
force S   0.004917972642087  -0.004280117579991  -0.004000623386808 0
force S  -0.002529891895310   0.006946924747227   0.020141345842997 0
force S  -0.003855611985600   0.008431151976955   0.020682941755710 0
force S  -0.004577980962354  -0.004517988308157  -0.004084013825834 0
force S   0.000076106985919   0.000429100073394   0.011088081630561 0
force S   0.004421122640609   0.010835915137561   0.021283842547759 0
force S  -0.003940247207810   0.008373178269500   0.020418750615753 0
force S   0.003726191545866   0.008571890749750   0.020196880608490 0
force S   0.002204288779070   0.007531508648540   0.019828199056535 0
force S  -0.003241544952509   0.001074175763168   0.011033399312593 0
force S   0.004404837742111  -0.004052239753260  -0.003609589943058 0
force S  -0.004492376633050  -0.004262775099895  -0.003588247381562 0
force S   0.003566892557763   0.001201872685966   0.011670130703325 0
force S  -0.000233852372599   0.004304277757072   0.014879226564885 0
force S  -0.003796921959578   0.008434601382886   0.020553586740652 0
force S   0.003777290688299   0.008431012782665   0.020581318574433 0
force S  -0.008138627006514   0.001640018586367   0.006717830331654 0
force S  -0.001579058231042  -0.000329231618401   0.009547380254391 0
force S   0.004559159464417  -0.004169031783068  -0.003556466342432 0
force S  -0.004511105607050  -0.004544448176549  -0.003789871837478 0
force S   0.003336592745631   0.000882693010627   0.011340118681012 0
force S  -0.005174921890607   0.006768124403800   0.015497410525287 0
force S  -0.003810401541816   0.008370255250249   0.020572360225855 0
force S   0.003767384969793   0.008360363803887   0.020583308321746 0
force S   0.002477036529883   0.007004516866203   0.020777742636222 0
force S  -0.003266105248080   0.000988167964412   0.011505757441302 0
force S   0.004480392717786  -0.004360252579183  -0.003578890784112 0
force S  -0.004574039536045  -0.004201062271616  -0.003572608058247 0
force S   0.003235841413169   0.000955098820761   0.011544631260918 0
force S  -0.002387921144573   0.007294073974366   0.020194631554829 0
force S  -0.003750618725958   0.008394135263172   0.020589470060172 0
force S   0.003741596728007   0.008410949626073   0.020581091165612 0
force S   0.004193573613488   0.005817094071953   0.016640468159471 0
force S  -0.003374013040281   0.000944353993444   0.011369748006494 0
force S   0.004568366221488  -0.004184925501049  -0.003623038459174 0
force S  -0.000162165372947   0.000020555643189   0.000143825719045 1
force S   0.000134883931861   0.000049729167151  -0.000047300578181 1
force Na   0.000084663197733  -0.000051512584877   0.000022074059318 1
force Na  -0.000092305601921  -0.000024817523814   0.000012163902199 1

# Energy components:
   A_diel =       -0.1874566392597044
   Eewald =    30057.1274796252437227
       EH =    36278.8027318699605530
     Eloc =   -74576.0778333101043245
      Enl =      908.8014844500149820
      Exc =     -961.7365434873445338
 Exc_core =      145.2496899223649791
       KE =     1129.1150802976178511
-------------------------------------
     Etot =    -7018.9053672714999266
       TS =        1.0300844006364724
-------------------------------------
        F =    -7019.9354516721359687

IonicMinimize: Iter:  46  F: -7019.935451672135969  |grad|_K:  8.656e-05  alpha:  7.418e+00  linmin: -1.355e-04  t[s]:  35036.95
IonicMinimize: Converged (|grad|_K<1.000000e-04).

#--- Lowdin population analysis ---
# oxidation-state Ni -0.007 -0.447 -0.448 -0.011 -0.011 -0.012 -0.447 -0.448 -0.447 -0.447 -0.008 -0.016 -0.008 -0.006 -0.450 -0.447 +0.010 -0.005 -0.447 -0.447 -0.018 -0.022 -0.447 -0.452 -0.441 -0.447 -0.010 -0.080 -0.011 -0.324 -0.450 -0.446 -0.447 -0.449 -0.272 -0.009
# oxidation-state S +0.314 +0.444 +0.083 -0.054 -0.053 +0.083 +0.444 +0.314 +0.314 +0.446 +0.082 -0.054 -0.054 +0.082 +0.444 +0.315 +0.315 +0.444 -0.054 +0.083 +0.445 +0.313 +0.083 -0.054 +0.315 +0.446 +0.082 -0.054 -0.054 +0.081 +0.448 +0.315 +0.316 +0.444 -0.054 +0.085 +0.444 +0.317 +0.083 -0.054 +0.314 +0.443 +0.054 -0.052 -0.054 +0.087 +0.445 +0.313 +0.315 +0.444 +0.100 -0.054 -0.054 +0.145 +0.446 +0.315 +0.315 +0.445 +0.092 -0.054 -0.054 +0.082 +0.444 +0.317 +0.315 +0.444 +0.081 -0.054 -0.054 +0.097 +0.445 +0.315 -0.084 -0.034
# oxidation-state Na +0.949 +0.818


Dumping 'Na2S2@NiS2-glyme.fillings' ... done
Dumping 'Na2S2@NiS2-glyme.wfns' ... done
Dumping 'Na2S2@NiS2-glyme.fluidState' ... done
Dumping 'Na2S2@NiS2-glyme.ionpos' ... done
Dumping 'Na2S2@NiS2-glyme.eigenvals' ... done
End date and time: Sun Sep 22 02:15:38 2024  (Duration: 0-9:44:03.64)
Done!
