
*************** JDFTx 1.7.0  ***************

Start date and time: Mon Sep  9 13:17:05 2024
Executable jdftx with command-line: -i Na2S@N_graphene-glyme-vdw.in -o Na2S@N_graphene-glyme-vdw.out
Running on hosts (process indices):  SimSlave (0)
Divided in process groups (process indices):  0 (0)
Resource initialization completed at t[s]:      0.00
Run totals: 1 processes, 2 threads, 0 GPUs


Input parsed successfully to the following command list (including defaults):

basis kpoint-dependent
coords-type Cartesian
core-overlap-check vector
coulomb-interaction Slab 001
coulomb-truncation-embed 0 0 4
davidson-band-ratio 1.1
dump End State
dump-name Na2S@N_graphene-PC-vdw.$VAR
elec-cutoff 20 100
elec-eigen-algo Davidson
elec-ex-corr gga-PBE
elec-smearing Fermi 0.01
electronic-minimize  \
	dirUpdateScheme      FletcherReeves \
	linminMethod         DirUpdateRecommended \
	nIterations          100 \
	history              15 \
	knormThreshold       0 \
	energyDiffThreshold  1e-08 \
	nEnergyDiff          2 \
	alphaTstart          1 \
	alphaTmin            1e-10 \
	updateTestStepSize   yes \
	alphaTreduceFactor   0.1 \
	alphaTincreaseFactor 3 \
	nAlphaAdjustMax      3 \
	wolfeEnergy          0.0001 \
	wolfeGradient        0.9 \
	fdTest               no
exchange-regularization WignerSeitzTruncated
fluid LinearPCM 298.000000 1.013250
fluid-ex-corr lda-TF lda-PZ
fluid-gummel-loop 10 1.000000e-05
fluid-minimize  \
	dirUpdateScheme      PolakRibiere \
	linminMethod         DirUpdateRecommended \
	nIterations          400 \
	history              15 \
	knormThreshold       1e-11 \
	energyDiffThreshold  0 \
	nEnergyDiff          2 \
	alphaTstart          1 \
	alphaTmin            1e-10 \
	updateTestStepSize   yes \
	alphaTreduceFactor   0.1 \
	alphaTincreaseFactor 3 \
	nAlphaAdjustMax      6 \
	wolfeEnergy          0.0001 \
	wolfeGradient        0.9 \
	fdTest               no
fluid-solvent Glyme 9.62137 ScalarEOS \
	epsBulk 7.2 \
	pMol 0 \
	epsInf 1.9 \
	Pvap 0 \
	sigmaBulk 0 \
	Rvdw 0 \
	Res 0 \
	tauNuc 343133
forces-output-coords Positions
ion C   0.000000000000000   0.000000000000000   3.000003066900000 0
ion C  -2.333835447300000   4.042302545699999   3.000003066900000 0
ion C  11.669139441899999  20.211550523099998   3.000003066900000 0
ion C   4.667670894600000   0.000000000000000   3.000003066900000 0
ion C  23.338278883799997   0.000000000000000   3.000003066900000 0
ion C   2.333835447300000   4.042302545699999   3.000003066900000 0
ion C -11.669158339199999  20.211550523099998   3.000003066900000 0
ion C  -4.667670894600000   8.084623988700001   3.000003066900000 0
ion C   9.335303994599997  16.169229080099999   3.000003066900000 0
ion C   9.335322891900001   0.000000000000000   3.000003066900000 0
ion C  18.670626886499999   0.000000000000000   3.000003066900000 0
ion C   4.667670894599999   8.084623988700001   3.000003066900000 0
ion C  -9.335322891900001  16.169229080099999   3.000003066900000 0
ion C  -7.001487444600001  12.126926534399997   3.000003066900000 0
ion C  14.002993786499999   0.000000000000000   3.000003066900000 0
ion C   0.000000000000000   8.084623988700001   3.000003066900000 0
ion C   7.001468547300002  20.211550523099998   3.000003066900000 0
ion C  -7.001487444599999  20.211550523099998   3.000003066900000 0
ion C  -2.333835447300000  12.126926534399997   3.000003066900000 0
ion C   4.667633100000000  16.169229080099999   3.000003066900000 0
ion C  -2.333835447299998  20.211550523099998   3.000003066900000 0
ion C   2.333835447299998  20.211550523099998   3.000003066900000 0
ion C   2.333835447300001  12.126926534399997   3.000003066900000 0
ion C  -4.667651997299997  16.169229080099999   3.000003066900000 0
ion C   7.001468547300000   4.042302545699999   3.000003066900000 0
ion C  21.004424539199999   4.042302545699999   3.000003066900000 0
ion C  14.002955991899999  16.169229080099999   3.000003066900000 0
ion C   0.000000000000000  16.169229080099999   3.000003066900000 0
ion C  11.669120544600000   4.042302545699999   3.000003066900000 0
ion C  18.670626886500003   8.084623988700001   3.000003066900000 0
ion C  11.669120544600002  12.126926534399997   3.000003066900000 0
ion C  16.336791439199995  12.126926534399997   3.000003066900000 0
ion C  16.336791439199999   4.042302545699999   3.000003066900000 0
ion C   9.335303994599997   8.084623988700001   3.000003066900000 0
ion C  14.002955991899999   8.084623988700001   3.000003066900000 0
ion C   0.000018897300000   2.694868363800000   3.000003066900000 0
ion C  11.669139441899999  22.906399989600001   3.000003066900000 0
ion C -11.669139441899999  22.906399989600001   3.000003066900000 0
ion C  -2.333816550000000   6.737170909500000   3.000003066900000 0
ion C   9.335322891900001  18.864097443900000   3.000003066900000 0
ion C  -7.001468547300000  22.906399989600001   3.000003066900000 0
ion C   7.001487444600000  22.906399989600001   3.000003066900000 0
ion C   2.333816550000000   6.737170909500000   3.000003066900000 0
ion C  -9.335303994599998  18.864097443900000   3.000003066900000 0
ion C  -4.667651997299998  10.779473455200000   3.000003066900000 0
ion C   7.001487444599997  14.821794898200000   3.000003066900000 0
ion C  -2.333835447300000  22.906399989600001   3.000003066900000 0
ion C   2.333816550000000  22.906399989600001   3.000003066900000 0
ion C   4.667651997299999  10.779473455200000   3.000003066900000 0
ion C  -7.001468547300004  14.821794898200000   3.000003066900000 0
ion C   4.667651997300001   2.694868363800000   3.000003066900000 0
ion C  23.338259986499999   2.694868363800000   3.000003066900000 0
ion C  14.002955991899997  18.864097443900000   3.000003066900000 0
ion C   0.000018897300000  10.779473455200000   3.000003066900000 0
ion C   4.667651997299995  18.864097443900000   3.000003066900000 0
ion C  -4.667651997300002  18.864097443900000   3.000003066900000 0
ion C  -2.333816550000002  14.821794898200000   3.000003066900000 0
ion C   2.333816549999996  14.821794898200000   3.000003066900000 0
ion C  -0.000018897300000  18.864097443900000   3.000003066900000 0
ion C   9.335303994599998   2.694868363800000   3.000003066900000 0
ion C  21.004443436500001   6.737170909500000   3.000003066900000 0
ion C  11.669139441899999  14.821794898200000   3.000003066900000 0
ion C  16.336772541899997  14.821794898200000   3.000003066900000 0
ion C  18.670607989199997   2.694868363800000   3.000003066900000 0
ion C   7.001487444600001   6.737170909500000   3.000003066900000 0
ion C  14.002974889200001   2.694868363800000   3.000003066900000 0
ion C  18.670607989200004  10.779473455200000   3.000003066900000 0
ion C   9.335303994599997  10.779473455200000   3.000003066900000 0
ion C  11.669139441899997   6.737170909500000   3.000003066900000 0
ion C  16.336772541900000   6.737170909500000   3.000003066900000 0
ion C  14.002974889200004  10.779473455200000   3.000003066900000 0
ion N   7.001468547300003  12.126926534399997   3.000003066900000 0
ion S   6.708269959493291  11.247237973426726  10.236952371164678 1
ion Na   2.394255621307741  10.715704291261773   8.241511407168884 1
ion Na  11.076347781091513  11.126061407119943   8.270455562905186 1
ion-species GBRV/$ID_pbe.uspp
ion-width Ecut
ionic-minimize  \
	dirUpdateScheme      FletcherReeves \
	linminMethod         DirUpdateRecommended \
	nIterations          200 \
	history              15 \
	knormThreshold       0.0001 \
	energyDiffThreshold  1e-06 \
	nEnergyDiff          2 \
	alphaTstart          1 \
	alphaTmin            1e-10 \
	updateTestStepSize   yes \
	alphaTreduceFactor   0.1 \
	alphaTincreaseFactor 3 \
	nAlphaAdjustMax      3 \
	wolfeEnergy          0.0001 \
	wolfeGradient        0.9 \
	fdTest               no
kpoint   0.000000000000   0.000000000000   0.000000000000  1.00000000000000
kpoint-folding 1 1 1 
latt-move-scale 1 1 1
latt-scale 1 1 1 
lattice Triclinic 28.0058 28.0058 37.7946 90 90 120
lattice-minimize  \
	dirUpdateScheme      L-BFGS \
	linminMethod         DirUpdateRecommended \
	nIterations          0 \
	history              15 \
	knormThreshold       0 \
	energyDiffThreshold  1e-06 \
	nEnergyDiff          2 \
	alphaTstart          1 \
	alphaTmin            1e-10 \
	updateTestStepSize   yes \
	alphaTreduceFactor   0.1 \
	alphaTincreaseFactor 3 \
	nAlphaAdjustMax      3 \
	wolfeEnergy          0.0001 \
	wolfeGradient        0.9 \
	fdTest               no
lcao-params -1 1e-06 0.01
pcm-variant GLSSA13
spintype no-spin
subspace-rotation-factor 1 yes
symmetries automatic
symmetry-threshold 0.0001
van-der-waals D3



---------- Setting up symmetries ----------

Found 24 point-group symmetries of the bravais lattice
Found 1 space-group symmetries with basis
Applied RMS atom displacement 0 bohrs to make symmetries exact.

---------- Initializing the Grid ----------
R = 
[      28.0058     -14.0029            0  ]
[            0      24.2537            0  ]
[            0            0      37.7946  ]
unit cell volume = 25671.8
G =
[   0.224353    0.12953         -0  ]
[          0   0.259061          0  ]
[          0         -0   0.166246  ]
Minimum fftbox size, Smin = [  128  128  172  ]
Chosen fftbox size, S = [  128  128  180  ]

---------- Initializing tighter grid for wavefunction operations ----------
R = 
[      28.0058     -14.0029            0  ]
[            0      24.2537            0  ]
[            0            0      37.7946  ]
unit cell volume = 25671.8
G =
[   0.224353    0.12953         -0  ]
[          0   0.259061          0  ]
[          0         -0   0.166246  ]
Minimum fftbox size, Smin = [  116  116  156  ]
Chosen fftbox size, S = [  120  120  160  ]

---------- Exchange Correlation functional ----------
Initalized PBE GGA exchange.
Initalized PBE GGA correlation.

---------- Setting up pseudopotentials ----------
Width of ionic core gaussian charges (only for fluid interactions / plotting) set to 0.397384

Reading pseudopotential file '/home/simslave2427/jdftx_install/build/pseudopotentials/GBRV/c_pbe.uspp':
  Title: C.  Created by USPP 7.3.6 on 3-2-2014
  Reference state energy: -5.406344.  4 valence electrons in orbitals:
    |200>  occupation: 2  eigenvalue: -0.504890
    |210>  occupation: 2  eigenvalue: -0.194356
  lMax: 1  lLocal: 2  QijEcut: 5
  4 projectors sampled on a log grid with 503 points:
    l: 0  eig: -0.504890  rCut: 1.3
    l: 0  eig: 0.000000  rCut: 1.3
    l: 1  eig: -0.194357  rCut: 1.3
    l: 1  eig: 0.000000  rCut: 1.3
  Partial core density with radius 1.1
  Transforming core density to a uniform radial grid of dG=0.02 with 1625 points.
  Transforming local potential to a uniform radial grid of dG=0.02 with 1625 points.
  Transforming nonlocal projectors to a uniform radial grid of dG=0.02 with 432 points.
  Transforming density augmentations to a uniform radial grid of dG=0.02 with 1625 points.
  Transforming atomic orbitals to a uniform radial grid of dG=0.02 with 432 points.
  Core radius for overlap checks: 1.30 bohrs.

Reading pseudopotential file '/home/simslave2427/jdftx_install/build/pseudopotentials/GBRV/n_pbe.uspp':
  Title: N.  Created by USPP 7.3.6 on 3-2-2014
  Reference state energy: -9.763716.  5 valence electrons in orbitals:
    |200>  occupation: 2  eigenvalue: -0.681964
    |210>  occupation: 3  eigenvalue: -0.260726
  lMax: 1  lLocal: 2  QijEcut: 6
  4 projectors sampled on a log grid with 491 points:
    l: 0  eig: -0.681964  rCut: 1.15
    l: 0  eig: 0.000000  rCut: 1.15
    l: 1  eig: -0.260729  rCut: 1.2
    l: 1  eig: 0.500000  rCut: 1.2
  Partial core density with radius 0.8
  Transforming core density to a uniform radial grid of dG=0.02 with 1625 points.
  Transforming local potential to a uniform radial grid of dG=0.02 with 1625 points.
  Transforming nonlocal projectors to a uniform radial grid of dG=0.02 with 432 points.
  Transforming density augmentations to a uniform radial grid of dG=0.02 with 1625 points.
  Transforming atomic orbitals to a uniform radial grid of dG=0.02 with 432 points.
  Core radius for overlap checks: 1.20 bohrs.

Reading pseudopotential file '/home/simslave2427/jdftx_install/build/pseudopotentials/GBRV/s_pbe.uspp':
  Title: S.  Created by USPP 7.3.6 on 1-4-15
  Reference state energy: -11.898476.  6 valence electrons in orbitals:
    |300>  occupation: 2  eigenvalue: -0.634167
    |310>  occupation: 4  eigenvalue: -0.257568
  lMax: 2  lLocal: 3  QijEcut: 6
  6 projectors sampled on a log grid with 635 points:
    l: 0  eig: -0.634161  rCut: 1.5
    l: 0  eig: 1.500000  rCut: 1.5
    l: 1  eig: -0.257567  rCut: 1.5
    l: 1  eig: 1.500000  rCut: 1.5
    l: 2  eig: -1.000000  rCut: 1.5
    l: 2  eig: 1.500000  rCut: 1.5
  Partial core density with radius 1.15
  Transforming core density to a uniform radial grid of dG=0.02 with 1625 points.
  Transforming local potential to a uniform radial grid of dG=0.02 with 1625 points.
  Transforming nonlocal projectors to a uniform radial grid of dG=0.02 with 432 points.
  Transforming density augmentations to a uniform radial grid of dG=0.02 with 1625 points.
  Transforming atomic orbitals to a uniform radial grid of dG=0.02 with 432 points.
  Core radius for overlap checks: 1.50 bohrs.

Reading pseudopotential file '/home/simslave2427/jdftx_install/build/pseudopotentials/GBRV/na_pbe.uspp':
  Title: Na.  Created by USPP 7.3.6 on 23-9-15
  Reference state energy: -47.625620.  9 valence electrons in orbitals:
    |200>  occupation: 2  eigenvalue: -2.085638
    |210>  occupation: 6  eigenvalue: -1.053708
    |300>  occupation: 1  eigenvalue: -0.100838
  lMax: 2  lLocal: 0  QijEcut: 6
  5 projectors sampled on a log grid with 657 points:
    l: 0  eig: -2.085640  rCut: 1.37
    l: 0  eig: -0.100839  rCut: 1.37
    l: 1  eig: -1.053708  rCut: 1.47
    l: 1  eig: 0.500000  rCut: 1.47
    l: 2  eig: 0.750000  rCut: 2
  Transforming local potential to a uniform radial grid of dG=0.02 with 1625 points.
  Transforming nonlocal projectors to a uniform radial grid of dG=0.02 with 432 points.
  Transforming density augmentations to a uniform radial grid of dG=0.02 with 1625 points.
  Transforming atomic orbitals to a uniform radial grid of dG=0.02 with 432 points.
  Core radius for overlap checks: 2.00 bohrs.

Initialized 4 species with 75 total atoms.

Folded 1 k-points by 1x1x1 to 1 k-points.

---------- Setting up k-points, bands, fillings ----------
No reducable k-points. 
Computing the number of bands and number of electrons
Calculating initial fillings.
nElectrons: 313.000000   nBands: 302   nStates: 1

----- Setting up reduced wavefunction bases (one per k-point) -----
average nbasis = 109673.000 , ideal nbasis = 109671.883

---------- Setting up coulomb interaction ----------
Fluid mode embedding: using embedded box, but periodic Coulomb kernel.
(Fluid response is responsible for (approximate) separation between periodic images.)
Setting up double-sized grid for truncated Coulomb potentials:
R = 
[      28.0058     -14.0029            0  ]
[            0      24.2537            0  ]
[            0            0      75.5892  ]
unit cell volume = 51343.6
G =
[   0.224353    0.12953         -0  ]
[          0   0.259061          0  ]
[          0         -0  0.0831228  ]
Chosen fftbox size, S = [  128  128  360  ]
Integer grid location selected as the embedding center:
   Grid: [  0  0  19  ]
   Lattice: [  0  0  0.105835  ]
   Cartesian: [  0  0  4  ]
Constructing Wigner-Seitz cell: 8 faces (6 quadrilaterals, 2 hexagons)
Range-separation parameter for embedded mesh potentials due to point charges: 0.590105 bohrs.

Initializing DFT-D3 calculator:
	Parameters set for gga-PBE functional
	s6:  1.000  s_r6:  1.217
	s8:  0.722  s_r8:  1.000
	Per-atom parameters loaded for:
	 C:  sqrtQ[a0]:  3.105  Rcov[a0]:  1.417  CN: [ 0.00 0.99 2.00 3.00 3.98 ]
	 N:  sqrtQ[a0]:  2.712  Rcov[a0]:  1.342  CN: [ 0.00 0.99 2.01 2.99 ]
	 S:  sqrtQ[a0]:  4.041  Rcov[a0]:  1.928  CN: [ 0.00 0.99 1.99 ]
	Na:  sqrtQ[a0]:  6.586  Rcov[a0]:  2.646  CN: [ 0.00 0.97 ]

---------- Setting up ewald sum ----------
Optimum gaussian width for ewald sums = 7.220412 bohr.
Real space sum over 405 unit cells with max indices [  4  4  2  ]
Reciprocal space sum over 7875 terms with max indices [  7  7  17  ]

Computing DFT-D3 correction:
# coordination-number C 3.300 3.300 3.300 3.300 3.300 3.303 3.300 3.301 3.299 3.300 3.300 3.387 3.300 3.300 3.300 3.389 3.300 3.300 3.318 3.294 3.300 3.300 3.779 3.300 3.301 3.300 3.306 3.306 3.302 3.300 3.802 3.311 3.300 3.379 3.340 3.300 3.300 3.300 3.304 3.301 3.300 3.300 3.356 3.300 3.302 3.314 3.300 3.300 3.607 3.300 3.300 3.300 3.300 3.577 3.300 3.300 3.304 3.346 3.300 3.300 3.300 3.367 3.303 3.300 3.309 3.300 3.301 3.699 3.332 3.302 3.461
# coordination-number N 3.263
# coordination-number S 1.987
# coordination-number Na 2.490 2.449
# diagonal-C6 C 24.29 24.28 24.28 24.29 24.29 24.26 24.28 24.27 24.29 24.29 24.29 23.28 24.28 24.28 24.29 23.25 24.28 24.29 24.10 24.34 24.29 24.28 18.84 24.28 24.27 24.29 24.22 24.23 24.27 24.28 18.74 24.17 24.28 23.38 23.86 24.28 24.29 24.29 24.24 24.28 24.29 24.29 23.68 24.29 24.27 24.15 24.29 24.29 20.19 24.28 24.28 24.29 24.28 20.57 24.28 24.29 24.24 23.79 24.28 24.28 24.28 23.54 24.25 24.29 24.19 24.28 24.27 19.31 23.96 24.26 22.22
# diagonal-C6 N 15.59
# diagonal-C6 S 125.91
# diagonal-C6 Na 186.11 186.11
EvdW_6 =   -0.058476
EvdW_8 =   -0.049511

---------- Allocating electronic variables ----------
Initializing wave functions:  linear combination of atomic orbitals
C pseudo-atom occupations:   s ( 2 )  p ( 2 )
N pseudo-atom occupations:   s ( 2 )  p ( 3 )
S pseudo-atom occupations:   s ( 2 )  p ( 4 )
Na pseudo-atom occupations:   s ( 2 1 )  p ( 6 )
	FillingsUpdate:  mu: -0.245311550  nElectrons: 313.000000
LCAOMinimize: Iter:   0  F: -516.8348390547786266  |grad|_K:  3.466e-03  alpha:  1.000e+00
	FillingsUpdate:  mu: -0.198534418  nElectrons: 313.000000
LCAOMinimize: Iter:   1  F: -516.9091124795000951  |grad|_K:  3.112e-03  alpha:  1.416e-01  linmin:  7.548e-03  cgtest: -1.273e-01  t[s]:    569.90
	FillingsUpdate:  mu: -0.211425872  nElectrons: 313.000000
LCAOMinimize: Iter:   2  F: -516.9362579310234196  |grad|_K:  1.086e-03  alpha:  5.656e-02  linmin: -2.958e-02  cgtest:  7.651e-01  t[s]:    766.30
LCAOMinimize: Encountered beta<0, resetting CG.
	FillingsUpdate:  mu: -0.230033250  nElectrons: 313.000000
LCAOMinimize: Iter:   3  F: -516.9395443915270789  |grad|_K:  5.746e-04  alpha:  6.077e-02  linmin:  2.915e-03  cgtest: -1.158e-02  t[s]:    962.68
LCAOMinimize: 	Predicted alpha/alphaT>3.000000, increasing alphaT to 1.823149e-01.
	FillingsUpdate:  mu: -0.229032463  nElectrons: 313.000000
LCAOMinimize: Iter:   4  F: -516.9432762588231753  |grad|_K:  3.225e-04  alpha:  2.477e-01  linmin: -2.025e-03  cgtest:  2.434e-02  t[s]:   1212.46
	FillingsUpdate:  mu: -0.226931804  nElectrons: 313.000000
LCAOMinimize: Iter:   5  F: -516.9449032593566926  |grad|_K:  2.053e-04  alpha:  3.407e-01  linmin:  2.379e-03  cgtest: -4.384e-02  t[s]:   1409.21
	FillingsUpdate:  mu: -0.229616683  nElectrons: 313.000000
LCAOMinimize: Iter:   6  F: -516.9450271025231132  |grad|_K:  1.220e-04  alpha:  6.446e-02  linmin: -2.154e-03  cgtest:  8.939e-02  t[s]:   1605.90
LCAOMinimize: 	Predicted alpha/alphaT>3.000000, increasing alphaT to 1.933828e-01.
	FillingsUpdate:  mu: -0.229306253  nElectrons: 313.000000
LCAOMinimize: Iter:   7  F: -516.9452156397942417  |grad|_K:  3.711e-05  alpha:  2.722e-01  linmin: -7.437e-04  cgtest: -1.396e-01  t[s]:   1855.04
	FillingsUpdate:  mu: -0.229817550  nElectrons: 313.000000
LCAOMinimize: Iter:   8  F: -516.9452334138914011  |grad|_K:  4.037e-05  alpha:  2.803e-01  linmin:  6.947e-05  cgtest:  3.866e-03  t[s]:   2051.29
	FillingsUpdate:  mu: -0.229392157  nElectrons: 313.000000
LCAOMinimize: Iter:   9  F: -516.9452385025549574  |grad|_K:  1.625e-05  alpha:  6.840e-02  linmin:  9.519e-04  cgtest: -5.764e-03  t[s]:   2247.88
LCAOMinimize: 	Predicted alpha/alphaT>3.000000, increasing alphaT to 2.051895e-01.
	FillingsUpdate:  mu: -0.229535504  nElectrons: 313.000000
LCAOMinimize: Iter:  10  F: -516.9452426665332041  |grad|_K:  7.278e-06  alpha:  3.449e-01  linmin: -1.626e-05  cgtest:  1.184e-02  t[s]:   2497.65
	FillingsUpdate:  mu: -0.229429115  nElectrons: 313.000000
LCAOMinimize: Iter:  11  F: -516.9452430908220322  |grad|_K:  7.876e-06  alpha:  1.745e-01  linmin:  1.380e-06  cgtest: -6.591e-04  t[s]:   2694.42
	FillingsUpdate:  mu: -0.229507954  nElectrons: 313.000000
LCAOMinimize: Iter:  12  F: -516.9452433220225203  |grad|_K:  1.482e-06  alpha:  8.116e-02  linmin: -1.080e-04  cgtest:  9.050e-04  t[s]:   2890.96
LCAOMinimize: Converged (|Delta F|<1.000000e-06 for 2 iters).
----- createFluidSolver() ----- (Fluid-side solver setup)
   Initializing fluid molecule 'Glyme'
     Net charge: 0   dipole magnitude: 0
     Initializing spherical shell mfKernel with radius 0 Bohr
     deltaS corrections:

Correction to mu due to finite nuclear width = -0.00604864
   Cavity determined by nc: 8.36e-05 and sigma: 0.6
   Effective cavity tension: -8.03e-06 Eh/bohr^2 to account for cavitation and dispersion.


---- Citations for features of the code used in this run ----

   Software package:
      R. Sundararaman, K. Letchworth-Weaver, K.A. Schwarz, D. Gunceler, Y. Ozhabes and T.A. Arias, 'JDFTx: software for joint density-functional theory', SoftwareX 6, 278 (2017)

   gga-PBE exchange-correlation functional:
      J.P. Perdew, K. Burke and M. Ernzerhof, Phys. Rev. Lett. 77, 3865 (1996)

   Pseudopotentials:
      KF Garrity, JW Bennett, KM Rabe and D Vanderbilt, Comput. Mater. Sci. 81, 446 (2014)

   Truncated Coulomb potentials:
      R. Sundararaman and T.A. Arias, Phys. Rev. B 87, 165122 (2013)

   DFT-D3 dispersion correction:
      S. Grimme, J. Antony, S. Ehrlich and H. Krieg, J. Chem. Phys. 132, 154104 (2010)

   Linear/nonlinear dielectric/ionic fluid model with effective cavity tension:
      D. Gunceler, K. Letchworth-Weaver, R. Sundararaman, K.A. Schwarz and T.A. Arias, Modelling Simul. Mater. Sci. Eng. 21, 074005 (2013)

   Total energy minimization with Auxiliary Hamiltonian:
      C. Freysoldt, S. Boeck, and J. Neugebauer, Phys. Rev. B 79, 241103(R) (2009)

This list may not be complete. Please suggest additional citations or
report any other bugs at https://github.com/shankar1729/jdftx/issues

Initialization completed successfully at t[s]:   2990.12


Computing DFT-D3 correction:
# coordination-number C 3.300 3.300 3.300 3.300 3.300 3.303 3.300 3.301 3.299 3.300 3.300 3.387 3.300 3.300 3.300 3.389 3.300 3.300 3.318 3.294 3.300 3.300 3.779 3.300 3.301 3.300 3.306 3.306 3.302 3.300 3.802 3.311 3.300 3.379 3.340 3.300 3.300 3.300 3.304 3.301 3.300 3.300 3.356 3.300 3.302 3.314 3.300 3.300 3.607 3.300 3.300 3.300 3.300 3.577 3.300 3.300 3.304 3.346 3.300 3.300 3.300 3.367 3.303 3.300 3.309 3.300 3.301 3.699 3.332 3.302 3.461
# coordination-number N 3.263
# coordination-number S 1.987
# coordination-number Na 2.490 2.449
# diagonal-C6 C 24.29 24.28 24.28 24.29 24.29 24.26 24.28 24.27 24.29 24.29 24.29 23.28 24.28 24.28 24.29 23.25 24.28 24.29 24.10 24.34 24.29 24.28 18.84 24.28 24.27 24.29 24.22 24.23 24.27 24.28 18.74 24.17 24.28 23.38 23.86 24.28 24.29 24.29 24.24 24.28 24.29 24.29 23.68 24.29 24.27 24.15 24.29 24.29 20.19 24.28 24.28 24.29 24.28 20.57 24.28 24.29 24.24 23.79 24.28 24.28 24.28 23.54 24.25 24.29 24.19 24.28 24.27 19.31 23.96 24.26 22.22
# diagonal-C6 N 15.59
# diagonal-C6 S 125.91
# diagonal-C6 Na 186.11 186.11
EvdW_6 =   -0.058476
EvdW_8 =   -0.049511
Fluid solver invoked on fresh (random / LCAO) wavefunctions
Running a vacuum solve first:

-------- Initial electronic minimization -----------
	FillingsUpdate:  mu: -0.229507954  nElectrons: 313.000000
ElecMinimize: Iter:   0  F: -516.945243322033889  |grad|_K:  4.097e-04  alpha:  1.000e+00
	FillingsUpdate:  mu: -0.098290053  nElectrons: 313.000000
	SubspaceRotationAdjust: set factor to 0.781
ElecMinimize: Iter:   1  F: -520.840923761805243  |grad|_K:  1.690e-04  alpha:  7.088e-01  linmin: -2.622e-04  t[s]:   3798.42
	FillingsUpdate:  mu: -0.090937179  nElectrons: 313.000000
	SubspaceRotationAdjust: set factor to 0.698
ElecMinimize: Iter:   2  F: -520.910657463110624  |grad|_K:  1.072e-04  alpha:  3.850e-01  linmin: -4.471e-04  t[s]:   4337.92
	FillingsUpdate:  mu: -0.089118970  nElectrons: 313.000000
	SubspaceRotationAdjust: set factor to 0.588
ElecMinimize: Iter:   3  F: -520.970937034096892  |grad|_K:  1.128e-04  alpha:  6.499e-02  linmin: -3.504e-03  t[s]:   4878.13
ElecMinimize: 	Wrong curvature in test step, increasing alphaT to 1.949621e-01.
	FillingsUpdate:  mu: -0.109173360  nElectrons: 313.000000
	SubspaceRotationAdjust: set factor to 0.887
ElecMinimize: Iter:   4  F: -521.127833656118014  |grad|_K:  4.656e-05  alpha: -1.577e-01  linmin: -2.183e-03  t[s]:   5322.96
	FillingsUpdate:  mu: -0.107675507  nElectrons: 313.000000
	SubspaceRotationAdjust: set factor to 0.735
ElecMinimize: Iter:   5  F: -521.132049713882793  |grad|_K:  6.657e-05  alpha:  4.297e-02  linmin:  6.359e-04  t[s]:   5864.16
	FillingsUpdate:  mu: -0.105678850  nElectrons: 313.000000
	SubspaceRotationAdjust: set factor to 0.524
ElecMinimize: Iter:   6  F: -521.132771414815124  |grad|_K:  7.412e-05  alpha:  8.423e-03  linmin: -2.347e-05  t[s]:   6427.98
	FillingsUpdate:  mu: -0.101601209  nElectrons: 313.000000
	SubspaceRotationAdjust: set factor to 0.31
ElecMinimize: Iter:   7  F: -521.137336590299924  |grad|_K:  8.907e-05  alpha:  2.479e-02  linmin:  2.199e-05  t[s]:   6966.99
	FillingsUpdate:  mu: -0.099298507  nElectrons: 313.000000
	SubspaceRotationAdjust: set factor to 0.173
ElecMinimize: Iter:   8  F: -521.144207239842899  |grad|_K:  8.595e-05  alpha:  2.670e-02  linmin:  6.368e-06  t[s]:   7505.12
	FillingsUpdate:  mu: -0.100503931  nElectrons: 313.000000
	SubspaceRotationAdjust: set factor to 0.101
	SubspaceRotationAdjust: resetting CG because factor has changed by 0.101431
ElecMinimize: 	State modified externally: resetting search direction.
ElecMinimize: Iter:   9  F: -521.152997097388266  |grad|_K:  5.531e-05  alpha:  3.612e-02
ElecMinimize: 	Predicted alpha/alphaT>3.000000, increasing alphaT to 1.083684e-01.
ElecMinimize: 	Predicted alpha/alphaT>3.000000, increasing alphaT to 3.251051e-01.
	FillingsUpdate:  mu: -0.114141947  nElectrons: 313.000000
	SubspaceRotationAdjust: set factor to 0.223
ElecMinimize: Iter:  10  F: -521.198622898231179  |grad|_K:  1.607e-05  alpha:  4.405e-01  linmin: -5.844e-03  t[s]:   9081.55
	FillingsUpdate:  mu: -0.111081372  nElectrons: 313.000000
	SubspaceRotationAdjust: set factor to 0.22
ElecMinimize: Iter:  11  F: -521.210453365915214  |grad|_K:  1.507e-05  alpha:  1.286e+00  linmin: -1.308e-04  t[s]:   9618.92
	FillingsUpdate:  mu: -0.114413966  nElectrons: 313.000000
	SubspaceRotationAdjust: set factor to 0.202
ElecMinimize: Iter:  12  F: -521.214530020144139  |grad|_K:  9.132e-06  alpha:  5.324e-01  linmin:  1.410e-05  t[s]:  10156.05
	FillingsUpdate:  mu: -0.114302616  nElectrons: 313.000000
	SubspaceRotationAdjust: set factor to 0.232
ElecMinimize: Iter:  13  F: -521.215894065710927  |grad|_K:  5.554e-06  alpha:  4.947e-01  linmin:  1.736e-05  t[s]:  10694.44
	FillingsUpdate:  mu: -0.114136084  nElectrons: 313.000000
	SubspaceRotationAdjust: set factor to 0.266
ElecMinimize: Iter:  14  F: -521.216610713537079  |grad|_K:  4.714e-06  alpha:  7.054e-01  linmin:  1.945e-05  t[s]:  11233.12
	FillingsUpdate:  mu: -0.114815971  nElectrons: 313.000000
	SubspaceRotationAdjust: set factor to 0.276
ElecMinimize: Iter:  15  F: -521.217198245525992  |grad|_K:  4.017e-06  alpha:  8.138e-01  linmin:  3.380e-05  t[s]:  11773.58
	FillingsUpdate:  mu: -0.114402373  nElectrons: 313.000000
	SubspaceRotationAdjust: set factor to 0.266
ElecMinimize: Iter:  16  F: -521.217482092213118  |grad|_K:  2.836e-06  alpha:  5.613e-01  linmin:  1.189e-05  t[s]:  12312.71
	FillingsUpdate:  mu: -0.115005788  nElectrons: 313.000000
	SubspaceRotationAdjust: set factor to 0.283
ElecMinimize: Iter:  17  F: -521.217661366921675  |grad|_K:  2.093e-06  alpha:  6.989e-01  linmin:  1.316e-05  t[s]:  12851.20
	FillingsUpdate:  mu: -0.115071792  nElectrons: 313.000000
	SubspaceRotationAdjust: set factor to 0.303
ElecMinimize: Iter:  18  F: -521.217741612865211  |grad|_K:  1.710e-06  alpha:  5.808e-01  linmin:  1.938e-06  t[s]:  13390.29
	FillingsUpdate:  mu: -0.115057483  nElectrons: 313.000000
	SubspaceRotationAdjust: set factor to 0.336
ElecMinimize: Iter:  19  F: -521.217792494187847  |grad|_K:  1.083e-06  alpha:  5.309e-01  linmin:  3.910e-06  t[s]:  13928.30
	FillingsUpdate:  mu: -0.115134991  nElectrons: 313.000000
	SubspaceRotationAdjust: set factor to 0.364
ElecMinimize: Iter:  20  F: -521.217813643084583  |grad|_K:  9.931e-07  alpha:  5.580e-01  linmin:  2.379e-06  t[s]:  14466.35
	FillingsUpdate:  mu: -0.115016398  nElectrons: 313.000000
	SubspaceRotationAdjust: set factor to 0.447
ElecMinimize: Iter:  21  F: -521.217828327260463  |grad|_K:  7.271e-07  alpha:  4.603e-01  linmin:  1.543e-06  t[s]:  15005.76
	FillingsUpdate:  mu: -0.114947267  nElectrons: 313.000000
	SubspaceRotationAdjust: set factor to 0.47
ElecMinimize: Iter:  22  F: -521.217837029592147  |grad|_K:  7.165e-07  alpha:  5.078e-01  linmin:  1.266e-06  t[s]:  15544.53
	FillingsUpdate:  mu: -0.114984331  nElectrons: 313.000000
	SubspaceRotationAdjust: set factor to 0.49
ElecMinimize: Iter:  23  F: -521.217843839191346  |grad|_K:  6.577e-07  alpha:  3.981e-01  linmin:  7.697e-07  t[s]:  16085.00
	FillingsUpdate:  mu: -0.114951487  nElectrons: 313.000000
	SubspaceRotationAdjust: set factor to 0.494
ElecMinimize: Iter:  24  F: -521.217847768109436  |grad|_K:  5.638e-07  alpha:  2.478e-01  linmin: -1.576e-06  t[s]:  16623.68
	FillingsUpdate:  mu: -0.114919008  nElectrons: 313.000000
	SubspaceRotationAdjust: set factor to 0.429
ElecMinimize: Iter:  25  F: -521.217850288388718  |grad|_K:  5.566e-07  alpha:  2.254e-01  linmin:  2.024e-06  t[s]:  17160.89
	FillingsUpdate:  mu: -0.114923907  nElectrons: 313.000000
	SubspaceRotationAdjust: set factor to 0.365
ElecMinimize: Iter:  26  F: -521.217851813054835  |grad|_K:  5.172e-07  alpha:  1.464e-01  linmin: -4.454e-07  t[s]:  17698.64
	FillingsUpdate:  mu: -0.114941578  nElectrons: 313.000000
	SubspaceRotationAdjust: set factor to 0.297
ElecMinimize: Iter:  27  F: -521.217852989005905  |grad|_K:  4.676e-07  alpha:  1.279e-01  linmin:  1.394e-06  t[s]:  18236.83
	FillingsUpdate:  mu: -0.114951365  nElectrons: 313.000000
	SubspaceRotationAdjust: set factor to 0.233
ElecMinimize: Iter:  28  F: -521.217853714948546  |grad|_K:  4.309e-07  alpha:  1.036e-01  linmin:  6.196e-07  t[s]:  18776.01
	FillingsUpdate:  mu: -0.114952354  nElectrons: 313.000000
	SubspaceRotationAdjust: set factor to 0.182
ElecMinimize: Iter:  29  F: -521.217854350231846  |grad|_K:  3.924e-07  alpha:  1.058e-01  linmin:  7.965e-07  t[s]:  19314.50
	FillingsUpdate:  mu: -0.114945142  nElectrons: 313.000000
	SubspaceRotationAdjust: set factor to 0.145
ElecMinimize: Iter:  30  F: -521.217854901630290  |grad|_K:  3.520e-07  alpha:  1.115e-01  linmin:  5.635e-07  t[s]:  19852.67
	FillingsUpdate:  mu: -0.114932713  nElectrons: 313.000000
	SubspaceRotationAdjust: set factor to 0.115
ElecMinimize: Iter:  31  F: -521.217855394837443  |grad|_K:  3.105e-07  alpha:  1.226e-01  linmin:  3.942e-07  t[s]:  20392.28
	FillingsUpdate:  mu: -0.114919090  nElectrons: 313.000000
	SubspaceRotationAdjust: set factor to 0.0909
ElecMinimize: Iter:  32  F: -521.217855826259097  |grad|_K:  2.728e-07  alpha:  1.368e-01  linmin:  3.617e-07  t[s]:  20931.14
	FillingsUpdate:  mu: -0.114907494  nElectrons: 313.000000
	SubspaceRotationAdjust: set factor to 0.0779
ElecMinimize: Iter:  33  F: -521.217856211675780  |grad|_K:  2.479e-07  alpha:  1.577e-01  linmin:  1.648e-07  t[s]:  21470.57
	FillingsUpdate:  mu: -0.114899764  nElectrons: 313.000000
	SubspaceRotationAdjust: set factor to 0.0731
ElecMinimize: Iter:  34  F: -521.217856578938040  |grad|_K:  2.333e-07  alpha:  1.812e-01  linmin:  1.124e-07  t[s]:  22010.22
	FillingsUpdate:  mu: -0.114897348  nElectrons: 313.000000
	SubspaceRotationAdjust: set factor to 0.0679
ElecMinimize: Iter:  35  F: -521.217856912699972  |grad|_K:  2.168e-07  alpha:  1.853e-01  linmin:  1.564e-07  t[s]:  22549.74
	FillingsUpdate:  mu: -0.114899732  nElectrons: 313.000000
	SubspaceRotationAdjust: set factor to 0.0629
ElecMinimize: Iter:  36  F: -521.217857196694240  |grad|_K:  2.010e-07  alpha:  1.829e-01  linmin:  1.451e-07  t[s]:  23089.94
	FillingsUpdate:  mu: -0.114905104  nElectrons: 313.000000
	SubspaceRotationAdjust: set factor to 0.0619
ElecMinimize: Iter:  37  F: -521.217857453719603  |grad|_K:  1.930e-07  alpha:  1.921e-01  linmin:  8.336e-08  t[s]:  23629.41
	FillingsUpdate:  mu: -0.114911218  nElectrons: 313.000000
	SubspaceRotationAdjust: set factor to 0.061
ElecMinimize: Iter:  38  F: -521.217857696527517  |grad|_K:  1.876e-07  alpha:  1.971e-01  linmin:  1.089e-07  t[s]:  24167.58
	FillingsUpdate:  mu: -0.114915613  nElectrons: 313.000000
	SubspaceRotationAdjust: set factor to 0.0581
ElecMinimize: Iter:  39  F: -521.217857918964796  |grad|_K:  1.809e-07  alpha:  1.914e-01  linmin:  1.714e-07  t[s]:  24705.28
	FillingsUpdate:  mu: -0.114916972  nElectrons: 313.000000
	SubspaceRotationAdjust: set factor to 0.0561
ElecMinimize: Iter:  40  F: -521.217858125601310  |grad|_K:  1.760e-07  alpha:  1.913e-01  linmin:  7.787e-08  t[s]:  25242.54
	FillingsUpdate:  mu: -0.114915095  nElectrons: 313.000000
	SubspaceRotationAdjust: set factor to 0.0542
ElecMinimize: Iter:  41  F: -521.217858324748249  |grad|_K:  1.710e-07  alpha:  1.940e-01  linmin: -3.026e-11  t[s]:  25780.67
	FillingsUpdate:  mu: -0.114910815  nElectrons: 313.000000
	SubspaceRotationAdjust: set factor to 0.0516
ElecMinimize: Iter:  42  F: -521.217858512780936  |grad|_K:  1.655e-07  alpha:  1.938e-01  linmin:  3.567e-08  t[s]:  26317.38
	FillingsUpdate:  mu: -0.114905446  nElectrons: 313.000000
	SubspaceRotationAdjust: set factor to 0.0531
ElecMinimize: Iter:  43  F: -521.217858697916427  |grad|_K:  1.668e-07  alpha:  2.033e-01  linmin:  4.798e-09  t[s]:  26854.62
	FillingsUpdate:  mu: -0.114900226  nElectrons: 313.000000
	SubspaceRotationAdjust: set factor to 0.0574
ElecMinimize: Iter:  44  F: -521.217858895776999  |grad|_K:  1.729e-07  alpha:  2.147e-01  linmin:  1.924e-08  t[s]:  27393.85
	FillingsUpdate:  mu: -0.114897015  nElectrons: 313.000000
	SubspaceRotationAdjust: set factor to 0.0565
ElecMinimize: Iter:  45  F: -521.217859091510491  |grad|_K:  1.712e-07  alpha:  1.974e-01  linmin:  1.038e-07  t[s]:  27932.07
	FillingsUpdate:  mu: -0.114896564  nElectrons: 313.000000
	SubspaceRotationAdjust: set factor to 0.0532
ElecMinimize: Iter:  46  F: -521.217859264117919  |grad|_K:  1.656e-07  alpha:  1.780e-01  linmin:  1.370e-07  t[s]:  28469.77
	FillingsUpdate:  mu: -0.114898266  nElectrons: 313.000000
	SubspaceRotationAdjust: set factor to 0.0547
ElecMinimize: Iter:  47  F: -521.217859425340066  |grad|_K:  1.666e-07  alpha:  1.788e-01  linmin:  1.063e-07  t[s]:  29007.86
	FillingsUpdate:  mu: -0.114901302  nElectrons: 313.000000
	SubspaceRotationAdjust: set factor to 0.0577
ElecMinimize: Iter:  48  F: -521.217859584553821  |grad|_K:  1.703e-07  alpha:  1.739e-01  linmin:  2.461e-07  t[s]:  29545.22
	FillingsUpdate:  mu: -0.114904403  nElectrons: 313.000000
	SubspaceRotationAdjust: set factor to 0.0552
ElecMinimize: Iter:  49  F: -521.217859719295689  |grad|_K:  1.672e-07  alpha:  1.411e-01  linmin:  1.121e-07  t[s]:  30084.98
	FillingsUpdate:  mu: -0.114907037  nElectrons: 313.000000
	SubspaceRotationAdjust: set factor to 0.0493
ElecMinimize: Iter:  50  F: -521.217859831100100  |grad|_K:  1.591e-07  alpha:  1.201e-01  linmin:  1.536e-07  t[s]:  30624.41
	FillingsUpdate:  mu: -0.114909141  nElectrons: 313.000000
	SubspaceRotationAdjust: set factor to 0.0445
ElecMinimize: Iter:  51  F: -521.217859923886408  |grad|_K:  1.521e-07  alpha:  1.116e-01  linmin:  9.238e-08  t[s]:  31166.73
	FillingsUpdate:  mu: -0.114910882  nElectrons: 313.000000
	SubspaceRotationAdjust: set factor to 0.042
ElecMinimize: Iter:  52  F: -521.217860008958269  |grad|_K:  1.485e-07  alpha:  1.115e-01  linmin:  2.429e-07  t[s]:  31704.18
	FillingsUpdate:  mu: -0.114912295  nElectrons: 313.000000
	SubspaceRotationAdjust: set factor to 0.0395
ElecMinimize: Iter:  53  F: -521.217860084347080  |grad|_K:  1.451e-07  alpha:  1.049e-01  linmin:  1.505e-07  t[s]:  32242.11
	FillingsUpdate:  mu: -0.114913450  nElectrons: 313.000000
	SubspaceRotationAdjust: set factor to 0.0359
ElecMinimize: Iter:  54  F: -521.217860152184812  |grad|_K:  1.392e-07  alpha:  9.727e-02  linmin: -6.463e-09  t[s]:  32780.18
	FillingsUpdate:  mu: -0.114914407  nElectrons: 313.000000
	SubspaceRotationAdjust: set factor to 0.0317
ElecMinimize: Iter:  55  F: -521.217860212544338  |grad|_K:  1.316e-07  alpha:  9.402e-02  linmin: -1.188e-07  t[s]:  33317.36
	FillingsUpdate:  mu: -0.114915238  nElectrons: 313.000000
	SubspaceRotationAdjust: set factor to 0.0284
ElecMinimize: Iter:  56  F: -521.217860268891172  |grad|_K:  1.251e-07  alpha:  9.780e-02  linmin:  1.120e-07  t[s]:  33855.49
	FillingsUpdate:  mu: -0.114915961  nElectrons: 313.000000
	SubspaceRotationAdjust: set factor to 0.0265
ElecMinimize: Iter:  57  F: -521.217860320610725  |grad|_K:  1.209e-07  alpha:  1.002e-01  linmin: -1.317e-07  t[s]:  34393.51
	FillingsUpdate:  mu: -0.114916646  nElectrons: 313.000000
	SubspaceRotationAdjust: set factor to 0.0249
ElecMinimize: Iter:  58  F: -521.217860371591883  |grad|_K:  1.174e-07  alpha:  1.045e-01  linmin: -1.995e-07  t[s]:  34930.92
	FillingsUpdate:  mu: -0.114917327  nElectrons: 313.000000
	SubspaceRotationAdjust: set factor to 0.0229
ElecMinimize: Iter:  59  F: -521.217860420134002  |grad|_K:  1.126e-07  alpha:  1.050e-01  linmin: -2.480e-07  t[s]:  35469.10
	FillingsUpdate:  mu: -0.114918060  nElectrons: 313.000000
	SubspaceRotationAdjust: set factor to 0.0209
ElecMinimize: Iter:  60  F: -521.217860465673198  |grad|_K:  1.072e-07  alpha:  1.068e-01  linmin: -1.871e-07  t[s]:  36007.25
	FillingsUpdate:  mu: -0.114918912  nElectrons: 313.000000
	SubspaceRotationAdjust: set factor to 0.0195
ElecMinimize: Iter:  61  F: -521.217860508074750  |grad|_K:  1.033e-07  alpha:  1.109e-01  linmin: -2.350e-07  t[s]:  36545.73
	FillingsUpdate:  mu: -0.114919996  nElectrons: 313.000000
	SubspaceRotationAdjust: set factor to 0.0189
ElecMinimize: Iter:  62  F: -521.217860550495971  |grad|_K:  1.016e-07  alpha:  1.200e-01  linmin:  8.732e-08  t[s]:  37084.73
	FillingsUpdate:  mu: -0.114921261  nElectrons: 313.000000
	SubspaceRotationAdjust: set factor to 0.0185
ElecMinimize: Iter:  63  F: -521.217860590717692  |grad|_K:  1.001e-07  alpha:  1.178e-01  linmin: -2.098e-07  t[s]:  37623.52
	FillingsUpdate:  mu: -0.114922666  nElectrons: 313.000000
	SubspaceRotationAdjust: set factor to 0.0175
ElecMinimize: Iter:  64  F: -521.217860630415203  |grad|_K:  9.727e-08  alpha:  1.175e-01  linmin: -3.321e-07  t[s]:  38160.31
	FillingsUpdate:  mu: -0.114924076  nElectrons: 313.000000
	SubspaceRotationAdjust: set factor to 0.0165
ElecMinimize: Iter:  65  F: -521.217860668488129  |grad|_K:  9.429e-08  alpha:  1.188e-01  linmin: -2.541e-07  t[s]:  38697.93
	FillingsUpdate:  mu: -0.114925354  nElectrons: 313.000000
	SubspaceRotationAdjust: set factor to 0.0163
ElecMinimize: Iter:  66  F: -521.217860705121211  |grad|_K:  9.343e-08  alpha:  1.217e-01  linmin: -3.635e-07  t[s]:  39234.72
	FillingsUpdate:  mu: -0.114926430  nElectrons: 313.000000
	SubspaceRotationAdjust: set factor to 0.0169
ElecMinimize: Iter:  67  F: -521.217860742528273  |grad|_K:  9.496e-08  alpha:  1.271e-01  linmin: -3.438e-07  t[s]:  39772.34
	FillingsUpdate:  mu: -0.114927197  nElectrons: 313.000000
	SubspaceRotationAdjust: set factor to 0.0177
ElecMinimize: Iter:  68  F: -521.217860781735226  |grad|_K:  9.679e-08  alpha:  1.274e-01  linmin: -1.602e-07  t[s]:  40309.68
	FillingsUpdate:  mu: -0.114927577  nElectrons: 313.000000
	SubspaceRotationAdjust: set factor to 0.0179
ElecMinimize: Iter:  69  F: -521.217860818552367  |grad|_K:  9.728e-08  alpha:  1.168e-01  linmin: -4.825e-07  t[s]:  40848.39
	FillingsUpdate:  mu: -0.114927670  nElectrons: 313.000000
	SubspaceRotationAdjust: set factor to 0.018
ElecMinimize: Iter:  70  F: -521.217860856249217  |grad|_K:  9.718e-08  alpha:  1.157e-01  linmin: -3.448e-07  t[s]:  41386.26
	FillingsUpdate:  mu: -0.114927609  nElectrons: 313.000000
	SubspaceRotationAdjust: set factor to 0.0185
ElecMinimize: Iter:  71  F: -521.217860892958811  |grad|_K:  9.818e-08  alpha:  1.137e-01  linmin: -1.971e-07  t[s]:  41923.26
	FillingsUpdate:  mu: -0.114927564  nElectrons: 313.000000
	SubspaceRotationAdjust: set factor to 0.0195
ElecMinimize: Iter:  72  F: -521.217860928538130  |grad|_K:  1.004e-07  alpha:  1.104e-01  linmin: -2.131e-07  t[s]:  42460.53
	FillingsUpdate:  mu: -0.114927689  nElectrons: 313.000000
	SubspaceRotationAdjust: set factor to 0.0206
ElecMinimize: Iter:  73  F: -521.217860964475221  |grad|_K:  1.024e-07  alpha:  1.061e-01  linmin: -1.031e-07  t[s]:  42997.15
	FillingsUpdate:  mu: -0.114928082  nElectrons: 313.000000
	SubspaceRotationAdjust: set factor to 0.0212
ElecMinimize: Iter:  74  F: -521.217860999283289  |grad|_K:  1.035e-07  alpha:  9.874e-02  linmin:  4.512e-08  t[s]:  43534.83
	FillingsUpdate:  mu: -0.114928739  nElectrons: 313.000000
	SubspaceRotationAdjust: set factor to 0.0215
ElecMinimize: Iter:  75  F: -521.217861030551148  |grad|_K:  1.036e-07  alpha:  8.838e-02  linmin: -2.417e-07  t[s]:  44072.77
	FillingsUpdate:  mu: -0.114929669  nElectrons: 313.000000
	SubspaceRotationAdjust: set factor to 0.0217
ElecMinimize: Iter:  76  F: -521.217861061581402  |grad|_K:  1.034e-07  alpha:  8.588e-02  linmin: -4.423e-08  t[s]:  44609.51
	FillingsUpdate:  mu: -0.114930745  nElectrons: 313.000000
	SubspaceRotationAdjust: set factor to 0.0218
ElecMinimize: Iter:  77  F: -521.217861090100655  |grad|_K:  1.030e-07  alpha:  7.864e-02  linmin: -2.210e-07  t[s]:  45146.87
	FillingsUpdate:  mu: -0.114931923  nElectrons: 313.000000
	SubspaceRotationAdjust: set factor to 0.0218
ElecMinimize: Iter:  78  F: -521.217861117070811  |grad|_K:  1.022e-07  alpha:  7.505e-02  linmin: -2.160e-07  t[s]:  45684.58
	FillingsUpdate:  mu: -0.114933108  nElectrons: 313.000000
	SubspaceRotationAdjust: set factor to 0.0216
ElecMinimize: Iter:  79  F: -521.217861141953449  |grad|_K:  1.011e-07  alpha:  7.121e-02  linmin: -1.418e-07  t[s]:  46221.64
	FillingsUpdate:  mu: -0.114934238  nElectrons: 313.000000
	SubspaceRotationAdjust: set factor to 0.0214
ElecMinimize: Iter:  80  F: -521.217861165276872  |grad|_K:  9.986e-08  alpha:  6.814e-02  linmin: -1.739e-08  t[s]:  46759.51
	FillingsUpdate:  mu: -0.114935271  nElectrons: 313.000000
	SubspaceRotationAdjust: set factor to 0.0212
ElecMinimize: Iter:  81  F: -521.217861187142944  |grad|_K:  9.885e-08  alpha:  6.566e-02  linmin:  9.499e-08  t[s]:  47297.04
	FillingsUpdate:  mu: -0.114936169  nElectrons: 313.000000
	SubspaceRotationAdjust: set factor to 0.021
ElecMinimize: Iter:  82  F: -521.217861207304168  |grad|_K:  9.797e-08  alpha:  6.248e-02  linmin: -5.094e-08  t[s]:  47835.34
	FillingsUpdate:  mu: -0.114936942  nElectrons: 313.000000
	SubspaceRotationAdjust: set factor to 0.0208
ElecMinimize: Iter:  83  F: -521.217861226874788  |grad|_K:  9.678e-08  alpha:  6.065e-02  linmin: -1.724e-07  t[s]:  48373.12
	FillingsUpdate:  mu: -0.114937577  nElectrons: 313.000000
	SubspaceRotationAdjust: set factor to 0.0202
ElecMinimize: Iter:  84  F: -521.217861245392896  |grad|_K:  9.494e-08  alpha:  5.821e-02  linmin: -4.894e-07  t[s]:  48912.57
	FillingsUpdate:  mu: -0.114938113  nElectrons: 313.000000
	SubspaceRotationAdjust: set factor to 0.0194
ElecMinimize: Iter:  85  F: -521.217861263761620  |grad|_K:  9.245e-08  alpha:  5.976e-02  linmin: -1.003e-07  t[s]:  49452.10
	FillingsUpdate:  mu: -0.114938530  nElectrons: 313.000000
	SubspaceRotationAdjust: set factor to 0.0186
ElecMinimize: Iter:  86  F: -521.217861280652755  |grad|_K:  8.992e-08  alpha:  5.864e-02  linmin:  3.508e-08  t[s]:  49989.40
	FillingsUpdate:  mu: -0.114938860  nElectrons: 313.000000
	SubspaceRotationAdjust: set factor to 0.018
ElecMinimize: Iter:  87  F: -521.217861296375190  |grad|_K:  8.793e-08  alpha:  5.922e-02  linmin:  7.764e-08  t[s]:  50526.62
	FillingsUpdate:  mu: -0.114939129  nElectrons: 313.000000
	SubspaceRotationAdjust: set factor to 0.0178
ElecMinimize: Iter:  88  F: -521.217861311715410  |grad|_K:  8.672e-08  alpha:  6.037e-02  linmin:  1.036e-07  t[s]:  51064.29
	FillingsUpdate:  mu: -0.114939360  nElectrons: 313.000000
	SubspaceRotationAdjust: set factor to 0.0177
ElecMinimize: Iter:  89  F: -521.217861326995603  |grad|_K:  8.590e-08  alpha:  6.104e-02  linmin:  1.430e-07  t[s]:  51603.33
	FillingsUpdate:  mu: -0.114939562  nElectrons: 313.000000
	SubspaceRotationAdjust: set factor to 0.0175
ElecMinimize: Iter:  90  F: -521.217861341184062  |grad|_K:  8.476e-08  alpha:  5.836e-02  linmin: -4.134e-07  t[s]:  52140.34
	FillingsUpdate:  mu: -0.114939776  nElectrons: 313.000000
	SubspaceRotationAdjust: set factor to 0.0169
ElecMinimize: Iter:  91  F: -521.217861356646267  |grad|_K:  8.272e-08  alpha:  6.245e-02  linmin:  3.750e-07  t[s]:  52677.00
	FillingsUpdate:  mu: -0.114939978  nElectrons: 313.000000
	SubspaceRotationAdjust: set factor to 0.0161
ElecMinimize: Iter:  92  F: -521.217861369055072  |grad|_K:  8.021e-08  alpha:  5.590e-02  linmin: -6.591e-07  t[s]:  53214.61
	FillingsUpdate:  mu: -0.114940216  nElectrons: 313.000000
	SubspaceRotationAdjust: set factor to 0.0153
ElecMinimize: Iter:  93  F: -521.217861382816182  |grad|_K:  7.760e-08  alpha:  6.043e-02  linmin: -5.202e-07  t[s]:  53751.93
	FillingsUpdate:  mu: -0.114940486  nElectrons: 313.000000
	SubspaceRotationAdjust: set factor to 0.0147
ElecMinimize: Iter:  94  F: -521.217861395229988  |grad|_K:  7.565e-08  alpha:  6.050e-02  linmin: -8.369e-07  t[s]:  54290.14
	FillingsUpdate:  mu: -0.114940821  nElectrons: 313.000000
	SubspaceRotationAdjust: set factor to 0.0144
ElecMinimize: Iter:  95  F: -521.217861408808176  |grad|_K:  7.445e-08  alpha:  6.541e-02  linmin: -1.057e-07  t[s]:  54829.33
	FillingsUpdate:  mu: -0.114941189  nElectrons: 313.000000
	SubspaceRotationAdjust: set factor to 0.0141
ElecMinimize: Iter:  96  F: -521.217861419683004  |grad|_K:  7.345e-08  alpha:  6.215e-02  linmin: -5.778e-07  t[s]:  55368.05
	FillingsUpdate:  mu: -0.114941625  nElectrons: 313.000000
	SubspaceRotationAdjust: set factor to 0.0136
	SubspaceRotationAdjust: resetting CG because factor has changed by 0.134493
ElecMinimize: 	State modified externally: resetting search direction.
ElecMinimize: Iter:  97  F: -521.217861431866595  |grad|_K:  7.118e-08  alpha:  6.487e-02
ElecMinimize: 	Wrong curvature in test step, increasing alphaT to 1.946037e-01.
	FillingsUpdate:  mu: -0.114941676  nElectrons: 313.000000
	SubspaceRotationAdjust: set factor to 0.0127
ElecMinimize: Iter:  98  F: -521.217861453756655  |grad|_K:  6.899e-08  alpha: -8.036e+00  linmin: -5.358e-04  t[s]:  56576.44
	FillingsUpdate:  mu: -0.114943258  nElectrons: 313.000000
	SubspaceRotationAdjust: set factor to 0.0146
ElecMinimize: Iter:  99  F: -521.217861790456823  |grad|_K:  1.189e-07  alpha:  1.083e+00  linmin: -2.208e-06  t[s]:  57114.29
	FillingsUpdate:  mu: -0.114944456  nElectrons: 313.000000
	SubspaceRotationAdjust: set factor to 0.0158
ElecMinimize: Iter: 100  F: -521.217861988162667  |grad|_K:  1.283e-07  alpha:  4.514e-01  linmin:  2.891e-06  t[s]:  57652.44
ElecMinimize: None of the convergence criteria satisfied after 100 iterations.
Setting wave functions to eigenvectors of Hamiltonian
Vacuum energy after initial minimize, F = -521.217861988162667


-------- Electronic minimization -----------
	Linear fluid (dielectric constant: 7.2) occupying 0.851488 of unit cell:	Completed after 13 iterations at t[s]:  57719.82
	FillingsUpdate:  mu: -0.117483672  nElectrons: 313.000000
ElecMinimize: Iter:   0  F: -521.249283899340526  |grad|_K:  9.849e-06  alpha:  1.000e+00
	Linear fluid (dielectric constant: 7.2) occupying 0.852258 of unit cell:	Completed after 10 iterations at t[s]:  58172.57
	Linear fluid (dielectric constant: 7.2) occupying 0.852108 of unit cell:	Completed after 7 iterations at t[s]:  58315.55
	FillingsUpdate:  mu: -0.117028597  nElectrons: 313.000000
	SubspaceRotationAdjust: set factor to 0.0175
ElecMinimize: Iter:   1  F: -521.251930233168537  |grad|_K:  6.256e-06  alpha:  7.904e-01  linmin: -1.887e-03  t[s]:  58504.24
	Linear fluid (dielectric constant: 7.2) occupying 0.852361 of unit cell:	Completed after 9 iterations at t[s]:  58726.43
	Linear fluid (dielectric constant: 7.2) occupying 0.852407 of unit cell:	Completed after 6 iterations at t[s]:  58869.00
	FillingsUpdate:  mu: -0.116813412  nElectrons: 313.000000
	SubspaceRotationAdjust: set factor to 0.0197
ElecMinimize: Iter:   2  F: -521.253161749570609  |grad|_K:  5.609e-06  alpha:  9.285e-01  linmin: -2.104e-03  t[s]:  59058.35
	Linear fluid (dielectric constant: 7.2) occupying 0.852469 of unit cell:	Completed after 9 iterations at t[s]:  59282.82
	Linear fluid (dielectric constant: 7.2) occupying 0.852451 of unit cell:	Completed after 7 iterations at t[s]:  59426.02
	FillingsUpdate:  mu: -0.116559416  nElectrons: 313.000000
	SubspaceRotationAdjust: set factor to 0.024
ElecMinimize: Iter:   3  F: -521.253907570448746  |grad|_K:  4.656e-06  alpha:  6.630e-01  linmin: -2.154e-03  t[s]:  59615.33
	Linear fluid (dielectric constant: 7.2) occupying 0.852463 of unit cell:	Completed after 8 iterations at t[s]:  59837.54
	Linear fluid (dielectric constant: 7.2) occupying 0.852464 of unit cell:	Completed after 4 iterations at t[s]:  59978.53
	FillingsUpdate:  mu: -0.116218602  nElectrons: 313.000000
	SubspaceRotationAdjust: set factor to 0.0311
ElecMinimize: Iter:   4  F: -521.254519206514601  |grad|_K:  4.216e-06  alpha:  7.418e-01  linmin: -2.138e-03  t[s]:  60168.27
	Linear fluid (dielectric constant: 7.2) occupying 0.852566 of unit cell:	Completed after 7 iterations at t[s]:  60390.73
	Linear fluid (dielectric constant: 7.2) occupying 0.852581 of unit cell:	Completed after 4 iterations at t[s]:  60531.13
	FillingsUpdate:  mu: -0.115728478  nElectrons: 313.000000
	SubspaceRotationAdjust: set factor to 0.0412
ElecMinimize: Iter:   5  F: -521.255153068879736  |grad|_K:  4.150e-06  alpha:  8.820e-01  linmin: -1.734e-03  t[s]:  60720.08
	Linear fluid (dielectric constant: 7.2) occupying 0.852722 of unit cell:	Completed after 7 iterations at t[s]:  60941.51
	Linear fluid (dielectric constant: 7.2) occupying 0.852775 of unit cell:	Completed after 5 iterations at t[s]:  61082.60
	FillingsUpdate:  mu: -0.114907584  nElectrons: 313.000000
	SubspaceRotationAdjust: set factor to 0.0503
ElecMinimize: Iter:   6  F: -521.256101316435320  |grad|_K:  5.090e-06  alpha:  1.277e+00  linmin: -1.133e-03  t[s]:  61273.58
	Linear fluid (dielectric constant: 7.2) occupying 0.853052 of unit cell:	Completed after 8 iterations at t[s]:  61496.50
	Linear fluid (dielectric constant: 7.2) occupying 0.853064 of unit cell:	Completed after 3 iterations at t[s]:  61641.88
	FillingsUpdate:  mu: -0.114244511  nElectrons: 313.000000
	SubspaceRotationAdjust: set factor to 0.0569
ElecMinimize: Iter:   7  F: -521.257605146110791  |grad|_K:  6.116e-06  alpha:  1.343e+00  linmin: -4.346e-04  t[s]:  61833.03
	Linear fluid (dielectric constant: 7.2) occupying 0.853402 of unit cell:	Completed after 8 iterations at t[s]:  62055.62
	Linear fluid (dielectric constant: 7.2) occupying 0.853317 of unit cell:	Completed after 7 iterations at t[s]:  62198.96
	FillingsUpdate:  mu: -0.114375170  nElectrons: 313.000000
	SubspaceRotationAdjust: set factor to 0.0624
ElecMinimize: Iter:   8  F: -521.258947170901479  |grad|_K:  5.554e-06  alpha:  9.441e-01  linmin: -1.289e-04  t[s]:  62389.29
	Linear fluid (dielectric constant: 7.2) occupying 0.853468 of unit cell:	Completed after 7 iterations at t[s]:  62626.80
	Linear fluid (dielectric constant: 7.2) occupying 0.853441 of unit cell:	Completed after 4 iterations at t[s]:  62772.19
	FillingsUpdate:  mu: -0.114579797  nElectrons: 313.000000
	SubspaceRotationAdjust: set factor to 0.0718
ElecMinimize: Iter:   9  F: -521.259743473997332  |grad|_K:  3.600e-06  alpha:  7.419e-01  linmin: -7.209e-05  t[s]:  62961.96
	Linear fluid (dielectric constant: 7.2) occupying 0.853490 of unit cell:	Completed after 5 iterations at t[s]:  63183.18
	Linear fluid (dielectric constant: 7.2) occupying 0.853489 of unit cell:	Completed after 1 iterations at t[s]:  63321.94
	FillingsUpdate:  mu: -0.114295102  nElectrons: 313.000000
	SubspaceRotationAdjust: set factor to 0.0877
ElecMinimize: Iter:  10  F: -521.260056846181669  |grad|_K:  2.798e-06  alpha:  7.105e-01  linmin: -3.926e-05  t[s]:  63511.28
	Linear fluid (dielectric constant: 7.2) occupying 0.853515 of unit cell:	Completed after 5 iterations at t[s]:  63731.44
	Linear fluid (dielectric constant: 7.2) occupying 0.853514 of unit cell:	Completed after 1 iterations at t[s]:  63870.43
	FillingsUpdate:  mu: -0.114059261  nElectrons: 313.000000
	SubspaceRotationAdjust: set factor to 0.108
ElecMinimize: Iter:  11  F: -521.260239560750279  |grad|_K:  2.358e-06  alpha:  6.942e-01  linmin: -3.012e-05  t[s]:  64059.32
	Linear fluid (dielectric constant: 7.2) occupying 0.853506 of unit cell:	Completed after 5 iterations at t[s]:  64279.50
	Linear fluid (dielectric constant: 7.2) occupying 0.853505 of unit cell:	Completed after 1 iterations at t[s]:  64417.90
	FillingsUpdate:  mu: -0.113939798  nElectrons: 313.000000
	SubspaceRotationAdjust: set factor to 0.128
	SubspaceRotationAdjust: resetting CG because factor has changed by 8.05848
	Linear fluid (dielectric constant: 7.2) occupying 0.853505 of unit cell:	Completed after 0 iterations at t[s]:  64647.51
ElecMinimize: 	State modified externally: resetting search direction.
ElecMinimize: Iter:  12  F: -521.260378108865098  |grad|_K:  2.178e-06  alpha:  7.419e-01
	Linear fluid (dielectric constant: 7.2) occupying 0.853510 of unit cell:	Completed after 4 iterations at t[s]:  65057.13
	Linear fluid (dielectric constant: 7.2) occupying 0.853507 of unit cell:	Completed after 3 iterations at t[s]:  65197.34
	FillingsUpdate:  mu: -0.113955926  nElectrons: 313.000000
	SubspaceRotationAdjust: set factor to 0.182
ElecMinimize: Iter:  13  F: -521.260436673190384  |grad|_K:  1.362e-06  alpha:  3.723e-01  linmin: -2.654e-06  t[s]:  65386.48
	Linear fluid (dielectric constant: 7.2) occupying 0.853513 of unit cell:	Completed after 3 iterations at t[s]:  65605.04
	Linear fluid (dielectric constant: 7.2) occupying 0.853520 of unit cell:	Completed after 3 iterations at t[s]:  65745.39
	FillingsUpdate:  mu: -0.113984506  nElectrons: 313.000000
	SubspaceRotationAdjust: set factor to 0.236
ElecMinimize: Iter:  14  F: -521.260492947442344  |grad|_K:  1.295e-06  alpha:  9.138e-01  linmin: -5.079e-06  t[s]:  65935.36
	Linear fluid (dielectric constant: 7.2) occupying 0.853540 of unit cell:	Completed after 5 iterations at t[s]:  66156.94
	Linear fluid (dielectric constant: 7.2) occupying 0.853538 of unit cell:	Completed after 2 iterations at t[s]:  66296.91
	FillingsUpdate:  mu: -0.113855182  nElectrons: 313.000000
	SubspaceRotationAdjust: set factor to 0.283
ElecMinimize: Iter:  15  F: -521.260538360688656  |grad|_K:  1.066e-06  alpha:  8.149e-01  linmin: -4.863e-06  t[s]:  66486.55
	Linear fluid (dielectric constant: 7.2) occupying 0.853539 of unit cell:	Completed after 3 iterations at t[s]:  66706.09
	Linear fluid (dielectric constant: 7.2) occupying 0.853539 of unit cell:	Completed after 1 iterations at t[s]:  66844.83
	FillingsUpdate:  mu: -0.113785025  nElectrons: 313.000000
	SubspaceRotationAdjust: set factor to 0.369
ElecMinimize: Iter:  16  F: -521.260561617277858  |grad|_K:  7.477e-07  alpha:  6.143e-01  linmin: -8.819e-07  t[s]:  67034.00
	Linear fluid (dielectric constant: 7.2) occupying 0.853535 of unit cell:	Completed after 4 iterations at t[s]:  67254.32
	Linear fluid (dielectric constant: 7.2) occupying 0.853535 of unit cell:	Completed after 1 iterations at t[s]:  67392.91
	FillingsUpdate:  mu: -0.113857994  nElectrons: 313.000000
	SubspaceRotationAdjust: set factor to 0.447
ElecMinimize: Iter:  17  F: -521.260575114462654  |grad|_K:  5.769e-07  alpha:  7.273e-01  linmin: -5.096e-07  t[s]:  67583.76
	Linear fluid (dielectric constant: 7.2) occupying 0.853533 of unit cell:	Completed after 4 iterations at t[s]:  67802.84
	Linear fluid (dielectric constant: 7.2) occupying 0.853534 of unit cell:	Completed after 1 iterations at t[s]:  67941.48
	FillingsUpdate:  mu: -0.113725570  nElectrons: 313.000000
	SubspaceRotationAdjust: set factor to 0.408
ElecMinimize: Iter:  18  F: -521.260581746161279  |grad|_K:  4.317e-07  alpha:  5.999e-01  linmin:  1.430e-06  t[s]:  68132.34
	Linear fluid (dielectric constant: 7.2) occupying 0.853534 of unit cell:	Completed after 4 iterations at t[s]:  68353.15
	Linear fluid (dielectric constant: 7.2) occupying 0.853534 of unit cell:	Completed after 2 iterations at t[s]:  68493.48
	FillingsUpdate:  mu: -0.113822209  nElectrons: 313.000000
	SubspaceRotationAdjust: set factor to 0.285
ElecMinimize: Iter:  19  F: -521.260584214576284  |grad|_K:  3.039e-07  alpha:  4.015e-01  linmin:  9.938e-08  t[s]:  68683.71
	Linear fluid (dielectric constant: 7.2) occupying 0.853535 of unit cell:	Completed after 3 iterations at t[s]:  68904.41
	Linear fluid (dielectric constant: 7.2) occupying 0.853535 of unit cell:	Completed after 1 iterations at t[s]:  69043.43
	FillingsUpdate:  mu: -0.113755729  nElectrons: 313.000000
	SubspaceRotationAdjust: set factor to 0.235
ElecMinimize: Iter:  20  F: -521.260585815593458  |grad|_K:  1.902e-07  alpha:  5.220e-01  linmin: -3.151e-06  t[s]:  69233.71
	Linear fluid (dielectric constant: 7.2) occupying 0.853538 of unit cell:	Completed after 2 iterations at t[s]:  69451.68
	Linear fluid (dielectric constant: 7.2) occupying 0.853538 of unit cell:	Completed after 0 iterations at t[s]:  69588.90
	FillingsUpdate:  mu: -0.113763236  nElectrons: 313.000000
	SubspaceRotationAdjust: set factor to 0.268
ElecMinimize: Iter:  21  F: -521.260586399550675  |grad|_K:  1.322e-07  alpha:  4.821e-01  linmin:  8.610e-06  t[s]:  69779.04
	Linear fluid (dielectric constant: 7.2) occupying 0.853540 of unit cell:	Completed after 1 iterations at t[s]:  69996.86
	Linear fluid (dielectric constant: 7.2) occupying 0.853540 of unit cell:	Completed after 0 iterations at t[s]:  70133.76
	FillingsUpdate:  mu: -0.113776020  nElectrons: 313.000000
	SubspaceRotationAdjust: set factor to 0.306
ElecMinimize: Iter:  22  F: -521.260586674308684  |grad|_K:  7.509e-08  alpha:  4.831e-01  linmin: -7.517e-06  t[s]:  70322.05
	Linear fluid (dielectric constant: 7.2) occupying 0.853540 of unit cell:	Completed after 0 iterations at t[s]:  70539.48
	Linear fluid (dielectric constant: 7.2) occupying 0.853540 of unit cell:	Completed after 0 iterations at t[s]:  70677.76
	FillingsUpdate:  mu: -0.113765745  nElectrons: 313.000000
	SubspaceRotationAdjust: set factor to 0.36
ElecMinimize: Iter:  23  F: -521.260586800558940  |grad|_K:  5.739e-08  alpha:  6.788e-01  linmin: -5.018e-06  t[s]:  70868.25
	Linear fluid (dielectric constant: 7.2) occupying 0.853540 of unit cell:	Completed after 1 iterations at t[s]:  71085.49
	Linear fluid (dielectric constant: 7.2) occupying 0.853540 of unit cell:	Completed after 0 iterations at t[s]:  71222.54
	FillingsUpdate:  mu: -0.113760998  nElectrons: 313.000000
	SubspaceRotationAdjust: set factor to 0.488
ElecMinimize: Iter:  24  F: -521.260586860845820  |grad|_K:  4.473e-08  alpha:  5.453e-01  linmin:  2.723e-06  t[s]:  71412.34
	Linear fluid (dielectric constant: 7.2) occupying 0.853540 of unit cell:	Completed after 1 iterations at t[s]:  71629.74
	Linear fluid (dielectric constant: 7.2) occupying 0.853540 of unit cell:	Completed after 0 iterations at t[s]:  71766.71
	FillingsUpdate:  mu: -0.113770512  nElectrons: 313.000000
	SubspaceRotationAdjust: set factor to 0.497
ElecMinimize: Iter:  25  F: -521.260586891209073  |grad|_K:  4.090e-08  alpha:  4.684e-01  linmin:  5.641e-06  t[s]:  71956.43
	Linear fluid (dielectric constant: 7.2) occupying 0.853540 of unit cell:	Completed after 1 iterations at t[s]:  72172.91
	Linear fluid (dielectric constant: 7.2) occupying 0.853540 of unit cell:	Completed after 0 iterations at t[s]:  72310.44
	FillingsUpdate:  mu: -0.113758106  nElectrons: 313.000000
	SubspaceRotationAdjust: set factor to 0.375
ElecMinimize: Iter:  26  F: -521.260586909294602  |grad|_K:  3.289e-08  alpha:  3.411e-01  linmin:  1.080e-05  t[s]:  72500.28
	Linear fluid (dielectric constant: 7.2) occupying 0.853540 of unit cell:	Completed after 0 iterations at t[s]:  72716.55
	Linear fluid (dielectric constant: 7.2) occupying 0.853540 of unit cell:	Completed after 0 iterations at t[s]:  72853.91
	FillingsUpdate:  mu: -0.113765160  nElectrons: 313.000000
	SubspaceRotationAdjust: set factor to 0.313
ElecMinimize: Iter:  27  F: -521.260586919327238  |grad|_K:  2.111e-08  alpha:  3.058e-01  linmin: -8.130e-06  t[s]:  73043.66
	Linear fluid (dielectric constant: 7.2) occupying 0.853541 of unit cell:	Completed after 0 iterations at t[s]:  73259.61
	Linear fluid (dielectric constant: 7.2) occupying 0.853541 of unit cell:	Completed after 0 iterations at t[s]:  73397.23
	FillingsUpdate:  mu: -0.113766550  nElectrons: 313.000000
	SubspaceRotationAdjust: set factor to 0.367
ElecMinimize: Iter:  28  F: -521.260586926375709  |grad|_K:  1.493e-08  alpha:  4.877e-01  linmin: -6.064e-06  t[s]:  73587.20
	Linear fluid (dielectric constant: 7.2) occupying 0.853541 of unit cell:	Completed after 0 iterations at t[s]:  73803.18
	Linear fluid (dielectric constant: 7.2) occupying 0.853541 of unit cell:	Completed after 0 iterations at t[s]:  73941.30
	FillingsUpdate:  mu: -0.113766510  nElectrons: 313.000000
	SubspaceRotationAdjust: set factor to 0.377
ElecMinimize: Iter:  29  F: -521.260586928964813  |grad|_K:  1.415e-08  alpha:  7.716e-01  linmin:  2.580e-05  t[s]:  74132.03
ElecMinimize: Converged (|Delta F|<1.000000e-08 for 2 iters).
Setting wave functions to eigenvectors of Hamiltonian
Single-point solvation energy estimate, DeltaF = -0.042724940802145

Computing DFT-D3 correction:
# coordination-number C 3.300 3.300 3.300 3.300 3.300 3.303 3.300 3.301 3.299 3.300 3.300 3.387 3.300 3.300 3.300 3.389 3.300 3.300 3.318 3.294 3.300 3.300 3.779 3.300 3.301 3.300 3.306 3.306 3.302 3.300 3.802 3.311 3.300 3.379 3.340 3.300 3.300 3.300 3.304 3.301 3.300 3.300 3.356 3.300 3.302 3.314 3.300 3.300 3.607 3.300 3.300 3.300 3.300 3.577 3.300 3.300 3.304 3.346 3.300 3.300 3.300 3.367 3.303 3.300 3.309 3.300 3.301 3.699 3.332 3.302 3.461
# coordination-number N 3.263
# coordination-number S 1.987
# coordination-number Na 2.490 2.449
# diagonal-C6 C 24.29 24.28 24.28 24.29 24.29 24.26 24.28 24.27 24.29 24.29 24.29 23.28 24.28 24.28 24.29 23.25 24.28 24.29 24.10 24.34 24.29 24.28 18.84 24.28 24.27 24.29 24.22 24.23 24.27 24.28 18.74 24.17 24.28 23.38 23.86 24.28 24.29 24.29 24.24 24.28 24.29 24.29 23.68 24.29 24.27 24.15 24.29 24.29 20.19 24.28 24.28 24.29 24.28 20.57 24.28 24.29 24.24 23.79 24.28 24.28 24.28 23.54 24.25 24.29 24.19 24.28 24.27 19.31 23.96 24.26 22.22
# diagonal-C6 N 15.59
# diagonal-C6 S 125.91
# diagonal-C6 Na 186.11 186.11
EvdW_6 =   -0.058476
EvdW_8 =   -0.049511

# Ionic positions in cartesian coordinates:
ion C   0.000000000000000   0.000000000000000   3.000003066900000 0
ion C  -2.333835447300000   4.042302545699999   3.000003066900000 0
ion C  11.669139441899999  20.211550523099998   3.000003066900000 0
ion C   4.667670894600000   0.000000000000000   3.000003066900000 0
ion C  23.338278883799997   0.000000000000000   3.000003066900000 0
ion C   2.333835447300000   4.042302545699999   3.000003066900000 0
ion C -11.669158339199999  20.211550523099998   3.000003066900000 0
ion C  -4.667670894600000   8.084623988700001   3.000003066900000 0
ion C   9.335303994599997  16.169229080099999   3.000003066900000 0
ion C   9.335322891900001   0.000000000000000   3.000003066900000 0
ion C  18.670626886499999   0.000000000000000   3.000003066900000 0
ion C   4.667670894599999   8.084623988700001   3.000003066900000 0
ion C  -9.335322891900001  16.169229080099999   3.000003066900000 0
ion C  -7.001487444600001  12.126926534399997   3.000003066900000 0
ion C  14.002993786499999   0.000000000000000   3.000003066900000 0
ion C   0.000000000000000   8.084623988700001   3.000003066900000 0
ion C   7.001468547300002  20.211550523099998   3.000003066900000 0
ion C  -7.001487444599999  20.211550523099998   3.000003066900000 0
ion C  -2.333835447300000  12.126926534399997   3.000003066900000 0
ion C   4.667633100000000  16.169229080099999   3.000003066900000 0
ion C  -2.333835447299998  20.211550523099998   3.000003066900000 0
ion C   2.333835447299998  20.211550523099998   3.000003066900000 0
ion C   2.333835447300001  12.126926534399997   3.000003066900000 0
ion C  -4.667651997299997  16.169229080099999   3.000003066900000 0
ion C   7.001468547300000   4.042302545699999   3.000003066900000 0
ion C  21.004424539199999   4.042302545699999   3.000003066900000 0
ion C  14.002955991899999  16.169229080099999   3.000003066900000 0
ion C   0.000000000000000  16.169229080099999   3.000003066900000 0
ion C  11.669120544600000   4.042302545699999   3.000003066900000 0
ion C  18.670626886500003   8.084623988700001   3.000003066900000 0
ion C  11.669120544600002  12.126926534399997   3.000003066900000 0
ion C  16.336791439199995  12.126926534399997   3.000003066900000 0
ion C  16.336791439199999   4.042302545699999   3.000003066900000 0
ion C   9.335303994599997   8.084623988700001   3.000003066900000 0
ion C  14.002955991899999   8.084623988700001   3.000003066900000 0
ion C   0.000018897300000   2.694868363800000   3.000003066900000 0
ion C  11.669139441899999  22.906399989600001   3.000003066900000 0
ion C -11.669139441899999  22.906399989600001   3.000003066900000 0
ion C  -2.333816550000000   6.737170909500000   3.000003066900000 0
ion C   9.335322891900001  18.864097443900000   3.000003066900000 0
ion C  -7.001468547300000  22.906399989600001   3.000003066900000 0
ion C   7.001487444600000  22.906399989600001   3.000003066900000 0
ion C   2.333816550000000   6.737170909500000   3.000003066900000 0
ion C  -9.335303994599998  18.864097443900000   3.000003066900000 0
ion C  -4.667651997299998  10.779473455200000   3.000003066900000 0
ion C   7.001487444599997  14.821794898200000   3.000003066900000 0
ion C  -2.333835447300000  22.906399989600001   3.000003066900000 0
ion C   2.333816550000000  22.906399989600001   3.000003066900000 0
ion C   4.667651997299999  10.779473455200000   3.000003066900000 0
ion C  -7.001468547300004  14.821794898200000   3.000003066900000 0
ion C   4.667651997300001   2.694868363800000   3.000003066900000 0
ion C  23.338259986499999   2.694868363800000   3.000003066900000 0
ion C  14.002955991899997  18.864097443900000   3.000003066900000 0
ion C   0.000018897300000  10.779473455200000   3.000003066900000 0
ion C   4.667651997299995  18.864097443900000   3.000003066900000 0
ion C  -4.667651997300002  18.864097443900000   3.000003066900000 0
ion C  -2.333816550000002  14.821794898200000   3.000003066900000 0
ion C   2.333816549999996  14.821794898200000   3.000003066900000 0
ion C  -0.000018897300000  18.864097443900000   3.000003066900000 0
ion C   9.335303994599998   2.694868363800000   3.000003066900000 0
ion C  21.004443436500001   6.737170909500000   3.000003066900000 0
ion C  11.669139441899999  14.821794898200000   3.000003066900000 0
ion C  16.336772541899997  14.821794898200000   3.000003066900000 0
ion C  18.670607989199997   2.694868363800000   3.000003066900000 0
ion C   7.001487444600001   6.737170909500000   3.000003066900000 0
ion C  14.002974889200001   2.694868363800000   3.000003066900000 0
ion C  18.670607989200004  10.779473455200000   3.000003066900000 0
ion C   9.335303994599997  10.779473455200000   3.000003066900000 0
ion C  11.669139441899997   6.737170909500000   3.000003066900000 0
ion C  16.336772541900000   6.737170909500000   3.000003066900000 0
ion C  14.002974889200004  10.779473455200000   3.000003066900000 0
ion N   7.001468547300003  12.126926534399997   3.000003066900000 0
ion S   6.708269959493291  11.247237973426726  10.236952371164678 1
ion Na   2.394255621307741  10.715704291261773   8.241511407168884 1
ion Na  11.076347781091513  11.126061407119943   8.270455562905186 1

# Forces in Cartesian coordinates:
force C   0.001919519824978  -0.000994525355769   0.000475753176184 0
force C   0.000569470354833  -0.000146794313364   0.000451727054716 0
force C   0.001592364754469  -0.001143873815085   0.000482055609119 0
force C   0.000932539576758   0.001133491983869   0.000460455718675 0
force C   0.000341505061095  -0.000559692137631   0.000455434343226 0
force C   0.001834499424403  -0.001444953974534   0.000659624463959 0
force C  -0.000367420362638  -0.001466229661776   0.000453897164530 0
force C   0.000112895219565   0.000609028500735   0.000425646387208 0
force C  -0.003742204251808  -0.009345369846861   0.000802770512480 0
force C  -0.001021025564314   0.001145387127361   0.000455216923216 0
force C  -0.000431006405978  -0.000568035745869   0.000446835409185 0
force C   0.007631068655221   0.006417366973253  -0.000215378422287 0
force C  -0.001472460153381   0.000229763321208   0.000505025270123 0
force C   0.000034462319780   0.002498393071375   0.000474876629571 0
force C  -0.001927341066994  -0.000991595438302   0.000470588111918 0
force C  -0.000469820348778  -0.000879778651927  -0.000140802905897 0
force C   0.000017580970508  -0.000596838521235   0.000501895728057 0
force C  -0.000021241943570  -0.000205900502215   0.000459630303464 0
force C  -0.001106282388289   0.002918612278913   0.000337828339120 0
force C   0.003574059811741  -0.009551649385430   0.000795446049070 0
force C   0.000372885984653  -0.001441951595753   0.000460840183614 0
force C  -0.001569211376811  -0.001199026316937   0.000461291330154 0
force C   0.010599393100629   0.003599159845519  -0.000397016667767 0
force C   0.001431607429556   0.000245995594984   0.000518340739300 0
force C   0.000075725004190   0.006154600340046   0.000731547013433 0
force C  -0.000021313848629  -0.000070351376396   0.000448539437774 0
force C  -0.005150366258235  -0.002712827732599   0.000366940759035 0
force C   0.005291706035569  -0.002670150356929   0.000355575561234 0
force C  -0.001825508163272  -0.001165473029522   0.000615026206320 0
force C  -0.000149072650689   0.000646958233059   0.000467230370574 0
force C  -0.009868509705930   0.003191480191482  -0.000175865245217 0
force C   0.000642903735726   0.002615209377210   0.000408112673524 0
force C  -0.000575717911736  -0.000162234187140   0.000460949129429 0
force C  -0.007445178000297   0.006102782407195   0.000019240886344 0
force C   0.000289510350997  -0.000414605476952  -0.000130005420056 0
force C  -0.000679063869474   0.000798805417675   0.000468609853960 0
force C  -0.001259130652948   0.000150348207335   0.000477508174140 0
force C  -0.002035214827502   0.001218595650724   0.000464487870994 0
force C  -0.000807416975917  -0.000576573786819   0.000532946382079 0
force C  -0.004722601400103   0.000986636388023   0.000573206956716 0
force C   0.000038593660415   0.000080951218980   0.000444803404089 0
force C   0.000032104173654   0.000283661645650   0.000442036704522 0
force C  -0.002554677224638   0.002506201853476   0.000278782633048 0
force C   0.000073650144267   0.000261361847755   0.000441476241969 0
force C   0.000314273678570  -0.001280243584626   0.000449152301992 0
force C  -0.000268573745817  -0.005410885465540   0.000546988934189 0
force C   0.002126729556694   0.001163743637666   0.000465723440855 0
force C   0.001262873635855   0.000216354105175   0.000467280457096 0
force C   0.008057058140583   0.002591493603272  -0.000107649929814 0
force C   0.000028165001142  -0.002498233987836   0.000467231083904 0
force C  -0.002125836418831  -0.000964928244178   0.000520108722871 0
force C  -0.000742708388662   0.000459354806068   0.000459512777158 0
force C  -0.000339382388929   0.002528818962015   0.000493599299386 0
force C  -0.000497787033881  -0.005119225881593  -0.000314094497522 0
force C   0.004639935703134   0.000909731783468   0.000566834499136 0
force C   0.000003999224802   0.000218321743913   0.000455415927570 0
force C  -0.002355108481433  -0.001395545866975   0.000324976573512 0
force C  -0.006016301487534   0.005794756167918   0.000570531731367 0
force C   0.000318365533051   0.002460236499540   0.000496458302959 0
force C   0.002055494870303  -0.000995009523423   0.000523256846053 0
force C  -0.000044505779584  -0.000919987802042   0.000495168815586 0
force C   0.006201931340308   0.006068281144150   0.000378066319176 0
force C   0.002386836693683  -0.001340474344662   0.000348222950633 0
force C   0.000706667721633   0.000492906918967   0.000458245731929 0
force C  -0.000021725888713  -0.007481461953590   0.000543947364879 0
force C   0.000754158892378   0.000789701483749   0.000459618697448 0
force C  -0.000371411806984  -0.001381005070608   0.000476859079599 0
force C  -0.007821194693939   0.002007291012556  -0.000136579866153 0
force C   0.002850300615968   0.002672622536870   0.000461256174382 0
force C   0.000624134934316  -0.000439669702641   0.000547618577278 0
force C   0.000719841152134  -0.005611300669691  -0.000262529328119 0
force N  -0.000690474796877   0.000899443172700  -0.001212790642694 0
force S   0.000326079005957   0.000851242151858   0.002293186268018 1
force Na  -0.006146190753207  -0.000782298167138   0.003491299280877 1
force Na   0.005822457310083  -0.000185852665735   0.003513097280447 1

# Energy components:
   A_diel =       -0.0550543913696618
   Eewald =     4643.3962031764767744
       EH =     5052.3515048915169245
     Eloc =   -10247.2066354545258946
      Enl =      -83.1817058486124381
     EvdW =       -0.1079866327187750
      Exc =     -150.1785637333732950
 Exc_core =        4.2473387817255484
       KE =      259.5456108919194662
-------------------------------------
     Etot =     -521.1892883189611894
       TS =        0.0712986100036359
-------------------------------------
        F =     -521.2605869289648126

IonicMinimize: Iter:   0  F: -521.260586928964813  |grad|_K:  3.382e-03  alpha:  1.000e+00

#--- Lowdin population analysis ---
# oxidation-state C +0.035 +0.034 +0.036 +0.034 +0.035 +0.035 +0.033 +0.033 +0.020 +0.034 +0.036 +0.013 +0.032 +0.033 +0.035 +0.018 +0.036 +0.031 +0.029 +0.023 +0.033 +0.036 -0.017 +0.032 +0.033 +0.032 +0.027 +0.028 +0.035 +0.034 -0.020 +0.030 +0.034 +0.013 +0.024 +0.034 +0.035 +0.036 +0.030 +0.036 +0.035 +0.035 +0.023 +0.035 +0.032 +0.137 +0.036 +0.035 +0.115 +0.035 +0.036 +0.033 +0.035 +0.004 +0.037 +0.035 +0.032 +0.031 +0.036 +0.036 +0.032 +0.026 +0.033 +0.034 +0.040 +0.034 +0.032 +0.106 +0.026 +0.031 +0.012
# oxidation-state N +0.000
# oxidation-state S -1.004
# oxidation-state Na +0.857 +0.858


Computing DFT-D3 correction:
# coordination-number C 3.300 3.300 3.300 3.300 3.300 3.303 3.300 3.301 3.299 3.300 3.300 3.386 3.300 3.300 3.300 3.389 3.300 3.300 3.318 3.294 3.300 3.300 3.777 3.300 3.301 3.300 3.306 3.306 3.302 3.300 3.800 3.311 3.300 3.379 3.340 3.300 3.300 3.300 3.304 3.301 3.300 3.300 3.355 3.300 3.302 3.313 3.300 3.300 3.604 3.300 3.300 3.300 3.300 3.576 3.300 3.300 3.304 3.346 3.300 3.300 3.300 3.367 3.303 3.300 3.309 3.300 3.301 3.696 3.332 3.302 3.461
# coordination-number N 3.262
# coordination-number S 1.987
# coordination-number Na 2.481 2.441
# diagonal-C6 C 24.29 24.28 24.28 24.29 24.29 24.26 24.28 24.27 24.29 24.29 24.29 23.29 24.28 24.28 24.29 23.25 24.28 24.29 24.10 24.34 24.29 24.28 18.85 24.28 24.27 24.29 24.22 24.23 24.27 24.28 18.75 24.17 24.28 23.39 23.86 24.28 24.29 24.29 24.24 24.28 24.29 24.29 23.68 24.29 24.27 24.15 24.29 24.29 20.23 24.28 24.28 24.29 24.28 20.57 24.28 24.29 24.24 23.80 24.28 24.28 24.28 23.54 24.25 24.29 24.19 24.28 24.27 19.34 23.96 24.26 22.22
# diagonal-C6 N 15.59
# diagonal-C6 S 125.91
# diagonal-C6 Na 186.11 186.11
EvdW_6 =   -0.058481
EvdW_8 =   -0.049508

-------- Electronic minimization -----------
	Linear fluid (dielectric constant: 7.2) occupying 0.853530 of unit cell:	Completed after 5 iterations at t[s]:  74535.73
	FillingsUpdate:  mu: -0.113672396  nElectrons: 313.000000
ElecMinimize: Iter:   0  F: -521.260688094335251  |grad|_K:  3.005e-07  alpha:  1.000e+00
	Linear fluid (dielectric constant: 7.2) occupying 0.853538 of unit cell:	Completed after 4 iterations at t[s]:  74985.87
	Linear fluid (dielectric constant: 7.2) occupying 0.853533 of unit cell:	Completed after 3 iterations at t[s]:  75125.82
	FillingsUpdate:  mu: -0.113743449  nElectrons: 313.000000
	SubspaceRotationAdjust: set factor to 0.236
ElecMinimize: Iter:   1  F: -521.260689223760664  |grad|_K:  1.464e-07  alpha:  3.772e-01  linmin:  7.760e-05  t[s]:  75316.07
	Linear fluid (dielectric constant: 7.2) occupying 0.853533 of unit cell:	Completed after 2 iterations at t[s]:  75533.19
	Linear fluid (dielectric constant: 7.2) occupying 0.853533 of unit cell:	Completed after 0 iterations at t[s]:  75670.54
	FillingsUpdate:  mu: -0.113706354  nElectrons: 313.000000
	SubspaceRotationAdjust: set factor to 0.128
ElecMinimize: Iter:   2  F: -521.260689469304452  |grad|_K:  7.111e-08  alpha:  3.443e-01  linmin:  5.107e-04  t[s]:  75861.60
	Linear fluid (dielectric constant: 7.2) occupying 0.853532 of unit cell:	Completed after 1 iterations at t[s]:  76078.95
	Linear fluid (dielectric constant: 7.2) occupying 0.853532 of unit cell:	Completed after 0 iterations at t[s]:  76217.93
	FillingsUpdate:  mu: -0.113716327  nElectrons: 313.000000
	SubspaceRotationAdjust: set factor to 0.207
ElecMinimize: Iter:   3  F: -521.260689564254790  |grad|_K:  3.019e-08  alpha:  5.544e-01  linmin: -6.484e-04  t[s]:  76408.02
	Linear fluid (dielectric constant: 7.2) occupying 0.853532 of unit cell:	Completed after 0 iterations at t[s]:  76626.05
	Linear fluid (dielectric constant: 7.2) occupying 0.853531 of unit cell:	Completed after 0 iterations at t[s]:  76764.31
	FillingsUpdate:  mu: -0.113724845  nElectrons: 313.000000
	SubspaceRotationAdjust: set factor to 0.261
ElecMinimize: Iter:   4  F: -521.260689590690390  |grad|_K:  2.191e-08  alpha:  6.889e-01  linmin: -2.866e-04  t[s]:  76954.56
	Linear fluid (dielectric constant: 7.2) occupying 0.853530 of unit cell:	Completed after 0 iterations at t[s]:  77171.36
	Linear fluid (dielectric constant: 7.2) occupying 0.853530 of unit cell:	Completed after 0 iterations at t[s]:  77308.66
	FillingsUpdate:  mu: -0.113721990  nElectrons: 313.000000
	SubspaceRotationAdjust: set factor to 0.279
ElecMinimize: Iter:   5  F: -521.260689606584151  |grad|_K:  1.864e-08  alpha:  7.495e-01  linmin: -9.240e-05  t[s]:  77498.88
	Linear fluid (dielectric constant: 7.2) occupying 0.853529 of unit cell:	Completed after 0 iterations at t[s]:  77715.29
	Linear fluid (dielectric constant: 7.2) occupying 0.853529 of unit cell:	Completed after 0 iterations at t[s]:  77853.03
	FillingsUpdate:  mu: -0.113724356  nElectrons: 313.000000
	SubspaceRotationAdjust: set factor to 0.34
ElecMinimize: Iter:   6  F: -521.260689616138393  |grad|_K:  1.456e-08  alpha:  6.853e-01  linmin: -2.117e-05  t[s]:  78043.82
	Linear fluid (dielectric constant: 7.2) occupying 0.853529 of unit cell:	Completed after 0 iterations at t[s]:  78260.48
	Linear fluid (dielectric constant: 7.2) occupying 0.853529 of unit cell:	Completed after 0 iterations at t[s]:  78398.12
	FillingsUpdate:  mu: -0.113721420  nElectrons: 313.000000
	SubspaceRotationAdjust: set factor to 0.477
ElecMinimize: Iter:   7  F: -521.260689620692915  |grad|_K:  1.031e-08  alpha:  5.940e-01  linmin: -2.585e-05  t[s]:  78588.28
ElecMinimize: Converged (|Delta F|<1.000000e-08 for 2 iters).
Setting wave functions to eigenvectors of Hamiltonian
[...]
	FillingsUpdate:  mu: -0.103901305  nElectrons: 313.000000
	SubspaceRotationAdjust: set factor to 0.385
ElecMinimize: Iter:   1  F: -521.268643566195124  |grad|_K:  1.147e-07  alpha:  5.591e-01  linmin:  1.325e-04  t[s]: 425224.70
	Linear fluid (dielectric constant: 7.2) occupying 0.852664 of unit cell:	Completed after 2 iterations at t[s]: 425442.76
	Linear fluid (dielectric constant: 7.2) occupying 0.852664 of unit cell:	Completed after 1 iterations at t[s]: 425581.40
	FillingsUpdate:  mu: -0.103932603  nElectrons: 313.000000
	SubspaceRotationAdjust: set factor to 0.217
ElecMinimize: Iter:   2  F: -521.268643687766371  |grad|_K:  6.693e-08  alpha:  2.812e-01  linmin:  2.610e-04  t[s]: 425771.97
	Linear fluid (dielectric constant: 7.2) occupying 0.852664 of unit cell:	Completed after 0 iterations at t[s]: 425989.50
	Linear fluid (dielectric constant: 7.2) occupying 0.852665 of unit cell:	Completed after 1 iterations at t[s]: 426128.74
	FillingsUpdate:  mu: -0.103925893  nElectrons: 313.000000
	SubspaceRotationAdjust: set factor to 0.31
ElecMinimize: Iter:   3  F: -521.268643758014946  |grad|_K:  3.299e-08  alpha:  5.095e-01  linmin:  8.949e-04  t[s]: 426317.10
	Linear fluid (dielectric constant: 7.2) occupying 0.852665 of unit cell:	Completed after 0 iterations at t[s]: 426533.74
	Linear fluid (dielectric constant: 7.2) occupying 0.852665 of unit cell:	Completed after 0 iterations at t[s]: 426670.71
	FillingsUpdate:  mu: -0.103920462  nElectrons: 313.000000
	SubspaceRotationAdjust: set factor to 0.368
ElecMinimize: Iter:   4  F: -521.268643780963089  |grad|_K:  2.113e-08  alpha:  6.590e-01  linmin: -1.259e-03  t[s]: 426860.49
	Linear fluid (dielectric constant: 7.2) occupying 0.852665 of unit cell:	Completed after 0 iterations at t[s]: 427077.02
	Linear fluid (dielectric constant: 7.2) occupying 0.852665 of unit cell:	Completed after 0 iterations at t[s]: 427213.73
	FillingsUpdate:  mu: -0.103921836  nElectrons: 313.000000
	SubspaceRotationAdjust: set factor to 0.522
ElecMinimize: Iter:   5  F: -521.268643791709223  |grad|_K:  1.586e-08  alpha:  6.488e-01  linmin: -6.392e-04  t[s]: 427404.02
	Linear fluid (dielectric constant: 7.2) occupying 0.852666 of unit cell:	Completed after 0 iterations at t[s]: 427621.13
	Linear fluid (dielectric constant: 7.2) occupying 0.852666 of unit cell:	Completed after 0 iterations at t[s]: 427758.45
	FillingsUpdate:  mu: -0.103920883  nElectrons: 313.000000
	SubspaceRotationAdjust: set factor to 0.473
ElecMinimize: Iter:   6  F: -521.268643796280571  |grad|_K:  1.309e-08  alpha:  4.999e-01  linmin:  2.322e-04  t[s]: 427947.91
	Linear fluid (dielectric constant: 7.2) occupying 0.852666 of unit cell:	Completed after 0 iterations at t[s]: 428165.47
	Linear fluid (dielectric constant: 7.2) occupying 0.852666 of unit cell:	Completed after 0 iterations at t[s]: 428302.99
	FillingsUpdate:  mu: -0.103923545  nElectrons: 313.000000
	SubspaceRotationAdjust: set factor to 0.645
ElecMinimize: Iter:   7  F: -521.268643797848199  |grad|_K:  7.021e-09  alpha:  3.520e-01  linmin: -1.065e-03  t[s]: 428493.35
ElecMinimize: Converged (|Delta F|<1.000000e-08 for 2 iters).
Setting wave functions to eigenvectors of Hamiltonian

Computing DFT-D3 correction:
# coordination-number C 3.300 3.300 3.300 3.300 3.300 3.301 3.300 3.300 3.289 3.300 3.300 3.298 3.300 3.300 3.300 3.315 3.300 3.300 3.306 3.289 3.300 3.300 3.329 3.300 3.300 3.300 3.302 3.302 3.300 3.300 3.322 3.303 3.300 3.296 3.308 3.300 3.300 3.300 3.302 3.300 3.300 3.300 3.309 3.300 3.301 3.302 3.300 3.300 3.322 3.300 3.300 3.300 3.300 3.334 3.300 3.300 3.302 3.306 3.300 3.300 3.300 3.306 3.301 3.300 3.301 3.300 3.300 3.321 3.305 3.301 3.320
# coordination-number N 3.220
# coordination-number S 1.975
# coordination-number Na 1.161 1.124
# diagonal-C6 C 24.29 24.28 24.28 24.29 24.29 24.28 24.29 24.28 24.38 24.29 24.29 24.30 24.28 24.28 24.29 24.13 24.28 24.29 24.23 24.38 24.29 24.28 23.99 24.28 24.28 24.29 24.27 24.27 24.28 24.28 24.06 24.25 24.28 24.32 24.21 24.28 24.29 24.29 24.27 24.28 24.29 24.29 24.20 24.29 24.27 24.26 24.29 24.29 24.06 24.28 24.28 24.29 24.28 23.93 24.28 24.29 24.27 24.23 24.28 24.28 24.28 24.22 24.27 24.29 24.28 24.28 24.28 24.07 24.23 24.27 24.08
# diagonal-C6 N 15.60
# diagonal-C6 S 125.92
# diagonal-C6 Na 189.48 190.60
EvdW_6 =   -0.059676
EvdW_8 =   -0.048634

-------- Electronic minimization -----------
	Linear fluid (dielectric constant: 7.2) occupying 0.852664 of unit cell:	Completed after 3 iterations at t[s]: 428736.29
	FillingsUpdate:  mu: -0.103905776  nElectrons: 313.000000
ElecMinimize: Iter:   0  F: -521.268643690129238  |grad|_K:  8.136e-08  alpha:  1.000e+00
	Linear fluid (dielectric constant: 7.2) occupying 0.852665 of unit cell:	Completed after 2 iterations at t[s]: 429185.97
	Linear fluid (dielectric constant: 7.2) occupying 0.852664 of unit cell:	Completed after 2 iterations at t[s]: 429325.10
	FillingsUpdate:  mu: -0.103931520  nElectrons: 313.000000
	SubspaceRotationAdjust: set factor to 0.417
ElecMinimize: Iter:   1  F: -521.268643748685463  |grad|_K:  7.063e-08  alpha:  2.620e-01  linmin:  4.124e-04  t[s]: 429514.69
	Linear fluid (dielectric constant: 7.2) occupying 0.852665 of unit cell:	Completed after 1 iterations at t[s]: 429732.31
	Linear fluid (dielectric constant: 7.2) occupying 0.852665 of unit cell:	Completed after 0 iterations at t[s]: 429868.82
	FillingsUpdate:  mu: -0.103919558  nElectrons: 313.000000
	SubspaceRotationAdjust: set factor to 0.719
ElecMinimize: Iter:   2  F: -521.268643796649599  |grad|_K:  2.439e-08  alpha:  2.906e-01  linmin: -1.572e-03  t[s]: 430059.44
	Linear fluid (dielectric constant: 7.2) occupying 0.852665 of unit cell:	Completed after 0 iterations at t[s]: 430275.85
	Linear fluid (dielectric constant: 7.2) occupying 0.852664 of unit cell:	Completed after 1 iterations at t[s]: 430415.52
	FillingsUpdate:  mu: -0.103907328  nElectrons: 313.000000
	SubspaceRotationAdjust: set factor to 0.423
ElecMinimize: Iter:   3  F: -521.268643798721541  |grad|_K:  5.224e-08  alpha:  8.143e-01  linmin:  8.250e-03  t[s]: 430605.65
	Linear fluid (dielectric constant: 7.2) occupying 0.852662 of unit cell:	Completed after 1 iterations at t[s]: 430824.21
	Linear fluid (dielectric constant: 7.2) occupying 0.852664 of unit cell:	Completed after 1 iterations at t[s]: 430962.50
	FillingsUpdate:  mu: -0.103909772  nElectrons: 313.000000
	SubspaceRotationAdjust: set factor to 0.33
ElecMinimize: Iter:   4  F: -521.268643800802920  |grad|_K:  3.719e-08  alpha:  2.753e-02  linmin:  3.017e-04  t[s]: 431152.96
ElecMinimize: Converged (|Delta F|<1.000000e-08 for 2 iters).
Setting wave functions to eigenvectors of Hamiltonian

Computing DFT-D3 correction:
# coordination-number C 3.300 3.300 3.300 3.300 3.300 3.301 3.300 3.300 3.289 3.300 3.300 3.298 3.300 3.300 3.300 3.315 3.300 3.300 3.306 3.289 3.300 3.300 3.329 3.300 3.300 3.300 3.302 3.302 3.300 3.300 3.322 3.303 3.300 3.296 3.308 3.300 3.300 3.300 3.302 3.300 3.300 3.300 3.309 3.300 3.301 3.302 3.300 3.300 3.322 3.300 3.300 3.300 3.300 3.334 3.300 3.300 3.302 3.306 3.300 3.300 3.300 3.306 3.301 3.300 3.301 3.300 3.300 3.321 3.305 3.301 3.320
# coordination-number N 3.220
# coordination-number S 1.975
# coordination-number Na 1.161 1.124
# diagonal-C6 C 24.29 24.28 24.28 24.29 24.29 24.28 24.29 24.28 24.38 24.29 24.29 24.30 24.28 24.28 24.29 24.13 24.28 24.29 24.23 24.38 24.29 24.28 23.99 24.28 24.28 24.29 24.27 24.27 24.28 24.28 24.06 24.25 24.28 24.32 24.21 24.28 24.29 24.29 24.27 24.28 24.29 24.29 24.20 24.29 24.27 24.26 24.29 24.29 24.06 24.28 24.28 24.29 24.28 23.93 24.28 24.29 24.27 24.23 24.28 24.28 24.28 24.22 24.27 24.29 24.28 24.28 24.28 24.07 24.23 24.27 24.08
# diagonal-C6 N 15.60
# diagonal-C6 S 125.92
# diagonal-C6 Na 189.48 190.60
EvdW_6 =   -0.059676
EvdW_8 =   -0.048634

# Ionic positions in cartesian coordinates:
ion C   0.000000000000000   0.000000000000000   3.000003066900000 0
ion C  -2.333835447300000   4.042302545699999   3.000003066900000 0
ion C  11.669139441899999  20.211550523099998   3.000003066900000 0
ion C   4.667670894600000   0.000000000000000   3.000003066900000 0
ion C  23.338278883799997   0.000000000000000   3.000003066900000 0
ion C   2.333835447300000   4.042302545699999   3.000003066900000 0
ion C -11.669158339199999  20.211550523099998   3.000003066900000 0
ion C  -4.667670894600000   8.084623988700001   3.000003066900000 0
ion C   9.335303994599997  16.169229080099999   3.000003066900000 0
ion C   9.335322891900001   0.000000000000000   3.000003066900000 0
ion C  18.670626886499999   0.000000000000000   3.000003066900000 0
ion C   4.667670894599999   8.084623988700001   3.000003066900000 0
ion C  -9.335322891900001  16.169229080099999   3.000003066900000 0
ion C  -7.001487444600001  12.126926534399997   3.000003066900000 0
ion C  14.002993786499999   0.000000000000000   3.000003066900000 0
ion C   0.000000000000000   8.084623988700001   3.000003066900000 0
ion C   7.001468547300002  20.211550523099998   3.000003066900000 0
ion C  -7.001487444599999  20.211550523099998   3.000003066900000 0
ion C  -2.333835447300000  12.126926534399997   3.000003066900000 0
ion C   4.667633100000000  16.169229080099999   3.000003066900000 0
ion C  -2.333835447299998  20.211550523099998   3.000003066900000 0
ion C   2.333835447299998  20.211550523099998   3.000003066900000 0
ion C   2.333835447300001  12.126926534399997   3.000003066900000 0
ion C  -4.667651997299997  16.169229080099999   3.000003066900000 0
ion C   7.001468547300000   4.042302545699999   3.000003066900000 0
ion C  21.004424539199999   4.042302545699999   3.000003066900000 0
ion C  14.002955991899999  16.169229080099999   3.000003066900000 0
ion C   0.000000000000000  16.169229080099999   3.000003066900000 0
ion C  11.669120544600000   4.042302545699999   3.000003066900000 0
ion C  18.670626886500003   8.084623988700001   3.000003066900000 0
ion C  11.669120544600002  12.126926534399997   3.000003066900000 0
ion C  16.336791439199995  12.126926534399997   3.000003066900000 0
ion C  16.336791439199999   4.042302545699999   3.000003066900000 0
ion C   9.335303994599997   8.084623988700001   3.000003066900000 0
ion C  14.002955991899999   8.084623988700001   3.000003066900000 0
ion C   0.000018897300000   2.694868363800000   3.000003066900000 0
ion C  11.669139441899999  22.906399989600001   3.000003066900000 0
ion C -11.669139441899999  22.906399989600001   3.000003066900000 0
ion C  -2.333816550000000   6.737170909500000   3.000003066900000 0
ion C   9.335322891900001  18.864097443900000   3.000003066900000 0
ion C  -7.001468547300000  22.906399989600001   3.000003066900000 0
ion C   7.001487444600000  22.906399989600001   3.000003066900000 0
ion C   2.333816550000000   6.737170909500000   3.000003066900000 0
ion C  -9.335303994599998  18.864097443900000   3.000003066900000 0
ion C  -4.667651997299998  10.779473455200000   3.000003066900000 0
ion C   7.001487444599997  14.821794898200000   3.000003066900000 0
ion C  -2.333835447300000  22.906399989600001   3.000003066900000 0
ion C   2.333816550000000  22.906399989600001   3.000003066900000 0
ion C   4.667651997299999  10.779473455200000   3.000003066900000 0
ion C  -7.001468547300004  14.821794898200000   3.000003066900000 0
ion C   4.667651997300001   2.694868363800000   3.000003066900000 0
ion C  23.338259986499999   2.694868363800000   3.000003066900000 0
ion C  14.002955991899997  18.864097443900000   3.000003066900000 0
ion C   0.000018897300000  10.779473455200000   3.000003066900000 0
ion C   4.667651997299995  18.864097443900000   3.000003066900000 0
ion C  -4.667651997300002  18.864097443900000   3.000003066900000 0
ion C  -2.333816550000002  14.821794898200000   3.000003066900000 0
ion C   2.333816549999996  14.821794898200000   3.000003066900000 0
ion C  -0.000018897300000  18.864097443900000   3.000003066900000 0
ion C   9.335303994599998   2.694868363800000   3.000003066900000 0
ion C  21.004443436500001   6.737170909500000   3.000003066900000 0
ion C  11.669139441899999  14.821794898200000   3.000003066900000 0
ion C  16.336772541899997  14.821794898200000   3.000003066900000 0
ion C  18.670607989199997   2.694868363800000   3.000003066900000 0
ion C   7.001487444600001   6.737170909500000   3.000003066900000 0
ion C  14.002974889200001   2.694868363800000   3.000003066900000 0
ion C  18.670607989200004  10.779473455200000   3.000003066900000 0
ion C   9.335303994599997  10.779473455200000   3.000003066900000 0
ion C  11.669139441899997   6.737170909500000   3.000003066900000 0
ion C  16.336772541900000   6.737170909500000   3.000003066900000 0
ion C  14.002974889200004  10.779473455200000   3.000003066900000 0
ion N   7.001468547300003  12.126926534399997   3.000003066900000 0
ion S   6.745732380880449  11.396833255283688   9.770294586734510 1
ion Na   1.876398438351804  10.686510618816916   9.572013382630379 1
ion Na  11.662904810065012  11.065797373809248   9.750516992902671 1

# Forces in Cartesian coordinates:
force C   0.001610056522664  -0.000902043568033   0.000489294617585 0
force C   0.000508026637358  -0.000139217458371   0.000483400711343 0
force C   0.001391627356231  -0.001124899638010   0.000498642823275 0
force C   0.000837047955469   0.001060805861843   0.000465405161630 0
force C   0.000218370807218  -0.000457581027958   0.000462692038848 0
force C   0.001752802558636  -0.000898968463933   0.000596243472906 0
force C  -0.000470772881131  -0.001316073278655   0.000468019572131 0
force C   0.000130317460799   0.000405195546896   0.000474153898971 0
force C  -0.003314050207067  -0.009680104008982   0.000711848765746 0
force C  -0.000911099497929   0.001066866353751   0.000458633074211 0
force C  -0.000299019271645  -0.000460441214397   0.000452706649606 0
force C   0.007468064262737   0.007228492947088   0.000221594272606 0
force C  -0.001308642067455   0.000277284201553   0.000504082850113 0
force C   0.000028453906769   0.002059760373118   0.000515363865026 0
force C  -0.001645300308211  -0.000905872188113   0.000482788671054 0
force C   0.000299627157689  -0.000284091199126   0.000492585913312 0
force C   0.000007874085925  -0.000611736195888   0.000551557939429 0
force C  -0.000012949316440  -0.000124110580618   0.000475601267240 0
force C  -0.000405497171131   0.002292030225751   0.000342486813571 0
force C   0.003230529432153  -0.009769853525285   0.000678275262447 0
force C   0.000495026485623  -0.001316188681131   0.000471210934435 0
force C  -0.001398983443945  -0.001152708843513   0.000471796134722 0
force C   0.010590217270768   0.002857242280821   0.000321552947657 0
force C   0.001318472825800   0.000283561209721   0.000518431378896 0
force C   0.000023439686059   0.005746960431941   0.000747875738418 0
force C  -0.000019634153088  -0.000110276636737   0.000460194516963 0
force C  -0.004858513309873  -0.002540979693434   0.000413497577152 0
force C   0.004902741091371  -0.002506892041101   0.000426538111998 0
force C  -0.001731394409253  -0.000822034194781   0.000560242499769 0
force C  -0.000155037162411   0.000415822757833   0.000497345411680 0
force C  -0.010342442926120   0.002623394890251   0.000446051250966 0
force C   0.000197843127692   0.002131290269080   0.000380229863047 0
force C  -0.000489693870877  -0.000136200671120   0.000487438329845 0
force C  -0.007436949235814   0.007192228085270   0.000399953257576 0
force C  -0.000320137676266  -0.000045316486128   0.000394739024347 0
force C  -0.000567674716178   0.000696513255765   0.000495018978975 0
force C  -0.000998526756322   0.000109500082736   0.000483173056589 0
force C  -0.001807634911602   0.001102205451948   0.000471432331928 0
force C  -0.000450386837287  -0.000343709866007   0.000469022865399 0
force C  -0.004680690492730   0.000785382840064   0.000556490380700 0
force C   0.000030801536888  -0.000009133556975   0.000449937106753 0
force C   0.000026425451668   0.000261960948157   0.000449003721375 0
force C  -0.002404107576508   0.003408890319457   0.000593440986830 0
force C   0.000156064580812   0.000191780643101   0.000452116237042 0
force C   0.000268243978246  -0.000983069233043   0.000492393786409 0
force C  -0.000139915346541  -0.007214878850029   0.001142479672729 0
force C   0.001899332829671   0.001069122346852   0.000473914375566 0
force C   0.001017929260317   0.000149899999545   0.000474408235788 0
force C   0.007613870898553   0.003324353905346   0.001456268285023 0
force C   0.000013411957956  -0.002177482247986   0.000477875530414 0
force C  -0.001858138557673  -0.000793214617443   0.000555246916474 0
force C  -0.000697041297814   0.000356828569965   0.000474414955303 0
force C  -0.000245289476791   0.002255352926668   0.000518109327672 0
force C   0.001247243056003  -0.004584916532311   0.000273354196770 0
force C   0.004636541732175   0.000724756995213   0.000568878347301 0
force C  -0.000108000860728   0.000161277619900   0.000465361215393 0
force C  -0.001913554228745  -0.001224055353477   0.000419991444053 0
force C  -0.005211338882540   0.003704862694938   0.000821297079700 0
force C   0.000224528106520   0.002214597194220   0.000517577986860 0
force C   0.001832163861550  -0.000809951812644   0.000554806726850 0
force C  -0.000050045428844  -0.000792248617326   0.000507086681828 0
force C   0.005276653197689   0.003814843649094   0.000837858859573 0
force C   0.001918065037902  -0.001235666063159   0.000438530605458 0
force C   0.000664460223071   0.000386928163725   0.000472260083985 0
force C  -0.000079353889080  -0.006092559653389   0.000474344549669 0
force C   0.000603275174768   0.000691650010419   0.000479135828358 0
force C  -0.000324133059331  -0.001047046838937   0.000511140103860 0
force C  -0.007553713752533   0.003141301606010   0.001397829402657 0
force C   0.002604238447990   0.003440949311364   0.000652817145212 0
force C   0.000401398607027  -0.000285813120454   0.000509525772848 0
force C  -0.001146983410031  -0.004773808250682   0.000306292808442 0
force N  -0.000211759067452   0.000008313356877  -0.001381604568441 0
force S   0.000039365450397   0.000208371495005  -0.000216673796907 1
force Na  -0.000056039356238   0.000022700763673  -0.000164889874290 1
force Na   0.000016867098791  -0.000010418180037   0.000182660546208 1

# Energy components:
   A_diel =       -0.0803631955101976
   Eewald =     4590.9767136517075414
       EH =     5005.6945760709395472
     Eloc =   -10148.0498429924064112
      Enl =      -83.2170228186018761
     EvdW =       -0.1083099565187173
      Exc =     -150.1641995534241119
 Exc_core =        4.2473390537973801
       KE =      259.5028619444377114
-------------------------------------
     Etot =     -521.1982477955793911
       TS =        0.0703960052235400
-------------------------------------
        F =     -521.2686438008029199

IonicMinimize: Iter:  24  F: -521.268643800802920  |grad|_K:  1.319e-04  alpha:  4.685e+00  linmin: -5.097e-03  t[s]: 431326.02
IonicMinimize: Converged (|Delta F|<1.000000e-06 for 2 iters).

#--- Lowdin population analysis ---
# oxidation-state C +0.030 +0.030 +0.032 +0.030 +0.031 +0.031 +0.029 +0.028 +0.023 +0.030 +0.031 +0.023 +0.028 +0.028 +0.031 +0.021 +0.032 +0.027 +0.026 +0.024 +0.030 +0.032 +0.008 +0.028 +0.029 +0.028 +0.024 +0.024 +0.031 +0.029 +0.007 +0.027 +0.030 +0.023 +0.024 +0.030 +0.031 +0.032 +0.026 +0.033 +0.031 +0.031 +0.027 +0.031 +0.027 +0.144 +0.032 +0.031 +0.140 +0.030 +0.032 +0.030 +0.031 +0.016 +0.034 +0.031 +0.029 +0.036 +0.032 +0.032 +0.028 +0.033 +0.029 +0.030 +0.044 +0.030 +0.028 +0.136 +0.028 +0.027 +0.019
# oxidation-state N +0.011
# oxidation-state S -1.035
# oxidation-state Na +0.882 +0.884


Dumping 'Na2S@N_graphene-PC-vdw.fillings' ... done
Dumping 'Na2S@N_graphene-PC-vdw.wfns' ... done
Dumping 'Na2S@N_graphene-PC-vdw.fluidState' ... done
Dumping 'Na2S@N_graphene-PC-vdw.ionpos' ... done
Dumping 'Na2S@N_graphene-PC-vdw.eigenvals' ... done
End date and time: Sat Sep 14 13:07:11 2024  (Duration: 4-23:50:05.79)
Done!
