
*************** JDFTx 1.7.0  ***************

Start date and time: Wed Aug  7 04:06:34 2024
Executable jdftx with command-line: -i Na2S6@N_graphene-glyme-vdw.in -o Na2S6@N_graphene-glyme-vdw.out
Running on hosts (process indices):  TopperLinuxBox (0)
Divided in process groups (process indices):  0 (0)
Resource initialization completed at t[s]:      0.00
Run totals: 1 processes, 8 threads, 0 GPUs


Input parsed successfully to the following command list (including defaults):

basis kpoint-dependent
coords-type Cartesian
core-overlap-check vector
coulomb-interaction Slab 001
coulomb-truncation-embed 0 0 5
davidson-band-ratio 1.1
dump End State
dump-name Na2S6@N_graphene-glyme-vdw.$VAR
elec-cutoff 20 100
elec-eigen-algo Davidson
elec-ex-corr gga-PBE
elec-smearing Fermi 0.01
electronic-minimize  \
	dirUpdateScheme      FletcherReeves \
	linminMethod         DirUpdateRecommended \
	nIterations          100 \
	history              15 \
	knormThreshold       0 \
	energyDiffThreshold  1e-08 \
	nEnergyDiff          2 \
	alphaTstart          1 \
	alphaTmin            1e-10 \
	updateTestStepSize   yes \
	alphaTreduceFactor   0.1 \
	alphaTincreaseFactor 3 \
	nAlphaAdjustMax      3 \
	wolfeEnergy          0.0001 \
	wolfeGradient        0.9 \
	fdTest               no
electronic-scf  \
	nIterations	50 \
	energyDiffThreshold	1e-08 \
	residualThreshold	1e-07 \
	mixFraction	0.5 \
	qMetric	0.8 \
	history	10 \
	nEigSteps	2 \
	eigDiffThreshold	1e-08 \
	mixedVariable	Density \
	qKerker	0.8 \
	qKappa	-1 \
	verbose	no \
	mixFractionMag	1.5
exchange-regularization WignerSeitzTruncated
fluid LinearPCM 298.000000 1.013250
fluid-ex-corr lda-TF lda-PZ
fluid-gummel-loop 10 1.000000e-05
fluid-minimize  \
	dirUpdateScheme      PolakRibiere \
	linminMethod         DirUpdateRecommended \
	nIterations          400 \
	history              15 \
	knormThreshold       1e-11 \
	energyDiffThreshold  0 \
	nEnergyDiff          2 \
	alphaTstart          1 \
	alphaTmin            1e-10 \
	updateTestStepSize   yes \
	alphaTreduceFactor   0.1 \
	alphaTincreaseFactor 3 \
	nAlphaAdjustMax      6 \
	wolfeEnergy          0.0001 \
	wolfeGradient        0.9 \
	fdTest               no
fluid-solvent Glyme 9.62137 ScalarEOS \
	epsBulk 7.2 \
	pMol 0 \
	epsInf 1.9 \
	Pvap 0 \
	sigmaBulk 0 \
	Rvdw 0 \
	Res 0 \
	tauNuc 343133
forces-output-coords Positions
ion C  28.010542013705631   0.002014969601156   0.635465203747167 0
ion C  16.341968157882292  20.214705522223607   0.636370795694031 0
ion C   2.338532027351695   4.042411505399060   0.630361847754816 0
ion C  23.343313188735969   0.002278716019722   0.640022467239564 0
ion C   4.672620934470559   0.001554156700161   0.632050616002296 0
ion C  11.674116326115334  20.215100669694028   0.619847495055023 0
ion C  25.676530282256284   4.042904097616445   0.653564930084009 0
ion C  18.675851376129700  16.172910511284943   0.662695583431347 0
ion C   4.671777948336020   8.082036709586005   0.612564386226399 0
ion C  18.676336142016080   0.002101964498535   0.651180333522277 0
ion C   9.339850970925752   0.001738039847832   0.641511836963307 0
ion C   9.341212652353351  16.175613291750459   0.599279306155555 0
ion C  23.342941439729607   8.084920466015539   0.683240254571249 0
ion C  21.009110272076708  12.128959849493356   0.688453340004557 0
ion C   7.009085367604252  12.128528685817338   0.597262204671189 0
ion C  14.008105470077210   0.001988816408382   0.654008834012114 0
ion C  14.009120976896664  16.174984627607692   0.629938477890011 0
ion C   7.005550759074101   4.041176716120078   0.616350899393808 0
ion C  21.010101094155836   4.043302536041172   0.668670850704729 0
ion C  16.344445762465487  12.130683361169906   0.668518806438794 0
ion C   9.337643998902927   8.081728763982859   0.614931622729934 0
ion C  16.343783017314891   4.042062713362387   0.668836182024798 0
ion C  11.674085450205249   4.041278849785761   0.642196060576936 0
ion C  11.675597583834264  12.133622242506720   0.630068253549407 0
ion C  18.678074956154809   8.085220585829878   0.685769374381508 0
ion C   7.007175797728255  20.216155157604103   0.619709324068161 0
ion C  -6.996748017889801  20.214440105700564   0.653094683289385 0
ion C   0.002354623270169   8.082966457809835   0.657418822396948 0
ion C  14.012576459862725   8.083203697825988   0.669712893069494 0
ion C   2.339067441062872  20.216465077180068   0.646220757178249 0
ion C  -4.663670527593792  16.172490992184059   0.678596642017759 0
ion C   2.336125814129785  12.127745765919109   0.656417500003109 0
ion C  -2.332224039758668  12.128030282589300   0.685859862245795 0
ion C  -2.329659352792410  20.215194179952768   0.659830322184195 0
ion C   4.673933801454849  16.177740252210711   0.625359734501050 0
ion C   0.002990588629148  16.174656174657997   0.666554428718456 0
ion C  14.008266720144102  21.561374576259517   0.629777200837147 0
ion C   2.338930816614256   1.348570645432834   0.632009758527847 0
ion C  25.677100562977380   1.348988124751942   0.641986895200073 0
ion C  16.342686998612663  17.520648868856785   0.642302048336074 0
ion C   4.672307145938162   5.388219921962990   0.616057256550324 0
ion C  21.010123495302889   1.349044430338556   0.652394834146865 0
ion C   7.005937845436384   1.348033936218268   0.628031389286509 0
ion C  11.674692189550257  17.521226022139913   0.612057705166649 0
ion C  23.343784883173043   5.390651685198355   0.669612389866280 0
ion C  18.676972543384359  13.478483594758318   0.675595907033575 0
ion C   7.004963348139576   9.432115986525980   0.597538283264729 0
ion C  16.342472076605748   1.348066366442404   0.659130179870282 0
ion C  11.673522256343780   1.347802312891912   0.646547034509048 0
ion C   9.340696631175403  13.481256291567631   0.599303874261302 0
ion C  21.010487586627971   9.434228317035956   0.689549670827176 0
ion C   9.340862584041272  21.562275316056120   0.623251203387415 0
ion C  -9.330262385564788  21.561165527783945   0.640491424243255 0
ion C   0.004476893676090   5.389148113018151   0.645932445799481 0
ion C  14.011432130181314  13.480719160062115   0.643556882023976 0
ion C   9.339051356617166   5.386992451363917   0.621078239496768 0
ion C  18.677007069088155   5.390558998944344   0.676741055188348 0
ion C  16.345725884609092   9.434637493571932   0.679131999516677 0
ion C  14.009428395823310   5.387478001177438   0.662736904438848 0
ion C   4.673293824799767  21.561882602550448   0.637519226383223 0
ion C  -6.996841473985326  17.520066852095106   0.666346621047357 0
ion C   2.337134667876788   9.428913976861832   0.643387178107247 0
ion C  -2.330217064543965   9.432650452790400   0.678563548363968 0
ion C  -4.663349535264295  21.561481505082671   0.652392573786173 0
ion C   7.008365318233412  17.523060541264897   0.607450639135720 0
ion C   0.004487123343837  21.561671103490092   0.654109318198199 0
ion C  -4.664147187494722  13.477588422800194   0.688047082736968 0
ion C   4.674619807111762  13.479414560663223   0.625188064189185 0
ion C   2.338448909138405  17.522455183042435   0.645633689115609 0
ion C  -2.330712054942804  17.520790606615741   0.670058696770369 0
ion C   0.000363098194401  13.478789474313889   0.675559226948007 0
ion N  11.674484029805171   9.432912355349794   0.644194404697448 0
ion S  -0.945076167896032  13.636406306082954   9.466849531096335 1
ion S   1.372116256050159  15.560023363975320  11.769398943791424 1
ion S   2.938831882566324  18.536810576848140  10.023607342652671 1
ion S   7.241719447314839  14.063315073529569   8.512825319181676 1
ion S   5.788378707190318  12.524803582875219  11.665385570227045 1
ion S   7.572288711892127  13.742629535100788  14.754442666147911 1
ion Na   2.646304411311224  15.102690658115851   5.929553238672332 1
ion Na   8.310039627821524  18.407722811556944  11.914356927512404 1
ion-species GBRV/$ID_pbe.uspp
ion-width Ecut
ionic-minimize  \
	dirUpdateScheme      FletcherReeves \
	linminMethod         DirUpdateRecommended \
	nIterations          200 \
	history              15 \
	knormThreshold       0.0001 \
	energyDiffThreshold  1e-06 \
	nEnergyDiff          2 \
	alphaTstart          1 \
	alphaTmin            1e-10 \
	updateTestStepSize   yes \
	alphaTreduceFactor   0.1 \
	alphaTincreaseFactor 3 \
	nAlphaAdjustMax      3 \
	wolfeEnergy          0.0001 \
	wolfeGradient        0.9 \
	fdTest               no
kpoint   0.000000000000   0.000000000000   0.000000000000  1.00000000000000
kpoint-folding 1 1 1 
latt-move-scale 1 1 1
latt-scale 1 1 1 
lattice Triclinic 28.0058 28.0058 37.7946 90 90 120
lattice-minimize  \
	dirUpdateScheme      L-BFGS \
	linminMethod         DirUpdateRecommended \
	nIterations          0 \
	history              15 \
	knormThreshold       0 \
	energyDiffThreshold  1e-06 \
	nEnergyDiff          2 \
	alphaTstart          1 \
	alphaTmin            1e-10 \
	updateTestStepSize   yes \
	alphaTreduceFactor   0.1 \
	alphaTincreaseFactor 3 \
	nAlphaAdjustMax      3 \
	wolfeEnergy          0.0001 \
	wolfeGradient        0.9 \
	fdTest               no
lcao-params -1 1e-06 0.01
pcm-variant GLSSA13
spintype no-spin
subspace-rotation-factor 1 yes
symmetries automatic
symmetry-threshold 0.0001
van-der-waals D3



---------- Setting up symmetries ----------

Found 24 point-group symmetries of the bravais lattice
Found 1 space-group symmetries with basis
Applied RMS atom displacement 0 bohrs to make symmetries exact.

---------- Initializing the Grid ----------
R = 
[      28.0058     -14.0029            0  ]
[            0      24.2537            0  ]
[            0            0      37.7946  ]
unit cell volume = 25671.8
G =
[   0.224353    0.12953         -0  ]
[          0   0.259061          0  ]
[          0         -0   0.166246  ]
Minimum fftbox size, Smin = [  128  128  172  ]
Chosen fftbox size, S = [  128  128  180  ]

---------- Initializing tighter grid for wavefunction operations ----------
R = 
[      28.0058     -14.0029            0  ]
[            0      24.2537            0  ]
[            0            0      37.7946  ]
unit cell volume = 25671.8
G =
[   0.224353    0.12953         -0  ]
[          0   0.259061          0  ]
[          0         -0   0.166246  ]
Minimum fftbox size, Smin = [  116  116  156  ]
Chosen fftbox size, S = [  120  120  160  ]

---------- Exchange Correlation functional ----------
Initalized PBE GGA exchange.
Initalized PBE GGA correlation.

---------- Setting up pseudopotentials ----------
Width of ionic core gaussian charges (only for fluid interactions / plotting) set to 0.397384

Reading pseudopotential file '/home/topper_group/jdftx_install/build/pseudopotentials/GBRV/c_pbe.uspp':
  Title: C.  Created by USPP 7.3.6 on 3-2-2014
  Reference state energy: -5.406344.  4 valence electrons in orbitals:
    |200>  occupation: 2  eigenvalue: -0.504890
    |210>  occupation: 2  eigenvalue: -0.194356
  lMax: 1  lLocal: 2  QijEcut: 5
  4 projectors sampled on a log grid with 503 points:
    l: 0  eig: -0.504890  rCut: 1.3
    l: 0  eig: 0.000000  rCut: 1.3
    l: 1  eig: -0.194357  rCut: 1.3
    l: 1  eig: 0.000000  rCut: 1.3
  Partial core density with radius 1.1
  Transforming core density to a uniform radial grid of dG=0.02 with 1625 points.
  Transforming local potential to a uniform radial grid of dG=0.02 with 1625 points.
  Transforming nonlocal projectors to a uniform radial grid of dG=0.02 with 432 points.
  Transforming density augmentations to a uniform radial grid of dG=0.02 with 1625 points.
  Transforming atomic orbitals to a uniform radial grid of dG=0.02 with 432 points.
  Core radius for overlap checks: 1.30 bohrs.

Reading pseudopotential file '/home/topper_group/jdftx_install/build/pseudopotentials/GBRV/n_pbe.uspp':
  Title: N.  Created by USPP 7.3.6 on 3-2-2014
  Reference state energy: -9.763716.  5 valence electrons in orbitals:
    |200>  occupation: 2  eigenvalue: -0.681964
    |210>  occupation: 3  eigenvalue: -0.260726
  lMax: 1  lLocal: 2  QijEcut: 6
  4 projectors sampled on a log grid with 491 points:
    l: 0  eig: -0.681964  rCut: 1.15
    l: 0  eig: 0.000000  rCut: 1.15
    l: 1  eig: -0.260729  rCut: 1.2
    l: 1  eig: 0.500000  rCut: 1.2
  Partial core density with radius 0.8
  Transforming core density to a uniform radial grid of dG=0.02 with 1625 points.
  Transforming local potential to a uniform radial grid of dG=0.02 with 1625 points.
  Transforming nonlocal projectors to a uniform radial grid of dG=0.02 with 432 points.
  Transforming density augmentations to a uniform radial grid of dG=0.02 with 1625 points.
  Transforming atomic orbitals to a uniform radial grid of dG=0.02 with 432 points.
  Core radius for overlap checks: 1.20 bohrs.

Reading pseudopotential file '/home/topper_group/jdftx_install/build/pseudopotentials/GBRV/s_pbe.uspp':
  Title: S.  Created by USPP 7.3.6 on 1-4-15
  Reference state energy: -11.898476.  6 valence electrons in orbitals:
    |300>  occupation: 2  eigenvalue: -0.634167
    |310>  occupation: 4  eigenvalue: -0.257568
  lMax: 2  lLocal: 3  QijEcut: 6
  6 projectors sampled on a log grid with 635 points:
    l: 0  eig: -0.634161  rCut: 1.5
    l: 0  eig: 1.500000  rCut: 1.5
    l: 1  eig: -0.257567  rCut: 1.5
    l: 1  eig: 1.500000  rCut: 1.5
    l: 2  eig: -1.000000  rCut: 1.5
    l: 2  eig: 1.500000  rCut: 1.5
  Partial core density with radius 1.15
  Transforming core density to a uniform radial grid of dG=0.02 with 1625 points.
  Transforming local potential to a uniform radial grid of dG=0.02 with 1625 points.
  Transforming nonlocal projectors to a uniform radial grid of dG=0.02 with 432 points.
  Transforming density augmentations to a uniform radial grid of dG=0.02 with 1625 points.
  Transforming atomic orbitals to a uniform radial grid of dG=0.02 with 432 points.
  Core radius for overlap checks: 1.50 bohrs.

Reading pseudopotential file '/home/topper_group/jdftx_install/build/pseudopotentials/GBRV/na_pbe.uspp':
  Title: Na.  Created by USPP 7.3.6 on 23-9-15
  Reference state energy: -47.625620.  9 valence electrons in orbitals:
    |200>  occupation: 2  eigenvalue: -2.085638
    |210>  occupation: 6  eigenvalue: -1.053708
    |300>  occupation: 1  eigenvalue: -0.100838
  lMax: 2  lLocal: 0  QijEcut: 6
  5 projectors sampled on a log grid with 657 points:
    l: 0  eig: -2.085640  rCut: 1.37
    l: 0  eig: -0.100839  rCut: 1.37
    l: 1  eig: -1.053708  rCut: 1.47
    l: 1  eig: 0.500000  rCut: 1.47
    l: 2  eig: 0.750000  rCut: 2
  Transforming local potential to a uniform radial grid of dG=0.02 with 1625 points.
  Transforming nonlocal projectors to a uniform radial grid of dG=0.02 with 432 points.
  Transforming density augmentations to a uniform radial grid of dG=0.02 with 1625 points.
  Transforming atomic orbitals to a uniform radial grid of dG=0.02 with 432 points.
  Core radius for overlap checks: 2.00 bohrs.

Initialized 4 species with 80 total atoms.

Folded 1 k-points by 1x1x1 to 1 k-points.

---------- Setting up k-points, bands, fillings ----------
No reducable k-points. 
Computing the number of bands and number of electrons
Calculating initial fillings.
nElectrons: 343.000000   nBands: 322   nStates: 1

----- Setting up reduced wavefunction bases (one per k-point) -----
average nbasis = 109673.000 , ideal nbasis = 109671.883

---------- Setting up coulomb interaction ----------
Fluid mode embedding: using embedded box, but periodic Coulomb kernel.
(Fluid response is responsible for (approximate) separation between periodic images.)
Setting up double-sized grid for truncated Coulomb potentials:
R = 
[      28.0058     -14.0029            0  ]
[            0      24.2537            0  ]
[            0            0      75.5892  ]
unit cell volume = 51343.6
G =
[   0.224353    0.12953         -0  ]
[          0   0.259061          0  ]
[          0         -0  0.0831228  ]
Chosen fftbox size, S = [  128  128  360  ]
Integer grid location selected as the embedding center:
   Grid: [  0  0  24  ]
   Lattice: [  0  0  0.132294  ]
   Cartesian: [  0  0  5  ]
Constructing Wigner-Seitz cell: 8 faces (6 quadrilaterals, 2 hexagons)
Range-separation parameter for embedded mesh potentials due to point charges: 0.590105 bohrs.

Initializing DFT-D3 calculator:
	Parameters set for gga-PBE functional
	s6:  1.000  s_r6:  1.217
	s8:  0.722  s_r8:  1.000
	Per-atom parameters loaded for:
	 C:  sqrtQ[a0]:  3.105  Rcov[a0]:  1.417  CN: [ 0.00 0.99 2.00 3.00 3.98 ]
	 N:  sqrtQ[a0]:  2.712  Rcov[a0]:  1.342  CN: [ 0.00 0.99 2.01 2.99 ]
	 S:  sqrtQ[a0]:  4.041  Rcov[a0]:  1.928  CN: [ 0.00 0.99 1.99 ]
	Na:  sqrtQ[a0]:  6.586  Rcov[a0]:  2.646  CN: [ 0.00 0.97 ]

---------- Setting up ewald sum ----------
Optimum gaussian width for ewald sums = 7.143162 bohr.
Real space sum over 405 unit cells with max indices [  4  4  2  ]
Reciprocal space sum over 7875 terms with max indices [  7  7  17  ]

Computing DFT-D3 correction:
# coordination-number C 3.300 3.300 3.301 3.301 3.301 3.301 3.301 3.300 3.300 3.301 3.301 3.303 3.301 3.300 3.307 3.301 3.300 3.301 3.301 3.297 3.297 3.300 3.297 3.296 3.300 3.304 3.300 3.301 3.296 3.315 3.302 3.451 3.307 3.302 3.567 3.478 3.300 3.301 3.301 3.301 3.301 3.301 3.301 3.301 3.300 3.300 3.287 3.300 3.300 3.289 3.300 3.301 3.301 3.301 3.286 3.287 3.300 3.286 3.286 3.303 3.301 3.306 3.301 3.301 3.317 3.303 3.302 3.508 3.548 3.310 3.440
# coordination-number N 3.209
# coordination-number S 1.998 2.982 2.774 2.812 2.790 1.915
# coordination-number Na 4.744 2.804
# diagonal-C6 C 24.28 24.28 24.28 24.27 24.28 24.27 24.28 24.28 24.28 24.27 24.28 24.25 24.28 24.28 24.21 24.28 24.28 24.28 24.28 24.31 24.31 24.28 24.31 24.32 24.28 24.24 24.28 24.27 24.32 24.13 24.27 22.38 24.22 24.26 20.69 21.97 24.28 24.28 24.28 24.28 24.28 24.28 24.27 24.27 24.28 24.28 24.40 24.28 24.28 24.39 24.28 24.27 24.28 24.28 24.41 24.41 24.28 24.42 24.41 24.25 24.28 24.23 24.27 24.27 24.11 24.26 24.27 21.53 20.95 24.19 22.53
# diagonal-C6 N 15.60
# diagonal-C6 S 125.90 125.81 125.81 125.81 125.81 125.98
# diagonal-C6 Na 186.11 186.11
EvdW_6 =   -0.062209
EvdW_8 =   -0.053660

---------- Allocating electronic variables ----------
Initializing wave functions:  linear combination of atomic orbitals
C pseudo-atom occupations:   s ( 2 )  p ( 2 )
N pseudo-atom occupations:   s ( 2 )  p ( 3 )
S pseudo-atom occupations:   s ( 2 )  p ( 4 )
Na pseudo-atom occupations:   s ( 2 1 )  p ( 6 )
	FillingsUpdate:  mu: -0.131165900  nElectrons: 343.000000
LCAOMinimize: Iter:   0  F: -567.1366135817285112  |grad|_K:  9.810e-03  alpha:  1.000e+00
	FillingsUpdate:  mu: -0.218119630  nElectrons: 343.000000
LCAOMinimize: Iter:   1  F: -567.8144908915855922  |grad|_K:  4.681e-03  alpha:  1.592e-01  linmin:  8.904e-02  cgtest: -7.705e-01  t[s]:    249.09
LCAOMinimize: 	Bad step direction: g.d > 0.
LCAOMinimize: 	Undoing step.
LCAOMinimize: 	Step failed: resetting search direction.
	FillingsUpdate:  mu: -0.218119630  nElectrons: 343.000000
LCAOMinimize: Iter:   2  F: -567.8144908915855922  |grad|_K:  4.681e-03  alpha:  0.000e+00
	FillingsUpdate:  mu: -0.220942313  nElectrons: 343.000000
LCAOMinimize: Iter:   3  F: -567.9804451104470218  |grad|_K:  9.675e-04  alpha:  1.157e-01  linmin:  2.468e-03  cgtest: -1.644e-01  t[s]:    406.57
	FillingsUpdate:  mu: -0.215787008  nElectrons: 343.000000
LCAOMinimize: Iter:   4  F: -567.9884383546697109  |grad|_K:  1.041e-03  alpha:  1.752e-01  linmin:  2.604e-02  cgtest:  3.696e-01  t[s]:    498.59
	FillingsUpdate:  mu: -0.218987979  nElectrons: 343.000000
LCAOMinimize: Iter:   5  F: -567.9940938773760308  |grad|_K:  4.136e-04  alpha:  1.130e-01  linmin:  5.031e-04  cgtest:  2.914e-01  t[s]:    590.65
	FillingsUpdate:  mu: -0.220853704  nElectrons: 343.000000
LCAOMinimize: Iter:   6  F: -567.9956346544781809  |grad|_K:  2.495e-04  alpha:  1.708e-01  linmin: -9.127e-03  cgtest:  1.427e-02  t[s]:    680.88
	FillingsUpdate:  mu: -0.220210316  nElectrons: 343.000000
LCAOMinimize: Iter:   7  F: -567.9966214893806864  |grad|_K:  2.273e-04  alpha:  2.999e-01  linmin:  2.783e-03  cgtest: -5.016e-02  t[s]:    773.45
	FillingsUpdate:  mu: -0.220176576  nElectrons: 343.000000
LCAOMinimize: Iter:   8  F: -567.9969804672308555  |grad|_K:  1.114e-04  alpha:  1.403e-01  linmin:  1.985e-03  cgtest:  9.951e-02  t[s]:    864.91
	FillingsUpdate:  mu: -0.220386325  nElectrons: 343.000000
LCAOMinimize: Iter:   9  F: -567.9971181155565318  |grad|_K:  3.945e-05  alpha:  2.148e-01  linmin:  2.283e-03  cgtest:  1.445e-02  t[s]:    955.49
	FillingsUpdate:  mu: -0.220347773  nElectrons: 343.000000
LCAOMinimize: Iter:  10  F: -567.9971323510461616  |grad|_K:  2.142e-05  alpha:  1.763e-01  linmin:  3.526e-04  cgtest:  1.073e-02  t[s]:   1046.29
	FillingsUpdate:  mu: -0.220383412  nElectrons: 343.000000
LCAOMinimize: Iter:  11  F: -567.9971354526564937  |grad|_K:  1.052e-05  alpha:  1.298e-01  linmin: -3.758e-05  cgtest: -1.792e-03  t[s]:   1136.97
	FillingsUpdate:  mu: -0.220443527  nElectrons: 343.000000
LCAOMinimize: Iter:  12  F: -567.9971371171551482  |grad|_K:  8.653e-06  alpha:  2.884e-01  linmin:  7.253e-05  cgtest: -2.219e-03  t[s]:   1229.15
	FillingsUpdate:  mu: -0.220436230  nElectrons: 343.000000
LCAOMinimize: Iter:  13  F: -567.9971380886196357  |grad|_K:  2.814e-06  alpha:  2.488e-01  linmin:  4.393e-06  cgtest:  3.374e-03  t[s]:   1321.14
	FillingsUpdate:  mu: -0.220442601  nElectrons: 343.000000
LCAOMinimize: Iter:  14  F: -567.9971381439311244  |grad|_K:  1.501e-06  alpha:  1.343e-01  linmin: -2.970e-04  cgtest:  1.418e-03  t[s]:   1413.60
LCAOMinimize: Converged (|Delta F|<1.000000e-06 for 2 iters).
----- createFluidSolver() ----- (Fluid-side solver setup)
   Initializing fluid molecule 'Glyme'
     Net charge: 0   dipole magnitude: 0
     Initializing spherical shell mfKernel with radius 0 Bohr
     deltaS corrections:

Correction to mu due to finite nuclear width = -0.00662838
   Cavity determined by nc: 8.36e-05 and sigma: 0.6
   Effective cavity tension: -8.03e-06 Eh/bohr^2 to account for cavitation and dispersion.


---- Citations for features of the code used in this run ----

   Software package:
      R. Sundararaman, K. Letchworth-Weaver, K.A. Schwarz, D. Gunceler, Y. Ozhabes and T.A. Arias, 'JDFTx: software for joint density-functional theory', SoftwareX 6, 278 (2017)

   gga-PBE exchange-correlation functional:
      J.P. Perdew, K. Burke and M. Ernzerhof, Phys. Rev. Lett. 77, 3865 (1996)

   Pseudopotentials:
      KF Garrity, JW Bennett, KM Rabe and D Vanderbilt, Comput. Mater. Sci. 81, 446 (2014)

   Truncated Coulomb potentials:
      R. Sundararaman and T.A. Arias, Phys. Rev. B 87, 165122 (2013)

   DFT-D3 dispersion correction:
      S. Grimme, J. Antony, S. Ehrlich and H. Krieg, J. Chem. Phys. 132, 154104 (2010)

   Linear/nonlinear dielectric/ionic fluid model with effective cavity tension:
      D. Gunceler, K. Letchworth-Weaver, R. Sundararaman, K.A. Schwarz and T.A. Arias, Modelling Simul. Mater. Sci. Eng. 21, 074005 (2013)

This list may not be complete. Please suggest additional citations or
report any other bugs at https://github.com/shankar1729/jdftx/issues

Initialization completed successfully at t[s]:   1439.61


Computing DFT-D3 correction:
# coordination-number C 3.300 3.300 3.301 3.301 3.301 3.301 3.301 3.300 3.300 3.301 3.301 3.303 3.301 3.300 3.307 3.301 3.300 3.301 3.301 3.297 3.297 3.300 3.297 3.296 3.300 3.304 3.300 3.301 3.296 3.315 3.302 3.451 3.307 3.302 3.567 3.478 3.300 3.301 3.301 3.301 3.301 3.301 3.301 3.301 3.300 3.300 3.287 3.300 3.300 3.289 3.300 3.301 3.301 3.301 3.286 3.287 3.300 3.286 3.286 3.303 3.301 3.306 3.301 3.301 3.317 3.303 3.302 3.508 3.548 3.310 3.440
# coordination-number N 3.209
# coordination-number S 1.998 2.982 2.774 2.812 2.790 1.915
# coordination-number Na 4.744 2.804
# diagonal-C6 C 24.28 24.28 24.28 24.27 24.28 24.27 24.28 24.28 24.28 24.27 24.28 24.25 24.28 24.28 24.21 24.28 24.28 24.28 24.28 24.31 24.31 24.28 24.31 24.32 24.28 24.24 24.28 24.27 24.32 24.13 24.27 22.38 24.22 24.26 20.69 21.97 24.28 24.28 24.28 24.28 24.28 24.28 24.27 24.27 24.28 24.28 24.40 24.28 24.28 24.39 24.28 24.27 24.28 24.28 24.41 24.41 24.28 24.42 24.41 24.25 24.28 24.23 24.27 24.27 24.11 24.26 24.27 21.53 20.95 24.19 22.53
# diagonal-C6 N 15.60
# diagonal-C6 S 125.90 125.81 125.81 125.81 125.81 125.98
# diagonal-C6 Na 186.11 186.11
EvdW_6 =   -0.062209
EvdW_8 =   -0.053660
Fluid solver invoked on fresh (random / LCAO) wavefunctions
Running a vacuum solve first:

-------- Initial electronic minimization -----------
Will mix electronic density at each iteration.
	FillingsUpdate:  mu: -0.220442601  nElectrons: 343.000000
	FillingsUpdate:  mu: -0.229080375  nElectrons: 343.000000
SCF: Cycle:  0   F: -571.660763510291645   dF: -3.664e+00   |Residual|: 9.887e-01   |deigs|: 1.274e-01  t[s]:   1702.36
	FillingsUpdate:  mu: -0.200472368  nElectrons: 343.000000
SCF: Cycle:  1   F: -572.351706749481536   dF: -6.909e-01   |Residual|: 5.007e-01   |deigs|: 3.381e-02  t[s]:   1919.12
	FillingsUpdate:  mu: -0.167673904  nElectrons: 343.000000
SCF: Cycle:  2   F: -572.604867678668370   dF: -2.532e-01   |Residual|: 1.150e-01   |deigs|: 3.370e-02  t[s]:   2134.29
	FillingsUpdate:  mu: -0.161523032  nElectrons: 343.000000
SCF: Cycle:  3   F: -572.641154589003236   dF: -3.629e-02   |Residual|: 7.038e-02   |deigs|: 6.734e-03  t[s]:   2348.03
	FillingsUpdate:  mu: -0.151869943  nElectrons: 343.000000
SCF: Cycle:  4   F: -572.661285863590933   dF: -2.013e-02   |Residual|: 3.655e-02   |deigs|: 9.175e-03  t[s]:   2563.02
	FillingsUpdate:  mu: -0.144463217  nElectrons: 343.000000
SCF: Cycle:  5   F: -572.671268840228663   dF: -9.983e-03   |Residual|: 2.546e-02   |deigs|: 7.032e-03  t[s]:   2780.89
	FillingsUpdate:  mu: -0.139452948  nElectrons: 343.000000
SCF: Cycle:  6   F: -572.677612336636003   dF: -6.343e-03   |Residual|: 1.730e-02   |deigs|: 4.934e-03  t[s]:   2993.64
	FillingsUpdate:  mu: -0.134341742  nElectrons: 343.000000
SCF: Cycle:  7   F: -572.681206612475989   dF: -3.594e-03   |Residual|: 1.171e-02   |deigs|: 5.899e-03  t[s]:   3195.30
	FillingsUpdate:  mu: -0.132943558  nElectrons: 343.000000
SCF: Cycle:  8   F: -572.682013709605712   dF: -8.071e-04   |Residual|: 9.171e-03   |deigs|: 1.670e-03  t[s]:   3384.17
	FillingsUpdate:  mu: -0.131340106  nElectrons: 343.000000
SCF: Cycle:  9   F: -572.682655747067997   dF: -6.420e-04   |Residual|: 6.767e-03   |deigs|: 1.789e-03  t[s]:   3579.83
	FillingsUpdate:  mu: -0.129426547  nElectrons: 343.000000
SCF: Cycle: 10   F: -572.682751790021030   dF: -9.604e-05   |Residual|: 6.156e-03   |deigs|: 1.673e-03  t[s]:   3770.68
	FillingsUpdate:  mu: -0.128078741  nElectrons: 343.000000
SCF: Cycle: 11   F: -572.682824290025337   dF: -7.250e-05   |Residual|: 4.654e-03   |deigs|: 1.137e-03  t[s]:   3956.87
	FillingsUpdate:  mu: -0.126033200  nElectrons: 343.000000
SCF: Cycle: 12   F: -572.682907441601060   dF: -8.315e-05   |Residual|: 3.882e-03   |deigs|: 1.939e-03  t[s]:   4142.63
	FillingsUpdate:  mu: -0.123081752  nElectrons: 343.000000
SCF: Cycle: 13   F: -572.683106612259394   dF: -1.992e-04   |Residual|: 3.435e-03   |deigs|: 3.326e-03  t[s]:   4329.60
	FillingsUpdate:  mu: -0.121300065  nElectrons: 343.000000
SCF: Cycle: 14   F: -572.683194213195407   dF: -8.760e-05   |Residual|: 3.021e-03   |deigs|: 2.134e-03  t[s]:   4517.08
	FillingsUpdate:  mu: -0.119051856  nElectrons: 343.000000
SCF: Cycle: 15   F: -572.683281613145482   dF: -8.740e-05   |Residual|: 2.381e-03   |deigs|: 2.040e-03  t[s]:   4705.73
	FillingsUpdate:  mu: -0.118252453  nElectrons: 343.000000
SCF: Cycle: 16   F: -572.683305899605216   dF: -2.429e-05   |Residual|: 1.976e-03   |deigs|: 8.200e-04  t[s]:   4892.73
	FillingsUpdate:  mu: -0.117029826  nElectrons: 343.000000
SCF: Cycle: 17   F: -572.683326818993805   dF: -2.092e-05   |Residual|: 1.395e-03   |deigs|: 1.197e-03  t[s]:   5079.23
	FillingsUpdate:  mu: -0.116461062  nElectrons: 343.000000
SCF: Cycle: 18   F: -572.683333690092354   dF: -6.871e-06   |Residual|: 9.350e-04   |deigs|: 9.229e-04  t[s]:   5266.43
	FillingsUpdate:  mu: -0.116078606  nElectrons: 343.000000
SCF: Cycle: 19   F: -572.683336404849683   dF: -2.715e-06   |Residual|: 6.435e-04   |deigs|: 7.648e-04  t[s]:   5453.71
	FillingsUpdate:  mu: -0.116062401  nElectrons: 343.000000
SCF: Cycle: 20   F: -572.683338973462924   dF: -2.569e-06   |Residual|: 3.665e-04   |deigs|: 4.688e-04  t[s]:   5642.36
	FillingsUpdate:  mu: -0.116048561  nElectrons: 343.000000
SCF: Cycle: 21   F: -572.683339603628497   dF: -6.302e-07   |Residual|: 2.615e-04   |deigs|: 2.464e-04  t[s]:   5830.24
	FillingsUpdate:  mu: -0.116084425  nElectrons: 343.000000
SCF: Cycle: 22   F: -572.683339870919212   dF: -2.673e-07   |Residual|: 1.777e-04   |deigs|: 1.633e-04  t[s]:   6016.98
	FillingsUpdate:  mu: -0.116079001  nElectrons: 343.000000
SCF: Cycle: 23   F: -572.683340107206050   dF: -2.363e-07   |Residual|: 1.093e-04   |deigs|: 1.643e-04  t[s]:   6204.77
	FillingsUpdate:  mu: -0.116077989  nElectrons: 343.000000
SCF: Cycle: 24   F: -572.683340411599943   dF: -3.044e-07   |Residual|: 8.627e-05   |deigs|: 1.221e-04  t[s]:   6391.21
	FillingsUpdate:  mu: -0.116070016  nElectrons: 343.000000
SCF: Cycle: 25   F: -572.683340674158330   dF: -2.626e-07   |Residual|: 7.154e-05   |deigs|: 2.207e-04  t[s]:   6578.98
	FillingsUpdate:  mu: -0.116061974  nElectrons: 343.000000
SCF: Cycle: 26   F: -572.683340833741568   dF: -1.596e-07   |Residual|: 4.800e-05   |deigs|: 2.039e-04  t[s]:   6764.85
	FillingsUpdate:  mu: -0.116049733  nElectrons: 343.000000
SCF: Cycle: 27   F: -572.683340887382997   dF: -5.364e-08   |Residual|: 3.214e-05   |deigs|: 1.828e-04  t[s]:   6950.72
	FillingsUpdate:  mu: -0.116056633  nElectrons: 343.000000
SCF: Cycle: 28   F: -572.683340920378669   dF: -3.300e-08   |Residual|: 1.913e-05   |deigs|: 1.110e-04  t[s]:   7138.40
	FillingsUpdate:  mu: -0.116067864  nElectrons: 343.000000
SCF: Cycle: 29   F: -572.683340932371948   dF: -1.199e-08   |Residual|: 1.474e-05   |deigs|: 2.600e-05  t[s]:   7327.17
	FillingsUpdate:  mu: -0.116071146  nElectrons: 343.000000
SCF: Cycle: 30   F: -572.683340943756320   dF: -1.138e-08   |Residual|: 1.148e-05   |deigs|: 3.140e-05  t[s]:   7526.53
	FillingsUpdate:  mu: -0.116068036  nElectrons: 343.000000
SCF: Cycle: 31   F: -572.683340950081288   dF: -6.325e-09   |Residual|: 9.057e-06   |deigs|: 6.109e-05  t[s]:   7712.35
	FillingsUpdate:  mu: -0.116066315  nElectrons: 343.000000
SCF: Cycle: 32   F: -572.683340954142295   dF: -4.061e-09   |Residual|: 7.075e-06   |deigs|: 3.279e-05  t[s]:   7896.85
SCF: Converged (|Delta E|<1.000000e-08 for 2 iters).

Setting wave functions to eigenvectors of Hamiltonian
Vacuum energy after initial minimize, F = -572.683340954142295


-------- Electronic minimization -----------
Will mix electronic density at each iteration.
	FillingsUpdate:  mu: -0.116066315  nElectrons: 343.000000
	Linear fluid (dielectric constant: 7.2) occupying 0.820608 of unit cell:	Completed after 14 iterations at t[s]:   7972.38
	FillingsUpdate:  mu: -0.120565847  nElectrons: 343.000000
	Linear fluid (dielectric constant: 7.2) occupying 0.821396 of unit cell:	Completed after 10 iterations at t[s]:   8219.06
SCF: Cycle:  0   F: -572.719046686365346   dF: -1.169e-03   |Residual|: 2.705e-02   |deigs|: 5.962e-03  t[s]:   8221.19
	Linear fluid (dielectric constant: 7.2) occupying 0.820780 of unit cell:	Completed after 10 iterations at t[s]:   8228.99
	FillingsUpdate:  mu: -0.120515762  nElectrons: 343.000000
	Linear fluid (dielectric constant: 7.2) occupying 0.821391 of unit cell:	Completed after 8 iterations at t[s]:   8441.94
SCF: Cycle:  1   F: -572.724720282606086   dF: -5.674e-03   |Residual|: 9.981e-03   |deigs|: 9.171e-04  t[s]:   8444.08
	Linear fluid (dielectric constant: 7.2) occupying 0.820783 of unit cell:	Completed after 9 iterations at t[s]:   8452.04
	FillingsUpdate:  mu: -0.120516530  nElectrons: 343.000000
	Linear fluid (dielectric constant: 7.2) occupying 0.821500 of unit cell:	Completed after 8 iterations at t[s]:   8649.99
SCF: Cycle:  2   F: -572.725256065711733   dF: -5.358e-04   |Residual|: 6.315e-03   |deigs|: 3.564e-04  t[s]:   8652.34
	Linear fluid (dielectric constant: 7.2) occupying 0.820604 of unit cell:	Completed after 8 iterations at t[s]:   8660.10
	FillingsUpdate:  mu: -0.120487172  nElectrons: 343.000000
	Linear fluid (dielectric constant: 7.2) occupying 0.821678 of unit cell:	Completed after 9 iterations at t[s]:   8884.21
SCF: Cycle:  3   F: -572.725786365358772   dF: -5.303e-04   |Residual|: 4.116e-03   |deigs|: 2.924e-04  t[s]:   8886.55
	Linear fluid (dielectric constant: 7.2) occupying 0.820297 of unit cell:	Completed after 8 iterations at t[s]:   8893.57
	FillingsUpdate:  mu: -0.120373833  nElectrons: 343.000000
	Linear fluid (dielectric constant: 7.2) occupying 0.821874 of unit cell:	Completed after 9 iterations at t[s]:   9118.24
SCF: Cycle:  4   F: -572.726465224882190   dF: -6.789e-04   |Residual|: 2.847e-03   |deigs|: 5.497e-04  t[s]:   9120.54
	Linear fluid (dielectric constant: 7.2) occupying 0.820353 of unit cell:	Completed after 7 iterations at t[s]:   9127.54
	FillingsUpdate:  mu: -0.120284248  nElectrons: 343.000000
	Linear fluid (dielectric constant: 7.2) occupying 0.821909 of unit cell:	Completed after 9 iterations at t[s]:   9350.26
SCF: Cycle:  5   F: -572.726725308238656   dF: -2.601e-04   |Residual|: 2.508e-03   |deigs|: 3.985e-04  t[s]:   9352.61
	Linear fluid (dielectric constant: 7.2) occupying 0.820831 of unit cell:	Completed after 6 iterations at t[s]:   9358.57
	FillingsUpdate:  mu: -0.120053272  nElectrons: 343.000000
	Linear fluid (dielectric constant: 7.2) occupying 0.821895 of unit cell:	Completed after 9 iterations at t[s]:   9581.62
SCF: Cycle:  6   F: -572.727129827433259   dF: -4.045e-04   |Residual|: 1.816e-03   |deigs|: 9.729e-04  t[s]:   9583.80
	Linear fluid (dielectric constant: 7.2) occupying 0.821160 of unit cell:	Completed after 7 iterations at t[s]:   9590.80
	FillingsUpdate:  mu: -0.119926531  nElectrons: 343.000000
	Linear fluid (dielectric constant: 7.2) occupying 0.821837 of unit cell:	Completed after 8 iterations at t[s]:   9814.39
SCF: Cycle:  7   F: -572.727289072742678   dF: -1.592e-04   |Residual|: 1.359e-03   |deigs|: 4.604e-04  t[s]:   9816.87
	Linear fluid (dielectric constant: 7.2) occupying 0.821215 of unit cell:	Completed after 7 iterations at t[s]:   9824.01
	FillingsUpdate:  mu: -0.119777222  nElectrons: 343.000000
	Linear fluid (dielectric constant: 7.2) occupying 0.821786 of unit cell:	Completed after 7 iterations at t[s]:  10047.32
SCF: Cycle:  8   F: -572.727390311578574   dF: -1.012e-04   |Residual|: 1.098e-03   |deigs|: 5.309e-04  t[s]:  10049.68
	Linear fluid (dielectric constant: 7.2) occupying 0.821267 of unit cell:	Completed after 7 iterations at t[s]:  10057.13
	FillingsUpdate:  mu: -0.119754844  nElectrons: 343.000000
	Linear fluid (dielectric constant: 7.2) occupying 0.821765 of unit cell:	Completed after 7 iterations at t[s]:  10250.09
SCF: Cycle:  9   F: -572.727402710809770   dF: -1.240e-05   |Residual|: 7.012e-04   |deigs|: 3.863e-04  t[s]:  10252.48
	Linear fluid (dielectric constant: 7.2) occupying 0.821527 of unit cell:	Completed after 7 iterations at t[s]:  10259.73
	FillingsUpdate:  mu: -0.119775225  nElectrons: 343.000000
	Linear fluid (dielectric constant: 7.2) occupying 0.821747 of unit cell:	Completed after 7 iterations at t[s]:  10451.05
SCF: Cycle: 10   F: -572.727407860588642   dF: -5.150e-06   |Residual|: 6.252e-04   |deigs|: 1.667e-04  t[s]:  10453.53
	Linear fluid (dielectric constant: 7.2) occupying 0.821656 of unit cell:	Completed after 6 iterations at t[s]:  10460.18
	FillingsUpdate:  mu: -0.119774789  nElectrons: 343.000000
	Linear fluid (dielectric constant: 7.2) occupying 0.821746 of unit cell:	Completed after 6 iterations at t[s]:  10650.80
SCF: Cycle: 11   F: -572.727411172599204   dF: -3.312e-06   |Residual|: 4.156e-04   |deigs|: 1.316e-04  t[s]:  10653.23
	Linear fluid (dielectric constant: 7.2) occupying 0.821731 of unit cell:	Completed after 6 iterations at t[s]:  10659.88
	FillingsUpdate:  mu: -0.119777506  nElectrons: 343.000000
	Linear fluid (dielectric constant: 7.2) occupying 0.821745 of unit cell:	Completed after 6 iterations at t[s]:  10850.44
SCF: Cycle: 12   F: -572.727412186049037   dF: -1.013e-06   |Residual|: 3.009e-04   |deigs|: 1.021e-04  t[s]:  10852.80
	Linear fluid (dielectric constant: 7.2) occupying 0.821791 of unit cell:	Completed after 7 iterations at t[s]:  10860.05
	FillingsUpdate:  mu: -0.119790653  nElectrons: 343.000000
	Linear fluid (dielectric constant: 7.2) occupying 0.821751 of unit cell:	Completed after 6 iterations at t[s]:  11051.29
SCF: Cycle: 13   F: -572.727412562256973   dF: -3.762e-07   |Residual|: 2.126e-04   |deigs|: 1.956e-04  t[s]:  11053.70
	Linear fluid (dielectric constant: 7.2) occupying 0.821786 of unit cell:	Completed after 5 iterations at t[s]:  11059.38
	FillingsUpdate:  mu: -0.119779637  nElectrons: 343.000000
	Linear fluid (dielectric constant: 7.2) occupying 0.821754 of unit cell:	Completed after 6 iterations at t[s]:  11249.00
SCF: Cycle: 14   F: -572.727413668074519   dF: -1.106e-06   |Residual|: 1.721e-04   |deigs|: 1.836e-04  t[s]:  11251.23
	Linear fluid (dielectric constant: 7.2) occupying 0.821764 of unit cell:	Completed after 6 iterations at t[s]:  11257.67
	FillingsUpdate:  mu: -0.119778414  nElectrons: 343.000000
	Linear fluid (dielectric constant: 7.2) occupying 0.821753 of unit cell:	Completed after 6 iterations at t[s]:  11448.25
SCF: Cycle: 15   F: -572.727413916256523   dF: -2.482e-07   |Residual|: 1.387e-04   |deigs|: 1.097e-04  t[s]:  11450.73
	Linear fluid (dielectric constant: 7.2) occupying 0.821744 of unit cell:	Completed after 5 iterations at t[s]:  11456.98
	FillingsUpdate:  mu: -0.119773985  nElectrons: 343.000000
	Linear fluid (dielectric constant: 7.2) occupying 0.821751 of unit cell:	Completed after 5 iterations at t[s]:  11648.19
SCF: Cycle: 16   F: -572.727414370641895   dF: -4.544e-07   |Residual|: 1.212e-04   |deigs|: 2.730e-04  t[s]:  11650.48
	Linear fluid (dielectric constant: 7.2) occupying 0.821735 of unit cell:	Completed after 5 iterations at t[s]:  11656.30
	FillingsUpdate:  mu: -0.119773081  nElectrons: 343.000000
	Linear fluid (dielectric constant: 7.2) occupying 0.821749 of unit cell:	Completed after 5 iterations at t[s]:  11846.17
SCF: Cycle: 17   F: -572.727414480468155   dF: -1.098e-07   |Residual|: 9.397e-05   |deigs|: 1.647e-04  t[s]:  11848.39
	Linear fluid (dielectric constant: 7.2) occupying 0.821748 of unit cell:	Completed after 3 iterations at t[s]:  11853.18
	FillingsUpdate:  mu: -0.119771863  nElectrons: 343.000000
	Linear fluid (dielectric constant: 7.2) occupying 0.821747 of unit cell:	Completed after 3 iterations at t[s]:  12073.12
SCF: Cycle: 18   F: -572.727414680597462   dF: -2.001e-07   |Residual|: 7.848e-05   |deigs|: 1.096e-04  t[s]:  12075.45
	Linear fluid (dielectric constant: 7.2) occupying 0.821747 of unit cell:	Completed after 3 iterations at t[s]:  12080.04
	FillingsUpdate:  mu: -0.119769391  nElectrons: 343.000000
	Linear fluid (dielectric constant: 7.2) occupying 0.821748 of unit cell:	Completed after 2 iterations at t[s]:  12268.20
SCF: Cycle: 19   F: -572.727414731531439   dF: -5.093e-08   |Residual|: 5.744e-05   |deigs|: 3.961e-05  t[s]:  12270.39
	Linear fluid (dielectric constant: 7.2) occupying 0.821747 of unit cell:	Completed after 2 iterations at t[s]:  12274.43
	FillingsUpdate:  mu: -0.119769634  nElectrons: 343.000000
	Linear fluid (dielectric constant: 7.2) occupying 0.821749 of unit cell:	Completed after 2 iterations at t[s]:  12462.84
SCF: Cycle: 20   F: -572.727414772949373   dF: -4.142e-08   |Residual|: 5.216e-05   |deigs|: 8.778e-05  t[s]:  12465.08
	Linear fluid (dielectric constant: 7.2) occupying 0.821750 of unit cell:	Completed after 2 iterations at t[s]:  12469.06
	FillingsUpdate:  mu: -0.119768392  nElectrons: 343.000000
	Linear fluid (dielectric constant: 7.2) occupying 0.821749 of unit cell:	Completed after 2 iterations at t[s]:  12656.31
SCF: Cycle: 21   F: -572.727414780654840   dF: -7.705e-09   |Residual|: 3.689e-05   |deigs|: 7.104e-05  t[s]:  12658.45
	Linear fluid (dielectric constant: 7.2) occupying 0.821749 of unit cell:	Completed after 1 iterations at t[s]:  12661.81
	FillingsUpdate:  mu: -0.119764713  nElectrons: 343.000000
	Linear fluid (dielectric constant: 7.2) occupying 0.821749 of unit cell:	Completed after 1 iterations at t[s]:  12849.40
SCF: Cycle: 22   F: -572.727414809977290   dF: -2.932e-08   |Residual|: 3.038e-05   |deigs|: 6.103e-05  t[s]:  12851.49
	Linear fluid (dielectric constant: 7.2) occupying 0.821751 of unit cell:	Completed after 1 iterations at t[s]:  12854.86
	FillingsUpdate:  mu: -0.119764302  nElectrons: 343.000000
	Linear fluid (dielectric constant: 7.2) occupying 0.821749 of unit cell:	Completed after 1 iterations at t[s]:  13042.76
SCF: Cycle: 23   F: -572.727414820050853   dF: -1.007e-08   |Residual|: 2.660e-05   |deigs|: 8.715e-05  t[s]:  13045.03
	Linear fluid (dielectric constant: 7.2) occupying 0.821753 of unit cell:	Completed after 1 iterations at t[s]:  13048.39
	FillingsUpdate:  mu: -0.119763857  nElectrons: 343.000000
	Linear fluid (dielectric constant: 7.2) occupying 0.821749 of unit cell:	Completed after 1 iterations at t[s]:  13237.62
SCF: Cycle: 24   F: -572.727414823161780   dF: -3.111e-09   |Residual|: 2.494e-05   |deigs|: 4.396e-05  t[s]:  13239.90
	Linear fluid (dielectric constant: 7.2) occupying 0.821752 of unit cell:	Completed after 1 iterations at t[s]:  13243.30
	FillingsUpdate:  mu: -0.119764186  nElectrons: 343.000000
	Linear fluid (dielectric constant: 7.2) occupying 0.821749 of unit cell:	Completed after 1 iterations at t[s]:  13443.95
SCF: Cycle: 25   F: -572.727414830104294   dF: -6.943e-09   |Residual|: 1.938e-05   |deigs|: 2.663e-05  t[s]:  13446.07
SCF: Converged (|Delta E|<1.000000e-08 for 2 iters).

Setting wave functions to eigenvectors of Hamiltonian
Single-point solvation energy estimate, DeltaF = -0.044073875961999

Computing DFT-D3 correction:
# coordination-number C 3.300 3.300 3.301 3.301 3.301 3.301 3.301 3.300 3.300 3.301 3.301 3.303 3.301 3.300 3.307 3.301 3.300 3.301 3.301 3.297 3.297 3.300 3.297 3.296 3.300 3.304 3.300 3.301 3.296 3.315 3.302 3.451 3.307 3.302 3.567 3.478 3.300 3.301 3.301 3.301 3.301 3.301 3.301 3.301 3.300 3.300 3.287 3.300 3.300 3.289 3.300 3.301 3.301 3.301 3.286 3.287 3.300 3.286 3.286 3.303 3.301 3.306 3.301 3.301 3.317 3.303 3.302 3.508 3.548 3.310 3.440
# coordination-number N 3.209
# coordination-number S 1.998 2.982 2.774 2.812 2.790 1.915
# coordination-number Na 4.744 2.804
# diagonal-C6 C 24.28 24.28 24.28 24.27 24.28 24.27 24.28 24.28 24.28 24.27 24.28 24.25 24.28 24.28 24.21 24.28 24.28 24.28 24.28 24.31 24.31 24.28 24.31 24.32 24.28 24.24 24.28 24.27 24.32 24.13 24.27 22.38 24.22 24.26 20.69 21.97 24.28 24.28 24.28 24.28 24.28 24.28 24.27 24.27 24.28 24.28 24.40 24.28 24.28 24.39 24.28 24.27 24.28 24.28 24.41 24.41 24.28 24.42 24.41 24.25 24.28 24.23 24.27 24.27 24.11 24.26 24.27 21.53 20.95 24.19 22.53
# diagonal-C6 N 15.60
# diagonal-C6 S 125.90 125.81 125.81 125.81 125.81 125.98
# diagonal-C6 Na 186.11 186.11
EvdW_6 =   -0.062209
EvdW_8 =   -0.053660

# Ionic positions in cartesian coordinates:
ion C  28.010542013705631   0.002014969601156   0.635465203747167 0
ion C  16.341968157882292  20.214705522223607   0.636370795694031 0
ion C   2.338532027351695   4.042411505399060   0.630361847754816 0
ion C  23.343313188735969   0.002278716019722   0.640022467239564 0
ion C   4.672620934470559   0.001554156700161   0.632050616002296 0
ion C  11.674116326115334  20.215100669694028   0.619847495055023 0
ion C  25.676530282256284   4.042904097616445   0.653564930084009 0
ion C  18.675851376129700  16.172910511284943   0.662695583431347 0
ion C   4.671777948336020   8.082036709586005   0.612564386226399 0
ion C  18.676336142016080   0.002101964498535   0.651180333522277 0
ion C   9.339850970925752   0.001738039847832   0.641511836963307 0
ion C   9.341212652353351  16.175613291750459   0.599279306155555 0
ion C  23.342941439729607   8.084920466015539   0.683240254571249 0
ion C  21.009110272076708  12.128959849493356   0.688453340004557 0
ion C   7.009085367604252  12.128528685817338   0.597262204671189 0
ion C  14.008105470077210   0.001988816408382   0.654008834012114 0
ion C  14.009120976896664  16.174984627607692   0.629938477890011 0
ion C   7.005550759074101   4.041176716120078   0.616350899393808 0
ion C  21.010101094155836   4.043302536041172   0.668670850704729 0
ion C  16.344445762465487  12.130683361169906   0.668518806438794 0
ion C   9.337643998902927   8.081728763982859   0.614931622729934 0
ion C  16.343783017314891   4.042062713362387   0.668836182024798 0
ion C  11.674085450205249   4.041278849785761   0.642196060576936 0
ion C  11.675597583834264  12.133622242506720   0.630068253549407 0
ion C  18.678074956154809   8.085220585829878   0.685769374381508 0
ion C   7.007175797728255  20.216155157604103   0.619709324068161 0
ion C  -6.996748017889801  20.214440105700564   0.653094683289385 0
ion C   0.002354623270169   8.082966457809835   0.657418822396948 0
ion C  14.012576459862725   8.083203697825988   0.669712893069494 0
ion C   2.339067441062872  20.216465077180068   0.646220757178249 0
ion C  -4.663670527593792  16.172490992184059   0.678596642017759 0
ion C   2.336125814129785  12.127745765919109   0.656417500003109 0
ion C  -2.332224039758668  12.128030282589300   0.685859862245795 0
ion C  -2.329659352792410  20.215194179952768   0.659830322184195 0
ion C   4.673933801454849  16.177740252210711   0.625359734501050 0
ion C   0.002990588629148  16.174656174657997   0.666554428718456 0
ion C  14.008266720144102  21.561374576259517   0.629777200837147 0
ion C   2.338930816614256   1.348570645432834   0.632009758527847 0
ion C  25.677100562977380   1.348988124751942   0.641986895200073 0
ion C  16.342686998612663  17.520648868856785   0.642302048336074 0
ion C   4.672307145938162   5.388219921962990   0.616057256550324 0
ion C  21.010123495302889   1.349044430338556   0.652394834146865 0
ion C   7.005937845436384   1.348033936218268   0.628031389286509 0
ion C  11.674692189550257  17.521226022139913   0.612057705166649 0
ion C  23.343784883173043   5.390651685198355   0.669612389866280 0
ion C  18.676972543384359  13.478483594758318   0.675595907033575 0
ion C   7.004963348139576   9.432115986525980   0.597538283264729 0
ion C  16.342472076605748   1.348066366442404   0.659130179870282 0
ion C  11.673522256343780   1.347802312891912   0.646547034509048 0
ion C   9.340696631175403  13.481256291567631   0.599303874261302 0
ion C  21.010487586627971   9.434228317035956   0.689549670827176 0
ion C   9.340862584041272  21.562275316056120   0.623251203387415 0
ion C  -9.330262385564788  21.561165527783945   0.640491424243255 0
ion C   0.004476893676090   5.389148113018151   0.645932445799481 0
ion C  14.011432130181314  13.480719160062115   0.643556882023976 0
ion C   9.339051356617166   5.386992451363917   0.621078239496768 0
ion C  18.677007069088155   5.390558998944344   0.676741055188348 0
ion C  16.345725884609092   9.434637493571932   0.679131999516677 0
ion C  14.009428395823310   5.387478001177438   0.662736904438848 0
ion C   4.673293824799767  21.561882602550448   0.637519226383223 0
ion C  -6.996841473985326  17.520066852095106   0.666346621047357 0
ion C   2.337134667876788   9.428913976861832   0.643387178107247 0
ion C  -2.330217064543965   9.432650452790400   0.678563548363968 0
ion C  -4.663349535264295  21.561481505082671   0.652392573786173 0
ion C   7.008365318233412  17.523060541264897   0.607450639135720 0
ion C   0.004487123343837  21.561671103490092   0.654109318198199 0
ion C  -4.664147187494722  13.477588422800194   0.688047082736968 0
ion C   4.674619807111762  13.479414560663223   0.625188064189185 0
ion C   2.338448909138405  17.522455183042435   0.645633689115609 0
ion C  -2.330712054942804  17.520790606615741   0.670058696770369 0
ion C   0.000363098194401  13.478789474313889   0.675559226948007 0
ion N  11.674484029805171   9.432912355349794   0.644194404697448 0
ion S  -0.945076167896032  13.636406306082954   9.466849531096335 1
ion S   1.372116256050159  15.560023363975320  11.769398943791424 1
ion S   2.938831882566324  18.536810576848140  10.023607342652671 1
ion S   7.241719447314839  14.063315073529569   8.512825319181676 1
ion S   5.788378707190318  12.524803582875219  11.665385570227045 1
ion S   7.572288711892127  13.742629535100788  14.754442666147911 1
ion Na   2.646304411311224  15.102690658115851   5.929553238672332 1
ion Na   8.310039627821524  18.407722811556944  11.914356927512404 1

# Forces in Cartesian coordinates:
force C  -0.000507515243448   0.000364654745521   0.000312295089292 0
force C  -0.000818112192009   0.000052279930321   0.000457184772487 0
force C  -0.000388620728605  -0.000066593563751   0.000459993723696 0
force C   0.000770224476016   0.000561426497078   0.000364609254174 0
force C  -0.000737472460329   0.000639729299386   0.000395281850078 0
force C   0.000233323227292   0.000275021051018   0.000409925070562 0
force C   0.000049869505731  -0.000639073896703   0.000399159302434 0
force C  -0.000106556910606   0.001735678689854   0.000315242484414 0
force C   0.001284362398398  -0.003532095455805   0.000628052179280 0
force C   0.000487342371845   0.000696980722125   0.000282919834661 0
force C  -0.001742395875900  -0.000908655388578   0.000339596185301 0
force C   0.004652325067692   0.000497897753674   0.000291031494027 0
force C  -0.000309944550850  -0.000331272571283   0.000005657593809 0
force C   0.001898542503198  -0.001012418445306  -0.000028196703402 0
force C  -0.005401297132189   0.003161687670648   0.000847300834765 0
force C   0.001966070126767  -0.000904925018478   0.000425410795089 0
force C  -0.004595007073110   0.000460257483755   0.000495536070871 0
force C  -0.003057150223810   0.003627729657647   0.000402038776957 0
force C   0.000274590143936   0.000014001940181   0.000243257320301 0
force C   0.005194464169154   0.002937112489068   0.000405294187576 0
force C   0.006138464881236   0.004259210928006   0.000750164786467 0
force C   0.003067701968686   0.003691445359107   0.000299755434707 0
force C   0.000282134414929  -0.005958830917357   0.000628278765967 0
force C   0.000027726527307  -0.006985753976503   0.000016905695104 0
force C  -0.001649224034163  -0.004091159067460   0.000088144104470 0
force C   0.001151711368066   0.000166174061863   0.000436872925324 0
force C  -0.001831990086221   0.000861073793089   0.000345111283039 0
force C   0.000971279182237  -0.000254480095783   0.000316327852711 0
force C  -0.006231479247944   0.003945032233020  -0.000462120371528 0
force C   0.001618565941735   0.002567463737488   0.000656077023639 0
force C   0.000073474456320  -0.000095357860910   0.000061992051767 0
force C  -0.000771056212701  -0.002078950274739  -0.000563849500957 0
force C  -0.000519590646281  -0.002302689795953   0.000438346403770 0
force C  -0.000009840597617  -0.000214959658090   0.000149979358699 0
force C   0.001537954926834   0.000648385231041   0.000065392429580 0
force C  -0.001692158315103   0.000085488262065   0.000177422148602 0
force C   0.000157842825142  -0.000195339585684   0.000466116120946 0
force C   0.000370063568479  -0.000127479778430   0.000460077200571 0
force C   0.000001543284354  -0.000104804348127   0.000544039273650 0
force C   0.001414555632280  -0.000963581714577   0.000529312190819 0
force C   0.000290934385083   0.000562232893652   0.000479161574461 0
force C  -0.000554150731021   0.000027604857175   0.000527997919369 0
force C   0.001706640325256  -0.000867512635420   0.000578727457803 0
force C   0.000098755212521  -0.000421123829949   0.000492702641812 0
force C  -0.000340229971991   0.000273752885631   0.000364915089964 0
force C  -0.004614835170607  -0.002767549810547   0.000231701028261 0
force C   0.010022142164712   0.002569622689310   0.000666107150253 0
force C  -0.001789779733137  -0.000681102233738   0.000348117047093 0
force C   0.000102172707336   0.005128869813813   0.000369790358423 0
force C   0.003174803675874  -0.011101806352670   0.000470369332360 0
force C  -0.000294274234850   0.001589851864521   0.000117645413232 0
force C  -0.000200388903634  -0.000376808516356   0.000531569852161 0
force C   0.001605147677577  -0.000758919071857   0.000515431915087 0
force C   0.000215484855482   0.000434375804236   0.000529503712731 0
force C  -0.003599040455650  -0.010447266662391   0.000420270262728 0
force C   0.007193077794756   0.007737818278058   0.000675531852056 0
force C  -0.000562317168217   0.000214047033470   0.000357910983365 0
force C  -0.010373696430588   0.002132832550099   0.000164750902642 0
force C  -0.007138347451647   0.007821750938550   0.000317541883641 0
force C  -0.001780851625028  -0.000504463940855   0.000453561581465 0
force C  -0.000251327911667  -0.001176220005118   0.000378255332059 0
force C   0.000241508096860   0.002181547381578   0.000450072941300 0
force C   0.000052072690911   0.001959985758723   0.000198185380360 0
force C   0.000934957809446   0.000968773768323   0.000493034348532 0
force C  -0.000445980355549  -0.000440489421431   0.000698193736204 0
force C  -0.000948080105964   0.001310582049178   0.000369575215427 0
force C  -0.001325402126676  -0.000050332380779   0.000149930476788 0
force C   0.004584689370677  -0.004879505643440  -0.000217219984798 0
force C   0.000116067753082  -0.000035237093797   0.000523574571703 0
force C  -0.000914762897123   0.000651851609864   0.000663224002822 0
force C   0.001459258265208  -0.001794121350354   0.000002589209306 0
force N   0.000029519446478   0.000257734426381   0.001201368447023 0
force S   0.000019020248703  -0.000203047959028  -0.000517749741696 1
force S  -0.000161178349970   0.000346754916254   0.000481987882233 1
force S  -0.000603866472065   0.000739324713940  -0.000342090484623 1
force S   0.000405197971911  -0.000810181429941  -0.001567181414058 1
force S   0.000019343684275  -0.000407054019969  -0.000497681930221 1
force S  -0.000307009431882  -0.000215371781489  -0.000169529753924 1
force Na   0.000191783621325  -0.000155774214490   0.001004218276355 1
force Na   0.000326455968393   0.000899446421116  -0.000119846742766 1

# Energy components:
   A_diel =       -0.0540392214734984
   Eewald =     4922.8259465701539739
       EH =     5374.9029645497839738
     Eloc =   -10916.2464120614386047
      Enl =      -74.3882374388470993
     EvdW =       -0.1158684763774242
      Exc =     -171.1032156487868008
 Exc_core =       13.0859897548593658
       KE =      278.4338259938918441
-------------------------------------
     Etot =     -572.6590459782350990
       TS =        0.0683688518692258
-------------------------------------
        F =     -572.7274148301042942

IonicMinimize: Iter:   0  F: -572.727414830104294  |grad|_K:  5.618e-04  alpha:  1.000e+00

#--- Lowdin population analysis ---
# oxidation-state C +0.039 +0.040 +0.040 +0.038 +0.040 +0.038 +0.040 +0.042 +0.041 +0.039 +0.043 +0.038 +0.041 +0.042 +0.043 +0.042 +0.041 +0.042 +0.039 +0.046 +0.142 +0.041 +0.046 +0.141 +0.041 +0.037 +0.042 +0.040 +0.141 +0.035 +0.041 +0.015 +0.039 +0.040 +0.007 +0.013 +0.039 +0.040 +0.036 +0.041 +0.040 +0.040 +0.042 +0.038 +0.041 +0.036 +0.029 +0.042 +0.036 +0.028 +0.042 +0.038 +0.039 +0.041 +0.029 +0.029 +0.039 +0.028 +0.028 +0.037 +0.040 +0.038 +0.039 +0.040 +0.034 +0.039 +0.040 +0.006 +0.006 +0.032 +0.015
# oxidation-state N +0.001
# oxidation-state S -0.405 +0.357 -0.393 -0.403 +0.365 -0.397
# oxidation-state Na +0.723 +0.839


Computing DFT-D3 correction:
# coordination-number C 3.300 3.300 3.301 3.301 3.301 3.301 3.301 3.300 3.300 3.301 3.301 3.303 3.301 3.300 3.307 3.301 3.300 3.301 3.301 3.297 3.297 3.300 3.297 3.296 3.300 3.304 3.300 3.301 3.296 3.315 3.302 3.451 3.307 3.302 3.567 3.478 3.300 3.301 3.301 3.301 3.301 3.301 3.301 3.301 3.300 3.300 3.287 3.300 3.300 3.289 3.300 3.301 3.301 3.301 3.286 3.287 3.300 3.286 3.286 3.303 3.301 3.306 3.301 3.301 3.317 3.303 3.302 3.507 3.547 3.310 3.440
# coordination-number N 3.209
# coordination-number S 1.998 2.982 2.773 2.811 2.789 1.914
# coordination-number Na 4.743 2.801
# diagonal-C6 C 24.28 24.28 24.28 24.27 24.28 24.27 24.28 24.28 24.28 24.27 24.28 24.25 24.28 24.28 24.21 24.28 24.28 24.28 24.28 24.31 24.31 24.28 24.31 24.32 24.28 24.24 24.28 24.27 24.32 24.13 24.27 22.38 24.22 24.26 20.69 21.97 24.28 24.28 24.28 24.28 24.28 24.28 24.27 24.27 24.28 24.28 24.40 24.28 24.28 24.39 24.28 24.27 24.28 24.28 24.41 24.41 24.28 24.42 24.41 24.25 24.28 24.23 24.27 24.27 24.11 24.26 24.27 21.53 20.96 24.19 22.54
# diagonal-C6 N 15.60
# diagonal-C6 S 125.90 125.81 125.81 125.81 125.81 125.98
# diagonal-C6 Na 186.11 186.11
EvdW_6 =   -0.062212
EvdW_8 =   -0.053664

-------- Electronic minimization -----------
Will mix electronic density at each iteration.
	FillingsUpdate:  mu: -0.119764186  nElectrons: 343.000000
	Linear fluid (dielectric constant: 7.2) occupying 0.821745 of unit cell:	Completed after 2 iterations at t[s]:  13621.71
	FillingsUpdate:  mu: -0.119761176  nElectrons: 343.000000
	Linear fluid (dielectric constant: 7.2) occupying 0.821743 of unit cell:	Completed after 2 iterations at t[s]:  13787.46
SCF: Cycle:  0   F: -572.727421894491954   dF: -3.175e-07   |Residual|: 3.014e-04   |deigs|: 4.794e-06  t[s]:  13789.52
	Linear fluid (dielectric constant: 7.2) occupying 0.821749 of unit cell:	Completed after 2 iterations at t[s]:  13793.05
	FillingsUpdate:  mu: -0.119762329  nElectrons: 343.000000
	Linear fluid (dielectric constant: 7.2) occupying 0.821743 of unit cell:	Completed after 1 iterations at t[s]:  13935.37
SCF: Cycle:  1   F: -572.727422121683730   dF: -2.272e-07   |Residual|: 1.165e-04   |deigs|: 4.872e-06  t[s]:  13937.61
	Linear fluid (dielectric constant: 7.2) occupying 0.821751 of unit cell:	Completed after 1 iterations at t[s]:  13940.64
	FillingsUpdate:  mu: -0.119764929  nElectrons: 343.000000
	Linear fluid (dielectric constant: 7.2) occupying 0.821743 of unit cell:	Completed after 1 iterations at t[s]:  14083.63
SCF: Cycle:  2   F: -572.727422149671838   dF: -2.799e-08   |Residual|: 4.648e-05   |deigs|: 4.581e-06  t[s]:  14085.91
	Linear fluid (dielectric constant: 7.2) occupying 0.821751 of unit cell:	Completed after 0 iterations at t[s]:  14088.56
	FillingsUpdate:  mu: -0.119765215  nElectrons: 343.000000
	Linear fluid (dielectric constant: 7.2) occupying 0.821744 of unit cell:	Completed after 1 iterations at t[s]:  14230.47
SCF: Cycle:  3   F: -572.727422148335449   dF: +1.336e-09   |Residual|: 3.074e-05   |deigs|: 3.759e-06  t[s]:  14232.82
	Linear fluid (dielectric constant: 7.2) occupying 0.821751 of unit cell:	Completed after 0 iterations at t[s]:  14235.62
	FillingsUpdate:  mu: -0.119765281  nElectrons: 343.000000
	Linear fluid (dielectric constant: 7.2) occupying 0.821744 of unit cell:	Completed after 1 iterations at t[s]:  14423.29
SCF: Cycle:  4   F: -572.727422136967562   dF: +1.137e-08   |Residual|: 4.682e-05   |deigs|: 3.149e-06  t[s]:  14425.57
	Linear fluid (dielectric constant: 7.2) occupying 0.821750 of unit cell:	Completed after 1 iterations at t[s]:  14429.00
	FillingsUpdate:  mu: -0.119764294  nElectrons: 343.000000
	Linear fluid (dielectric constant: 7.2) occupying 0.821744 of unit cell:	Completed after 1 iterations at t[s]:  14571.87
SCF: Cycle:  5   F: -572.727422148075448   dF: -1.111e-08   |Residual|: 2.340e-05   |deigs|: 3.986e-06  t[s]:  14574.38
	Linear fluid (dielectric constant: 7.2) occupying 0.821750 of unit cell:	Completed after 1 iterations at t[s]:  14577.86
	FillingsUpdate:  mu: -0.119765686  nElectrons: 343.000000
	Linear fluid (dielectric constant: 7.2) occupying 0.821744 of unit cell:	Completed after 0 iterations at t[s]:  14719.59
SCF: Cycle:  6   F: -572.727422155737258   dF: -7.662e-09   |Residual|: 1.164e-05   |deigs|: 1.883e-06  t[s]:  14721.97
	Linear fluid (dielectric constant: 7.2) occupying 0.821749 of unit cell:	Completed after 0 iterations at t[s]:  14724.96
	FillingsUpdate:  mu: -0.119765063  nElectrons: 343.000000
	Linear fluid (dielectric constant: 7.2) occupying 0.821744 of unit cell:	Completed after 0 iterations at t[s]:  14865.17
SCF: Cycle:  7   F: -572.727422155816043   dF: -7.878e-11   |Residual|: 1.601e-05   |deigs|: 4.428e-06  t[s]:  14867.59
SCF: Converged (|Delta E|<1.000000e-08 for 2 iters).

Setting wave functions to eigenvectors of Hamiltonian
IonicMinimize: 	Predicted alpha/alphaT>3.000000, increasing alphaT to 3.000000e+00.

Computing DFT-D3 correction:
# coordination-number C 3.300 3.300 3.301 3.301 3.301 3.301 3.301 3.300 3.300 3.301 3.301 3.303 3.301 3.300 3.307 3.301 3.300 3.301 3.301 3.297 3.297 3.300 3.297 3.296 3.300 3.304 3.300 3.301 3.296 3.315 3.302 3.450 3.307 3.302 3.566 3.477 3.300 3.301 3.301 3.301 3.301 3.301 3.301 3.301 3.300 3.300 3.287 3.300 3.300 3.289 3.300 3.301 3.301 3.301 3.286 3.287 3.300 3.286 3.286 3.303 3.301 3.306 3.301 3.301 3.317 3.303 3.302 3.507 3.547 3.310 3.439
# coordination-number N 3.209
# coordination-number S 1.998 2.981 2.772 2.809 2.787 1.913
# coordination-number Na 4.740 2.796
# diagonal-C6 C 24.28 24.28 24.28 24.27 24.28 24.27 24.28 24.28 24.28 24.27 24.28 24.25 24.28 24.28 24.21 24.28 24.28 24.28 24.28 24.31 24.31 24.28 24.31 24.32 24.28 24.24 24.28 24.27 24.32 24.13 24.27 22.39 24.22 24.26 20.71 21.98 24.28 24.28 24.28 24.28 24.28 24.28 24.27 24.27 24.28 24.28 24.40 24.28 24.28 24.39 24.28 24.27 24.28 24.28 24.41 24.41 24.28 24.42 24.41 24.25 24.28 24.23 24.27 24.27 24.11 24.26 24.27 21.54 20.97 24.19 22.54
# diagonal-C6 N 15.60
# diagonal-C6 S 125.90 125.81 125.81 125.81 125.81 125.99
# diagonal-C6 Na 186.11 186.11
EvdW_6 =   -0.062219
EvdW_8 =   -0.053673

-------- Electronic minimization -----------
Will mix electronic density at each iteration.
	FillingsUpdate:  mu: -0.119765063  nElectrons: 343.000000
	Linear fluid (dielectric constant: 7.2) occupying 0.821738 of unit cell:	Completed after 3 iterations at t[s]:  14959.96
	FillingsUpdate:  mu: -0.119765015  nElectrons: 343.000000
	Linear fluid (dielectric constant: 7.2) occupying 0.821736 of unit cell:	Completed after 2 iterations at t[s]:  15124.20
SCF: Cycle:  0   F: -572.727434455985644   dF: -1.276e-06   |Residual|: 6.002e-04   |deigs|: 1.395e-07  t[s]:  15126.41
	Linear fluid (dielectric constant: 7.2) occupying 0.821744 of unit cell:	Completed after 2 iterations at t[s]:  15129.84
	FillingsUpdate:  mu: -0.119766027  nElectrons: 343.000000
	Linear fluid (dielectric constant: 7.2) occupying 0.821734 of unit cell:	Completed after 2 iterations at t[s]:  15272.90
SCF: Cycle:  1   F: -572.727435323920190   dF: -8.679e-07   |Residual|: 2.397e-04   |deigs|: 6.229e-06  t[s]:  15274.98
	Linear fluid (dielectric constant: 7.2) occupying 0.821747 of unit cell:	Completed after 2 iterations at t[s]:  15278.76
	FillingsUpdate:  mu: -0.119766453  nElectrons: 343.000000
	Linear fluid (dielectric constant: 7.2) occupying 0.821735 of unit cell:	Completed after 1 iterations at t[s]:  15420.72
SCF: Cycle:  2   F: -572.727435418990126   dF: -9.507e-08   |Residual|: 1.026e-04   |deigs|: 6.153e-06  t[s]:  15423.06
	Linear fluid (dielectric constant: 7.2) occupying 0.821748 of unit cell:	Completed after 1 iterations at t[s]:  15426.16
	FillingsUpdate:  mu: -0.119769433  nElectrons: 343.000000
	Linear fluid (dielectric constant: 7.2) occupying 0.821735 of unit cell:	Completed after 0 iterations at t[s]:  15568.18
SCF: Cycle:  3   F: -572.727435440993531   dF: -2.200e-08   |Residual|: 3.863e-05   |deigs|: 6.980e-06  t[s]:  15570.43
	Linear fluid (dielectric constant: 7.2) occupying 0.821746 of unit cell:	Completed after 0 iterations at t[s]:  15573.29
	FillingsUpdate:  mu: -0.119769395  nElectrons: 343.000000
	Linear fluid (dielectric constant: 7.2) occupying 0.821736 of unit cell:	Completed after 0 iterations at t[s]:  15713.31
SCF: Cycle:  4   F: -572.727435441559010   dF: -5.655e-10   |Residual|: 2.020e-05   |deigs|: 7.279e-06  t[s]:  15715.56
	Linear fluid (dielectric constant: 7.2) occupying 0.821745 of unit cell:	Completed after 0 iterations at t[s]:  15718.33
	FillingsUpdate:  mu: -0.119769896  nElectrons: 343.000000
	Linear fluid (dielectric constant: 7.2) occupying 0.821736 of unit cell:	Completed after 0 iterations at t[s]:  15921.29
SCF: Cycle:  5   F: -572.727435444694834   dF: -3.136e-09   |Residual|: 1.511e-05   |deigs|: 3.961e-06  t[s]:  15923.66
SCF: Converged (|Delta E|<1.000000e-08 for 2 iters).

Setting wave functions to eigenvectors of Hamiltonian
IonicMinimize: 	Predicted alpha/alphaT>3.000000, increasing alphaT to 9.000000e+00.

Computing DFT-D3 correction:
# coordination-number C 3.300 3.300 3.301 3.301 3.301 3.301 3.301 3.300 3.300 3.301 3.301 3.303 3.301 3.300 3.307 3.301 3.300 3.301 3.301 3.297 3.297 3.300 3.297 3.296 3.300 3.304 3.300 3.301 3.296 3.315 3.302 3.449 3.307 3.302 3.563 3.475 3.300 3.301 3.301 3.301 3.301 3.301 3.301 3.301 3.300 3.300 3.287 3.300 3.300 3.289 3.300 3.301 3.301 3.301 3.286 3.287 3.300 3.286 3.286 3.303 3.301 3.306 3.301 3.301 3.317 3.303 3.302 3.505 3.544 3.310 3.438
# coordination-number N 3.209
# coordination-number S 1.999 2.980 2.768 2.801 2.782 1.910
# coordination-number Na 4.734 2.779
# diagonal-C6 C 24.28 24.28 24.28 24.27 24.28 24.27 24.28 24.28 24.28 24.27 24.28 24.25 24.28 24.28 24.21 24.28 24.28 24.28 24.28 24.31 24.31 24.28 24.31 24.32 24.28 24.24 24.28 24.27 24.32 24.13 24.27 22.41 24.22 24.26 20.74 22.01 24.28 24.28 24.28 24.28 24.28 24.28 24.27 24.27 24.28 24.28 24.40 24.28 24.28 24.39 24.28 24.27 24.28 24.28 24.41 24.41 24.28 24.42 24.41 24.25 24.28 24.23 24.27 24.27 24.12 24.26 24.27 21.57 21.01 24.19 22.57
# diagonal-C6 N 15.60
# diagonal-C6 S 125.90 125.81 125.81 125.81 125.81 125.99
# diagonal-C6 Na 186.11 186.11
EvdW_6 =   -0.062238
EvdW_8 =   -0.053700

-------- Electronic minimization -----------
Will mix electronic density at each iteration.
	FillingsUpdate:  mu: -0.119769896  nElectrons: 343.000000
	Linear fluid (dielectric constant: 7.2) occupying 0.821717 of unit cell:	Completed after 4 iterations at t[s]:  16016.77
	FillingsUpdate:  mu: -0.119757923  nElectrons: 343.000000
	Linear fluid (dielectric constant: 7.2) occupying 0.821708 of unit cell:	Completed after 4 iterations at t[s]:  16225.68
SCF: Cycle:  0   F: -572.727457238412399   dF: -1.287e-05   |Residual|: 1.783e-03   |deigs|: 5.754e-07  t[s]:  16227.82
	Linear fluid (dielectric constant: 7.2) occupying 0.821736 of unit cell:	Completed after 4 iterations at t[s]:  16232.28
	FillingsUpdate:  mu: -0.119766133  nElectrons: 343.000000
	Linear fluid (dielectric constant: 7.2) occupying 0.821707 of unit cell:	Completed after 4 iterations at t[s]:  16374.86
SCF: Cycle:  1   F: -572.727463653086261   dF: -6.415e-06   |Residual|: 7.269e-04   |deigs|: 2.271e-05  t[s]:  16377.02
	Linear fluid (dielectric constant: 7.2) occupying 0.821748 of unit cell:	Completed after 4 iterations at t[s]:  16381.98
	FillingsUpdate:  mu: -0.119770192  nElectrons: 343.000000
	Linear fluid (dielectric constant: 7.2) occupying 0.821708 of unit cell:	Completed after 3 iterations at t[s]:  16524.41
SCF: Cycle:  2   F: -572.727464440378299   dF: -7.873e-07   |Residual|: 2.660e-04   |deigs|: 2.025e-05  t[s]:  16526.60
	Linear fluid (dielectric constant: 7.2) occupying 0.821750 of unit cell:	Completed after 3 iterations at t[s]:  16531.03
	FillingsUpdate:  mu: -0.119775050  nElectrons: 343.000000
	Linear fluid (dielectric constant: 7.2) occupying 0.821709 of unit cell:	Completed after 2 iterations at t[s]:  16673.36
SCF: Cycle:  3   F: -572.727464582483890   dF: -1.421e-07   |Residual|: 1.059e-04   |deigs|: 2.499e-05  t[s]:  16675.65
	Linear fluid (dielectric constant: 7.2) occupying 0.821745 of unit cell:	Completed after 2 iterations at t[s]:  16679.77
	FillingsUpdate:  mu: -0.119775156  nElectrons: 343.000000
	Linear fluid (dielectric constant: 7.2) occupying 0.821710 of unit cell:	Completed after 2 iterations at t[s]:  16821.72
SCF: Cycle:  4   F: -572.727464628798202   dF: -4.631e-08   |Residual|: 5.189e-05   |deigs|: 3.325e-05  t[s]:  16824.07
	Linear fluid (dielectric constant: 7.2) occupying 0.821733 of unit cell:	Completed after 2 iterations at t[s]:  16828.06
	FillingsUpdate:  mu: -0.119779006  nElectrons: 343.000000
	Linear fluid (dielectric constant: 7.2) occupying 0.821711 of unit cell:	Completed after 2 iterations at t[s]:  17014.90
SCF: Cycle:  5   F: -572.727464642423456   dF: -1.363e-08   |Residual|: 3.600e-05   |deigs|: 4.015e-05  t[s]:  17017.16
	Linear fluid (dielectric constant: 7.2) occupying 0.821727 of unit cell:	Completed after 2 iterations at t[s]:  17021.18
	FillingsUpdate:  mu: -0.119780637  nElectrons: 343.000000
	Linear fluid (dielectric constant: 7.2) occupying 0.821711 of unit cell:	Completed after 2 iterations at t[s]:  17209.58
SCF: Cycle:  6   F: -572.727464654137066   dF: -1.171e-08   |Residual|: 3.226e-05   |deigs|: 1.695e-05  t[s]:  17211.97
	Linear fluid (dielectric constant: 7.2) occupying 0.821710 of unit cell:	Completed after 1 iterations at t[s]:  17215.61
	FillingsUpdate:  mu: -0.119787891  nElectrons: 343.000000
	Linear fluid (dielectric constant: 7.2) occupying 0.821712 of unit cell:	Completed after 1 iterations at t[s]:  17403.33
SCF: Cycle:  7   F: -572.727464675027591   dF: -2.089e-08   |Residual|: 3.611e-05   |deigs|: 3.690e-05  t[s]:  17405.77
	Linear fluid (dielectric constant: 7.2) occupying 0.821708 of unit cell:	Completed after 1 iterations at t[s]:  17409.19
	FillingsUpdate:  mu: -0.119787996  nElectrons: 343.000000
	Linear fluid (dielectric constant: 7.2) occupying 0.821712 of unit cell:	Completed after 1 iterations at t[s]:  17595.75
SCF: Cycle:  8   F: -572.727464678969795   dF: -3.942e-09   |Residual|: 1.737e-05   |deigs|: 5.113e-06  t[s]:  17598.19
	Linear fluid (dielectric constant: 7.2) occupying 0.821702 of unit cell:	Completed after 1 iterations at t[s]:  17601.80
	FillingsUpdate:  mu: -0.119788978  nElectrons: 343.000000
	Linear fluid (dielectric constant: 7.2) occupying 0.821712 of unit cell:	Completed after 1 iterations at t[s]:  17789.35
SCF: Cycle:  9   F: -572.727464680888943   dF: -1.919e-09   |Residual|: 2.586e-05   |deigs|: 1.268e-05  t[s]:  17791.68
SCF: Converged (|Delta E|<1.000000e-08 for 2 iters).

Setting wave functions to eigenvectors of Hamiltonian

Computing DFT-D3 correction:
# coordination-number C 3.300 3.300 3.301 3.301 3.301 3.301 3.301 3.300 3.300 3.301 3.301 3.303 3.301 3.300 3.307 3.301 3.300 3.301 3.301 3.297 3.297 3.300 3.297 3.296 3.300 3.304 3.300 3.301 3.296 3.315 3.302 3.447 3.306 3.302 3.560 3.472 3.300 3.301 3.301 3.301 3.301 3.301 3.301 3.301 3.300 3.300 3.287 3.300 3.300 3.289 3.300 3.301 3.301 3.301 3.286 3.287 3.300 3.286 3.286 3.303 3.301 3.306 3.301 3.301 3.317 3.303 3.302 3.502 3.540 3.310 3.436
# coordination-number N 3.209
# coordination-number S 2.000 2.978 2.763 2.792 2.775 1.905
# coordination-number Na 4.726 2.757
# diagonal-C6 C 24.28 24.28 24.28 24.27 24.28 24.27 24.28 24.28 24.28 24.27 24.28 24.25 24.28 24.28 24.21 24.28 24.28 24.28 24.28 24.31 24.31 24.28 24.31 24.32 24.28 24.24 24.28 24.27 24.32 24.14 24.27 22.44 24.22 24.26 20.79 22.05 24.28 24.28 24.28 24.28 24.28 24.28 24.27 24.27 24.28 24.28 24.40 24.28 24.28 24.39 24.28 24.27 24.28 24.28 24.41 24.41 24.28 24.42 24.41 24.25 24.28 24.23 24.27 24.27 24.12 24.26 24.27 21.61 21.06 24.19 22.59
# diagonal-C6 N 15.60
# diagonal-C6 S 125.90 125.81 125.81 125.81 125.81 126.00
# diagonal-C6 Na 186.11 186.11
EvdW_6 =   -0.062264
EvdW_8 =   -0.053735

-------- Electronic minimization -----------
Will mix electronic density at each iteration.
	FillingsUpdate:  mu: -0.119788978  nElectrons: 343.000000
	Linear fluid (dielectric constant: 7.2) occupying 0.821687 of unit cell:	Completed after 4 iterations at t[s]:  17885.01
	FillingsUpdate:  mu: -0.119772771  nElectrons: 343.000000
	Linear fluid (dielectric constant: 7.2) occupying 0.821674 of unit cell:	Completed after 5 iterations at t[s]:  18099.71
SCF: Cycle:  0   F: -572.727466871736510   dF: -2.142e-05   |Residual|: 2.289e-03   |deigs|: 3.709e-06  t[s]:  18101.91
	Linear fluid (dielectric constant: 7.2) occupying 0.821711 of unit cell:	Completed after 4 iterations at t[s]:  18106.55
	FillingsUpdate:  mu: -0.119782223  nElectrons: 343.000000
	Linear fluid (dielectric constant: 7.2) occupying 0.821674 of unit cell:	Completed after 4 iterations at t[s]:  18250.37
SCF: Cycle:  1   F: -572.727477390136869   dF: -1.052e-05   |Residual|: 9.424e-04   |deigs|: 2.872e-05  t[s]:  18252.39
	Linear fluid (dielectric constant: 7.2) occupying 0.821726 of unit cell:	Completed after 4 iterations at t[s]:  18257.15
	FillingsUpdate:  mu: -0.119787729  nElectrons: 343.000000
	Linear fluid (dielectric constant: 7.2) occupying 0.821675 of unit cell:	Completed after 3 iterations at t[s]:  18401.02
SCF: Cycle:  2   F: -572.727478672516895   dF: -1.282e-06   |Residual|: 3.482e-04   |deigs|: 2.660e-05  t[s]:  18403.05
	Linear fluid (dielectric constant: 7.2) occupying 0.821730 of unit cell:	Completed after 3 iterations at t[s]:  18407.31
	FillingsUpdate:  mu: -0.119793941  nElectrons: 343.000000
	Linear fluid (dielectric constant: 7.2) occupying 0.821677 of unit cell:	Completed after 3 iterations at t[s]:  18550.21
SCF: Cycle:  3   F: -572.727478904692703   dF: -2.322e-07   |Residual|: 1.365e-04   |deigs|: 3.278e-05  t[s]:  18552.19
	Linear fluid (dielectric constant: 7.2) occupying 0.821723 of unit cell:	Completed after 3 iterations at t[s]:  18556.52
	FillingsUpdate:  mu: -0.119797627  nElectrons: 343.000000
	Linear fluid (dielectric constant: 7.2) occupying 0.821678 of unit cell:	Completed after 3 iterations at t[s]:  18698.02
SCF: Cycle:  4   F: -572.727478946903034   dF: -4.221e-08   |Residual|: 6.356e-05   |deigs|: 3.986e-05  t[s]:  18700.35
	Linear fluid (dielectric constant: 7.2) occupying 0.821710 of unit cell:	Completed after 2 iterations at t[s]:  18704.17
	FillingsUpdate:  mu: -0.119797909  nElectrons: 343.000000
	Linear fluid (dielectric constant: 7.2) occupying 0.821679 of unit cell:	Completed after 2 iterations at t[s]:  18891.01
SCF: Cycle:  5   F: -572.727479013576385   dF: -6.667e-08   |Residual|: 4.223e-05   |deigs|: 4.582e-05  t[s]:  18893.20
	Linear fluid (dielectric constant: 7.2) occupying 0.821695 of unit cell:	Completed after 2 iterations at t[s]:  18897.01
	FillingsUpdate:  mu: -0.119802414  nElectrons: 343.000000
	Linear fluid (dielectric constant: 7.2) occupying 0.821680 of unit cell:	Completed after 2 iterations at t[s]:  19083.31
SCF: Cycle:  6   F: -572.727479035987017   dF: -2.241e-08   |Residual|: 3.030e-05   |deigs|: 3.592e-05  t[s]:  19085.60
	Linear fluid (dielectric constant: 7.2) occupying 0.821682 of unit cell:	Completed after 2 iterations at t[s]:  19089.35
	FillingsUpdate:  mu: -0.119805384  nElectrons: 343.000000
	Linear fluid (dielectric constant: 7.2) occupying 0.821680 of unit cell:	Completed after 2 iterations at t[s]:  19278.04
SCF: Cycle:  7   F: -572.727479043010931   dF: -7.024e-09   |Residual|: 2.901e-05   |deigs|: 2.144e-05  t[s]:  19280.44
	Linear fluid (dielectric constant: 7.2) occupying 0.821672 of unit cell:	Completed after 2 iterations at t[s]:  19284.45
	FillingsUpdate:  mu: -0.119807783  nElectrons: 343.000000
	Linear fluid (dielectric constant: 7.2) occupying 0.821680 of unit cell:	Completed after 1 iterations at t[s]:  19471.11
SCF: Cycle:  8   F: -572.727479056234415   dF: -1.322e-08   |Residual|: 2.311e-05   |deigs|: 1.329e-05  t[s]:  19473.40
	Linear fluid (dielectric constant: 7.2) occupying 0.821663 of unit cell:	Completed after 1 iterations at t[s]:  19476.91
	FillingsUpdate:  mu: -0.119813169  nElectrons: 343.000000
	Linear fluid (dielectric constant: 7.2) occupying 0.821680 of unit cell:	Completed after 1 iterations at t[s]:  19663.16
SCF: Cycle:  9   F: -572.727479065222724   dF: -8.988e-09   |Residual|: 2.159e-05   |deigs|: 2.811e-05  t[s]:  19665.61
	Linear fluid (dielectric constant: 7.2) occupying 0.821665 of unit cell:	Completed after 0 iterations at t[s]:  19668.57
	FillingsUpdate:  mu: -0.119810034  nElectrons: 343.000000
	Linear fluid (dielectric constant: 7.2) occupying 0.821680 of unit cell:	Completed after 1 iterations at t[s]:  19855.93
SCF: Cycle: 10   F: -572.727479062978432   dF: +2.244e-09   |Residual|: 2.574e-05   |deigs|: 1.243e-05  t[s]:  19858.26
	Linear fluid (dielectric constant: 7.2) occupying 0.821665 of unit cell:	Completed after 1 iterations at t[s]:  19861.78
	FillingsUpdate:  mu: -0.119813676  nElectrons: 343.000000
	Linear fluid (dielectric constant: 7.2) occupying 0.821679 of unit cell:	Completed after 0 iterations at t[s]:  20050.27
SCF: Cycle: 11   F: -572.727479072830533   dF: -9.852e-09   |Residual|: 1.761e-05   |deigs|: 2.083e-05  t[s]:  20052.59
	Linear fluid (dielectric constant: 7.2) occupying 0.821670 of unit cell:	Completed after 0 iterations at t[s]:  20055.64
	FillingsUpdate:  mu: -0.119812503  nElectrons: 343.000000
	Linear fluid (dielectric constant: 7.2) occupying 0.821679 of unit cell:	Completed after 0 iterations at t[s]:  20242.95
SCF: Cycle: 12   F: -572.727479076426107   dF: -3.596e-09   |Residual|: 1.373e-05   |deigs|: 3.233e-05  t[s]:  20245.20
SCF: Converged (|Delta E|<1.000000e-08 for 2 iters).

Setting wave functions to eigenvectors of Hamiltonian

Computing DFT-D3 correction:
# coordination-number C 3.300 3.300 3.301 3.301 3.301 3.301 3.301 3.300 3.300 3.301 3.301 3.303 3.301 3.300 3.307 3.301 3.300 3.301 3.301 3.297 3.297 3.300 3.297 3.296 3.300 3.304 3.300 3.301 3.296 3.315 3.302 3.447 3.306 3.302 3.560 3.472 3.300 3.301 3.301 3.301 3.301 3.301 3.301 3.301 3.300 3.300 3.287 3.300 3.300 3.289 3.300 3.301 3.301 3.301 3.286 3.287 3.300 3.286 3.286 3.303 3.301 3.306 3.301 3.301 3.317 3.303 3.302 3.502 3.540 3.310 3.436
# coordination-number N 3.209
# coordination-number S 2.000 2.978 2.763 2.792 2.775 1.905
# coordination-number Na 4.726 2.757
# diagonal-C6 C 24.28 24.28 24.28 24.27 24.28 24.27 24.28 24.28 24.28 24.27 24.28 24.25 24.28 24.28 24.21 24.28 24.28 24.28 24.28 24.31 24.31 24.28 24.31 24.32 24.28 24.24 24.28 24.27 24.32 24.14 24.27 22.44 24.22 24.26 20.79 22.05 24.28 24.28 24.28 24.28 24.28 24.28 24.27 24.27 24.28 24.28 24.40 24.28 24.28 24.39 24.28 24.27 24.28 24.28 24.41 24.41 24.28 24.42 24.41 24.25 24.28 24.23 24.27 24.27 24.12 24.26 24.27 21.61 21.06 24.19 22.59
# diagonal-C6 N 15.60
# diagonal-C6 S 125.90 125.81 125.81 125.81 125.81 126.00
# diagonal-C6 Na 186.11 186.11
EvdW_6 =   -0.062264
EvdW_8 =   -0.053735

# Ionic positions in cartesian coordinates:
ion C  28.010542013705631   0.002014969601156   0.635465203747167 0
ion C  16.341968157882292  20.214705522223607   0.636370795694031 0
ion C   2.338532027351695   4.042411505399060   0.630361847754816 0
ion C  23.343313188735969   0.002278716019722   0.640022467239564 0
ion C   4.672620934470559   0.001554156700161   0.632050616002296 0
ion C  11.674116326115334  20.215100669694028   0.619847495055023 0
ion C  25.676530282256284   4.042904097616445   0.653564930084009 0
ion C  18.675851376129700  16.172910511284943   0.662695583431347 0
ion C   4.671777948336020   8.082036709586005   0.612564386226399 0
ion C  18.676336142016080   0.002101964498535   0.651180333522277 0
ion C   9.339850970925752   0.001738039847832   0.641511836963307 0
ion C   9.341212652353351  16.175613291750459   0.599279306155555 0
ion C  23.342941439729607   8.084920466015539   0.683240254571249 0
ion C  21.009110272076708  12.128959849493356   0.688453340004557 0
ion C   7.009085367604252  12.128528685817338   0.597262204671189 0
ion C  14.008105470077210   0.001988816408382   0.654008834012114 0
ion C  14.009120976896664  16.174984627607692   0.629938477890011 0
ion C   7.005550759074101   4.041176716120078   0.616350899393808 0
ion C  21.010101094155836   4.043302536041172   0.668670850704729 0
ion C  16.344445762465487  12.130683361169906   0.668518806438794 0
ion C   9.337643998902927   8.081728763982859   0.614931622729934 0
ion C  16.343783017314891   4.042062713362387   0.668836182024798 0
[...]
SCF: Converged (|Delta E|<1.000000e-08 for 2 iters).

Setting wave functions to eigenvectors of Hamiltonian

Computing DFT-D3 correction:
# coordination-number C 3.300 3.301 3.301 3.301 3.301 3.301 3.301 3.300 3.300 3.301 3.301 3.303 3.301 3.300 3.302 3.301 3.300 3.301 3.301 3.297 3.297 3.300 3.297 3.297 3.300 3.304 3.301 3.301 3.296 3.319 3.305 3.376 3.315 3.306 3.384 3.699 3.301 3.301 3.301 3.301 3.300 3.301 3.301 3.301 3.300 3.300 3.286 3.301 3.301 3.289 3.300 3.302 3.301 3.301 3.286 3.287 3.300 3.286 3.286 3.303 3.301 3.303 3.302 3.301 3.308 3.305 3.304 3.351 3.542 3.338 3.529
# coordination-number N 3.209
# coordination-number S 1.999 2.991 2.790 2.776 2.767 1.897
# coordination-number Na 4.690 2.760
# diagonal-C6 C 24.28 24.28 24.28 24.27 24.28 24.27 24.28 24.28 24.28 24.27 24.27 24.25 24.28 24.28 24.27 24.27 24.28 24.28 24.28 24.31 24.31 24.28 24.31 24.32 24.28 24.25 24.28 24.27 24.32 24.10 24.23 23.42 24.13 24.23 23.32 19.32 24.28 24.28 24.28 24.28 24.28 24.28 24.27 24.27 24.28 24.28 24.41 24.28 24.28 24.38 24.28 24.27 24.28 24.28 24.41 24.41 24.28 24.42 24.41 24.25 24.27 24.26 24.27 24.27 24.20 24.24 24.24 23.74 21.03 23.89 21.22
# diagonal-C6 N 15.60
# diagonal-C6 S 125.90 125.81 125.81 125.81 125.81 126.01
# diagonal-C6 Na 186.11 186.11
EvdW_6 =   -0.063703
EvdW_8 =   -0.055715

-------- Electronic minimization -----------
Will mix electronic density at each iteration.
	FillingsUpdate:  mu: -0.120224995  nElectrons: 343.000000
	Linear fluid (dielectric constant: 7.2) occupying 0.823179 of unit cell:	Completed after 4 iterations at t[s]: 833976.14
	FillingsUpdate:  mu: -0.120229023  nElectrons: 343.000000
	Linear fluid (dielectric constant: 7.2) occupying 0.823180 of unit cell:	Completed after 4 iterations at t[s]: 834190.64
SCF: Cycle:  0   F: -572.729144639522701   dF: -1.599e-05   |Residual|: 1.969e-03   |deigs|: 2.202e-06  t[s]: 834192.73
	Linear fluid (dielectric constant: 7.2) occupying 0.823191 of unit cell:	Completed after 4 iterations at t[s]: 834197.74
	FillingsUpdate:  mu: -0.120223834  nElectrons: 343.000000
	Linear fluid (dielectric constant: 7.2) occupying 0.823180 of unit cell:	Completed after 3 iterations at t[s]: 834341.44
SCF: Cycle:  1   F: -572.729154576778569   dF: -9.937e-06   |Residual|: 7.677e-04   |deigs|: 1.822e-05  t[s]: 834343.69
	Linear fluid (dielectric constant: 7.2) occupying 0.823193 of unit cell:	Completed after 2 iterations at t[s]: 834347.32
	FillingsUpdate:  mu: -0.120224583  nElectrons: 343.000000
	Linear fluid (dielectric constant: 7.2) occupying 0.823180 of unit cell:	Completed after 2 iterations at t[s]: 834489.80
SCF: Cycle:  2   F: -572.729155468407384   dF: -8.916e-07   |Residual|: 2.979e-04   |deigs|: 1.024e-05  t[s]: 834492.14
	Linear fluid (dielectric constant: 7.2) occupying 0.823193 of unit cell:	Completed after 2 iterations at t[s]: 834496.29
	FillingsUpdate:  mu: -0.120223589  nElectrons: 343.000000
	Linear fluid (dielectric constant: 7.2) occupying 0.823180 of unit cell:	Completed after 2 iterations at t[s]: 834638.17
SCF: Cycle:  3   F: -572.729155600210788   dF: -1.318e-07   |Residual|: 1.216e-04   |deigs|: 8.937e-06  t[s]: 834640.66
	Linear fluid (dielectric constant: 7.2) occupying 0.823192 of unit cell:	Completed after 2 iterations at t[s]: 834644.54
	FillingsUpdate:  mu: -0.120223445  nElectrons: 343.000000
	Linear fluid (dielectric constant: 7.2) occupying 0.823181 of unit cell:	Completed after 2 iterations at t[s]: 834787.11
SCF: Cycle:  4   F: -572.729155635713369   dF: -3.550e-08   |Residual|: 5.180e-05   |deigs|: 8.841e-06  t[s]: 834789.41
	Linear fluid (dielectric constant: 7.2) occupying 0.823189 of unit cell:	Completed after 1 iterations at t[s]: 834792.78
	FillingsUpdate:  mu: -0.120222728  nElectrons: 343.000000
	Linear fluid (dielectric constant: 7.2) occupying 0.823181 of unit cell:	Completed after 1 iterations at t[s]: 834979.43
SCF: Cycle:  5   F: -572.729155665991584   dF: -3.028e-08   |Residual|: 3.390e-05   |deigs|: 9.264e-06  t[s]: 834981.73
	Linear fluid (dielectric constant: 7.2) occupying 0.823185 of unit cell:	Completed after 1 iterations at t[s]: 834985.10
	FillingsUpdate:  mu: -0.120223658  nElectrons: 343.000000
	Linear fluid (dielectric constant: 7.2) occupying 0.823182 of unit cell:	Completed after 1 iterations at t[s]: 835171.42
SCF: Cycle:  6   F: -572.729155679410155   dF: -1.342e-08   |Residual|: 3.401e-05   |deigs|: 6.917e-06  t[s]: 835173.81
	Linear fluid (dielectric constant: 7.2) occupying 0.823183 of unit cell:	Completed after 1 iterations at t[s]: 835177.47
	FillingsUpdate:  mu: -0.120224143  nElectrons: 343.000000
	Linear fluid (dielectric constant: 7.2) occupying 0.823182 of unit cell:	Completed after 1 iterations at t[s]: 835364.50
SCF: Cycle:  7   F: -572.729155692581571   dF: -1.317e-08   |Residual|: 1.861e-05   |deigs|: 3.368e-06  t[s]: 835366.97
	Linear fluid (dielectric constant: 7.2) occupying 0.823181 of unit cell:	Completed after 1 iterations at t[s]: 835370.72
	FillingsUpdate:  mu: -0.120224504  nElectrons: 343.000000
	Linear fluid (dielectric constant: 7.2) occupying 0.823182 of unit cell:	Completed after 1 iterations at t[s]: 835559.92
SCF: Cycle:  8   F: -572.729155698665409   dF: -6.084e-09   |Residual|: 2.673e-05   |deigs|: 3.351e-06  t[s]: 835562.42
	Linear fluid (dielectric constant: 7.2) occupying 0.823178 of unit cell:	Completed after 0 iterations at t[s]: 835565.45
	FillingsUpdate:  mu: -0.120225598  nElectrons: 343.000000
	Linear fluid (dielectric constant: 7.2) occupying 0.823182 of unit cell:	Completed after 1 iterations at t[s]: 835777.33
SCF: Cycle:  9   F: -572.729155703733795   dF: -5.068e-09   |Residual|: 2.944e-05   |deigs|: 9.777e-06  t[s]: 835779.72
SCF: Converged (|Delta E|<1.000000e-08 for 2 iters).

Setting wave functions to eigenvectors of Hamiltonian

Computing DFT-D3 correction:
# coordination-number C 3.300 3.301 3.301 3.301 3.301 3.301 3.301 3.300 3.300 3.301 3.301 3.303 3.301 3.300 3.302 3.301 3.300 3.301 3.301 3.297 3.297 3.300 3.297 3.297 3.300 3.304 3.301 3.301 3.296 3.319 3.305 3.376 3.315 3.306 3.384 3.699 3.301 3.301 3.301 3.301 3.300 3.301 3.301 3.301 3.300 3.300 3.286 3.301 3.301 3.289 3.300 3.302 3.301 3.301 3.286 3.287 3.300 3.286 3.286 3.303 3.301 3.303 3.302 3.301 3.308 3.305 3.304 3.351 3.542 3.338 3.529
# coordination-number N 3.209
# coordination-number S 1.999 2.991 2.790 2.776 2.767 1.897
# coordination-number Na 4.690 2.760
# diagonal-C6 C 24.28 24.28 24.28 24.27 24.28 24.27 24.28 24.28 24.28 24.27 24.27 24.25 24.28 24.28 24.27 24.27 24.28 24.28 24.28 24.31 24.31 24.28 24.31 24.32 24.28 24.25 24.28 24.27 24.32 24.10 24.23 23.42 24.13 24.23 23.32 19.32 24.28 24.28 24.28 24.28 24.28 24.28 24.27 24.27 24.28 24.28 24.41 24.28 24.28 24.38 24.28 24.27 24.28 24.28 24.41 24.41 24.28 24.42 24.41 24.25 24.27 24.26 24.27 24.27 24.20 24.24 24.24 23.74 21.03 23.89 21.22
# diagonal-C6 N 15.60
# diagonal-C6 S 125.90 125.81 125.81 125.81 125.81 126.01
# diagonal-C6 Na 186.11 186.11
EvdW_6 =   -0.063703
EvdW_8 =   -0.055715

# Ionic positions in cartesian coordinates:
ion C  28.010542013705631   0.002014969601156   0.635465203747167 0
ion C  16.341968157882292  20.214705522223607   0.636370795694031 0
ion C   2.338532027351695   4.042411505399060   0.630361847754816 0
ion C  23.343313188735969   0.002278716019722   0.640022467239564 0
ion C   4.672620934470559   0.001554156700161   0.632050616002296 0
ion C  11.674116326115334  20.215100669694028   0.619847495055023 0
ion C  25.676530282256284   4.042904097616445   0.653564930084009 0
ion C  18.675851376129700  16.172910511284943   0.662695583431347 0
ion C   4.671777948336020   8.082036709586005   0.612564386226399 0
ion C  18.676336142016080   0.002101964498535   0.651180333522277 0
ion C   9.339850970925752   0.001738039847832   0.641511836963307 0
ion C   9.341212652353351  16.175613291750459   0.599279306155555 0
ion C  23.342941439729607   8.084920466015539   0.683240254571249 0
ion C  21.009110272076708  12.128959849493356   0.688453340004557 0
ion C   7.009085367604252  12.128528685817338   0.597262204671189 0
ion C  14.008105470077210   0.001988816408382   0.654008834012114 0
ion C  14.009120976896664  16.174984627607692   0.629938477890011 0
ion C   7.005550759074101   4.041176716120078   0.616350899393808 0
ion C  21.010101094155836   4.043302536041172   0.668670850704729 0
ion C  16.344445762465487  12.130683361169906   0.668518806438794 0
ion C   9.337643998902927   8.081728763982859   0.614931622729934 0
ion C  16.343783017314891   4.042062713362387   0.668836182024798 0
ion C  11.674085450205249   4.041278849785761   0.642196060576936 0
ion C  11.675597583834264  12.133622242506720   0.630068253549407 0
ion C  18.678074956154809   8.085220585829878   0.685769374381508 0
ion C   7.007175797728255  20.216155157604103   0.619709324068161 0
ion C  -6.996748017889801  20.214440105700564   0.653094683289385 0
ion C   0.002354623270169   8.082966457809835   0.657418822396948 0
ion C  14.012576459862725   8.083203697825988   0.669712893069494 0
ion C   2.339067441062872  20.216465077180068   0.646220757178249 0
ion C  -4.663670527593792  16.172490992184059   0.678596642017759 0
ion C   2.336125814129785  12.127745765919109   0.656417500003109 0
ion C  -2.332224039758668  12.128030282589300   0.685859862245795 0
ion C  -2.329659352792410  20.215194179952768   0.659830322184195 0
ion C   4.673933801454849  16.177740252210711   0.625359734501050 0
ion C   0.002990588629148  16.174656174657997   0.666554428718456 0
ion C  14.008266720144102  21.561374576259517   0.629777200837147 0
ion C   2.338930816614256   1.348570645432834   0.632009758527847 0
ion C  25.677100562977380   1.348988124751942   0.641986895200073 0
ion C  16.342686998612663  17.520648868856785   0.642302048336074 0
ion C   4.672307145938162   5.388219921962990   0.616057256550324 0
ion C  21.010123495302889   1.349044430338556   0.652394834146865 0
ion C   7.005937845436384   1.348033936218268   0.628031389286509 0
ion C  11.674692189550257  17.521226022139913   0.612057705166649 0
ion C  23.343784883173043   5.390651685198355   0.669612389866280 0
ion C  18.676972543384359  13.478483594758318   0.675595907033575 0
ion C   7.004963348139576   9.432115986525980   0.597538283264729 0
ion C  16.342472076605748   1.348066366442404   0.659130179870282 0
ion C  11.673522256343780   1.347802312891912   0.646547034509048 0
ion C   9.340696631175403  13.481256291567631   0.599303874261302 0
ion C  21.010487586627971   9.434228317035956   0.689549670827176 0
ion C   9.340862584041272  21.562275316056120   0.623251203387415 0
ion C  -9.330262385564788  21.561165527783945   0.640491424243255 0
ion C   0.004476893676090   5.389148113018151   0.645932445799481 0
ion C  14.011432130181314  13.480719160062115   0.643556882023976 0
ion C   9.339051356617166   5.386992451363917   0.621078239496768 0
ion C  18.677007069088155   5.390558998944344   0.676741055188348 0
ion C  16.345725884609092   9.434637493571932   0.679131999516677 0
ion C  14.009428395823310   5.387478001177438   0.662736904438848 0
ion C   4.673293824799767  21.561882602550448   0.637519226383223 0
ion C  -6.996841473985326  17.520066852095106   0.666346621047357 0
ion C   2.337134667876788   9.428913976861832   0.643387178107247 0
ion C  -2.330217064543965   9.432650452790400   0.678563548363968 0
ion C  -4.663349535264295  21.561481505082671   0.652392573786173 0
ion C   7.008365318233412  17.523060541264897   0.607450639135720 0
ion C   0.004487123343837  21.561671103490092   0.654109318198199 0
ion C  -4.664147187494722  13.477588422800194   0.688047082736968 0
ion C   4.674619807111762  13.479414560663223   0.625188064189185 0
ion C   2.338448909138405  17.522455183042435   0.645633689115609 0
ion C  -2.330712054942804  17.520790606615741   0.670058696770369 0
ion C   0.000363098194401  13.478789474313889   0.675559226948007 0
ion N  11.674484029805171   9.432912355349794   0.644194404697448 0
ion S  -1.084505346076014  13.844836700148587  10.365061630943462 1
ion S   1.775035682299341  15.754731342348251  11.963386599148491 1
ion S   2.743685652484988  18.807505195864977   9.923051955196199 1
ion S   6.433749236600177  14.214499366311955   7.072654799860686 1
ion S   5.953373890436120  12.700426869500735  10.517259668587981 1
ion S   8.598686445603466  13.868706067399080  12.930227875520702 1
ion Na   1.338801556483494  15.479123396680471   6.016784199264813 1
ion Na   8.396065787559520  18.640992315480716  10.100626619941004 1

# Forces in Cartesian coordinates:
force C  -0.000381524587384   0.000327319195917   0.000314189142902 0
force C  -0.000790012582460   0.000009511586844   0.000463411669897 0
force C  -0.000270935663483  -0.000058562369112   0.000460858340180 0
force C   0.000792777374486   0.000597761326197   0.000377252774724 0
force C  -0.000666853320775   0.000659359566105   0.000397796698026 0
force C   0.000307623583637   0.000148126423287   0.000432543734434 0
force C   0.000090913673691  -0.000662331013369   0.000401167381355 0
force C  -0.000118668310503   0.001747166847725   0.000311331636621 0
force C   0.001422919440306  -0.003298174674710   0.000821532201841 0
force C   0.000414438974481   0.000695262929635   0.000265189746014 0
force C  -0.001764969242604  -0.000899419343150   0.000332768450043 0
force C   0.004499566148372   0.000292927782129   0.000218701880482 0
force C  -0.000383499347546  -0.000320035914998   0.000017195378928 0
force C   0.001786374884548  -0.000965433623831   0.000035291281517 0
force C  -0.006297948621493   0.003511653709686   0.000372701774906 0
force C   0.001810902123502  -0.000913657462618   0.000456621313532 0
force C  -0.004620822721362   0.000378366248871   0.000496402376980 0
force C  -0.003026160398497   0.003688847712719   0.000403075860256 0
force C   0.000246011952805   0.000063388797307   0.000250064998104 0
force C   0.005158572700150   0.002947088042072   0.000412087004796 0
force C   0.005968804496485   0.004479925171962   0.000829622407159 0
force C   0.002972542057848   0.003651149713325   0.000305439994452 0
force C   0.000213255255603  -0.005949231776331   0.000630024857535 0
force C  -0.000311913930392  -0.006921286381853   0.000012964739768 0
force C  -0.001642260344574  -0.004022239636348   0.000093235142506 0
force C   0.001085778414750  -0.000007477516383   0.000497200922765 0
force C  -0.001828544133925   0.000900725201328   0.000348516206268 0
force C   0.001076621389800  -0.000311153262894   0.000293641030001 0
force C  -0.006245908702957   0.003908989131559  -0.000461567421896 0
force C   0.001623832609018   0.002252639209058   0.000645303932912 0
force C  -0.000251013466072  -0.000095658516844  -0.000014070202065 0
force C   0.000963407903620  -0.001630010861540  -0.000775167664825 0
force C  -0.000819806614133  -0.002535792763041   0.000363291404126 0
force C  -0.000098113152166   0.000046695009013   0.000126955388726 0
force C   0.001482006987725  -0.000627192664713  -0.000203689304246 0
force C  -0.000931477272487   0.000359386971019   0.000528428527115 0
force C   0.000161097723941  -0.000102226516843   0.000472573809068 0
force C   0.000283740831940  -0.000111211838726   0.000462771391690 0
force C  -0.000044224494936  -0.000023719269769   0.000549393278718 0
force C   0.001437236599891  -0.000959294394557   0.000530727534097 0
force C   0.000260398706244   0.000601060808130   0.000461699729333 0
force C  -0.000569408671625   0.000051272588870   0.000537324129577 0
force C   0.001696708927243  -0.000896700017152   0.000578136164327 0
force C  -0.000037390795393  -0.000510418520206   0.000507774307352 0
force C  -0.000361779028120   0.000280142151289   0.000364276516168 0
force C  -0.004587385891542  -0.002818360540817   0.000226765095590 0
force C   0.009948061275315   0.002903836921987   0.000618626655299 0
force C  -0.001701112697968  -0.000619227588692   0.000349526383437 0
force C   0.000174938433573   0.005129722170200   0.000378683573544 0
force C   0.003060026673377  -0.011085115458697   0.000251854278240 0
force C  -0.000303058185668   0.001481219783371   0.000117304530987 0
force C  -0.000382551290878  -0.000381440166104   0.000560613905643 0
force C   0.001613289515357  -0.000755039439522   0.000526413246744 0
force C   0.000134801701554   0.000511936480023   0.000552763956437 0
force C  -0.003543918422278  -0.010453753885940   0.000423796241875 0
force C   0.007217424857789   0.007638630618280   0.000696909482650 0
force C  -0.000494442511368   0.000188653896680   0.000362491540951 0
force C  -0.010399575100846   0.002130717104479   0.000170292829759 0
force C  -0.007099986281607   0.007875224676552   0.000326515417036 0
force C  -0.001571415604038  -0.000567718061820   0.000579365851568 0
force C  -0.000337744293766  -0.001109445731534   0.000397768278364 0
force C   0.000305799161831   0.002854083716919   0.000485321829982 0
force C   0.000120777473854   0.001724702211072   0.000155604289890 0
force C   0.000829425063258   0.001023213340854   0.000505389679118 0
force C  -0.001303183486619  -0.000990905236852   0.000589940541262 0
force C  -0.000858075665194   0.001546530173724   0.000366046367835 0
force C  -0.001615574924034  -0.000204595918387   0.000031744818119 0
force C   0.003963283138431  -0.004155581209703  -0.000995884809240 0
force C   0.002055958585280  -0.000182881864999   0.000441049908900 0
force C  -0.001855394350763   0.001236609952843   0.000434288077949 0
force C   0.002385630302612  -0.003058852797211   0.000216420549817 0
force N   0.000040225193549   0.000334349091566   0.001113457100881 0
force S   0.000030312783732  -0.000021445346817  -0.000041668132238 1
force S  -0.000061205920257  -0.000022126437307   0.000055725648933 1
force S   0.000037308220331   0.000095429189388   0.000015585652143 1
force S  -0.000064092191881   0.000090101272619  -0.000134548873470 1
force S   0.000025941187418   0.000086723631909  -0.000165892235290 1
force S  -0.000061915362171   0.000000462025008   0.000059646516752 1
force Na  -0.000110152403362  -0.000121433488252  -0.000033224463188 1
force Na   0.000056483722637   0.000070176558390  -0.000072662943473 1

# Energy components:
   A_diel =       -0.0533209355067994
   Eewald =     4993.2066451280606998
       EH =     5443.9330353458753962
     Eloc =   -11055.6585970735141018
      Enl =      -74.3874739354582886
     EvdW =       -0.1194178462955773
      Exc =     -171.1062231849650743
 Exc_core =       13.0859902223585891
       KE =      278.4391043754715724
-------------------------------------
     Etot =     -572.6602579039740704
       TS =        0.0688977997597789
-------------------------------------
        F =     -572.7291557037337952

IonicMinimize: Iter: 131  F: -572.729155703733795  |grad|_K:  7.528e-05  alpha:  3.565e+00  linmin: -1.454e-03  t[s]: 835887.84
IonicMinimize: Converged (|grad|_K<1.000000e-04).

#--- Lowdin population analysis ---
# oxidation-state C +0.038 +0.039 +0.040 +0.037 +0.040 +0.037 +0.039 +0.042 +0.042 +0.039 +0.042 +0.040 +0.040 +0.041 +0.049 +0.042 +0.040 +0.042 +0.039 +0.046 +0.142 +0.041 +0.046 +0.142 +0.041 +0.037 +0.041 +0.040 +0.141 +0.034 +0.037 +0.025 +0.034 +0.037 +0.025 -0.004 +0.038 +0.040 +0.035 +0.041 +0.040 +0.039 +0.042 +0.038 +0.040 +0.036 +0.031 +0.041 +0.036 +0.031 +0.042 +0.036 +0.039 +0.040 +0.029 +0.029 +0.039 +0.028 +0.028 +0.037 +0.039 +0.040 +0.038 +0.039 +0.038 +0.036 +0.037 +0.027 +0.007 +0.024 +0.006
# oxidation-state N +0.001
# oxidation-state S -0.405 +0.356 -0.405 -0.401 +0.369 -0.394
# oxidation-state Na +0.724 +0.839


Dumping 'Na2S6@N_graphene-glyme-vdw.fillings' ... done
Dumping 'Na2S6@N_graphene-glyme-vdw.wfns' ... done
Dumping 'Na2S6@N_graphene-glyme-vdw.fluidState' ... done
Dumping 'Na2S6@N_graphene-glyme-vdw.ionpos' ... done
Dumping 'Na2S6@N_graphene-glyme-vdw.eigenvals' ... done
End date and time: Fri Aug 16 20:18:24 2024  (Duration: 9-16:11:49.46)
Done!
