
*************** JDFTx 1.7.0  ***************

Start date and time: Mon Aug 12 06:55:50 2024
Executable jdftx with command-line: -i Na2S4@N_graphene-vdw.in -o Na2S4@N_graphene-vdw.out
Running on hosts (process indices):  Topper1 (0)
Divided in process groups (process indices):  0 (0)
Resource initialization completed at t[s]:      0.00
Run totals: 1 processes, 4 threads, 0 GPUs


Input parsed successfully to the following command list (including defaults):

basis kpoint-dependent
coords-type Cartesian
core-overlap-check vector
coulomb-interaction Slab 001
coulomb-truncation-embed 0 0 6
davidson-band-ratio 1.1
dump End State
dump-name Na2S4@N_graphene-vdw.$VAR
elec-cutoff 20 100
elec-eigen-algo Davidson
elec-ex-corr gga-PBE
elec-smearing Fermi 0.01
electronic-minimize  \
	dirUpdateScheme      FletcherReeves \
	linminMethod         DirUpdateRecommended \
	nIterations          100 \
	history              15 \
	knormThreshold       0 \
	energyDiffThreshold  1e-08 \
	nEnergyDiff          2 \
	alphaTstart          1 \
	alphaTmin            1e-10 \
	updateTestStepSize   yes \
	alphaTreduceFactor   0.1 \
	alphaTincreaseFactor 3 \
	nAlphaAdjustMax      3 \
	wolfeEnergy          0.0001 \
	wolfeGradient        0.9 \
	fdTest               no
electronic-scf  \
	nIterations	50 \
	energyDiffThreshold	1e-08 \
	residualThreshold	1e-07 \
	mixFraction	0.5 \
	qMetric	0.8 \
	history	10 \
	nEigSteps	2 \
	eigDiffThreshold	1e-08 \
	mixedVariable	Density \
	qKerker	0.8 \
	qKappa	-1 \
	verbose	no \
	mixFractionMag	1.5
exchange-regularization WignerSeitzTruncated
fluid None
fluid-ex-corr lda-TF lda-PZ
fluid-gummel-loop 10 1.000000e-05
fluid-minimize  \
	dirUpdateScheme      PolakRibiere \
	linminMethod         DirUpdateRecommended \
	nIterations          100 \
	history              15 \
	knormThreshold       0 \
	energyDiffThreshold  0 \
	nEnergyDiff          2 \
	alphaTstart          1 \
	alphaTmin            1e-10 \
	updateTestStepSize   yes \
	alphaTreduceFactor   0.1 \
	alphaTincreaseFactor 3 \
	nAlphaAdjustMax      3 \
	wolfeEnergy          0.0001 \
	wolfeGradient        0.9 \
	fdTest               no
fluid-solvent H2O 55.338 ScalarEOS \
	epsBulk 78.4 \
	pMol 0.92466 \
	epsInf 1.77 \
	Pvap 1.06736e-10 \
	sigmaBulk 4.62e-05 \
	Rvdw 2.61727 \
	Res 1.42 \
	tauNuc 343133 \
	poleEl 15 7 1
forces-output-coords Positions
ion C -14.002918197300009  24.253758582300001   2.000000000000000 0
ion C  -2.333816550000000   4.042302545699999   2.000000000000000 0
ion C  11.669101647300000  20.211493831199999   2.000000000000000 0
ion C  -9.335266200000007  24.253758582300001   2.000000000000000 0
ion C   9.335303994599993  24.253758582300001   2.000000000000000 0
ion C   2.333816549999999   4.042302545699999   2.000000000000000 0
ion C -11.669120544600000  20.211493831199999   2.000000000000000 0
ion C  -4.667651997299999   8.084605091399998   2.000000000000000 0
ion C   9.335285097299998  16.169191285499998   2.000000000000000 0
ion C  -4.667614202700008  24.253758582300001   2.000000000000000 0
ion C   4.667651997299995  24.253758582300001   2.000000000000000 0
ion C   4.667651997299999   8.084605091399998   2.000000000000000 0
ion C  -9.335303994599998  16.169191285499998   2.000000000000000 0
ion C  -7.001468547300001  12.126907637100000   2.000000000000000 0
ion C   0.000037794599990  24.253758582300001   2.000000000000000 0
ion C   0.000000000000000   8.084605091399998   2.000000000000000 0
ion C   7.001449650000005  20.211493831199999   2.000000000000000 0
ion C  -7.001468547300000  20.211493831199999   2.000000000000000 0
ion C  -2.333816549999999  12.126907637100000   2.000000000000000 0
ion C   4.667633100000000  16.169191285499998   2.000000000000000 0
ion C  -2.333816549999995  20.211493831199999   2.000000000000000 0
ion C   2.333835447300000  20.211493831199999   2.000000000000000 0
ion C   2.333835447299999  12.126907637100000   2.000000000000000 0
ion C  -4.667651997299999  16.169191285499998   2.000000000000000 0
ion C   7.001449650000000   4.042302545699999   2.000000000000000 0
ion C  21.004386744600001   4.042302545699999   2.000000000000000 0
ion C  14.002937094600000  16.169191285499998   2.000000000000000 0
ion C   0.000000000000000  16.169191285499998   2.000000000000000 0
ion C  11.669101647300000   4.042302545699999   2.000000000000000 0
ion C  18.670589091899998   8.084605091399998   2.000000000000000 0
ion C  11.669101647300000  12.126907637100000   2.000000000000000 0
ion C  16.336753644600002  12.126907637100000   2.000000000000000 0
ion C  16.336753644600002   4.042302545699999   2.000000000000000 0
ion C   9.335285097300002   8.084605091399998   2.000000000000000 0
ion C  14.002937094600000   8.084605091399998   2.000000000000000 0
ion C   0.000018897300000   2.694868363800000   2.000000000000000 0
ion C  11.669120544600000  22.906362195000000   2.000000000000000 0
ion C -11.669120544600002  22.906362195000000   2.000000000000000 0
ion C  -2.333816549999999   6.737152012199999   2.000000000000000 0
ion C   9.335285097299998  18.864059649300000   2.000000000000000 0
ion C  -7.001468547300003  22.906362195000000   2.000000000000000 0
ion C   7.001468547300002  22.906362195000000   2.000000000000000 0
ion C   2.333816550000000   6.737152012199999   2.000000000000000 0
ion C  -9.335285097299998  18.864059649300000   2.000000000000000 0
ion C  -4.667633100000000  10.779454557899999   2.000000000000000 0
ion C   7.001468547300002  14.821757103600000   2.000000000000000 0
ion C  -2.333835447300000  22.906362195000000   2.000000000000000 0
ion C   2.333816550000000  22.906362195000000   2.000000000000000 0
ion C   4.667633100000000  10.779454557899999   2.000000000000000 0
ion C  -7.001468547300001  14.821757103600000   2.000000000000000 0
ion C   4.667633100000003   2.694868363800000   2.000000000000000 0
ion C  23.338222191900002   2.694868363800000   2.000000000000000 0
ion C  14.002918197300001  18.864059649300000   2.000000000000000 0
ion C   0.000018897300000  10.779454557899999   2.000000000000000 0
ion C   4.667633100000000  18.864059649300000   2.000000000000000 0
ion C  -4.667633099999996  18.864059649300000   2.000000000000000 0
ion C  -2.333816550000000  14.821757103600000   2.000000000000000 0
ion C   2.333816550000000  14.821757103600000   2.000000000000000 0
ion C  -0.000018897299999  18.864059649300000   2.000000000000000 0
ion C   9.335285097300000   2.694868363800000   2.000000000000000 0
ion C  21.004386744599998   6.737152012199999   2.000000000000000 0
ion C  11.669120544600002  14.821757103600000   2.000000000000000 0
ion C  16.336734747299992  14.821757103600000   2.000000000000000 0
ion C  18.670570194600000   2.694868363800000   2.000000000000000 0
ion C   7.001468547300000   6.737152012199999   2.000000000000000 0
ion C  14.002937094600002   2.694868363800000   2.000000000000000 0
ion C  18.670570194600000  10.779454557899999   2.000000000000000 0
ion C   9.335285097300000  10.779454557899999   2.000000000000000 0
ion C  11.669120544600000   6.737152012199999   2.000000000000000 0
ion C  16.336734747299989   6.737152012199999   2.000000000000000 0
ion C  14.002937094600000  10.779454557899999   2.000000000000000 0
ion N   7.001449650000002  12.126907637100000   2.000000000000000 0
ion S   6.192271405641590  12.440331780352164   8.393237260949478 1
ion S   4.313965978964670  12.547225324088803  11.799100219862039 1
ion S   2.933163388271888  16.265072195143187  12.392859569419187 1
ion S   0.850437702763131  17.342408691379514   9.291516098916366 1
ion Na   5.711109251488731  17.589181197528109   7.670692347840584 1
ion Na   0.980525740611459  12.463376630027915   7.454731495910071 1
ion-species GBRV/$ID_pbe.uspp
ion-width 0
ionic-minimize  \
	dirUpdateScheme      FletcherReeves \
	linminMethod         DirUpdateRecommended \
	nIterations          200 \
	history              15 \
	knormThreshold       0.0001 \
	energyDiffThreshold  1e-06 \
	nEnergyDiff          2 \
	alphaTstart          1 \
	alphaTmin            1e-10 \
	updateTestStepSize   yes \
	alphaTreduceFactor   0.1 \
	alphaTincreaseFactor 3 \
	nAlphaAdjustMax      3 \
	wolfeEnergy          0.0001 \
	wolfeGradient        0.9 \
	fdTest               no
kpoint   0.000000000000   0.000000000000   0.000000000000  1.00000000000000
kpoint-folding 1 1 1 
latt-move-scale 1 1 1
latt-scale 1 1 1 
lattice Triclinic 28.0058 28.0058 37.7946 90 90 120
lattice-minimize  \
	dirUpdateScheme      L-BFGS \
	linminMethod         DirUpdateRecommended \
	nIterations          0 \
	history              15 \
	knormThreshold       0 \
	energyDiffThreshold  1e-06 \
	nEnergyDiff          2 \
	alphaTstart          1 \
	alphaTmin            1e-10 \
	updateTestStepSize   yes \
	alphaTreduceFactor   0.1 \
	alphaTincreaseFactor 3 \
	nAlphaAdjustMax      3 \
	wolfeEnergy          0.0001 \
	wolfeGradient        0.9 \
	fdTest               no
lcao-params -1 1e-06 0.01
pcm-variant GLSSA13
spintype no-spin
subspace-rotation-factor 1 yes
symmetries automatic
symmetry-threshold 0.0001
van-der-waals D3



---------- Setting up symmetries ----------

Found 24 point-group symmetries of the bravais lattice
Found 1 space-group symmetries with basis
Applied RMS atom displacement 0 bohrs to make symmetries exact.

---------- Initializing the Grid ----------
R = 
[      28.0058     -14.0029            0  ]
[            0      24.2537            0  ]
[            0            0      37.7946  ]
unit cell volume = 25671.8
G =
[   0.224353    0.12953         -0  ]
[          0   0.259061          0  ]
[          0         -0   0.166246  ]
Minimum fftbox size, Smin = [  128  128  172  ]
Chosen fftbox size, S = [  128  128  180  ]

---------- Initializing tighter grid for wavefunction operations ----------
R = 
[      28.0058     -14.0029            0  ]
[            0      24.2537            0  ]
[            0            0      37.7946  ]
unit cell volume = 25671.8
G =
[   0.224353    0.12953         -0  ]
[          0   0.259061          0  ]
[          0         -0   0.166246  ]
Minimum fftbox size, Smin = [  116  116  156  ]
Chosen fftbox size, S = [  120  120  160  ]

---------- Exchange Correlation functional ----------
Initalized PBE GGA exchange.
Initalized PBE GGA correlation.

---------- Setting up pseudopotentials ----------
Width of ionic core gaussian charges (only for fluid interactions / plotting) set to 0

Reading pseudopotential file '/home/topper1/jdftx_install/build/pseudopotentials/GBRV/c_pbe.uspp':
  Title: C.  Created by USPP 7.3.6 on 3-2-2014
  Reference state energy: -5.406344.  4 valence electrons in orbitals:
    |200>  occupation: 2  eigenvalue: -0.504890
    |210>  occupation: 2  eigenvalue: -0.194356
  lMax: 1  lLocal: 2  QijEcut: 5
  4 projectors sampled on a log grid with 503 points:
    l: 0  eig: -0.504890  rCut: 1.3
    l: 0  eig: 0.000000  rCut: 1.3
    l: 1  eig: -0.194357  rCut: 1.3
    l: 1  eig: 0.000000  rCut: 1.3
  Partial core density with radius 1.1
  Transforming core density to a uniform radial grid of dG=0.02 with 1625 points.
  Transforming local potential to a uniform radial grid of dG=0.02 with 1625 points.
  Transforming nonlocal projectors to a uniform radial grid of dG=0.02 with 432 points.
  Transforming density augmentations to a uniform radial grid of dG=0.02 with 1625 points.
  Transforming atomic orbitals to a uniform radial grid of dG=0.02 with 432 points.
  Core radius for overlap checks: 1.30 bohrs.

Reading pseudopotential file '/home/topper1/jdftx_install/build/pseudopotentials/GBRV/n_pbe.uspp':
  Title: N.  Created by USPP 7.3.6 on 3-2-2014
  Reference state energy: -9.763716.  5 valence electrons in orbitals:
    |200>  occupation: 2  eigenvalue: -0.681964
    |210>  occupation: 3  eigenvalue: -0.260726
  lMax: 1  lLocal: 2  QijEcut: 6
  4 projectors sampled on a log grid with 491 points:
    l: 0  eig: -0.681964  rCut: 1.15
    l: 0  eig: 0.000000  rCut: 1.15
    l: 1  eig: -0.260729  rCut: 1.2
    l: 1  eig: 0.500000  rCut: 1.2
  Partial core density with radius 0.8
  Transforming core density to a uniform radial grid of dG=0.02 with 1625 points.
  Transforming local potential to a uniform radial grid of dG=0.02 with 1625 points.
  Transforming nonlocal projectors to a uniform radial grid of dG=0.02 with 432 points.
  Transforming density augmentations to a uniform radial grid of dG=0.02 with 1625 points.
  Transforming atomic orbitals to a uniform radial grid of dG=0.02 with 432 points.
  Core radius for overlap checks: 1.20 bohrs.

Reading pseudopotential file '/home/topper1/jdftx_install/build/pseudopotentials/GBRV/s_pbe.uspp':
  Title: S.  Created by USPP 7.3.6 on 1-4-15
  Reference state energy: -11.898476.  6 valence electrons in orbitals:
    |300>  occupation: 2  eigenvalue: -0.634167
    |310>  occupation: 4  eigenvalue: -0.257568
  lMax: 2  lLocal: 3  QijEcut: 6
  6 projectors sampled on a log grid with 635 points:
    l: 0  eig: -0.634161  rCut: 1.5
    l: 0  eig: 1.500000  rCut: 1.5
    l: 1  eig: -0.257567  rCut: 1.5
    l: 1  eig: 1.500000  rCut: 1.5
    l: 2  eig: -1.000000  rCut: 1.5
    l: 2  eig: 1.500000  rCut: 1.5
  Partial core density with radius 1.15
  Transforming core density to a uniform radial grid of dG=0.02 with 1625 points.
  Transforming local potential to a uniform radial grid of dG=0.02 with 1625 points.
  Transforming nonlocal projectors to a uniform radial grid of dG=0.02 with 432 points.
  Transforming density augmentations to a uniform radial grid of dG=0.02 with 1625 points.
  Transforming atomic orbitals to a uniform radial grid of dG=0.02 with 432 points.
  Core radius for overlap checks: 1.50 bohrs.

Reading pseudopotential file '/home/topper1/jdftx_install/build/pseudopotentials/GBRV/na_pbe.uspp':
  Title: Na.  Created by USPP 7.3.6 on 23-9-15
  Reference state energy: -47.625620.  9 valence electrons in orbitals:
    |200>  occupation: 2  eigenvalue: -2.085638
    |210>  occupation: 6  eigenvalue: -1.053708
    |300>  occupation: 1  eigenvalue: -0.100838
  lMax: 2  lLocal: 0  QijEcut: 6
  5 projectors sampled on a log grid with 657 points:
    l: 0  eig: -2.085640  rCut: 1.37
    l: 0  eig: -0.100839  rCut: 1.37
    l: 1  eig: -1.053708  rCut: 1.47
    l: 1  eig: 0.500000  rCut: 1.47
    l: 2  eig: 0.750000  rCut: 2
  Transforming local potential to a uniform radial grid of dG=0.02 with 1625 points.
  Transforming nonlocal projectors to a uniform radial grid of dG=0.02 with 432 points.
  Transforming density augmentations to a uniform radial grid of dG=0.02 with 1625 points.
  Transforming atomic orbitals to a uniform radial grid of dG=0.02 with 432 points.
  Core radius for overlap checks: 2.00 bohrs.

Initialized 4 species with 78 total atoms.

Folded 1 k-points by 1x1x1 to 1 k-points.

---------- Setting up k-points, bands, fillings ----------
No reducable k-points. 
Computing the number of bands and number of electrons
Calculating initial fillings.
nElectrons: 331.000000   nBands: 314   nStates: 1

----- Setting up reduced wavefunction bases (one per k-point) -----
average nbasis = 109673.000 , ideal nbasis = 109671.883

---------- Setting up coulomb interaction ----------
Setting up double-sized grid for truncated Coulomb potentials:
R = 
[      28.0058     -14.0029            0  ]
[            0      24.2537            0  ]
[            0            0      75.5892  ]
unit cell volume = 51343.6
G =
[   0.224353    0.12953         -0  ]
[          0   0.259061          0  ]
[          0         -0  0.0831228  ]
Chosen fftbox size, S = [  128  128  360  ]
Integer grid location selected as the embedding center:
   Grid: [  0  0  29  ]
   Lattice: [  0  0  0.158753  ]
   Cartesian: [  0  0  6  ]
Constructing Wigner-Seitz cell: 8 faces (6 quadrilaterals, 2 hexagons)
Range-separation parameter for embedded mesh potentials due to point charges: 0.590105 bohrs.
Initialized slab truncation along lattice direction 001

Initializing DFT-D3 calculator:
	Parameters set for gga-PBE functional
	s6:  1.000  s_r6:  1.217
	s8:  0.722  s_r8:  1.000
	Per-atom parameters loaded for:
	 C:  sqrtQ[a0]:  3.105  Rcov[a0]:  1.417  CN: [ 0.00 0.99 2.00 3.00 3.98 ]
	 N:  sqrtQ[a0]:  2.712  Rcov[a0]:  1.342  CN: [ 0.00 0.99 2.01 2.99 ]
	 S:  sqrtQ[a0]:  4.041  Rcov[a0]:  1.928  CN: [ 0.00 0.99 1.99 ]
	Na:  sqrtQ[a0]:  6.586  Rcov[a0]:  2.646  CN: [ 0.00 0.97 ]

---------- Setting up 2D ewald sum ----------
Optimum gaussian width for ewald sums = 15.547689 bohr.
Real space sums over 289 unit cells with max indices [  8  8  0  ]
Reciprocal space sums over 81 terms with max indices [  4  4  0  ]

Computing DFT-D3 correction:
# coordination-number C 3.300 3.300 3.302 3.300 3.301 3.300 3.300 3.301 3.320 3.300 3.302 3.294 3.300 3.300 3.300 3.323 3.382 3.300 3.380 3.497 3.301 3.323 3.645 3.302 3.300 3.300 3.300 3.353 3.300 3.300 3.288 3.300 3.300 3.288 3.300 3.300 3.300 3.300 3.302 3.334 3.300 3.306 3.305 3.300 3.305 3.378 3.300 3.303 3.342 3.300 3.300 3.300 3.300 3.562 3.512 3.301 3.338 3.464 3.309 3.300 3.300 3.300 3.300 3.300 3.299 3.300 3.300 3.302 3.300 3.300 3.300
# coordination-number N 3.225
# coordination-number S 2.924 3.090 3.070 2.945
# coordination-number Na 4.144 4.561
# diagonal-C6 C 24.28 24.28 24.26 24.29 24.28 24.28 24.28 24.27 24.08 24.28 24.26 24.33 24.28 24.28 24.28 24.05 23.35 24.28 23.37 21.69 24.27 24.05 19.79 24.26 24.28 24.28 24.28 23.71 24.29 24.29 24.39 24.29 24.29 24.40 24.29 24.28 24.28 24.29 24.26 23.93 24.29 24.22 24.23 24.29 24.23 23.40 24.28 24.25 23.84 24.28 24.28 24.28 24.28 20.75 21.46 24.28 23.89 22.18 24.19 24.29 24.28 24.28 24.28 24.28 24.29 24.28 24.28 24.27 24.29 24.29 24.28
# diagonal-C6 N 15.60
# diagonal-C6 S 125.81 125.81 125.81 125.81
# diagonal-C6 Na 186.11 186.11
EvdW_6 =   -0.063716
EvdW_8 =   -0.055927

---------- Allocating electronic variables ----------
Initializing wave functions:  linear combination of atomic orbitals
C pseudo-atom occupations:   s ( 2 )  p ( 2 )
N pseudo-atom occupations:   s ( 2 )  p ( 3 )
S pseudo-atom occupations:   s ( 2 )  p ( 4 )
Na pseudo-atom occupations:   s ( 2 1 )  p ( 6 )
	FillingsUpdate:  mu: -0.189093549  nElectrons: 331.000000
LCAOMinimize: Iter:   0  F: -546.7574628944096276  |grad|_K:  1.082e-02  alpha:  1.000e+00
	FillingsUpdate:  mu: -0.274797403  nElectrons: 331.000000
LCAOMinimize: Iter:   1  F: -547.4268851370070479  |grad|_K:  2.894e-03  alpha:  1.978e-01  linmin:  1.070e-01  cgtest: -1.751e+00  t[s]:    466.32
LCAOMinimize: 	Bad step direction: g.d > 0.
LCAOMinimize: 	Undoing step.
LCAOMinimize: 	Step failed: resetting search direction.
	FillingsUpdate:  mu: -0.274797403  nElectrons: 331.000000
LCAOMinimize: Iter:   2  F: -547.4268851370070479  |grad|_K:  2.894e-03  alpha:  0.000e+00
LCAOMinimize: 	Wrong curvature in test step, increasing alphaT to 5.934381e-01.
	FillingsUpdate:  mu: -0.275547955  nElectrons: 331.000000
LCAOMinimize: Iter:   3  F: -547.6028462734357163  |grad|_K:  1.782e-03  alpha: -1.407e+00  linmin:  2.753e-01  cgtest: -4.079e-01  t[s]:    691.57
LCAOMinimize: 	Bad step direction: g.d > 0.
LCAOMinimize: 	Undoing step.
LCAOMinimize: 	Step failed: resetting search direction.
	FillingsUpdate:  mu: -0.275547955  nElectrons: 331.000000
LCAOMinimize: Iter:   4  F: -547.6028462734357163  |grad|_K:  1.782e-03  alpha:  0.000e+00
LCAOMinimize: 	Step increased F by 2.717230e-02, reducing alpha to 2.529264e-02.
	FillingsUpdate:  mu: -0.279816486  nElectrons: 331.000000
LCAOMinimize: Iter:   5  F: -547.6095222936475011  |grad|_K:  1.219e-03  alpha:  2.529e-02  linmin: -1.577e-01  cgtest:  9.996e-01  t[s]:   1046.27
LCAOMinimize: Encountered beta<0, resetting CG.
LCAOMinimize: 	Predicted alpha/alphaT>3.000000, increasing alphaT to 7.587791e-02.
	FillingsUpdate:  mu: -0.283377739  nElectrons: 331.000000
LCAOMinimize: Iter:   6  F: -547.6158338138585577  |grad|_K:  3.793e-04  alpha:  8.522e-02  linmin: -1.839e-02  cgtest:  6.204e-02  t[s]:   1231.24
LCAOMinimize: 	Predicted alpha/alphaT>3.000000, increasing alphaT to 2.556614e-01.
	FillingsUpdate:  mu: -0.282433904  nElectrons: 331.000000
LCAOMinimize: Iter:   7  F: -547.6186412026291919  |grad|_K:  2.859e-04  alpha:  3.905e-01  linmin:  4.941e-03  cgtest: -7.521e-02  t[s]:   1416.00
	FillingsUpdate:  mu: -0.281935472  nElectrons: 331.000000
LCAOMinimize: Iter:   8  F: -547.6197972391894382  |grad|_K:  1.284e-04  alpha:  2.933e-01  linmin:  1.899e-04  cgtest:  1.692e-01  t[s]:   1564.25
	FillingsUpdate:  mu: -0.282346458  nElectrons: 331.000000
LCAOMinimize: Iter:   9  F: -547.6198986179249459  |grad|_K:  6.952e-05  alpha:  1.233e-01  linmin: -1.112e-03  cgtest:  1.106e-02  t[s]:   1711.95
	FillingsUpdate:  mu: -0.282111481  nElectrons: 331.000000
LCAOMinimize: Iter:  10  F: -547.6199488044206873  |grad|_K:  2.669e-05  alpha:  2.081e-01  linmin: -2.007e-03  cgtest: -2.928e-03  t[s]:   1859.78
	FillingsUpdate:  mu: -0.282153569  nElectrons: 331.000000
LCAOMinimize: Iter:  11  F: -547.6199584672016272  |grad|_K:  1.601e-05  alpha:  2.722e-01  linmin:  4.487e-05  cgtest: -6.062e-03  t[s]:   2007.25
	FillingsUpdate:  mu: -0.282148682  nElectrons: 331.000000
LCAOMinimize: Iter:  12  F: -547.6199606100672099  |grad|_K:  1.173e-05  alpha:  1.688e-01  linmin:  2.778e-05  cgtest:  9.278e-04  t[s]:   2154.86
	FillingsUpdate:  mu: -0.282245588  nElectrons: 331.000000
LCAOMinimize: Iter:  13  F: -547.6199621868419172  |grad|_K:  5.809e-06  alpha:  2.310e-01  linmin:  2.979e-04  cgtest: -2.608e-03  t[s]:   2302.79
	FillingsUpdate:  mu: -0.282223891  nElectrons: 331.000000
LCAOMinimize: Iter:  14  F: -547.6199625865240250  |grad|_K:  2.793e-06  alpha:  2.389e-01  linmin: -2.293e-04  cgtest:  4.788e-03  t[s]:   2450.33
	FillingsUpdate:  mu: -0.282227033  nElectrons: 331.000000
LCAOMinimize: Iter:  15  F: -547.6199626386546697  |grad|_K:  1.128e-06  alpha:  1.341e-01  linmin: -5.572e-04  cgtest: -5.027e-05  t[s]:   2598.79
LCAOMinimize: Converged (|Delta F|<1.000000e-06 for 2 iters).


---- Citations for features of the code used in this run ----

   Software package:
      R. Sundararaman, K. Letchworth-Weaver, K.A. Schwarz, D. Gunceler, Y. Ozhabes and T.A. Arias, 'JDFTx: software for joint density-functional theory', SoftwareX 6, 278 (2017)

   gga-PBE exchange-correlation functional:
      J.P. Perdew, K. Burke and M. Ernzerhof, Phys. Rev. Lett. 77, 3865 (1996)

   Pseudopotentials:
      KF Garrity, JW Bennett, KM Rabe and D Vanderbilt, Comput. Mater. Sci. 81, 446 (2014)

   Truncated Coulomb potentials:
      R. Sundararaman and T.A. Arias, Phys. Rev. B 87, 165122 (2013)

   DFT-D3 dispersion correction:
      S. Grimme, J. Antony, S. Ehrlich and H. Krieg, J. Chem. Phys. 132, 154104 (2010)

This list may not be complete. Please suggest additional citations or
report any other bugs at https://github.com/shankar1729/jdftx/issues

Initialization completed successfully at t[s]:   2688.52


Computing DFT-D3 correction:
# coordination-number C 3.300 3.300 3.302 3.300 3.301 3.300 3.300 3.301 3.320 3.300 3.302 3.294 3.300 3.300 3.300 3.323 3.382 3.300 3.380 3.497 3.301 3.323 3.645 3.302 3.300 3.300 3.300 3.353 3.300 3.300 3.288 3.300 3.300 3.288 3.300 3.300 3.300 3.300 3.302 3.334 3.300 3.306 3.305 3.300 3.305 3.378 3.300 3.303 3.342 3.300 3.300 3.300 3.300 3.562 3.512 3.301 3.338 3.464 3.309 3.300 3.300 3.300 3.300 3.300 3.299 3.300 3.300 3.302 3.300 3.300 3.300
# coordination-number N 3.225
# coordination-number S 2.924 3.090 3.070 2.945
# coordination-number Na 4.144 4.561
# diagonal-C6 C 24.28 24.28 24.26 24.29 24.28 24.28 24.28 24.27 24.08 24.28 24.26 24.33 24.28 24.28 24.28 24.05 23.35 24.28 23.37 21.69 24.27 24.05 19.79 24.26 24.28 24.28 24.28 23.71 24.29 24.29 24.39 24.29 24.29 24.40 24.29 24.28 24.28 24.29 24.26 23.93 24.29 24.22 24.23 24.29 24.23 23.40 24.28 24.25 23.84 24.28 24.28 24.28 24.28 20.75 21.46 24.28 23.89 22.18 24.19 24.29 24.28 24.28 24.28 24.28 24.29 24.28 24.28 24.27 24.29 24.29 24.28
# diagonal-C6 N 15.60
# diagonal-C6 S 125.81 125.81 125.81 125.81
# diagonal-C6 Na 186.11 186.11
EvdW_6 =   -0.063716
EvdW_8 =   -0.055927

-------- Electronic minimization -----------
Will mix electronic density at each iteration.
	FillingsUpdate:  mu: -0.282227033  nElectrons: 331.000000
	FillingsUpdate:  mu: -0.291915123  nElectrons: 331.000000
SCF: Cycle:  0   F: -551.205540335842215   dF: -3.586e+00   |Residual|: 9.657e-01   |deigs|: 1.245e-01  t[s]:   3446.35
	FillingsUpdate:  mu: -0.263185903  nElectrons: 331.000000
SCF: Cycle:  1   F: -551.786333117373943   dF: -5.808e-01   |Residual|: 4.917e-01   |deigs|: 3.417e-02  t[s]:   4132.60
	FillingsUpdate:  mu: -0.228774158  nElectrons: 331.000000
SCF: Cycle:  2   F: -552.060788368334102   dF: -2.745e-01   |Residual|: 1.116e-01   |deigs|: 3.448e-02  t[s]:   4817.75
	FillingsUpdate:  mu: -0.222967427  nElectrons: 331.000000
SCF: Cycle:  3   F: -552.079985100583713   dF: -1.920e-02   |Residual|: 6.924e-02   |deigs|: 6.538e-03  t[s]:   5505.60
	FillingsUpdate:  mu: -0.211564373  nElectrons: 331.000000
SCF: Cycle:  4   F: -552.104130562632349   dF: -2.415e-02   |Residual|: 3.608e-02   |deigs|: 1.071e-02  t[s]:   6193.89
	FillingsUpdate:  mu: -0.201792496  nElectrons: 331.000000
SCF: Cycle:  5   F: -552.118093609572497   dF: -1.396e-02   |Residual|: 2.610e-02   |deigs|: 9.081e-03  t[s]:   6875.26
	FillingsUpdate:  mu: -0.198229986  nElectrons: 331.000000
SCF: Cycle:  6   F: -552.122111659670281   dF: -4.018e-03   |Residual|: 1.860e-02   |deigs|: 3.698e-03  t[s]:   7545.74
	FillingsUpdate:  mu: -0.193283884  nElectrons: 331.000000
SCF: Cycle:  7   F: -552.124646844811650   dF: -2.535e-03   |Residual|: 1.265e-02   |deigs|: 5.503e-03  t[s]:   8183.39
	FillingsUpdate:  mu: -0.188822902  nElectrons: 331.000000
SCF: Cycle:  8   F: -552.126198991617002   dF: -1.552e-03   |Residual|: 1.538e-02   |deigs|: 4.437e-03  t[s]:   8815.08
	FillingsUpdate:  mu: -0.187797652  nElectrons: 331.000000
SCF: Cycle:  9   F: -552.126579510671490   dF: -3.805e-04   |Residual|: 7.857e-03   |deigs|: 1.459e-03  t[s]:   9429.76
	FillingsUpdate:  mu: -0.184126734  nElectrons: 331.000000
SCF: Cycle: 10   F: -552.126527020989784   dF: +5.249e-05   |Residual|: 6.359e-03   |deigs|: 3.395e-03  t[s]:  10045.13
	FillingsUpdate:  mu: -0.181965524  nElectrons: 331.000000
SCF: Cycle: 11   F: -552.126427228627335   dF: +9.979e-05   |Residual|: 5.505e-03   |deigs|: 2.084e-03  t[s]:  10634.31
	FillingsUpdate:  mu: -0.176059268  nElectrons: 331.000000
SCF: Cycle: 12   F: -552.126307540473817   dF: +1.197e-04   |Residual|: 4.343e-03   |deigs|: 5.851e-03  t[s]:  11223.26
	FillingsUpdate:  mu: -0.172343465  nElectrons: 331.000000
SCF: Cycle: 13   F: -552.126865956143433   dF: -5.584e-04   |Residual|: 4.642e-03   |deigs|: 4.088e-03  t[s]:  11813.88
	FillingsUpdate:  mu: -0.170728742  nElectrons: 331.000000
SCF: Cycle: 14   F: -552.126963755929637   dF: -9.780e-05   |Residual|: 3.647e-03   |deigs|: 2.069e-03  t[s]:  12404.80
	FillingsUpdate:  mu: -0.165723990  nElectrons: 331.000000
SCF: Cycle: 15   F: -552.127212802437839   dF: -2.490e-04   |Residual|: 3.144e-03   |deigs|: 4.585e-03  t[s]:  13001.05
	FillingsUpdate:  mu: -0.163338089  nElectrons: 331.000000
SCF: Cycle: 16   F: -552.127277999580770   dF: -6.520e-05   |Residual|: 2.284e-03   |deigs|: 2.004e-03  t[s]:  13594.16
	FillingsUpdate:  mu: -0.160673436  nElectrons: 331.000000
SCF: Cycle: 17   F: -552.127296467111933   dF: -1.847e-05   |Residual|: 2.024e-03   |deigs|: 2.542e-03  t[s]:  14183.22
	FillingsUpdate:  mu: -0.159179346  nElectrons: 331.000000
SCF: Cycle: 18   F: -552.127306999813413   dF: -1.053e-05   |Residual|: 1.297e-03   |deigs|: 1.960e-03  t[s]:  14778.97
	FillingsUpdate:  mu: -0.158591489  nElectrons: 331.000000
SCF: Cycle: 19   F: -552.127315149693459   dF: -8.150e-06   |Residual|: 9.029e-04   |deigs|: 9.984e-04  t[s]:  15366.56
	FillingsUpdate:  mu: -0.158302092  nElectrons: 331.000000
SCF: Cycle: 20   F: -552.127317686436982   dF: -2.537e-06   |Residual|: 6.310e-04   |deigs|: 7.630e-04  t[s]:  15949.17
	FillingsUpdate:  mu: -0.158157907  nElectrons: 331.000000
SCF: Cycle: 21   F: -552.127318755231499   dF: -1.069e-06   |Residual|: 4.726e-04   |deigs|: 6.127e-04  t[s]:  16539.42
	FillingsUpdate:  mu: -0.158157585  nElectrons: 331.000000
SCF: Cycle: 22   F: -552.127318902614093   dF: -1.474e-07   |Residual|: 3.178e-04   |deigs|: 2.348e-04  t[s]:  17131.26
	FillingsUpdate:  mu: -0.158196977  nElectrons: 331.000000
SCF: Cycle: 23   F: -552.127318854678265   dF: +4.794e-08   |Residual|: 2.584e-04   |deigs|: 4.582e-04  t[s]:  17722.70
	FillingsUpdate:  mu: -0.158222362  nElectrons: 331.000000
SCF: Cycle: 24   F: -552.127319771760199   dF: -9.171e-07   |Residual|: 1.707e-04   |deigs|: 2.589e-04  t[s]:  18321.43
	FillingsUpdate:  mu: -0.158160801  nElectrons: 331.000000
SCF: Cycle: 25   F: -552.127320343696510   dF: -5.719e-07   |Residual|: 1.508e-04   |deigs|: 3.481e-04  t[s]:  18910.85
	FillingsUpdate:  mu: -0.158067284  nElectrons: 331.000000
SCF: Cycle: 26   F: -552.127320803681641   dF: -4.600e-07   |Residual|: 1.248e-04   |deigs|: 3.076e-04  t[s]:  19498.37
	FillingsUpdate:  mu: -0.158023066  nElectrons: 331.000000
SCF: Cycle: 27   F: -552.127321218251495   dF: -4.146e-07   |Residual|: 8.207e-05   |deigs|: 2.719e-04  t[s]:  20086.66
	FillingsUpdate:  mu: -0.158025518  nElectrons: 331.000000
SCF: Cycle: 28   F: -552.127321447094801   dF: -2.288e-07   |Residual|: 6.031e-05   |deigs|: 3.462e-04  t[s]:  20678.99
	FillingsUpdate:  mu: -0.158049023  nElectrons: 331.000000
SCF: Cycle: 29   F: -552.127321555974845   dF: -1.089e-07   |Residual|: 3.838e-05   |deigs|: 1.773e-04  t[s]:  21269.32
	FillingsUpdate:  mu: -0.158065298  nElectrons: 331.000000
SCF: Cycle: 30   F: -552.127321581740603   dF: -2.577e-08   |Residual|: 2.752e-05   |deigs|: 9.175e-05  t[s]:  21857.49
	FillingsUpdate:  mu: -0.158084376  nElectrons: 331.000000
SCF: Cycle: 31   F: -552.127321591020404   dF: -9.280e-09   |Residual|: 2.122e-05   |deigs|: 9.275e-05  t[s]:  22451.36
	FillingsUpdate:  mu: -0.158098793  nElectrons: 331.000000
SCF: Cycle: 32   F: -552.127321596317984   dF: -5.298e-09   |Residual|: 1.399e-05   |deigs|: 5.484e-05  t[s]:  23046.29
SCF: Converged (|Delta E|<1.000000e-08 for 2 iters).

Setting wave functions to eigenvectors of Hamiltonian

Computing DFT-D3 correction:
# coordination-number C 3.300 3.300 3.302 3.300 3.301 3.300 3.300 3.301 3.320 3.300 3.302 3.294 3.300 3.300 3.300 3.323 3.382 3.300 3.380 3.497 3.301 3.323 3.645 3.302 3.300 3.300 3.300 3.353 3.300 3.300 3.288 3.300 3.300 3.288 3.300 3.300 3.300 3.300 3.302 3.334 3.300 3.306 3.305 3.300 3.305 3.378 3.300 3.303 3.342 3.300 3.300 3.300 3.300 3.562 3.512 3.301 3.338 3.464 3.309 3.300 3.300 3.300 3.300 3.300 3.299 3.300 3.300 3.302 3.300 3.300 3.300
# coordination-number N 3.225
# coordination-number S 2.924 3.090 3.070 2.945
# coordination-number Na 4.144 4.561
# diagonal-C6 C 24.28 24.28 24.26 24.29 24.28 24.28 24.28 24.27 24.08 24.28 24.26 24.33 24.28 24.28 24.28 24.05 23.35 24.28 23.37 21.69 24.27 24.05 19.79 24.26 24.28 24.28 24.28 23.71 24.29 24.29 24.39 24.29 24.29 24.40 24.29 24.28 24.28 24.29 24.26 23.93 24.29 24.22 24.23 24.29 24.23 23.40 24.28 24.25 23.84 24.28 24.28 24.28 24.28 20.75 21.46 24.28 23.89 22.18 24.19 24.29 24.28 24.28 24.28 24.28 24.29 24.28 24.28 24.27 24.29 24.29 24.28
# diagonal-C6 N 15.60
# diagonal-C6 S 125.81 125.81 125.81 125.81
# diagonal-C6 Na 186.11 186.11
EvdW_6 =   -0.063716
EvdW_8 =   -0.055927

# Ionic positions in cartesian coordinates:
ion C -14.002918197300009  24.253758582300001   2.000000000000000 0
ion C  -2.333816550000000   4.042302545699999   2.000000000000000 0
ion C  11.669101647300000  20.211493831199999   2.000000000000000 0
ion C  -9.335266200000007  24.253758582300001   2.000000000000000 0
ion C   9.335303994599993  24.253758582300001   2.000000000000000 0
ion C   2.333816549999999   4.042302545699999   2.000000000000000 0
ion C -11.669120544600000  20.211493831199999   2.000000000000000 0
ion C  -4.667651997299999   8.084605091399998   2.000000000000000 0
ion C   9.335285097299998  16.169191285499998   2.000000000000000 0
ion C  -4.667614202700008  24.253758582300001   2.000000000000000 0
ion C   4.667651997299995  24.253758582300001   2.000000000000000 0
ion C   4.667651997299999   8.084605091399998   2.000000000000000 0
ion C  -9.335303994599998  16.169191285499998   2.000000000000000 0
ion C  -7.001468547300001  12.126907637100000   2.000000000000000 0
ion C   0.000037794599990  24.253758582300001   2.000000000000000 0
ion C   0.000000000000000   8.084605091399998   2.000000000000000 0
ion C   7.001449650000005  20.211493831199999   2.000000000000000 0
ion C  -7.001468547300000  20.211493831199999   2.000000000000000 0
ion C  -2.333816549999999  12.126907637100000   2.000000000000000 0
ion C   4.667633100000000  16.169191285499998   2.000000000000000 0
ion C  -2.333816549999995  20.211493831199999   2.000000000000000 0
ion C   2.333835447300000  20.211493831199999   2.000000000000000 0
ion C   2.333835447299999  12.126907637100000   2.000000000000000 0
ion C  -4.667651997299999  16.169191285499998   2.000000000000000 0
ion C   7.001449650000000   4.042302545699999   2.000000000000000 0
ion C  21.004386744600001   4.042302545699999   2.000000000000000 0
ion C  14.002937094600000  16.169191285499998   2.000000000000000 0
ion C   0.000000000000000  16.169191285499998   2.000000000000000 0
ion C  11.669101647300000   4.042302545699999   2.000000000000000 0
ion C  18.670589091899998   8.084605091399998   2.000000000000000 0
ion C  11.669101647300000  12.126907637100000   2.000000000000000 0
ion C  16.336753644600002  12.126907637100000   2.000000000000000 0
ion C  16.336753644600002   4.042302545699999   2.000000000000000 0
ion C   9.335285097300002   8.084605091399998   2.000000000000000 0
ion C  14.002937094600000   8.084605091399998   2.000000000000000 0
ion C   0.000018897300000   2.694868363800000   2.000000000000000 0
ion C  11.669120544600000  22.906362195000000   2.000000000000000 0
ion C -11.669120544600002  22.906362195000000   2.000000000000000 0
ion C  -2.333816549999999   6.737152012199999   2.000000000000000 0
ion C   9.335285097299998  18.864059649300000   2.000000000000000 0
ion C  -7.001468547300003  22.906362195000000   2.000000000000000 0
ion C   7.001468547300002  22.906362195000000   2.000000000000000 0
ion C   2.333816550000000   6.737152012199999   2.000000000000000 0
ion C  -9.335285097299998  18.864059649300000   2.000000000000000 0
ion C  -4.667633100000000  10.779454557899999   2.000000000000000 0
ion C   7.001468547300002  14.821757103600000   2.000000000000000 0
ion C  -2.333835447300000  22.906362195000000   2.000000000000000 0
ion C   2.333816550000000  22.906362195000000   2.000000000000000 0
ion C   4.667633100000000  10.779454557899999   2.000000000000000 0
ion C  -7.001468547300001  14.821757103600000   2.000000000000000 0
ion C   4.667633100000003   2.694868363800000   2.000000000000000 0
ion C  23.338222191900002   2.694868363800000   2.000000000000000 0
ion C  14.002918197300001  18.864059649300000   2.000000000000000 0
ion C   0.000018897300000  10.779454557899999   2.000000000000000 0
ion C   4.667633100000000  18.864059649300000   2.000000000000000 0
ion C  -4.667633099999996  18.864059649300000   2.000000000000000 0
ion C  -2.333816550000000  14.821757103600000   2.000000000000000 0
ion C   2.333816550000000  14.821757103600000   2.000000000000000 0
ion C  -0.000018897299999  18.864059649300000   2.000000000000000 0
ion C   9.335285097300000   2.694868363800000   2.000000000000000 0
ion C  21.004386744599998   6.737152012199999   2.000000000000000 0
ion C  11.669120544600002  14.821757103600000   2.000000000000000 0
ion C  16.336734747299992  14.821757103600000   2.000000000000000 0
ion C  18.670570194600000   2.694868363800000   2.000000000000000 0
ion C   7.001468547300000   6.737152012199999   2.000000000000000 0
ion C  14.002937094600002   2.694868363800000   2.000000000000000 0
ion C  18.670570194600000  10.779454557899999   2.000000000000000 0
ion C   9.335285097300000  10.779454557899999   2.000000000000000 0
ion C  11.669120544600000   6.737152012199999   2.000000000000000 0
ion C  16.336734747299989   6.737152012199999   2.000000000000000 0
ion C  14.002937094600000  10.779454557899999   2.000000000000000 0
ion N   7.001449650000002  12.126907637100000   2.000000000000000 0
ion S   6.192271405641590  12.440331780352164   8.393237260949478 1
ion S   4.313965978964670  12.547225324088803  11.799100219862039 1
ion S   2.933163388271888  16.265072195143187  12.392859569419187 1
ion S   0.850437702763131  17.342408691379514   9.291516098916366 1
ion Na   5.711109251488731  17.589181197528109   7.670692347840584 1
ion Na   0.980525740611459  12.463376630027915   7.454731495910071 1

# Forces in Cartesian coordinates:
force C   0.001830553026062  -0.001039806676776   0.000043396487609 0
force C   0.000974066137683  -0.000427107575654   0.000033083310375 0
force C   0.002318156119176  -0.000823002740420   0.000185119966275 0
force C   0.000789103397915   0.001102679712108   0.000009190309188 0
force C   0.000717081841187  -0.000356753272917   0.000021697568813 0
force C   0.001794997329766  -0.000885860353427   0.000087009745407 0
force C  -0.000597788117983  -0.001207875424623   0.000015698775801 0
force C  -0.000082405805052   0.000126060350627  -0.000028603220506 0
force C  -0.002557692084863  -0.010675867446206   0.000011243213888 0
force C  -0.001139716849117   0.000934026236754   0.000024306346263 0
force C  -0.000233305132985  -0.000090533062977   0.000020920301633 0
force C   0.007517359489882   0.008040434345654  -0.000310780150464 0
force C  -0.001328441964889   0.000631946054636   0.000033617213639 0
force C  -0.000217909220822   0.002206277701457   0.000036125906099 0
force C  -0.001946321773749  -0.001087048872438   0.000099846992447 0
force C   0.000585175636637  -0.002348477652945   0.000515059639062 0
force C   0.001098237963183   0.000848438539914   0.000638497623892 0
force C   0.000051477974478  -0.000070659130316   0.000020170377952 0
force C  -0.001986108717392   0.002581696201861   0.000389045112620 0
force C   0.003084659074361  -0.010913658656428  -0.000597912896657 0
force C   0.000740531808136  -0.001297127415868   0.000130003255098 0
force C  -0.003529478657530  -0.000047246026642   0.000229478893441 0
force C   0.011643327597874   0.002399960042936  -0.001010307655415 0
force C   0.000930585237138   0.000743853521765   0.000200691964630 0
force C  -0.000116468799127   0.005401175983564   0.000026324804630 0
force C   0.000211149659087  -0.000228699163766   0.000010578635721 0
force C  -0.004831932416644  -0.002681856516913   0.000018176171638 0
force C   0.004850412811610  -0.001871734626214  -0.000304157470692 0
force C  -0.001944609742862  -0.000865764930447   0.000027995613676 0
force C  -0.000381561330261   0.000587228414942   0.000010653893966 0
force C  -0.009560133337790   0.002405653667240   0.000092814632828 0
force C  -0.000264401359926   0.002209703692176   0.000019110269357 0
force C  -0.000800929463936  -0.000097938015836   0.000013278214970 0
force C  -0.006979556654149   0.007334641169566   0.000136880981794 0
force C  -0.000618739914059   0.000261325753307   0.000051650009252 0
force C  -0.000939385606852   0.000882063997340   0.000013412135256 0
force C  -0.000985347993159   0.000477079752337   0.000000605845412 0
force C  -0.001814649143283   0.001114312295078   0.000011020073980 0
force C  -0.000668530886047  -0.000349696147993   0.000042982673843 0
force C  -0.003233770649270   0.001318872452854   0.000398219535157 0
force C   0.000295625498729  -0.000055344037532   0.000023680323733 0
force C  -0.000221588324781   0.001841430989397   0.000287433288921 0
force C  -0.003232485599641   0.002993215432316   0.000075850148815 0
force C   0.000295211098301  -0.000202528508289   0.000017006603583 0
force C  -0.000698881262349  -0.001367339008659   0.000229638330597 0
force C   0.000999099127727  -0.006567234039436  -0.000283228397144 0
force C   0.002138429491135   0.001077916495377   0.000084041253677 0
force C   0.000556683045311   0.000136509954155   0.000030604019390 0
force C   0.006790728013425   0.000872930761473  -0.000038880382860 0
force C  -0.000034791316342  -0.002291737272486   0.000013344058949 0
force C  -0.001757332566080  -0.000906722257644   0.000023852544435 0
force C  -0.001145592044083   0.000657613179277   0.000019335482960 0
force C   0.000103213402995   0.002105523616617   0.000022581882783 0
force C   0.001117603897392  -0.005396421232021   0.000546161689092 0
force C   0.003223269021994   0.001475411775848   0.000181619630615 0
force C  -0.000220965651699   0.000044017587769   0.000093120341985 0
force C  -0.002740358817191  -0.000128375067687   0.000054367145612 0
force C  -0.006884130785696   0.004695858762202  -0.000910237037446 0
force C  -0.000292985584127   0.003013677776466   0.000169464332618 0
force C   0.002187790285417  -0.000767265792976   0.000031461654350 0
force C  -0.000095432136634  -0.000683830062823   0.000058941462764 0
force C   0.006715153380965   0.002676945743340   0.000199290996560 0
force C   0.001808316150834  -0.001689340149652   0.000032160370766 0
force C   0.000680073423976   0.000501323446944   0.000058097020716 0
force C   0.000210225365371  -0.006635796690590   0.000205390823457 0
force C   0.000857496970501   0.000890959712235   0.000012332233302 0
force C  -0.000343541632408  -0.001244221708923   0.000013816783874 0
force C  -0.004500577457977   0.002153755034671   0.000338343410913 0
force C   0.003368296729334   0.003635279128808   0.000021409812362 0
force C   0.000356860132451  -0.000158937685278   0.000012590576942 0
force C  -0.001562008911687  -0.004678640781520   0.000031091658708 0
force N  -0.000120905647484  -0.000750062614462  -0.001135797977368 0
force S  -0.000056127907503  -0.000710074992216  -0.000165296470921 1
force S   0.000049724436094   0.001768189277214   0.000039560949701 1
force S   0.000587925665887  -0.001437973880312   0.000067337605363 1
force S  -0.001762377982471   0.000652052069393  -0.001036341626188 1
force Na   0.000830820627578   0.000425695029538  -0.000194783487725 1
force Na   0.000125488338824  -0.000179382915402   0.000240722098432 1

# Energy components:
   Eewald =    -1525.0656662703975144
       EH =    -1104.4864186145352960
     Eloc =     2037.7564971180693192
      Enl =      -77.8286176727183658
     EvdW =       -0.1196432942278180
      Exc =     -162.7523264525425191
 Exc_core =        9.5505256401249259
       KE =      270.8837962201388905
-------------------------------------
     Etot =     -552.0618533260883396
       TS =        0.0654682702295910
-------------------------------------
        F =     -552.1273215963179837

IonicMinimize: Iter:   0  F: -552.127321596317984  |grad|_K:  8.064e-04  alpha:  1.000e+00

#--- Lowdin population analysis ---
# oxidation-state C +0.038 +0.038 +0.034 +0.039 +0.037 +0.039 +0.038 +0.036 +0.011 +0.040 +0.037 +0.026 +0.039 +0.037 +0.040 +0.024 +0.010 +0.037 +0.015 -0.004 +0.041 +0.034 -0.011 +0.038 +0.036 +0.037 +0.034 +0.023 +0.042 +0.041 +0.027 +0.042 +0.041 +0.029 +0.040 +0.039 +0.037 +0.041 +0.033 +0.019 +0.042 +0.029 +0.034 +0.041 +0.032 +0.120 +0.043 +0.037 +0.133 +0.040 +0.042 +0.037 +0.039 -0.002 +0.004 +0.042 +0.026 +0.017 +0.039 +0.043 +0.037 +0.041 +0.042 +0.038 +0.046 +0.041 +0.039 +0.139 +0.042 +0.040 +0.041
# oxidation-state N -0.001
# oxidation-state S -0.497 +0.063 +0.064 -0.481
# oxidation-state Na +0.779 +0.780


Computing DFT-D3 correction:
# coordination-number C 3.300 3.300 3.302 3.300 3.301 3.300 3.300 3.301 3.320 3.300 3.302 3.294 3.300 3.300 3.300 3.323 3.382 3.300 3.380 3.497 3.301 3.323 3.644 3.302 3.300 3.300 3.300 3.353 3.300 3.300 3.288 3.300 3.300 3.288 3.300 3.300 3.300 3.300 3.302 3.334 3.300 3.306 3.305 3.300 3.305 3.378 3.300 3.303 3.342 3.300 3.300 3.300 3.300 3.562 3.512 3.301 3.338 3.464 3.309 3.300 3.300 3.300 3.300 3.300 3.299 3.300 3.300 3.302 3.300 3.300 3.300
# coordination-number N 3.225
# coordination-number S 2.924 3.090 3.070 2.944
# coordination-number Na 4.143 4.561
# diagonal-C6 C 24.28 24.28 24.26 24.29 24.28 24.28 24.28 24.27 24.08 24.28 24.26 24.33 24.28 24.28 24.28 24.05 23.34 24.28 23.37 21.69 24.27 24.05 19.79 24.26 24.28 24.28 24.28 23.71 24.29 24.29 24.39 24.29 24.29 24.40 24.29 24.28 24.28 24.29 24.26 23.93 24.29 24.22 24.23 24.29 24.23 23.40 24.28 24.25 23.84 24.28 24.28 24.28 24.28 20.76 21.46 24.28 23.89 22.18 24.19 24.29 24.28 24.28 24.28 24.28 24.29 24.28 24.28 24.27 24.29 24.29 24.28
# diagonal-C6 N 15.60
# diagonal-C6 S 125.81 125.81 125.81 125.81
# diagonal-C6 Na 186.11 186.11
EvdW_6 =   -0.063717
EvdW_8 =   -0.055929

-------- Electronic minimization -----------
Will mix electronic density at each iteration.
	FillingsUpdate:  mu: -0.158098793  nElectrons: 331.000000
	FillingsUpdate:  mu: -0.158111988  nElectrons: 331.000000
SCF: Cycle:  0   F: -552.127331391594225   dF: -1.158e-06   |Residual|: 5.899e-04   |deigs|: 2.733e-06  t[s]:  23834.50
	FillingsUpdate:  mu: -0.158111524  nElectrons: 331.000000
SCF: Cycle:  1   F: -552.127332318593517   dF: -9.270e-07   |Residual|: 2.435e-04   |deigs|: 7.253e-06  t[s]:  24231.57
	FillingsUpdate:  mu: -0.158111935  nElectrons: 331.000000
SCF: Cycle:  2   F: -552.127332421930419   dF: -1.033e-07   |Residual|: 8.241e-05   |deigs|: 4.714e-06  t[s]:  24627.46
	FillingsUpdate:  mu: -0.158112448  nElectrons: 331.000000
SCF: Cycle:  3   F: -552.127332431922923   dF: -9.993e-09   |Residual|: 3.061e-05   |deigs|: 5.238e-06  t[s]:  25024.60
	FillingsUpdate:  mu: -0.158112878  nElectrons: 331.000000
SCF: Cycle:  4   F: -552.127332436599772   dF: -4.677e-09   |Residual|: 1.075e-05   |deigs|: 7.081e-06  t[s]:  25423.56
SCF: Converged (|Delta E|<1.000000e-08 for 2 iters).

Setting wave functions to eigenvectors of Hamiltonian
IonicMinimize: 	Predicted alpha/alphaT>3.000000, increasing alphaT to 3.000000e+00.

Computing DFT-D3 correction:
# coordination-number C 3.300 3.300 3.302 3.300 3.301 3.300 3.300 3.301 3.320 3.300 3.302 3.294 3.300 3.300 3.300 3.323 3.382 3.300 3.380 3.497 3.301 3.323 3.644 3.302 3.300 3.300 3.300 3.353 3.300 3.300 3.288 3.300 3.300 3.288 3.300 3.300 3.300 3.300 3.302 3.334 3.300 3.306 3.305 3.300 3.305 3.378 3.300 3.303 3.342 3.300 3.300 3.300 3.300 3.562 3.512 3.301 3.338 3.464 3.309 3.300 3.300 3.300 3.300 3.300 3.299 3.300 3.300 3.302 3.300 3.300 3.300
# coordination-number N 3.225
# coordination-number S 2.924 3.091 3.070 2.943
# coordination-number Na 4.141 4.560
# diagonal-C6 C 24.28 24.28 24.26 24.29 24.28 24.28 24.28 24.27 24.08 24.28 24.26 24.33 24.28 24.28 24.28 24.05 23.34 24.28 23.37 21.69 24.27 24.05 19.79 24.26 24.28 24.28 24.28 23.71 24.29 24.29 24.39 24.29 24.29 24.40 24.29 24.28 24.28 24.29 24.26 23.93 24.29 24.22 24.23 24.29 24.23 23.40 24.28 24.25 23.84 24.28 24.28 24.28 24.28 20.76 21.46 24.28 23.89 22.18 24.19 24.29 24.28 24.28 24.28 24.28 24.29 24.28 24.28 24.27 24.29 24.29 24.28
# diagonal-C6 N 15.60
# diagonal-C6 S 125.81 125.81 125.81 125.81
# diagonal-C6 Na 186.11 186.11
EvdW_6 =   -0.063719
EvdW_8 =   -0.055934

-------- Electronic minimization -----------
Will mix electronic density at each iteration.
	FillingsUpdate:  mu: -0.158112878  nElectrons: 331.000000
	FillingsUpdate:  mu: -0.158112090  nElectrons: 331.000000
SCF: Cycle:  0   F: -552.127344360917618   dF: -4.504e-06   |Residual|: 1.197e-03   |deigs|: 2.994e-07  t[s]:  26099.06
	FillingsUpdate:  mu: -0.158110793  nElectrons: 331.000000
SCF: Cycle:  1   F: -552.127348214209860   dF: -3.853e-06   |Residual|: 4.886e-04   |deigs|: 1.588e-05  t[s]:  26493.62
	FillingsUpdate:  mu: -0.158111498  nElectrons: 331.000000
SCF: Cycle:  2   F: -552.127348637673663   dF: -4.235e-07   |Residual|: 1.585e-04   |deigs|: 1.108e-05  t[s]:  26892.28
	FillingsUpdate:  mu: -0.158112534  nElectrons: 331.000000
SCF: Cycle:  3   F: -552.127348671552454   dF: -3.388e-08   |Residual|: 5.873e-05   |deigs|: 1.210e-05  t[s]:  27289.34
	FillingsUpdate:  mu: -0.158113436  nElectrons: 331.000000
SCF: Cycle:  4   F: -552.127348690165036   dF: -1.861e-08   |Residual|: 2.161e-05   |deigs|: 1.551e-05  t[s]:  27686.58
	FillingsUpdate:  mu: -0.158114445  nElectrons: 331.000000
SCF: Cycle:  5   F: -552.127348700762468   dF: -1.060e-08   |Residual|: 1.230e-05   |deigs|: 2.047e-05  t[s]:  28081.54
	FillingsUpdate:  mu: -0.158115721  nElectrons: 331.000000
SCF: Cycle:  6   F: -552.127348705213990   dF: -4.452e-09   |Residual|: 8.865e-06   |deigs|: 2.188e-05  t[s]:  28477.92
	FillingsUpdate:  mu: -0.158116746  nElectrons: 331.000000
SCF: Cycle:  7   F: -552.127348707693727   dF: -2.480e-09   |Residual|: 6.182e-06   |deigs|: 1.362e-05  t[s]:  28854.89
SCF: Converged (|Delta E|<1.000000e-08 for 2 iters).

Setting wave functions to eigenvectors of Hamiltonian

Computing DFT-D3 correction:
# coordination-number C 3.300 3.300 3.302 3.300 3.301 3.300 3.300 3.301 3.320 3.300 3.302 3.294 3.300 3.300 3.300 3.323 3.383 3.300 3.380 3.497 3.301 3.323 3.644 3.302 3.300 3.300 3.300 3.353 3.300 3.300 3.288 3.300 3.300 3.288 3.300 3.300 3.300 3.300 3.302 3.334 3.300 3.306 3.305 3.300 3.305 3.378 3.300 3.303 3.342 3.300 3.300 3.300 3.300 3.562 3.513 3.301 3.337 3.463 3.309 3.300 3.300 3.300 3.300 3.300 3.299 3.300 3.300 3.302 3.300 3.300 3.300
# coordination-number N 3.225
# coordination-number S 2.923 3.092 3.070 2.941
# coordination-number Na 4.137 4.558
# diagonal-C6 C 24.28 24.28 24.26 24.29 24.28 24.28 24.28 24.27 24.08 24.28 24.26 24.33 24.28 24.28 24.28 24.05 23.34 24.28 23.37 21.69 24.27 24.05 19.80 24.26 24.28 24.28 24.28 23.71 24.29 24.29 24.39 24.29 24.29 24.40 24.29 24.28 24.28 24.29 24.26 23.93 24.29 24.22 24.23 24.29 24.23 23.40 24.28 24.25 23.84 24.28 24.28 24.28 24.28 20.76 21.46 24.28 23.89 22.19 24.19 24.29 24.28 24.28 24.28 24.28 24.29 24.28 24.28 24.27 24.29 24.29 24.28
# diagonal-C6 N 15.60
# diagonal-C6 S 125.81 125.81 125.81 125.81
# diagonal-C6 Na 186.11 186.11
EvdW_6 =   -0.063722
EvdW_8 =   -0.055942

-------- Electronic minimization -----------
Will mix electronic density at each iteration.
	FillingsUpdate:  mu: -0.158116746  nElectrons: 331.000000
	FillingsUpdate:  mu: -0.158108746  nElectrons: 331.000000
SCF: Cycle:  0   F: -552.127345201209891   dF: -1.378e-05   |Residual|: 2.179e-03   |deigs|: 1.162e-06  t[s]:  29758.88
	FillingsUpdate:  mu: -0.158106063  nElectrons: 331.000000
SCF: Cycle:  1   F: -552.127358064826240   dF: -1.286e-05   |Residual|: 9.109e-04   |deigs|: 3.242e-05  t[s]:  30156.84
	FillingsUpdate:  mu: -0.158107648  nElectrons: 331.000000
SCF: Cycle:  2   F: -552.127359588208492   dF: -1.523e-06   |Residual|: 2.977e-04   |deigs|: 2.354e-05  t[s]:  30552.29
	FillingsUpdate:  mu: -0.158109669  nElectrons: 331.000000
SCF: Cycle:  3   F: -552.127359686407090   dF: -9.820e-08   |Residual|: 1.138e-04   |deigs|: 2.401e-05  t[s]:  30949.32
	FillingsUpdate:  mu: -0.158111784  nElectrons: 331.000000
SCF: Cycle:  4   F: -552.127359763344316   dF: -7.694e-08   |Residual|: 4.613e-05   |deigs|: 3.130e-05  t[s]:  31346.13
	FillingsUpdate:  mu: -0.158114187  nElectrons: 331.000000
SCF: Cycle:  5   F: -552.127359804204843   dF: -4.086e-08   |Residual|: 2.624e-05   |deigs|: 3.979e-05  t[s]:  31742.60
	FillingsUpdate:  mu: -0.158116304  nElectrons: 331.000000
SCF: Cycle:  6   F: -552.127359816256217   dF: -1.205e-08   |Residual|: 1.920e-05   |deigs|: 2.562e-05  t[s]:  32138.94
	FillingsUpdate:  mu: -0.158118514  nElectrons: 331.000000
SCF: Cycle:  7   F: -552.127359825634812   dF: -9.379e-09   |Residual|: 1.335e-05   |deigs|: 2.018e-05  t[s]:  32723.41
	FillingsUpdate:  mu: -0.158121344  nElectrons: 331.000000
SCF: Cycle:  8   F: -552.127359832334719   dF: -6.700e-09   |Residual|: 9.977e-06   |deigs|: 1.549e-05  t[s]:  33314.92
SCF: Converged (|Delta E|<1.000000e-08 for 2 iters).

Setting wave functions to eigenvectors of Hamiltonian

Computing DFT-D3 correction:
# coordination-number C 3.300 3.300 3.302 3.300 3.301 3.300 3.300 3.301 3.320 3.300 3.302 3.294 3.300 3.300 3.300 3.323 3.383 3.300 3.380 3.497 3.301 3.323 3.644 3.302 3.300 3.300 3.300 3.353 3.300 3.300 3.288 3.300 3.300 3.288 3.300 3.300 3.300 3.300 3.302 3.334 3.300 3.306 3.305 3.300 3.305 3.378 3.300 3.303 3.342 3.300 3.300 3.300 3.300 3.562 3.513 3.301 3.337 3.463 3.309 3.300 3.300 3.300 3.300 3.300 3.299 3.300 3.300 3.302 3.300 3.300 3.300
# coordination-number N 3.225
# coordination-number S 2.923 3.092 3.070 2.941
# coordination-number Na 4.137 4.558
# diagonal-C6 C 24.28 24.28 24.26 24.29 24.28 24.28 24.28 24.27 24.08 24.28 24.26 24.33 24.28 24.28 24.28 24.05 23.34 24.28 23.37 21.69 24.27 24.05 19.80 24.26 24.28 24.28 24.28 23.71 24.29 24.29 24.39 24.29 24.29 24.40 24.29 24.28 24.28 24.29 24.26 23.93 24.29 24.22 24.23 24.29 24.23 23.40 24.28 24.25 23.84 24.28 24.28 24.28 24.28 20.76 21.46 24.28 23.89 22.19 24.19 24.29 24.28 24.28 24.28 24.28 24.29 24.28 24.28 24.27 24.29 24.29 24.28
# diagonal-C6 N 15.60
# diagonal-C6 S 125.81 125.81 125.81 125.81
# diagonal-C6 Na 186.11 186.11
EvdW_6 =   -0.063722
EvdW_8 =   -0.055942

# Ionic positions in cartesian coordinates:
ion C -14.002918197300009  24.253758582300001   2.000000000000000 0
ion C  -2.333816550000000   4.042302545699999   2.000000000000000 0
ion C  11.669101647300000  20.211493831199999   2.000000000000000 0
ion C  -9.335266200000007  24.253758582300001   2.000000000000000 0
ion C   9.335303994599993  24.253758582300001   2.000000000000000 0
ion C   2.333816549999999   4.042302545699999   2.000000000000000 0
ion C -11.669120544600000  20.211493831199999   2.000000000000000 0
ion C  -4.667651997299999   8.084605091399998   2.000000000000000 0
ion C   9.335285097299998  16.169191285499998   2.000000000000000 0
ion C  -4.667614202700008  24.253758582300001   2.000000000000000 0
ion C   4.667651997299995  24.253758582300001   2.000000000000000 0
ion C   4.667651997299999   8.084605091399998   2.000000000000000 0
ion C  -9.335303994599998  16.169191285499998   2.000000000000000 0
ion C  -7.001468547300001  12.126907637100000   2.000000000000000 0
ion C   0.000037794599990  24.253758582300001   2.000000000000000 0
ion C   0.000000000000000   8.084605091399998   2.000000000000000 0
ion C   7.001449650000005  20.211493831199999   2.000000000000000 0
ion C  -7.001468547300000  20.211493831199999   2.000000000000000 0
ion C  -2.333816549999999  12.126907637100000   2.000000000000000 0
ion C   4.667633100000000  16.169191285499998   2.000000000000000 0
ion C  -2.333816549999995  20.211493831199999   2.000000000000000 0
ion C   2.333835447300000  20.211493831199999   2.000000000000000 0
ion C   2.333835447299999  12.126907637100000   2.000000000000000 0
ion C  -4.667651997299999  16.169191285499998   2.000000000000000 0
ion C   7.001449650000000   4.042302545699999   2.000000000000000 0
ion C  21.004386744600001   4.042302545699999   2.000000000000000 0
ion C  14.002937094600000  16.169191285499998   2.000000000000000 0
ion C   0.000000000000000  16.169191285499998   2.000000000000000 0
ion C  11.669101647300000   4.042302545699999   2.000000000000000 0
ion C  18.670589091899998   8.084605091399998   2.000000000000000 0
ion C  11.669101647300000  12.126907637100000   2.000000000000000 0
ion C  16.336753644600002  12.126907637100000   2.000000000000000 0
ion C  16.336753644600002   4.042302545699999   2.000000000000000 0
ion C   9.335285097300002   8.084605091399998   2.000000000000000 0
ion C  14.002937094600000   8.084605091399998   2.000000000000000 0
ion C   0.000018897300000   2.694868363800000   2.000000000000000 0
ion C  11.669120544600000  22.906362195000000   2.000000000000000 0
ion C -11.669120544600002  22.906362195000000   2.000000000000000 0
ion C  -2.333816549999999   6.737152012199999   2.000000000000000 0
ion C   9.335285097299998  18.864059649300000   2.000000000000000 0
ion C  -7.001468547300003  22.906362195000000   2.000000000000000 0
ion C   7.001468547300002  22.906362195000000   2.000000000000000 0
ion C   2.333816550000000   6.737152012199999   2.000000000000000 0
ion C  -9.335285097299998  18.864059649300000   2.000000000000000 0
ion C  -4.667633100000000  10.779454557899999   2.000000000000000 0
ion C   7.001468547300002  14.821757103600000   2.000000000000000 0
ion C  -2.333835447300000  22.906362195000000   2.000000000000000 0
ion C   2.333816550000000  22.906362195000000   2.000000000000000 0
ion C   4.667633100000000  10.779454557899999   2.000000000000000 0
ion C  -7.001468547300001  14.821757103600000   2.000000000000000 0
ion C   4.667633100000003   2.694868363800000   2.000000000000000 0
ion C  23.338222191900002   2.694868363800000   2.000000000000000 0
ion C  14.002918197300001  18.864059649300000   2.000000000000000 0
ion C   0.000018897300000  10.779454557899999   2.000000000000000 0
ion C   4.667633100000000  18.864059649300000   2.000000000000000 0
ion C  -4.667633099999996  18.864059649300000   2.000000000000000 0
ion C  -2.333816550000000  14.821757103600000   2.000000000000000 0
ion C   2.333816550000000  14.821757103600000   2.000000000000000 0
ion C  -0.000018897299999  18.864059649300000   2.000000000000000 0
ion C   9.335285097300000   2.694868363800000   2.000000000000000 0
ion C  21.004386744599998   6.737152012199999   2.000000000000000 0
ion C  11.669120544600002  14.821757103600000   2.000000000000000 0
ion C  16.336734747299992  14.821757103600000   2.000000000000000 0
ion C  18.670570194600000   2.694868363800000   2.000000000000000 0
ion C   7.001468547300000   6.737152012199999   2.000000000000000 0
ion C  14.002937094600002   2.694868363800000   2.000000000000000 0
ion C  18.670570194600000  10.779454557899999   2.000000000000000 0
ion C   9.335285097300000  10.779454557899999   2.000000000000000 0
ion C  11.669120544600000   6.737152012199999   2.000000000000000 0
ion C  16.336734747299989   6.737152012199999   2.000000000000000 0
ion C  14.002937094600000  10.779454557899999   2.000000000000000 0
ion N   7.001449650000002  12.126907637100000   2.000000000000000 0
ion S   6.191901875199131  12.435656845231106   8.392148995222952 1
ion S   4.314293350742605  12.558866587678336  11.799360678088577 1
ion S   2.937034126396950  16.255604977356441  12.393302901376694 1
ion S   0.838834699112608  17.346701619807327   9.284693115543076 1
ion Na   5.716579142097101  17.591983854523860   7.669409947843755 1
ion Na   0.981351920731703  12.462195623091294   7.456316342869493 1

# Forces in Cartesian coordinates:
force C   0.001830635908103  -0.001039575757014   0.000051228743173 0
force C   0.000973364983702  -0.000426706530711   0.000040408235677 0
force C   0.002324063049915  -0.000820581786568   0.000191750428958 0
force C   0.000790703121679   0.001102446753346   0.000017037237372 0
force C   0.000716182193259  -0.000354455039704   0.000028611804134 0
force C   0.001796305797040  -0.000886672874979   0.000094027321939 0
force C  -0.000596287862783  -0.001208517383790   0.000024007357725 0
force C  -0.000083053534828   0.000127852089990  -0.000021531443701 0
force C  -0.002553966987735  -0.010681629274994   0.000008228898203 0
force C  -0.001137369510804   0.000934599908869   0.000032069654711 0
force C  -0.000235892241148  -0.000089270223287   0.000027094230943 0
force C   0.007519049662783   0.008035420708475  -0.000307365552136 0
force C  -0.001327866131287   0.000630226212950   0.000042157216509 0
force C  -0.000217669885474   0.002205185980266   0.000043738139374 0
force C  -0.001945754972134  -0.001086557817576   0.000107109633496 0
force C   0.000584970128651  -0.002347214215178   0.000519034136212 0
force C   0.001094832480773   0.000852033490217   0.000641074615514 0
force C   0.000051301936359  -0.000070758346767   0.000028113949238 0
force C  -0.001983703703573   0.002587059357221   0.000389087124010 0
force C   0.003076877579590  -0.010917625756665  -0.000605362288911 0
force C   0.000741166329656  -0.001297243210396   0.000134784519452 0
force C  -0.003533432164495  -0.000048208531365   0.000227291352939 0
force C   0.011639308158556   0.002407900201962  -0.001015590633418 0
force C   0.000932475856338   0.000742810306375   0.000206044122761 0
force C  -0.000114277956508   0.005399960839834   0.000033484554885 0
force C   0.000208991759550  -0.000227707687298   0.000018219249252 0
force C  -0.004828681237087  -0.002684195851842   0.000025205486181 0
force C   0.004843836976722  -0.001872967052628  -0.000312862450244 0
force C  -0.001943197987862  -0.000865182354045   0.000035872019706 0
force C  -0.000382292075349   0.000587507419529   0.000018702979093 0
force C  -0.009559477035526   0.002404420250175   0.000098217435325 0
force C  -0.000264046932942   0.002207855250067   0.000027388615697 0
force C  -0.000801706306789  -0.000097444257698   0.000021289868423 0
force C  -0.006978438411454   0.007334441009807   0.000141386552699 0
force C  -0.000618795138657   0.000260949807528   0.000059515219299 0
force C  -0.000939334536412   0.000882231640618   0.000020910304122 0
force C  -0.000983554715327   0.000477990855457   0.000007869983277 0
force C  -0.001813859905806   0.001113830219207   0.000019083340740 0
force C  -0.000668828780879  -0.000350432538536   0.000049520596217 0
force C  -0.003228626361044   0.001318939865194   0.000401164472747 0
force C   0.000294690886718  -0.000057090061981   0.000031823639756 0
force C  -0.000221296206901   0.001848143751388   0.000293458928128 0
force C  -0.003233168682056   0.002992715873905   0.000081009601452 0
force C   0.000296681103486  -0.000201570020289   0.000025512669453 0
force C  -0.000698586690913  -0.001366004948270   0.000235084352193 0
force C   0.000993804547842  -0.006570741309590  -0.000289339544394 0
force C   0.002137208976695   0.001076038683124   0.000091263675226 0
force C   0.000554782388161   0.000134655988303   0.000034577733690 0
force C   0.006786398257078   0.000874249145142  -0.000042566379993 0
force C  -0.000033214666872  -0.002289142956639   0.000021116119280 0
force C  -0.001758323846651  -0.000907054548829   0.000031349081378 0
force C  -0.001144174111457   0.000657415068019   0.000027030571239 0
force C   0.000104642599015   0.002106900725235   0.000030042916504 0
force C   0.001114196739401  -0.005392819677788   0.000546539046916 0
force C   0.003211628409968   0.001474417963775   0.000177062501413 0
force C  -0.000219390601878   0.000042100249522   0.000100774062632 0
force C  -0.002732101431683  -0.000126647419685   0.000048682952223 0
force C  -0.006887596025192   0.004696533419753  -0.000916615784565 0
force C  -0.000291439864730   0.003007341363723   0.000167768412658 0
force C   0.002185966631822  -0.000768800212465   0.000039229805098 0
force C  -0.000094908647031  -0.000684130025759   0.000066611213543 0
force C   0.006717037471028   0.002676819266473   0.000203622587077 0
force C   0.001809567728648  -0.001686872409195   0.000040576873010 0
force C   0.000680938915234   0.000501635441795   0.000065809946434 0
force C   0.000208657393118  -0.006637204628566   0.000210659969458 0
force C   0.000856654071131   0.000889494866659   0.000020081501090 0
force C  -0.000342565756308  -0.001242554023906   0.000021928257107 0
force C  -0.004497590590353   0.002151654225439   0.000341959765327 0
force C   0.003368900470904   0.003633460069931   0.000028777665611 0
force C   0.000357466110068  -0.000159532275886   0.000020635830228 0
force C  -0.001559958911312  -0.004678180998233   0.000038323374794 0
force N  -0.000121230904282  -0.000746440306457  -0.001135288743596 0
force S   0.000103332571663  -0.000424224335673  -0.000170417104578 1
force S   0.000245146697175   0.000231588329153  -0.000002460489039 1
force S  -0.000758436386444   0.000661141864886  -0.001433820502051 1
force S  -0.000382496385948  -0.000182184302929   0.000582550400258 1
force Na   0.000509077416503   0.000298971056404  -0.000072780162003 1
force Na   0.000057779471515  -0.000074651604627   0.000231621218312 1

# Energy components:
   Eewald =    -1525.0123365163378821
       EH =    -1104.4359247172342293
     Eloc =     2037.6544766111039735
      Enl =      -77.8285038399268245
     EvdW =       -0.1196631346756875
      Exc =     -162.7512306434967968
 Exc_core =        9.5505255673176332
       KE =      270.8806999639351147
-------------------------------------
     Etot =     -552.0619567093149271
       TS =        0.0654031230198042
-------------------------------------
        F =     -552.1273598323347187

IonicMinimize: Iter:   1  F: -552.127359832334719  |grad|_K:  4.909e-04  alpha:  6.584e+00  linmin:  1.232e-03  t[s]:  33446.72

#--- Lowdin population analysis ---
# oxidation-state C +0.038 +0.038 +0.034 +0.039 +0.037 +0.039 +0.038 +0.036 +0.011 +0.040 +0.037 +0.026 +0.039 +0.037 +0.040 +0.024 +0.010 +0.037 +0.015 -0.004 +0.041 +0.034 -0.011 +0.038 +0.036 +0.037 +0.034 +0.023 +0.042 +0.041 +0.028 +0.042 +0.041 +0.029 +0.040 +0.039 +0.037 +0.041 +0.033 +0.019 +0.042 +0.029 +0.034 +0.041 +0.032 +0.120 +0.043 +0.037 +0.133 +0.040 +0.042 +0.037 +0.039 -0.002 +0.004 +0.042 +0.026 +0.017 +0.039 +0.043 +0.037 +0.041 +0.042 +0.038 +0.046 +0.041 +0.039 +0.139 +0.042 +0.040 +0.041
# oxidation-state N -0.001
# oxidation-state S -0.499 +0.067 +0.064 -0.486
# oxidation-state Na +0.779 +0.779


Computing DFT-D3 correction:
# coordination-number C 3.300 3.300 3.302 3.300 3.301 3.300 3.300 3.301 3.321 3.300 3.302 3.294 3.300 3.300 3.300 3.323 3.383 3.300 3.380 3.496 3.301 3.323 3.643 3.302 3.300 3.300 3.300 3.353 3.300 3.300 3.288 3.300 3.300 3.288 3.300 3.300 3.300 3.300 3.302 3.334 3.300 3.306 3.305 3.300 3.305 3.378 3.300 3.303 3.342 3.300 3.300 3.300 3.300 3.561 3.513 3.301 3.337 3.463 3.309 3.300 3.300 3.300 3.300 3.300 3.299 3.300 3.300 3.302 3.300 3.300 3.300
# coordination-number N 3.225
# coordination-number S 2.922 3.093 3.075 2.939
# coordination-number Na 4.132 4.555
# diagonal-C6 C 24.28 24.28 24.26 24.29 24.28 24.28 24.28 24.27 24.07 24.28 24.26 24.33 24.28 24.28 24.28 24.05 23.33 24.28 23.38 21.70 24.27 24.05 19.81 24.26 24.28 24.28 24.28 23.71 24.29 24.29 24.39 24.29 24.29 24.40 24.29 24.28 24.28 24.29 24.26 23.93 24.29 24.22 24.23 24.29 24.23 23.39 24.28 24.25 23.84 24.28 24.28 24.28 24.28 20.78 21.45 24.28 23.89 22.20 24.20 24.29 24.28 24.28 24.28 24.28 24.29 24.28 24.28 24.27 24.29 24.29 24.28
# diagonal-C6 N 15.60
# diagonal-C6 S 125.81 125.81 125.81 125.81
# diagonal-C6 Na 186.11 186.11
EvdW_6 =   -0.063726
EvdW_8 =   -0.055947

-------- Electronic minimization -----------
Will mix electronic density at each iteration.
	FillingsUpdate:  mu: -0.158121344  nElectrons: 331.000000
	FillingsUpdate:  mu: -0.158121879  nElectrons: 331.000000
SCF: Cycle:  0   F: -552.127373537976496   dF: -1.652e-05   |Residual|: 1.832e-03   |deigs|: 2.379e-06  t[s]:  34306.97
	FillingsUpdate:  mu: -0.158122661  nElectrons: 331.000000
SCF: Cycle:  1   F: -552.127379318091243   dF: -5.780e-06   |Residual|: 7.517e-04   |deigs|: 1.913e-05  t[s]:  34703.31
	FillingsUpdate:  mu: -0.158120939  nElectrons: 331.000000
SCF: Cycle:  2   F: -552.127380297568379   dF: -9.795e-07   |Residual|: 1.936e-04   |deigs|: 2.025e-05  t[s]:  35101.06
	FillingsUpdate:  mu: -0.158119265  nElectrons: 331.000000
SCF: Cycle:  3   F: -552.127380381976423   dF: -8.441e-08   |Residual|: 1.007e-04   |deigs|: 1.662e-05  t[s]:  35497.77
	FillingsUpdate:  mu: -0.158116579  nElectrons: 331.000000
SCF: Cycle:  4   F: -552.127380436449585   dF: -5.447e-08   |Residual|: 3.911e-05   |deigs|: 2.962e-05  t[s]:  35894.35
	FillingsUpdate:  mu: -0.158114552  nElectrons: 331.000000
SCF: Cycle:  5   F: -552.127380465275905   dF: -2.883e-08   |Residual|: 2.359e-05   |deigs|: 2.749e-05  t[s]:  36292.03
	FillingsUpdate:  mu: -0.158110962  nElectrons: 331.000000
SCF: Cycle:  6   F: -552.127380487515552   dF: -2.224e-08   |Residual|: 1.914e-05   |deigs|: 4.496e-05  t[s]:  36879.78
	FillingsUpdate:  mu: -0.158108866  nElectrons: 331.000000
SCF: Cycle:  7   F: -552.127380494944305   dF: -7.429e-09   |Residual|: 1.330e-05   |deigs|: 2.565e-05  t[s]:  37276.42
	FillingsUpdate:  mu: -0.158106492  nElectrons: 331.000000
SCF: Cycle:  8   F: -552.127380500514164   dF: -5.570e-09   |Residual|: 9.771e-06   |deigs|: 2.078e-05  t[s]:  37865.09
SCF: Converged (|Delta E|<1.000000e-08 for 2 iters).

Setting wave functions to eigenvectors of Hamiltonian

Computing DFT-D3 correction:
# coordination-number C 3.300 3.300 3.302 3.300 3.301 3.300 3.300 3.301 3.321 3.300 3.302 3.294 3.300 3.300 3.300 3.323 3.384 3.300 3.379 3.496 3.301 3.323 3.642 3.302 3.300 3.300 3.300 3.353 3.300 3.300 3.288 3.300 3.300 3.288 3.300 3.300 3.300 3.300 3.302 3.335 3.300 3.306 3.305 3.300 3.305 3.379 3.300 3.303 3.342 3.300 3.300 3.300 3.300 3.560 3.513 3.301 3.337 3.462 3.309 3.300 3.300 3.300 3.300 3.300 3.299 3.300 3.300 3.302 3.300 3.300 3.300
# coordination-number N 3.225
# coordination-number S 2.921 3.094 3.080 2.937
# coordination-number Na 4.128 4.552
# diagonal-C6 C 24.28 24.28 24.26 24.29 24.28 24.28 24.28 24.27 24.07 24.28 24.26 24.33 24.28 24.28 24.28 24.05 23.33 24.28 23.38 21.70 24.27 24.05 19.82 24.26 24.28 24.28 24.28 23.71 24.29 24.29 24.39 24.29 24.29 24.40 24.29 24.28 24.28 24.29 24.26 23.92 24.29 24.22 24.23 24.29 24.23 23.39 24.28 24.25 23.84 24.28 24.28 24.28 24.28 20.79 21.45 24.28 23.89 22.21 24.20 24.29 24.28 24.28 24.28 24.28 24.29 24.28 24.28 24.27 24.29 24.29 24.28
# diagonal-C6 N 15.60
# diagonal-C6 S 125.81 125.81 125.81 125.81
# diagonal-C6 Na 186.11 186.11
EvdW_6 =   -0.063731
EvdW_8 =   -0.055951

-------- Electronic minimization -----------
Will mix electronic density at each iteration.
	FillingsUpdate:  mu: -0.158106492  nElectrons: 331.000000
	FillingsUpdate:  mu: -0.158059318  nElectrons: 331.000000
SCF: Cycle:  0   F: -552.127380889953997   dF: -1.324e-05   |Residual|: 1.575e-03   |deigs|: 2.457e-06  t[s]:  38736.29
	FillingsUpdate:  mu: -0.158059665  nElectrons: 331.000000
SCF: Cycle:  1   F: -552.127385020414295   dF: -4.130e-06   |Residual|: 6.545e-04   |deigs|: 1.391e-05  t[s]:  39131.84
	FillingsUpdate:  mu: -0.158058993  nElectrons: 331.000000
SCF: Cycle:  2   F: -552.127385686807315   dF: -6.664e-07   |Residual|: 1.663e-04   |deigs|: 1.263e-05  t[s]:  39527.35
	FillingsUpdate:  mu: -0.158058222  nElectrons: 331.000000
SCF: Cycle:  3   F: -552.127385749717632   dF: -6.291e-08   |Residual|: 8.339e-05   |deigs|: 9.029e-06  t[s]:  39924.43
	FillingsUpdate:  mu: -0.158056891  nElectrons: 331.000000
SCF: Cycle:  4   F: -552.127385776837741   dF: -2.712e-08   |Residual|: 2.926e-05   |deigs|: 1.485e-05  t[s]:  40323.22
	FillingsUpdate:  mu: -0.158056000  nElectrons: 331.000000
SCF: Cycle:  5   F: -552.127385786828768   dF: -9.991e-09   |Residual|: 1.857e-05   |deigs|: 1.129e-05  t[s]:  40720.59
	FillingsUpdate:  mu: -0.158054147  nElectrons: 331.000000
SCF: Cycle:  6   F: -552.127385793997405   dF: -7.169e-09   |Residual|: 1.397e-05   |deigs|: 2.291e-05  t[s]:  41306.16
SCF: Converged (|Delta E|<1.000000e-08 for 2 iters).

Setting wave functions to eigenvectors of Hamiltonian

Computing DFT-D3 correction:
# coordination-number C 3.300 3.300 3.302 3.300 3.301 3.300 3.300 3.301 3.321 3.300 3.302 3.294 3.300 3.300 3.300 3.323 3.384 3.300 3.379 3.496 3.301 3.323 3.642 3.302 3.300 3.300 3.300 3.353 3.300 3.300 3.288 3.300 3.300 3.288 3.300 3.300 3.300 3.300 3.302 3.335 3.300 3.306 3.305 3.300 3.305 3.379 3.300 3.303 3.342 3.300 3.300 3.300 3.300 3.560 3.513 3.301 3.337 3.462 3.309 3.300 3.300 3.300 3.300 3.300 3.299 3.300 3.300 3.302 3.300 3.300 3.300
# coordination-number N 3.225
# coordination-number S 2.921 3.094 3.080 2.937
# coordination-number Na 4.128 4.552
# diagonal-C6 C 24.28 24.28 24.26 24.29 24.28 24.28 24.28 24.27 24.07 24.28 24.26 24.33 24.28 24.28 24.28 24.05 23.33 24.28 23.38 21.70 24.27 24.05 19.82 24.26 24.28 24.28 24.28 23.71 24.29 24.29 24.39 24.29 24.29 24.40 24.29 24.28 24.28 24.29 24.26 23.92 24.29 24.22 24.23 24.29 24.23 23.39 24.28 24.25 23.84 24.28 24.28 24.28 24.28 20.79 21.45 24.28 23.89 22.21 24.20 24.29 24.28 24.28 24.28 24.28 24.29 24.28 24.28 24.27 24.29 24.29 24.28
# diagonal-C6 N 15.60
# diagonal-C6 S 125.81 125.81 125.81 125.81
# diagonal-C6 Na 186.11 186.11
EvdW_6 =   -0.063731
EvdW_8 =   -0.055951

# Ionic positions in cartesian coordinates:
ion C -14.002918197300009  24.253758582300001   2.000000000000000 0
ion C  -2.333816550000000   4.042302545699999   2.000000000000000 0
ion C  11.669101647300000  20.211493831199999   2.000000000000000 0
ion C  -9.335266200000007  24.253758582300001   2.000000000000000 0
ion C   9.335303994599993  24.253758582300001   2.000000000000000 0
ion C   2.333816549999999   4.042302545699999   2.000000000000000 0
ion C -11.669120544600000  20.211493831199999   2.000000000000000 0
ion C  -4.667651997299999   8.084605091399998   2.000000000000000 0
ion C   9.335285097299998  16.169191285499998   2.000000000000000 0
ion C  -4.667614202700008  24.253758582300001   2.000000000000000 0
ion C   4.667651997299995  24.253758582300001   2.000000000000000 0
ion C   4.667651997299999   8.084605091399998   2.000000000000000 0
ion C  -9.335303994599998  16.169191285499998   2.000000000000000 0
ion C  -7.001468547300001  12.126907637100000   2.000000000000000 0
ion C   0.000037794599990  24.253758582300001   2.000000000000000 0
ion C   0.000000000000000   8.084605091399998   2.000000000000000 0
ion C   7.001449650000005  20.211493831199999   2.000000000000000 0
ion C  -7.001468547300000  20.211493831199999   2.000000000000000 0
ion C  -2.333816549999999  12.126907637100000   2.000000000000000 0
ion C   4.667633100000000  16.169191285499998   2.000000000000000 0
ion C  -2.333816549999995  20.211493831199999   2.000000000000000 0
ion C   2.333835447300000  20.211493831199999   2.000000000000000 0
ion C   2.333835447299999  12.126907637100000   2.000000000000000 0
ion C  -4.667651997299999  16.169191285499998   2.000000000000000 0
ion C   7.001449650000000   4.042302545699999   2.000000000000000 0
ion C  21.004386744600001   4.042302545699999   2.000000000000000 0
ion C  14.002937094600000  16.169191285499998   2.000000000000000 0
ion C   0.000000000000000  16.169191285499998   2.000000000000000 0
ion C  11.669101647300000   4.042302545699999   2.000000000000000 0
ion C  18.670589091899998   8.084605091399998   2.000000000000000 0
ion C  11.669101647300000  12.126907637100000   2.000000000000000 0
ion C  16.336753644600002  12.126907637100000   2.000000000000000 0
ion C  16.336753644600002   4.042302545699999   2.000000000000000 0
ion C   9.335285097300002   8.084605091399998   2.000000000000000 0
ion C  14.002937094600000   8.084605091399998   2.000000000000000 0
ion C   0.000018897300000   2.694868363800000   2.000000000000000 0
ion C  11.669120544600000  22.906362195000000   2.000000000000000 0
ion C -11.669120544600002  22.906362195000000   2.000000000000000 0
ion C  -2.333816549999999   6.737152012199999   2.000000000000000 0
ion C   9.335285097299998  18.864059649300000   2.000000000000000 0
ion C  -7.001468547300003  22.906362195000000   2.000000000000000 0
ion C   7.001468547300002  22.906362195000000   2.000000000000000 0
ion C   2.333816550000000   6.737152012199999   2.000000000000000 0
ion C  -9.335285097299998  18.864059649300000   2.000000000000000 0
ion C  -4.667633100000000  10.779454557899999   2.000000000000000 0
ion C   7.001468547300002  14.821757103600000   2.000000000000000 0
ion C  -2.333835447300000  22.906362195000000   2.000000000000000 0
ion C   2.333816550000000  22.906362195000000   2.000000000000000 0
ion C   4.667633100000000  10.779454557899999   2.000000000000000 0
ion C  -7.001468547300001  14.821757103600000   2.000000000000000 0
ion C   4.667633100000003   2.694868363800000   2.000000000000000 0
ion C  23.338222191900002   2.694868363800000   2.000000000000000 0
ion C  14.002918197300001  18.864059649300000   2.000000000000000 0
ion C   0.000018897300000  10.779454557899999   2.000000000000000 0
ion C   4.667633100000000  18.864059649300000   2.000000000000000 0
ion C  -4.667633099999996  18.864059649300000   2.000000000000000 0
ion C  -2.333816550000000  14.821757103600000   2.000000000000000 0
ion C   2.333816550000000  14.821757103600000   2.000000000000000 0
ion C  -0.000018897299999  18.864059649300000   2.000000000000000 0
ion C   9.335285097300000   2.694868363800000   2.000000000000000 0
ion C  21.004386744599998   6.737152012199999   2.000000000000000 0
ion C  11.669120544600002  14.821757103600000   2.000000000000000 0
ion C  16.336734747299992  14.821757103600000   2.000000000000000 0
ion C  18.670570194600000   2.694868363800000   2.000000000000000 0
ion C   7.001468547300000   6.737152012199999   2.000000000000000 0
ion C  14.002937094600002   2.694868363800000   2.000000000000000 0
ion C  18.670570194600000  10.779454557899999   2.000000000000000 0
ion C   9.335285097300000  10.779454557899999   2.000000000000000 0
ion C  11.669120544600000   6.737152012199999   2.000000000000000 0
ion C  16.336734747299989   6.737152012199999   2.000000000000000 0
ion C  14.002937094600000  10.779454557899999   2.000000000000000 0
ion N   7.001449650000002  12.126907637100000   2.000000000000000 0
ion S   6.192921789685247  12.427162939639327   8.389286144649329 1
ion S   4.317550449856706  12.569825269450980  11.799511428600558 1
ion S   2.930353948331152  16.257190328184457  12.375892799677754 1
ion S   0.826037780345368  17.347436128016888   9.287146411031607 1
ion Na   5.726674534431160  17.597627719276964   7.667618620937912 1
ion Na   0.982640562680631  12.460451691542424   7.460280910136425 1

# Forces in Cartesian coordinates:
force C   0.001828059247180  -0.001042135524105   0.000029800935113 0
force C   0.000973230686561  -0.000430647994695   0.000017668458328 0
force C   0.002329933289170  -0.000816937745096   0.000173986671768 0
force C   0.000787034281734   0.001102550690924  -0.000007677154265 0
force C   0.000717605228365  -0.000354130812307   0.000008311757066 0
force C   0.001795504648151  -0.000888414478508   0.000069920524030 0
force C  -0.000601755058153  -0.001207811111474   0.000001299811072 0
force C  -0.000082449797642   0.000125103185130  -0.000045737574205 0
force C  -0.002553114841443  -0.010690956764201  -0.000012694846084 0
force C  -0.001137071693916   0.000937051275943   0.000005027768788 0
force C  -0.000233994446942  -0.000088118164878   0.000004942266865 0
force C   0.007519651398430   0.008036220860964  -0.000333667393904 0
force C  -0.001332667307098   0.000630437772080   0.000016912174499 0
force C  -0.000219438115427   0.002203621472989   0.000018250805491 0
force C  -0.001943100704566  -0.001086358868589   0.000081778704407 0
force C   0.000586565939368  -0.002345316634979   0.000497036112897 0
force C   0.001096717332159   0.000859710408906   0.000632106529926 0
force C   0.000047434951776  -0.000069575539851   0.000001111318662 0
force C  -0.001977114967368   0.002587011866382   0.000367228413119 0
force C   0.003074327717284  -0.010929139313112  -0.000618981016000 0
force C   0.000747771796001  -0.001299013305831   0.000108256634796 0
force C  -0.003537869682802  -0.000049801541332   0.000208059756409 0
force C   0.011639467228478   0.002411625406414  -0.001037309538233 0
force C   0.000935353673117   0.000741457926230   0.000179501229202 0
force C  -0.000114995113721   0.005402679871898   0.000007865404388 0
force C   0.000208998318668  -0.000230647931188  -0.000004196435729 0
force C  -0.004833531083524  -0.002685498068001   0.000004455741950 0
force C   0.004849743269554  -0.001876077095676  -0.000338053247906 0
force C  -0.001942202948258  -0.000863491733954   0.000010184379080 0
force C  -0.000383716890874   0.000584919154409  -0.000005205560988 0
force C  -0.009561250915534   0.002405781251280   0.000078303948058 0
force C  -0.000267371684307   0.002207635433704   0.000003855557147 0
force C  -0.000801050775311  -0.000097908176146  -0.000002573525036 0
force C  -0.006979198846016   0.007339098358792   0.000117209122456 0
force C  -0.000620249038936   0.000260791767010   0.000035609959338 0
force C  -0.000942798237884   0.000880795729308  -0.000001927590970 0
force C  -0.000983576567108   0.000477011710574  -0.000012155367409 0
[...]
     EvdW =       -0.1201664612654879
      Exc =     -162.7562021090125484
 Exc_core =        9.5505267045912721
       KE =      270.8921991246388075
-------------------------------------
     Etot =     -552.0625463491564915
       TS =        0.0656060224484117
-------------------------------------
        F =     -552.1281523716048696

IonicMinimize: Iter:  55  F: -552.128152371604870  |grad|_K:  1.430e-04  alpha:  4.496e+00  linmin: -5.305e-04  t[s]: 945533.23

#--- Lowdin population analysis ---
# oxidation-state C +0.038 +0.038 +0.038 +0.039 +0.035 +0.038 +0.039 +0.037 +0.024 +0.040 +0.029 +0.022 +0.040 +0.038 +0.038 +0.026 +0.008 +0.038 +0.019 +0.009 +0.041 +0.014 -0.013 +0.039 +0.035 +0.036 +0.036 +0.023 +0.042 +0.041 +0.029 +0.042 +0.040 +0.028 +0.040 +0.039 +0.038 +0.041 +0.034 +0.030 +0.042 +0.023 +0.033 +0.042 +0.034 +0.133 +0.043 +0.026 +0.129 +0.041 +0.041 +0.037 +0.041 +0.002 -0.010 +0.042 +0.028 +0.016 +0.037 +0.042 +0.037 +0.045 +0.042 +0.036 +0.044 +0.039 +0.039 +0.140 +0.041 +0.039 +0.041
# oxidation-state N +0.001
# oxidation-state S -0.494 +0.061 +0.064 -0.477
# oxidation-state Na +0.781 +0.779


Computing DFT-D3 correction:
# coordination-number C 3.300 3.300 3.301 3.300 3.301 3.300 3.300 3.301 3.296 3.300 3.311 3.293 3.300 3.300 3.302 3.315 3.448 3.300 3.356 3.442 3.304 3.495 3.615 3.303 3.300 3.300 3.300 3.368 3.300 3.300 3.288 3.300 3.300 3.287 3.300 3.300 3.300 3.300 3.302 3.317 3.300 3.321 3.304 3.300 3.304 3.325 3.301 3.326 3.336 3.300 3.300 3.300 3.300 3.478 3.801 3.301 3.335 3.495 3.331 3.300 3.300 3.299 3.300 3.301 3.298 3.300 3.300 3.300 3.300 3.300 3.300
# coordination-number N 3.220
# coordination-number S 2.926 3.102 3.108 2.935
# coordination-number Na 4.559 4.406
# diagonal-C6 C 24.28 24.28 24.27 24.29 24.27 24.28 24.29 24.27 24.32 24.28 24.18 24.35 24.28 24.28 24.26 24.14 22.41 24.28 23.67 22.51 24.25 21.72 20.11 24.26 24.28 24.28 24.28 23.53 24.29 24.29 24.40 24.29 24.28 24.40 24.29 24.28 24.28 24.29 24.27 24.11 24.28 24.07 24.25 24.29 24.25 24.03 24.27 24.02 23.91 24.28 24.28 24.28 24.28 21.97 18.75 24.27 23.92 21.72 23.97 24.29 24.28 24.29 24.29 24.28 24.30 24.28 24.28 24.28 24.29 24.29 24.29
# diagonal-C6 N 15.60
# diagonal-C6 S 125.81 125.81 125.81 125.81
# diagonal-C6 Na 186.11 186.11
EvdW_6 =   -0.063706
EvdW_8 =   -0.056463

-------- Electronic minimization -----------
Will mix electronic density at each iteration.
	FillingsUpdate:  mu: -0.157826915  nElectrons: 331.000000
	FillingsUpdate:  mu: -0.157825339  nElectrons: 331.000000
SCF: Cycle:  0   F: -552.128146276560869   dF: -1.626e-06   |Residual|: 1.160e-03   |deigs|: 2.520e-07  t[s]: 946402.05
	FillingsUpdate:  mu: -0.157825188  nElectrons: 331.000000
SCF: Cycle:  1   F: -552.128152501486284   dF: -6.225e-06   |Residual|: 3.826e-04   |deigs|: 9.566e-06  t[s]: 946808.17
	FillingsUpdate:  mu: -0.157825850  nElectrons: 331.000000
SCF: Cycle:  2   F: -552.128152691318405   dF: -1.898e-07   |Residual|: 1.789e-04   |deigs|: 8.686e-06  t[s]: 947210.78
	FillingsUpdate:  mu: -0.157826899  nElectrons: 331.000000
SCF: Cycle:  3   F: -552.128152754710413   dF: -6.339e-08   |Residual|: 5.814e-05   |deigs|: 1.432e-05  t[s]: 947615.96
	FillingsUpdate:  mu: -0.157827973  nElectrons: 331.000000
SCF: Cycle:  4   F: -552.128152770867132   dF: -1.616e-08   |Residual|: 2.482e-05   |deigs|: 1.629e-05  t[s]: 948023.50
	FillingsUpdate:  mu: -0.157829300  nElectrons: 331.000000
SCF: Cycle:  5   F: -552.128152780297569   dF: -9.430e-09   |Residual|: 1.622e-05   |deigs|: 2.004e-05  t[s]: 948428.84
	FillingsUpdate:  mu: -0.157830709  nElectrons: 331.000000
SCF: Cycle:  6   F: -552.128152783978635   dF: -3.681e-09   |Residual|: 9.977e-06   |deigs|: 1.881e-05  t[s]: 948833.57
SCF: Converged (|Delta E|<1.000000e-08 for 2 iters).

Setting wave functions to eigenvectors of Hamiltonian

Computing DFT-D3 correction:
# coordination-number C 3.300 3.300 3.301 3.300 3.301 3.300 3.300 3.301 3.296 3.300 3.311 3.293 3.300 3.300 3.302 3.315 3.448 3.300 3.356 3.441 3.304 3.494 3.615 3.303 3.300 3.300 3.300 3.368 3.300 3.300 3.288 3.300 3.300 3.287 3.300 3.300 3.300 3.300 3.302 3.317 3.300 3.321 3.304 3.300 3.304 3.325 3.301 3.326 3.336 3.300 3.300 3.300 3.300 3.478 3.800 3.301 3.335 3.495 3.331 3.300 3.300 3.299 3.300 3.301 3.298 3.300 3.300 3.300 3.300 3.300 3.300
# coordination-number N 3.220
# coordination-number S 2.926 3.102 3.109 2.935
# coordination-number Na 4.558 4.407
# diagonal-C6 C 24.28 24.28 24.27 24.29 24.27 24.28 24.29 24.27 24.32 24.28 24.18 24.35 24.28 24.28 24.26 24.14 22.41 24.28 23.67 22.51 24.25 21.73 20.10 24.26 24.28 24.28 24.28 23.53 24.29 24.29 24.40 24.29 24.28 24.40 24.29 24.28 24.28 24.29 24.27 24.11 24.28 24.07 24.25 24.29 24.25 24.03 24.27 24.02 23.91 24.28 24.28 24.28 24.28 21.97 18.75 24.27 23.92 21.72 23.97 24.29 24.28 24.29 24.29 24.28 24.30 24.28 24.28 24.28 24.29 24.29 24.29
# diagonal-C6 N 15.60
# diagonal-C6 S 125.81 125.81 125.81 125.81
# diagonal-C6 Na 186.11 186.11
EvdW_6 =   -0.063707
EvdW_8 =   -0.056461

-------- Electronic minimization -----------
Will mix electronic density at each iteration.
	FillingsUpdate:  mu: -0.157830709  nElectrons: 331.000000
	FillingsUpdate:  mu: -0.157850038  nElectrons: 331.000000
SCF: Cycle:  0   F: -552.128151769768579   dF: +1.647e-07   |Residual|: 4.393e-04   |deigs|: 4.602e-07  t[s]: 949524.22
	FillingsUpdate:  mu: -0.157850400  nElectrons: 331.000000
SCF: Cycle:  1   F: -552.128152890153387   dF: -1.120e-06   |Residual|: 1.366e-04   |deigs|: 6.420e-06  t[s]: 950129.32
	FillingsUpdate:  mu: -0.157849891  nElectrons: 331.000000
SCF: Cycle:  2   F: -552.128152932573244   dF: -4.242e-08   |Residual|: 6.785e-05   |deigs|: 5.007e-06  t[s]: 950534.81
	FillingsUpdate:  mu: -0.157849032  nElectrons: 331.000000
SCF: Cycle:  3   F: -552.128152950570666   dF: -1.800e-08   |Residual|: 2.333e-05   |deigs|: 8.892e-06  t[s]: 950940.76
	FillingsUpdate:  mu: -0.157848337  nElectrons: 331.000000
SCF: Cycle:  4   F: -552.128152955533665   dF: -4.963e-09   |Residual|: 1.246e-05   |deigs|: 9.815e-06  t[s]: 951346.21
	FillingsUpdate:  mu: -0.157847278  nElectrons: 331.000000
SCF: Cycle:  5   F: -552.128152959912200   dF: -4.379e-09   |Residual|: 8.932e-06   |deigs|: 1.729e-05  t[s]: 951939.99
SCF: Converged (|Delta E|<1.000000e-08 for 2 iters).

Setting wave functions to eigenvectors of Hamiltonian

Computing DFT-D3 correction:
# coordination-number C 3.300 3.300 3.301 3.300 3.301 3.300 3.300 3.301 3.296 3.300 3.311 3.293 3.300 3.300 3.302 3.315 3.448 3.300 3.356 3.441 3.304 3.494 3.615 3.303 3.300 3.300 3.300 3.368 3.300 3.300 3.288 3.300 3.300 3.287 3.300 3.300 3.300 3.300 3.302 3.317 3.300 3.321 3.304 3.300 3.304 3.325 3.301 3.326 3.336 3.300 3.300 3.300 3.300 3.478 3.800 3.301 3.335 3.495 3.331 3.300 3.300 3.299 3.300 3.301 3.298 3.300 3.300 3.300 3.300 3.300 3.300
# coordination-number N 3.220
# coordination-number S 2.926 3.102 3.109 2.935
# coordination-number Na 4.558 4.407
# diagonal-C6 C 24.28 24.28 24.27 24.29 24.27 24.28 24.29 24.27 24.32 24.28 24.18 24.35 24.28 24.28 24.26 24.14 22.41 24.28 23.67 22.51 24.25 21.73 20.10 24.26 24.28 24.28 24.28 23.53 24.29 24.29 24.40 24.29 24.28 24.40 24.29 24.28 24.28 24.29 24.27 24.11 24.28 24.07 24.25 24.29 24.25 24.03 24.27 24.02 23.91 24.28 24.28 24.28 24.28 21.97 18.75 24.27 23.92 21.72 23.97 24.29 24.28 24.29 24.29 24.28 24.30 24.28 24.28 24.28 24.29 24.29 24.29
# diagonal-C6 N 15.60
# diagonal-C6 S 125.81 125.81 125.81 125.81
# diagonal-C6 Na 186.11 186.11
EvdW_6 =   -0.063707
EvdW_8 =   -0.056461

# Ionic positions in cartesian coordinates:
ion C -14.002918197300009  24.253758582300001   2.000000000000000 0
ion C  -2.333816550000000   4.042302545699999   2.000000000000000 0
ion C  11.669101647300000  20.211493831199999   2.000000000000000 0
ion C  -9.335266200000007  24.253758582300001   2.000000000000000 0
ion C   9.335303994599993  24.253758582300001   2.000000000000000 0
ion C   2.333816549999999   4.042302545699999   2.000000000000000 0
ion C -11.669120544600000  20.211493831199999   2.000000000000000 0
ion C  -4.667651997299999   8.084605091399998   2.000000000000000 0
ion C   9.335285097299998  16.169191285499998   2.000000000000000 0
ion C  -4.667614202700008  24.253758582300001   2.000000000000000 0
ion C   4.667651997299995  24.253758582300001   2.000000000000000 0
ion C   4.667651997299999   8.084605091399998   2.000000000000000 0
ion C  -9.335303994599998  16.169191285499998   2.000000000000000 0
ion C  -7.001468547300001  12.126907637100000   2.000000000000000 0
ion C   0.000037794599990  24.253758582300001   2.000000000000000 0
ion C   0.000000000000000   8.084605091399998   2.000000000000000 0
ion C   7.001449650000005  20.211493831199999   2.000000000000000 0
ion C  -7.001468547300000  20.211493831199999   2.000000000000000 0
ion C  -2.333816549999999  12.126907637100000   2.000000000000000 0
ion C   4.667633100000000  16.169191285499998   2.000000000000000 0
ion C  -2.333816549999995  20.211493831199999   2.000000000000000 0
ion C   2.333835447300000  20.211493831199999   2.000000000000000 0
ion C   2.333835447299999  12.126907637100000   2.000000000000000 0
ion C  -4.667651997299999  16.169191285499998   2.000000000000000 0
ion C   7.001449650000000   4.042302545699999   2.000000000000000 0
ion C  21.004386744600001   4.042302545699999   2.000000000000000 0
ion C  14.002937094600000  16.169191285499998   2.000000000000000 0
ion C   0.000000000000000  16.169191285499998   2.000000000000000 0
ion C  11.669101647300000   4.042302545699999   2.000000000000000 0
ion C  18.670589091899998   8.084605091399998   2.000000000000000 0
ion C  11.669101647300000  12.126907637100000   2.000000000000000 0
ion C  16.336753644600002  12.126907637100000   2.000000000000000 0
ion C  16.336753644600002   4.042302545699999   2.000000000000000 0
ion C   9.335285097300002   8.084605091399998   2.000000000000000 0
ion C  14.002937094600000   8.084605091399998   2.000000000000000 0
ion C   0.000018897300000   2.694868363800000   2.000000000000000 0
ion C  11.669120544600000  22.906362195000000   2.000000000000000 0
ion C -11.669120544600002  22.906362195000000   2.000000000000000 0
ion C  -2.333816549999999   6.737152012199999   2.000000000000000 0
ion C   9.335285097299998  18.864059649300000   2.000000000000000 0
ion C  -7.001468547300003  22.906362195000000   2.000000000000000 0
ion C   7.001468547300002  22.906362195000000   2.000000000000000 0
ion C   2.333816550000000   6.737152012199999   2.000000000000000 0
ion C  -9.335285097299998  18.864059649300000   2.000000000000000 0
ion C  -4.667633100000000  10.779454557899999   2.000000000000000 0
ion C   7.001468547300002  14.821757103600000   2.000000000000000 0
ion C  -2.333835447300000  22.906362195000000   2.000000000000000 0
ion C   2.333816550000000  22.906362195000000   2.000000000000000 0
ion C   4.667633100000000  10.779454557899999   2.000000000000000 0
ion C  -7.001468547300001  14.821757103600000   2.000000000000000 0
ion C   4.667633100000003   2.694868363800000   2.000000000000000 0
ion C  23.338222191900002   2.694868363800000   2.000000000000000 0
ion C  14.002918197300001  18.864059649300000   2.000000000000000 0
ion C   0.000018897300000  10.779454557899999   2.000000000000000 0
ion C   4.667633100000000  18.864059649300000   2.000000000000000 0
ion C  -4.667633099999996  18.864059649300000   2.000000000000000 0
ion C  -2.333816550000000  14.821757103600000   2.000000000000000 0
ion C   2.333816550000000  14.821757103600000   2.000000000000000 0
ion C  -0.000018897299999  18.864059649300000   2.000000000000000 0
ion C   9.335285097300000   2.694868363800000   2.000000000000000 0
ion C  21.004386744599998   6.737152012199999   2.000000000000000 0
ion C  11.669120544600002  14.821757103600000   2.000000000000000 0
ion C  16.336734747299992  14.821757103600000   2.000000000000000 0
ion C  18.670570194600000   2.694868363800000   2.000000000000000 0
ion C   7.001468547300000   6.737152012199999   2.000000000000000 0
ion C  14.002937094600002   2.694868363800000   2.000000000000000 0
ion C  18.670570194600000  10.779454557899999   2.000000000000000 0
ion C   9.335285097300000  10.779454557899999   2.000000000000000 0
ion C  11.669120544600000   6.737152012199999   2.000000000000000 0
ion C  16.336734747299989   6.737152012199999   2.000000000000000 0
ion C  14.002937094600000  10.779454557899999   2.000000000000000 0
ion N   7.001449650000002  12.126907637100000   2.000000000000000 0
ion S   6.174936078686164  14.158273753493756   8.435162547173919 1
ion S   4.299376190579984  14.128976221550239  11.844917646593295 1
ion S   1.962487620754860  17.370522428336109  12.085625345598377 1
ion S  -0.280463044931450  17.577631338407290   8.914025920905317 1
ion Na   4.498273710148059  19.025105375745152   7.415170109618058 1
ion Na   1.183859805568671  12.781829323736760   7.519584204589894 1

# Forces in Cartesian coordinates:
force C   0.001728340680944  -0.000966815056695   0.000024336809632 0
force C   0.000959019596563  -0.000407522680486   0.000003932639022 0
force C   0.001712615516721  -0.001187525082552   0.000027287580144 0
force C   0.000774020157697   0.001154120424446  -0.000012535181143 0
force C   0.001144503455878  -0.000260521619114   0.000094925569225 0
force C   0.001779473568874  -0.000890720014909   0.000056322437107 0
force C  -0.000537143697429  -0.001169236681210  -0.000012898541117 0
force C   0.000105073033968   0.000165390749640  -0.000035484639960 0
force C  -0.002910919495263  -0.010352138535149  -0.000058279767822 0
force C  -0.001062118128417   0.000898620256105   0.000031260625985 0
force C  -0.000196320133262   0.000470372079155   0.000064365115885 0
force C   0.007360898324762   0.007841429033714  -0.000072583504085 0
force C  -0.001311859397916   0.000614776597321   0.000017921681515 0
force C  -0.000141797303348   0.002129835148330   0.000024843650420 0
force C  -0.002435241856814  -0.000832983062700   0.000201328756764 0
force C   0.000512183803036  -0.001915768799186   0.000392147563169 0
force C   0.002624298699453   0.000405949265015   0.000510352941387 0
force C   0.000118374636978  -0.000026432804952   0.000013989596202 0
force C  -0.001693631750126   0.002387529427295   0.000249849346640 0
force C   0.003582270308267  -0.011815033394774  -0.001213199128651 0
force C   0.000706765622318  -0.001423540657559  -0.000014203792735 0
force C  -0.004510208111293  -0.000074611175740  -0.000446414363581 0
force C   0.011460950216439   0.002293894736639  -0.000326132329080 0
force C   0.000969952768458   0.000566993205019   0.000196905208999 0
force C  -0.000188266561453   0.005302493106510  -0.000009839559763 0
force C   0.000309897657802  -0.000109297486314  -0.000017258479496 0
force C  -0.004741815684977  -0.002543152490353   0.000018057312242 0
force C   0.004326030036881  -0.001999255689592  -0.000745009346494 0
force C  -0.002046581939474  -0.000938581355398  -0.000000372420452 0
force C  -0.000333902654489   0.000628950640520  -0.000011502837666 0
force C  -0.009717527719442   0.002476339605336   0.000080861725070 0
force C  -0.000291707439701   0.002156028195221  -0.000000997590624 0
force C  -0.000772054011169   0.000001551998357  -0.000015033581824 0
force C  -0.006971559196710   0.007143568445617   0.000080516591204 0
force C  -0.000662110435134   0.000284883281426   0.000011534260097 0
force C  -0.000927572321296   0.000804417713022  -0.000009984005394 0
force C  -0.000971455690072   0.000425344442900  -0.000017713685712 0
force C  -0.001798916847885   0.000953419071663  -0.000009554153844 0
force C  -0.000767159182000  -0.000255107664409   0.000019128210656 0
force C  -0.003296218427564   0.000673725790292   0.000239508879340 0
force C   0.000282969938330  -0.000209761719056   0.000012748891909 0
force C   0.000212647656246   0.001629168731263   0.000248141593143 0
force C  -0.003424420029547   0.002840506171395   0.000016463230783 0
force C   0.000212498559026  -0.000208810144278   0.000005962452609 0
force C  -0.000580121579628  -0.001211511701824   0.000181156077890 0
force C   0.000889721384261  -0.005605267150893  -0.000288433413315 0
force C   0.002004187546972   0.001066687154067   0.000080293448659 0
force C   0.000328439007166   0.000995111979123   0.000210174174112 0
force C   0.007016518287258   0.001233221023708   0.000296881929353 0
force C   0.000061652402928  -0.002201497095599   0.000003979466981 0
force C  -0.001747473309801  -0.001002209647293  -0.000007880717164 0
force C  -0.001088392799807   0.000676842851741  -0.000015801496667 0
force C  -0.000028614562419   0.001894013500125   0.000026885176314 0
force C   0.000450260679627  -0.005542229000239   0.000627785230669 0
force C   0.004280419533961  -0.000313797050270  -0.000116358909211 0
force C  -0.000209350088472   0.000042786070838   0.000131029302705 0
force C  -0.002766297555371  -0.000104213312316  -0.000098187595731 0
force C  -0.005855440538490   0.005474860524773  -0.001451794832816 0
force C  -0.001260947910149   0.002560689980253  -0.000261968659111 0
force C   0.002272501588746  -0.000772263713659   0.000004641407230 0
force C  -0.000151257587851  -0.000697425559380   0.000030725657834 0
force C   0.006000164259624   0.003136655988827   0.000118173893413 0
force C   0.001712157705724  -0.001562495960955   0.000004858428698 0
force C   0.000592427676246   0.000773545312452   0.000106379354243 0
force C   0.000534763369430  -0.006758350363233   0.000130899940701 0
force C   0.000863005836170   0.000902277522210  -0.000020176136626 0
force C  -0.000334725668402  -0.001182494442719  -0.000009011753743 0
force C  -0.004484221073723   0.002643759703169   0.000245591661941 0
force C   0.003426707430768   0.003692745265296  -0.000006672482903 0
force C   0.000380779520711  -0.000176718842690  -0.000002823802508 0
force C  -0.001437888027221  -0.004638984997277  -0.000003600863770 0
force N   0.000075710637206  -0.000022358699352  -0.000696917317892 0
force S   0.000021211426875   0.000009032018892   0.000048239360598 1
force S  -0.000049932712448  -0.000096843536877   0.000085822987204 1
force S   0.000061831451136   0.000002843473028  -0.000057724092519 1
force S  -0.000070955094115   0.000160887935497  -0.000061809160182 1
force Na  -0.000002015555687  -0.000095702184611   0.000069023282313 1
force Na  -0.000036154750049   0.000019743675512  -0.000023363543358 1

# Energy components:
   Eewald =    -1511.1641912373406740
       EH =    -1090.4906473254220600
     Eloc =     2009.8553261367549112
      Enl =      -77.8284766604215434
     EvdW =       -0.1201678887155219
      Exc =     -162.7556261502273003
 Exc_core =        9.5505266921320562
       KE =      270.8907069478806307
-------------------------------------
     Etot =     -552.0625494853596820
       TS =        0.0656034745524785
-------------------------------------
        F =     -552.1281529599121995

IonicMinimize: Iter:  56  F: -552.128152959912200  |grad|_K:  6.674e-05  alpha:  2.899e+00  linmin:  7.550e-04  t[s]: 952074.05
IonicMinimize: Converged (|grad|_K<1.000000e-04).

#--- Lowdin population analysis ---
# oxidation-state C +0.038 +0.038 +0.038 +0.039 +0.035 +0.038 +0.039 +0.037 +0.024 +0.040 +0.029 +0.022 +0.040 +0.038 +0.038 +0.026 +0.008 +0.038 +0.019 +0.009 +0.041 +0.014 -0.013 +0.039 +0.035 +0.036 +0.036 +0.023 +0.042 +0.041 +0.029 +0.042 +0.040 +0.028 +0.040 +0.039 +0.038 +0.041 +0.034 +0.030 +0.042 +0.023 +0.033 +0.042 +0.034 +0.133 +0.043 +0.026 +0.129 +0.041 +0.041 +0.037 +0.041 +0.002 -0.010 +0.042 +0.028 +0.016 +0.037 +0.042 +0.037 +0.045 +0.042 +0.036 +0.044 +0.039 +0.039 +0.140 +0.041 +0.039 +0.041
# oxidation-state N +0.001
# oxidation-state S -0.494 +0.061 +0.064 -0.477
# oxidation-state Na +0.781 +0.779


Dumping 'Na2S4@N_graphene-vdw.fillings' ... done
Dumping 'Na2S4@N_graphene-vdw.wfns' ... done
Dumping 'Na2S4@N_graphene-vdw.ionpos' ... done
Dumping 'Na2S4@N_graphene-vdw.eigenvals' ... done
End date and time: Fri Aug 23 07:25:02 2024  (Duration: 11-0:29:11.18)
Done!
