
*************** JDFTx 1.7.0  ***************

Start date and time: Fri Sep 27 08:01:32 2024
Executable jdftx_gpu with command-line: -i /home/akim2/JDFTx/Na2S8@N_graphene/Na2S8@N_graphene.in -o /home/akim2/JDFTx/Na2S8@N_graphene/Na2S8@N_graphene.out
Running on hosts (process indices):  exp-1-57 (0)
Divided in process groups (process indices):  0 (0)
gpuInit: Found compatible cuda device 0 'Tesla V100-SXM2-32GB'
gpuInit: Selected device 0
Resource initialization completed at t[s]:      0.87
Run totals: 1 processes, 1 threads, 1 GPUs


Input parsed successfully to the following command list (including defaults):

basis kpoint-dependent
coords-type Cartesian
core-overlap-check vector
coulomb-interaction Slab 001
coulomb-truncation-embed 0 0 1.62977
davidson-band-ratio 1.1
dump End State
dump-name Na2S8@N_graphene.$VAR
elec-cutoff 20 100
elec-eigen-algo Davidson
elec-ex-corr gga-PBE
elec-smearing Fermi 0.01
electronic-minimize  \
	dirUpdateScheme      FletcherReeves \
	linminMethod         DirUpdateRecommended \
	nIterations          100 \
	history              15 \
	knormThreshold       0 \
	energyDiffThreshold  1e-08 \
	nEnergyDiff          2 \
	alphaTstart          1 \
	alphaTmin            1e-10 \
	updateTestStepSize   yes \
	alphaTreduceFactor   0.1 \
	alphaTincreaseFactor 3 \
	nAlphaAdjustMax      3 \
	wolfeEnergy          0.0001 \
	wolfeGradient        0.9 \
	fdTest               no
electronic-scf  \
	nIterations	50 \
	energyDiffThreshold	1e-08 \
	residualThreshold	1e-07 \
	mixFraction	0.5 \
	qMetric	0.8 \
	history	10 \
	nEigSteps	2 \
	eigDiffThreshold	1e-08 \
	mixedVariable	Density \
	qKerker	0.8 \
	qKappa	-1 \
	verbose	no \
	mixFractionMag	1.5
exchange-regularization WignerSeitzTruncated
fluid None
fluid-ex-corr lda-TF lda-PZ
fluid-gummel-loop 10 1.000000e-05
fluid-minimize  \
	dirUpdateScheme      PolakRibiere \
	linminMethod         DirUpdateRecommended \
	nIterations          100 \
	history              15 \
	knormThreshold       0 \
	energyDiffThreshold  0 \
	nEnergyDiff          2 \
	alphaTstart          1 \
	alphaTmin            1e-10 \
	updateTestStepSize   yes \
	alphaTreduceFactor   0.1 \
	alphaTincreaseFactor 3 \
	nAlphaAdjustMax      3 \
	wolfeEnergy          0.0001 \
	wolfeGradient        0.9 \
	fdTest               no
fluid-solvent H2O 55.338 ScalarEOS \
	epsBulk 78.4 \
	pMol 0.92466 \
	epsInf 1.77 \
	Pvap 1.06736e-10 \
	sigmaBulk 4.62e-05 \
	Rvdw 2.61727 \
	Res 1.42 \
	tauNuc 343133 \
	poleEl 15 7 1
forces-output-coords Positions
initial-state Na2S8@N_graphene.$VAR
ion C  28.010542013705631   0.002014969601156   0.635465203747167 0
ion C  16.341968157882292  20.214705522223607   0.636370795694031 0
ion C   2.338532027351695   4.042411505399060   0.630361847754816 0
ion C  23.343313188735969   0.002278716019722   0.640022467239564 0
ion C   4.672620934470559   0.001554156700161   0.632050616002296 0
ion C  11.674116326115334  20.215100669694028   0.619847495055023 0
ion C  25.676530282256284   4.042904097616445   0.653564930084009 0
ion C  18.675851376129700  16.172910511284943   0.662695583431347 0
ion C   4.671777948336020   8.082036709586005   0.612564386226399 0
ion C  18.676336142016080   0.002101964498535   0.651180333522277 0
ion C   9.339850970925752   0.001738039847832   0.641511836963307 0
ion C   9.341212652353351  16.175613291750459   0.599279306155555 0
ion C  23.342941439729607   8.084920466015539   0.683240254571249 0
ion C  21.009110272076708  12.128959849493356   0.688453340004557 0
ion C   7.009085367604252  12.128528685817338   0.597262204671189 0
ion C  14.008105470077210   0.001988816408382   0.654008834012114 0
ion C  14.009120976896664  16.174984627607692   0.629938477890011 0
ion C   7.005550759074101   4.041176716120078   0.616350899393808 0
ion C  21.010101094155836   4.043302536041172   0.668670850704729 0
ion C  16.344445762465487  12.130683361169906   0.668518806438794 0
ion C   9.337643998902927   8.081728763982859   0.614931622729934 0
ion C  16.343783017314891   4.042062713362387   0.668836182024798 0
ion C  11.674085450205249   4.041278849785761   0.642196060576936 0
ion C  11.675597583834264  12.133622242506720   0.630068253549407 0
ion C  18.678074956154809   8.085220585829878   0.685769374381508 0
ion C   7.007175797728255  20.216155157604103   0.619709324068161 0
ion C  -6.996748017889800  20.214440105700564   0.653094683289385 0
ion C   0.002354623270169   8.082966457809835   0.657418822396948 0
ion C  14.012576459862725   8.083203697825988   0.669712893069494 0
ion C   2.339067441062872  20.216465077180068   0.646220757178249 0
ion C  -4.663670527593792  16.172490992184059   0.678596642017759 0
ion C   2.336125814129785  12.127745765919109   0.656417500003109 0
ion C  -2.332224039758668  12.128030282589300   0.685859862245795 0
ion C  -2.329659352792410  20.215194179952768   0.659830322184195 0
ion C   4.673933801454849  16.177740252210711   0.625359734501050 0
ion C   0.002990588629148  16.174656174657997   0.666554428718456 0
ion C  14.008266720144102  21.561374576259517   0.629777200837147 0
ion C   2.338930816614256   1.348570645432834   0.632009758527847 0
ion C  25.677100562977380   1.348988124751942   0.641986895200073 0
ion C  16.342686998612663  17.520648868856785   0.642302048336074 0
ion C   4.672307145938162   5.388219921962990   0.616057256550324 0
ion C  21.010123495302889   1.349044430338556   0.652394834146865 0
ion C   7.005937845436384   1.348033936218268   0.628031389286509 0
ion C  11.674692189550257  17.521226022139913   0.612057705166649 0
ion C  23.343784883173043   5.390651685198355   0.669612389866280 0
ion C  18.676972543384359  13.478483594758318   0.675595907033575 0
ion C   7.004963348139576   9.432115986525980   0.597538283264729 0
ion C  16.342472076605748   1.348066366442404   0.659130179870282 0
ion C  11.673522256343780   1.347802312891912   0.646547034509048 0
ion C   9.340696631175403  13.481256291567631   0.599303874261302 0
ion C  21.010487586627971   9.434228317035956   0.689549670827176 0
ion C   9.340862584041272  21.562275316056120   0.623251203387415 0
ion C  -9.330262385564788  21.561165527783945   0.640491424243255 0
ion C   0.004476893676090   5.389148113018151   0.645932445799481 0
ion C  14.011432130181314  13.480719160062115   0.643556882023976 0
ion C   9.339051356617166   5.386992451363917   0.621078239496768 0
ion C  18.677007069088155   5.390558998944344   0.676741055188348 0
ion C  16.345725884609092   9.434637493571932   0.679131999516677 0
ion C  14.009428395823310   5.387478001177438   0.662736904438848 0
ion C   4.673293824799767  21.561882602550448   0.637519226383223 0
ion C  -6.996841473985327  17.520066852095106   0.666346621047357 0
ion C   2.337134667876788   9.428913976861832   0.643387178107247 0
ion C  -2.330217064543965   9.432650452790400   0.678563548363968 0
ion C  -4.663349535264295  21.561481505082671   0.652392573786173 0
ion C   7.008365318233412  17.523060541264897   0.607450639135720 0
ion C   0.004487123343837  21.561671103490092   0.654109318198199 0
ion C  -4.664147187494722  13.477588422800194   0.688047082736968 0
ion C   4.674619807111762  13.479414560663223   0.625188064189185 0
ion C   2.338448909138405  17.522455183042435   0.645633689115609 0
ion C  -2.330712054942804  17.520790606615741   0.670058696770369 0
ion C   0.000363098194401  13.478789474313889   0.675559226948007 0
ion N  11.674484029805171   9.432912355349794   0.644194404697448 0
ion S  12.491549621159919   4.316160602957865  10.492999548695977 1
ion S   8.359438715466965   4.641327608817513  10.691684780533926 1
ion S   6.884345416412252   5.660019135419919   7.425176295576547 1
ion S   4.990951748878427  10.827342898732152  11.496261819206712 1
ion S   4.752082129878465  14.622322255102041  11.114155574148405 1
ion S   6.956622520867073  15.798124919479784   8.244976713530193 1
ion S  13.816815007013737   7.509719634131283   8.631772358798676 1
ion S  13.260339786508185  10.738231084327120  10.740840025261937 1
ion Na   8.854452963577607  10.757184951828910   7.670970106131118 1
ion Na   9.395148486182698   9.134872268162619  13.734339484919575 1
ion-species GBRV/$ID_pbe.uspp
ion-width 0
ionic-minimize  \
	dirUpdateScheme      FletcherReeves \
	linminMethod         DirUpdateRecommended \
	nIterations          200 \
	history              15 \
	knormThreshold       0.0001 \
	energyDiffThreshold  1e-06 \
	nEnergyDiff          2 \
	alphaTstart          1 \
	alphaTmin            1e-10 \
	updateTestStepSize   yes \
	alphaTreduceFactor   0.1 \
	alphaTincreaseFactor 3 \
	nAlphaAdjustMax      3 \
	wolfeEnergy          0.0001 \
	wolfeGradient        0.9 \
	fdTest               no
kpoint   0.000000000000   0.000000000000   0.000000000000  1.00000000000000
kpoint-folding 1 1 1 
latt-move-scale 1 1 1
latt-scale 1 1 1 
lattice Triclinic 28.0058 28.0058 37.7946 90 90 120
lattice-minimize  \
	dirUpdateScheme      L-BFGS \
	linminMethod         DirUpdateRecommended \
	nIterations          0 \
	history              15 \
	knormThreshold       0 \
	energyDiffThreshold  1e-06 \
	nEnergyDiff          2 \
	alphaTstart          1 \
	alphaTmin            1e-10 \
	updateTestStepSize   yes \
	alphaTreduceFactor   0.1 \
	alphaTincreaseFactor 3 \
	nAlphaAdjustMax      3 \
	wolfeEnergy          0.0001 \
	wolfeGradient        0.9 \
	fdTest               no
lcao-params -1 1e-06 0.01
pcm-variant GLSSA13
spintype no-spin
subspace-rotation-factor 1 yes
symmetries automatic
symmetry-threshold 0.0001
van-der-waals D3



---------- Setting up symmetries ----------

Found 24 point-group symmetries of the bravais lattice
Found 1 space-group symmetries with basis
Applied RMS atom displacement 0 bohrs to make symmetries exact.

---------- Initializing the Grid ----------
R = 
[      28.0058     -14.0029            0  ]
[            0      24.2537            0  ]
[            0            0      37.7946  ]
unit cell volume = 25671.8
G =
[   0.224353    0.12953         -0  ]
[          0   0.259061          0  ]
[          0         -0   0.166246  ]
Minimum fftbox size, Smin = [  128  128  172  ]
Chosen fftbox size, S = [  128  128  180  ]

---------- Initializing tighter grid for wavefunction operations ----------
R = 
[      28.0058     -14.0029            0  ]
[            0      24.2537            0  ]
[            0            0      37.7946  ]
unit cell volume = 25671.8
G =
[   0.224353    0.12953         -0  ]
[          0   0.259061          0  ]
[          0         -0   0.166246  ]
Minimum fftbox size, Smin = [  116  116  156  ]
Chosen fftbox size, S = [  120  120  160  ]

---------- Exchange Correlation functional ----------
Initalized PBE GGA exchange.
Initalized PBE GGA correlation.

---------- Setting up pseudopotentials ----------
Width of ionic core gaussian charges (only for fluid interactions / plotting) set to 0

Reading pseudopotential file '/home/akim2/jdftx_install/build/pseudopotentials/GBRV/c_pbe.uspp':
  Title: C.  Created by USPP 7.3.6 on 3-2-2014
  Reference state energy: -5.406344.  4 valence electrons in orbitals:
    |200>  occupation: 2  eigenvalue: -0.504890
    |210>  occupation: 2  eigenvalue: -0.194356
  lMax: 1  lLocal: 2  QijEcut: 5
  4 projectors sampled on a log grid with 503 points:
    l: 0  eig: -0.504890  rCut: 1.3
    l: 0  eig: 0.000000  rCut: 1.3
    l: 1  eig: -0.194357  rCut: 1.3
    l: 1  eig: 0.000000  rCut: 1.3
  Partial core density with radius 1.1
  Transforming core density to a uniform radial grid of dG=0.02 with 1625 points.
  Transforming local potential to a uniform radial grid of dG=0.02 with 1625 points.
  Transforming nonlocal projectors to a uniform radial grid of dG=0.02 with 432 points.
  Transforming density augmentations to a uniform radial grid of dG=0.02 with 1625 points.
  Transforming atomic orbitals to a uniform radial grid of dG=0.02 with 432 points.
  Core radius for overlap checks: 1.30 bohrs.

Reading pseudopotential file '/home/akim2/jdftx_install/build/pseudopotentials/GBRV/n_pbe.uspp':
  Title: N.  Created by USPP 7.3.6 on 3-2-2014
  Reference state energy: -9.763716.  5 valence electrons in orbitals:
    |200>  occupation: 2  eigenvalue: -0.681964
    |210>  occupation: 3  eigenvalue: -0.260726
  lMax: 1  lLocal: 2  QijEcut: 6
  4 projectors sampled on a log grid with 491 points:
    l: 0  eig: -0.681964  rCut: 1.15
    l: 0  eig: 0.000000  rCut: 1.15
    l: 1  eig: -0.260729  rCut: 1.2
    l: 1  eig: 0.500000  rCut: 1.2
  Partial core density with radius 0.8
  Transforming core density to a uniform radial grid of dG=0.02 with 1625 points.
  Transforming local potential to a uniform radial grid of dG=0.02 with 1625 points.
  Transforming nonlocal projectors to a uniform radial grid of dG=0.02 with 432 points.
  Transforming density augmentations to a uniform radial grid of dG=0.02 with 1625 points.
  Transforming atomic orbitals to a uniform radial grid of dG=0.02 with 432 points.
  Core radius for overlap checks: 1.20 bohrs.

Reading pseudopotential file '/home/akim2/jdftx_install/build/pseudopotentials/GBRV/s_pbe.uspp':
  Title: S.  Created by USPP 7.3.6 on 1-4-15
  Reference state energy: -11.898476.  6 valence electrons in orbitals:
    |300>  occupation: 2  eigenvalue: -0.634167
    |310>  occupation: 4  eigenvalue: -0.257568
  lMax: 2  lLocal: 3  QijEcut: 6
  6 projectors sampled on a log grid with 635 points:
    l: 0  eig: -0.634161  rCut: 1.5
    l: 0  eig: 1.500000  rCut: 1.5
    l: 1  eig: -0.257567  rCut: 1.5
    l: 1  eig: 1.500000  rCut: 1.5
    l: 2  eig: -1.000000  rCut: 1.5
    l: 2  eig: 1.500000  rCut: 1.5
  Partial core density with radius 1.15
  Transforming core density to a uniform radial grid of dG=0.02 with 1625 points.
  Transforming local potential to a uniform radial grid of dG=0.02 with 1625 points.
  Transforming nonlocal projectors to a uniform radial grid of dG=0.02 with 432 points.
  Transforming density augmentations to a uniform radial grid of dG=0.02 with 1625 points.
  Transforming atomic orbitals to a uniform radial grid of dG=0.02 with 432 points.
  Core radius for overlap checks: 1.50 bohrs.

Reading pseudopotential file '/home/akim2/jdftx_install/build/pseudopotentials/GBRV/na_pbe.uspp':
  Title: Na.  Created by USPP 7.3.6 on 23-9-15
  Reference state energy: -47.625620.  9 valence electrons in orbitals:
    |200>  occupation: 2  eigenvalue: -2.085638
    |210>  occupation: 6  eigenvalue: -1.053708
    |300>  occupation: 1  eigenvalue: -0.100838
  lMax: 2  lLocal: 0  QijEcut: 6
  5 projectors sampled on a log grid with 657 points:
    l: 0  eig: -2.085640  rCut: 1.37
    l: 0  eig: -0.100839  rCut: 1.37
    l: 1  eig: -1.053708  rCut: 1.47
    l: 1  eig: 0.500000  rCut: 1.47
    l: 2  eig: 0.750000  rCut: 2
  Transforming local potential to a uniform radial grid of dG=0.02 with 1625 points.
  Transforming nonlocal projectors to a uniform radial grid of dG=0.02 with 432 points.
  Transforming density augmentations to a uniform radial grid of dG=0.02 with 1625 points.
  Transforming atomic orbitals to a uniform radial grid of dG=0.02 with 432 points.
  Core radius for overlap checks: 2.00 bohrs.

Initialized 4 species with 82 total atoms.

Folded 1 k-points by 1x1x1 to 1 k-points.

---------- Setting up k-points, bands, fillings ----------
No reducable k-points. 
Computing the number of bands and number of electrons
Reading initial fillings from file Na2S8@N_graphene.fillings.
nElectrons: 355.000000   nBands: 330   nStates: 1

----- Setting up reduced wavefunction bases (one per k-point) -----
average nbasis = 109673.000 , ideal nbasis = 109671.883

---------- Setting up coulomb interaction ----------
Setting up double-sized grid for truncated Coulomb potentials:
R = 
[      28.0058     -14.0029            0  ]
[            0      24.2537            0  ]
[            0            0      75.5892  ]
unit cell volume = 51343.6
G =
[   0.224353    0.12953         -0  ]
[          0   0.259061          0  ]
[          0         -0  0.0831228  ]
Chosen fftbox size, S = [  128  128  360  ]
Integer grid location selected as the embedding center:
   Grid: [  0  0  8  ]
   Lattice: [  0  0  0.0431218  ]
   Cartesian: [  0  0  1.62977  ]
Constructing Wigner-Seitz cell: 8 faces (6 quadrilaterals, 2 hexagons)
Range-separation parameter for embedded mesh potentials due to point charges: 0.590105 bohrs.
Initialized slab truncation along lattice direction 001

Initializing DFT-D3 calculator:
	Parameters set for gga-PBE functional
	s6:  1.000  s_r6:  1.217
	s8:  0.722  s_r8:  1.000
	Per-atom parameters loaded for:
	 C:  sqrtQ[a0]:  3.105  Rcov[a0]:  1.417  CN: [ 0.00 0.99 2.00 3.00 3.98 ]
	 N:  sqrtQ[a0]:  2.712  Rcov[a0]:  1.342  CN: [ 0.00 0.99 2.01 2.99 ]
	 S:  sqrtQ[a0]:  4.041  Rcov[a0]:  1.928  CN: [ 0.00 0.99 1.99 ]
	Na:  sqrtQ[a0]:  6.586  Rcov[a0]:  2.646  CN: [ 0.00 0.97 ]

---------- Setting up 2D ewald sum ----------
Optimum gaussian width for ewald sums = 15.547689 bohr.
Real space sums over 289 unit cells with max indices [  8  8  0  ]
Reciprocal space sums over 81 terms with max indices [  4  4  0  ]

Computing DFT-D3 correction:
# coordination-number C 3.300 3.301 3.301 3.301 3.301 3.301 3.301 3.300 3.303 3.301 3.301 3.302 3.300 3.300 3.308 3.301 3.301 3.305 3.301 3.298 3.309 3.301 3.299 3.305 3.300 3.301 3.300 3.300 3.299 3.301 3.300 3.298 3.299 3.300 3.300 3.299 3.301 3.301 3.301 3.301 3.304 3.300 3.302 3.301 3.300 3.300 3.299 3.301 3.301 3.296 3.300 3.301 3.301 3.301 3.288 3.291 3.300 3.287 3.287 3.301 3.301 3.299 3.300 3.301 3.302 3.300 3.300 3.300 3.299 3.300 3.298
# coordination-number N 3.217
# coordination-number S 2.304 3.020 1.979 2.897 2.260 1.951 2.722 2.891
# coordination-number Na 5.436 4.044
# diagonal-C6 C 24.28 24.28 24.27 24.28 24.27 24.27 24.28 24.28 24.25 24.27 24.27 24.26 24.28 24.28 24.20 24.28 24.28 24.24 24.28 24.31 24.20 24.28 24.29 24.23 24.28 24.27 24.28 24.28 24.30 24.28 24.28 24.31 24.29 24.28 24.28 24.29 24.28 24.27 24.28 24.28 24.25 24.28 24.26 24.27 24.28 24.28 24.29 24.28 24.27 24.32 24.28 24.27 24.28 24.28 24.40 24.37 24.28 24.41 24.40 24.27 24.28 24.29 24.29 24.28 24.26 24.28 24.28 24.28 24.29 24.28 24.30
# diagonal-C6 N 15.60
# diagonal-C6 S 125.82 125.81 125.92 125.81 125.82 125.94 125.81 125.81
# diagonal-C6 Na 186.11 186.11
EvdW_6 =   -0.068896
EvdW_8 =   -0.058300

---------- Allocating electronic variables ----------
Initializing wave functions:  reading from 'Na2S8@N_graphene.wfns'


---- Citations for features of the code used in this run ----

   Software package:
      R. Sundararaman, K. Letchworth-Weaver, K.A. Schwarz, D. Gunceler, Y. Ozhabes and T.A. Arias, 'JDFTx: software for joint density-functional theory', SoftwareX 6, 278 (2017)

   gga-PBE exchange-correlation functional:
      J.P. Perdew, K. Burke and M. Ernzerhof, Phys. Rev. Lett. 77, 3865 (1996)

   Pseudopotentials:
      KF Garrity, JW Bennett, KM Rabe and D Vanderbilt, Comput. Mater. Sci. 81, 446 (2014)

   Truncated Coulomb potentials:
      R. Sundararaman and T.A. Arias, Phys. Rev. B 87, 165122 (2013)

   DFT-D3 dispersion correction:
      S. Grimme, J. Antony, S. Ehrlich and H. Krieg, J. Chem. Phys. 132, 154104 (2010)

This list may not be complete. Please suggest additional citations or
report any other bugs at https://github.com/shankar1729/jdftx/issues

Initialization completed successfully at t[s]:      6.86


Computing DFT-D3 correction:
# coordination-number C 3.300 3.301 3.301 3.301 3.301 3.301 3.301 3.300 3.303 3.301 3.301 3.302 3.300 3.300 3.308 3.301 3.301 3.305 3.301 3.298 3.309 3.301 3.299 3.305 3.300 3.301 3.300 3.300 3.299 3.301 3.300 3.298 3.299 3.300 3.300 3.299 3.301 3.301 3.301 3.301 3.304 3.300 3.302 3.301 3.300 3.300 3.299 3.301 3.301 3.296 3.300 3.301 3.301 3.301 3.288 3.291 3.300 3.287 3.287 3.301 3.301 3.299 3.300 3.301 3.302 3.300 3.300 3.300 3.299 3.300 3.298
# coordination-number N 3.217
# coordination-number S 2.304 3.020 1.979 2.897 2.260 1.951 2.722 2.891
# coordination-number Na 5.436 4.044
# diagonal-C6 C 24.28 24.28 24.27 24.28 24.27 24.27 24.28 24.28 24.25 24.27 24.27 24.26 24.28 24.28 24.20 24.28 24.28 24.24 24.28 24.31 24.20 24.28 24.29 24.23 24.28 24.27 24.28 24.28 24.30 24.28 24.28 24.31 24.29 24.28 24.28 24.29 24.28 24.27 24.28 24.28 24.25 24.28 24.26 24.27 24.28 24.28 24.29 24.28 24.27 24.32 24.28 24.27 24.28 24.28 24.40 24.37 24.28 24.41 24.40 24.27 24.28 24.29 24.29 24.28 24.26 24.28 24.28 24.28 24.29 24.28 24.30
# diagonal-C6 N 15.60
# diagonal-C6 S 125.82 125.81 125.92 125.81 125.82 125.94 125.81 125.81
# diagonal-C6 Na 186.11 186.11
EvdW_6 =   -0.068896
EvdW_8 =   -0.058300

-------- Electronic minimization -----------
Will mix electronic density at each iteration.
	FillingsUpdate:  mu: -0.156747244  nElectrons: 355.000000
SCF: Cycle:  0   F: -593.254870099858408   dF: +2.546e-07   |Residual|: 9.738e-05   |deigs|: 3.579e-08  t[s]:     12.40
	FillingsUpdate:  mu: -0.156744902  nElectrons: 355.000000
SCF: Cycle:  1   F: -593.254870340859270   dF: -2.410e-07   |Residual|: 4.184e-05   |deigs|: 5.093e-06  t[s]:     14.73
	FillingsUpdate:  mu: -0.156745754  nElectrons: 355.000000
SCF: Cycle:  2   F: -593.254870339544482   dF: +1.315e-09   |Residual|: 1.498e-05   |deigs|: 1.458e-06  t[s]:     17.07
	FillingsUpdate:  mu: -0.156746048  nElectrons: 355.000000
SCF: Cycle:  3   F: -593.254870349119528   dF: -9.575e-09   |Residual|: 9.942e-06   |deigs|: 2.435e-06  t[s]:     19.30
	FillingsUpdate:  mu: -0.156746506  nElectrons: 355.000000
SCF: Cycle:  4   F: -593.254870354185073   dF: -5.066e-09   |Residual|: 6.416e-06   |deigs|: 4.109e-06  t[s]:     21.57
SCF: Converged (|Delta E|<1.000000e-08 for 2 iters).

Setting wave functions to eigenvectors of Hamiltonian

Computing DFT-D3 correction:
# coordination-number C 3.300 3.301 3.301 3.301 3.301 3.301 3.301 3.300 3.303 3.301 3.301 3.302 3.300 3.300 3.308 3.301 3.301 3.305 3.301 3.298 3.309 3.301 3.299 3.305 3.300 3.301 3.300 3.300 3.299 3.301 3.300 3.298 3.299 3.300 3.300 3.299 3.301 3.301 3.301 3.301 3.304 3.300 3.302 3.301 3.300 3.300 3.299 3.301 3.301 3.296 3.300 3.301 3.301 3.301 3.288 3.291 3.300 3.287 3.287 3.301 3.301 3.299 3.300 3.301 3.302 3.300 3.300 3.300 3.299 3.300 3.298
# coordination-number N 3.217
# coordination-number S 2.304 3.020 1.979 2.897 2.260 1.951 2.722 2.891
# coordination-number Na 5.436 4.044
# diagonal-C6 C 24.28 24.28 24.27 24.28 24.27 24.27 24.28 24.28 24.25 24.27 24.27 24.26 24.28 24.28 24.20 24.28 24.28 24.24 24.28 24.31 24.20 24.28 24.29 24.23 24.28 24.27 24.28 24.28 24.30 24.28 24.28 24.31 24.29 24.28 24.28 24.29 24.28 24.27 24.28 24.28 24.25 24.28 24.26 24.27 24.28 24.28 24.29 24.28 24.27 24.32 24.28 24.27 24.28 24.28 24.40 24.37 24.28 24.41 24.40 24.27 24.28 24.29 24.29 24.28 24.26 24.28 24.28 24.28 24.29 24.28 24.30
# diagonal-C6 N 15.60
# diagonal-C6 S 125.82 125.81 125.92 125.81 125.82 125.94 125.81 125.81
# diagonal-C6 Na 186.11 186.11
EvdW_6 =   -0.068896
EvdW_8 =   -0.058300

# Ionic positions in cartesian coordinates:
ion C  28.010542013705631   0.002014969601156   0.635465203747167 0
ion C  16.341968157882292  20.214705522223607   0.636370795694031 0
ion C   2.338532027351695   4.042411505399060   0.630361847754816 0
ion C  23.343313188735969   0.002278716019722   0.640022467239564 0
ion C   4.672620934470559   0.001554156700161   0.632050616002296 0
ion C  11.674116326115334  20.215100669694028   0.619847495055023 0
ion C  25.676530282256284   4.042904097616445   0.653564930084009 0
ion C  18.675851376129700  16.172910511284943   0.662695583431347 0
ion C   4.671777948336020   8.082036709586005   0.612564386226399 0
ion C  18.676336142016080   0.002101964498535   0.651180333522277 0
ion C   9.339850970925752   0.001738039847832   0.641511836963307 0
ion C   9.341212652353351  16.175613291750459   0.599279306155555 0
ion C  23.342941439729607   8.084920466015539   0.683240254571249 0
ion C  21.009110272076708  12.128959849493356   0.688453340004557 0
ion C   7.009085367604252  12.128528685817338   0.597262204671189 0
ion C  14.008105470077210   0.001988816408382   0.654008834012114 0
ion C  14.009120976896664  16.174984627607692   0.629938477890011 0
ion C   7.005550759074101   4.041176716120078   0.616350899393808 0
ion C  21.010101094155836   4.043302536041172   0.668670850704729 0
ion C  16.344445762465487  12.130683361169906   0.668518806438794 0
ion C   9.337643998902927   8.081728763982859   0.614931622729934 0
ion C  16.343783017314891   4.042062713362387   0.668836182024798 0
ion C  11.674085450205249   4.041278849785761   0.642196060576936 0
ion C  11.675597583834264  12.133622242506720   0.630068253549407 0
ion C  18.678074956154809   8.085220585829878   0.685769374381508 0
ion C   7.007175797728255  20.216155157604103   0.619709324068161 0
ion C  -6.996748017889800  20.214440105700564   0.653094683289385 0
ion C   0.002354623270169   8.082966457809835   0.657418822396948 0
ion C  14.012576459862725   8.083203697825988   0.669712893069494 0
ion C   2.339067441062872  20.216465077180068   0.646220757178249 0
ion C  -4.663670527593792  16.172490992184059   0.678596642017759 0
ion C   2.336125814129785  12.127745765919109   0.656417500003109 0
ion C  -2.332224039758668  12.128030282589300   0.685859862245795 0
ion C  -2.329659352792410  20.215194179952768   0.659830322184195 0
ion C   4.673933801454849  16.177740252210711   0.625359734501050 0
ion C   0.002990588629148  16.174656174657997   0.666554428718456 0
ion C  14.008266720144102  21.561374576259517   0.629777200837147 0
ion C   2.338930816614256   1.348570645432834   0.632009758527847 0
ion C  25.677100562977380   1.348988124751942   0.641986895200073 0
ion C  16.342686998612663  17.520648868856785   0.642302048336074 0
ion C   4.672307145938162   5.388219921962990   0.616057256550324 0
ion C  21.010123495302889   1.349044430338556   0.652394834146865 0
ion C   7.005937845436384   1.348033936218268   0.628031389286509 0
ion C  11.674692189550257  17.521226022139913   0.612057705166649 0
ion C  23.343784883173043   5.390651685198355   0.669612389866280 0
ion C  18.676972543384359  13.478483594758318   0.675595907033575 0
ion C   7.004963348139576   9.432115986525980   0.597538283264729 0
ion C  16.342472076605748   1.348066366442404   0.659130179870282 0
ion C  11.673522256343780   1.347802312891912   0.646547034509048 0
ion C   9.340696631175403  13.481256291567631   0.599303874261302 0
ion C  21.010487586627971   9.434228317035956   0.689549670827176 0
ion C   9.340862584041272  21.562275316056120   0.623251203387415 0
ion C  -9.330262385564788  21.561165527783945   0.640491424243255 0
ion C   0.004476893676090   5.389148113018151   0.645932445799481 0
ion C  14.011432130181314  13.480719160062115   0.643556882023976 0
ion C   9.339051356617166   5.386992451363917   0.621078239496768 0
ion C  18.677007069088155   5.390558998944344   0.676741055188348 0
ion C  16.345725884609092   9.434637493571932   0.679131999516677 0
ion C  14.009428395823310   5.387478001177438   0.662736904438848 0
ion C   4.673293824799767  21.561882602550448   0.637519226383223 0
ion C  -6.996841473985327  17.520066852095106   0.666346621047357 0
ion C   2.337134667876788   9.428913976861832   0.643387178107247 0
ion C  -2.330217064543965   9.432650452790400   0.678563548363968 0
ion C  -4.663349535264295  21.561481505082671   0.652392573786173 0
ion C   7.008365318233412  17.523060541264897   0.607450639135720 0
ion C   0.004487123343837  21.561671103490092   0.654109318198199 0
ion C  -4.664147187494722  13.477588422800194   0.688047082736968 0
ion C   4.674619807111762  13.479414560663223   0.625188064189185 0
ion C   2.338448909138405  17.522455183042435   0.645633689115609 0
ion C  -2.330712054942804  17.520790606615741   0.670058696770369 0
ion C   0.000363098194401  13.478789474313889   0.675559226948007 0
ion N  11.674484029805171   9.432912355349794   0.644194404697448 0
ion S  12.491549621159919   4.316160602957865  10.492999548695977 1
ion S   8.359438715466965   4.641327608817513  10.691684780533926 1
ion S   6.884345416412252   5.660019135419919   7.425176295576547 1
ion S   4.990951748878427  10.827342898732152  11.496261819206712 1
ion S   4.752082129878465  14.622322255102041  11.114155574148405 1
ion S   6.956622520867073  15.798124919479784   8.244976713530193 1
ion S  13.816815007013737   7.509719634131283   8.631772358798676 1
ion S  13.260339786508185  10.738231084327120  10.740840025261937 1
ion Na   8.854452963577607  10.757184951828910   7.670970106131118 1
ion Na   9.395148486182698   9.134872268162619  13.734339484919575 1

# Forces in Cartesian coordinates:
force C  -0.000478640240593   0.000405935884643  -0.000113535473549 0
force C  -0.000828814335152   0.000224337597797   0.000032555276438 0
force C  -0.000364399080902  -0.000129825639411   0.000086611878304 0
force C   0.000974593667515   0.000424301801602  -0.000062419279378 0
force C  -0.000670754253859   0.000763775889011   0.000049064944142 0
force C   0.000196518459023   0.000469957060029   0.000031722809510 0
force C   0.000267834969699  -0.000786106558029   0.000028326424089 0
force C  -0.000093058080026   0.001986994414740  -0.000002137202355 0
force C   0.000755760256644  -0.003947095873311   0.000596979589387 0
force C   0.000681093833659   0.000539107065533  -0.000059924646395 0
force C  -0.002061636856723  -0.000769278274345   0.000040914408070 0
force C   0.004388304259935   0.001189823698404   0.000573541840615 0
force C  -0.000149875506419  -0.000491464826161  -0.000103629511592 0
force C   0.001777576145612  -0.000912545063360   0.000008216124519 0
force C  -0.007730197390198   0.004370868272834   0.001116543227765 0
force C   0.001604112880773  -0.000864240158497   0.000137960621704 0
force C  -0.004641108898850   0.000933089443540   0.000132464263640 0
force C  -0.003207006960907   0.003362393503260  -0.000010414091288 0
force C   0.000429584706580  -0.000093857275146  -0.000017015617980 0
force C   0.005490714800283   0.003072532340543   0.000229967769074 0
force C   0.005720828840290   0.002711464294343   0.000405377894903 0
force C   0.003093796202740   0.003645256279749   0.000151449421954 0
force C  -0.000201076638409  -0.006018685398562   0.000368485123953 0
force C   0.000569172639432  -0.005961945719139  -0.000184403560496 0
force C  -0.001603162742815  -0.004211230305310   0.000058525022634 0
force C   0.000964561633150   0.000135042043498   0.000184310146153 0
force C  -0.001871072059569   0.000987535080082  -0.000006619754848 0
force C   0.000913784176276  -0.000294011855562   0.000150569950046 0
force C  -0.005618114133650   0.003269955566829  -0.000424692877753 0
force C   0.001700858104183   0.000560219346810   0.000001732991596 0
force C   0.000233813582724   0.000010857431435  -0.000066396716821 0
force C  -0.000542779900006  -0.000420891281666  -0.000711380024393 0
force C   0.000722083544346  -0.001662233724094  -0.000026045143638 0
force C   0.000020838958825  -0.000336071090596   0.000005327186971 0
force C  -0.000194228404165   0.000027361287797   0.000096372940454 0
force C   0.000361086983595  -0.000485483404623   0.000094153609178 0
force C   0.000073060820835  -0.000246911278642   0.000044382065706 0
force C   0.000438854491232  -0.000038002472117   0.000135831774754 0
force C  -0.000113234733212  -0.000107034248164   0.000121128052217 0
force C   0.001461662694334  -0.001064783900961   0.000148404632188 0
force C   0.000607347586601   0.000286701434982   0.000096730060234 0
force C  -0.000706244073858   0.000065055155832   0.000166601328641 0
force C   0.001862418238124  -0.000625996841464   0.000152325309553 0
force C   0.000187748507994  -0.000526849188485   0.000177298780891 0
force C  -0.000524562257633   0.000327086829674   0.000110164621156 0
force C  -0.004635084303705  -0.002953930707773   0.000014197781700 0
force C   0.009930030605271   0.002185813694133   0.001218647378317 0
force C  -0.001722438660329  -0.000599002709905   0.000061540933156 0
force C   0.000231754470041   0.005278472754155   0.000161918050637 0
force C   0.003396610605693  -0.010485301468900   0.000954302865488 0
force C  -0.000342403840288   0.001557272572107   0.000043058857205 0
force C  -0.000367615362353  -0.000351260825445   0.000113584050078 0
force C   0.001561679792699  -0.000695206320883   0.000112096196986 0
force C   0.000164457561857   0.000387419153667   0.000153495968282 0
force C  -0.003337221277783  -0.010494051794032   0.000268960271027 0
force C   0.007476240168817   0.007469030568918   0.000196541345795 0
force C  -0.000604081520010   0.000228677143243   0.000239122935331 0
force C  -0.010395790170380   0.002051065683141   0.000117289441032 0
force C  -0.007223219349182   0.007907590622369   0.000180269072182 0
force C  -0.001603748858116  -0.000713702851371   0.000140471711479 0
force C  -0.000398140219587  -0.001275205992437   0.000101649886943 0
force C   0.000166773376312   0.003700376294157  -0.000019537818066 0
force C   0.000132306823255   0.001882082122139   0.000117334051634 0
force C   0.000983129495791   0.001156526019939   0.000107561499785 0
force C  -0.002210521984549  -0.001317946401027   0.000355288697308 0
force C  -0.000734995137367   0.001181145667906   0.000112105625448 0
force C  -0.001270344465439  -0.000079679015056   0.000022115776180 0
force C   0.002752420634026  -0.003102109166068   0.000027365708221 0
force C   0.000545547270695  -0.001822923384202   0.000243716940481 0
force C   0.000343123209622  -0.000068990062104   0.000127008931946 0
force C   0.002914158923484  -0.000691570544634  -0.000107251153957 0
force N   0.000666645796686  -0.000428712833001  -0.000316947493509 0
force S   0.000572579621786   0.005983190273525  -0.003547540961267 1
force S   0.005048824929478  -0.002148815490552   0.004157057961409 1
force S  -0.001849705317472   0.001204439756311  -0.007147442103716 1
force S  -0.003160839666403   0.002623601404874   0.003293872100644 1
force S   0.007564439540582  -0.003094698332994  -0.007940179240964 1
force S  -0.004072957745071   0.000684681505070   0.003943205887279 1
force S  -0.004152636927539  -0.003183862701584   0.005559535751889 1
force S   0.001105914521290  -0.002021708004302  -0.003297726201520 1
force Na  -0.001396145684541   0.000798008563532  -0.002821547015041 1
force Na   0.000038637845579  -0.000517255537184   0.000194963076774 1

# Energy components:
   Eewald =    -2401.8612243257130103
       EH =    -1945.6190013016050671
     Eloc =     3702.2124418585049170
      Enl =      -70.8532659230913708
     EvdW =       -0.1271965065206309
      Exc =     -179.3954719880321989
 Exc_core =       16.6214461555889734
       KE =      285.8557068310436193
-------------------------------------
     Etot =     -593.1665651998246176
       TS =        0.0883051543604031
-------------------------------------
        F =     -593.2548703541850728

IonicMinimize: Iter:   0  F: -593.254870354185073  |grad|_K:  3.775e-03  alpha:  1.000e+00

#--- Lowdin population analysis ---
# oxidation-state C +0.044 +0.044 +0.045 +0.044 +0.046 +0.044 +0.044 +0.045 +0.041 +0.045 +0.048 +0.042 +0.044 +0.045 +0.035 +0.047 +0.043 +0.049 +0.044 +0.047 +0.133 +0.045 +0.051 +0.128 +0.044 +0.046 +0.045 +0.045 +0.140 +0.047 +0.044 +0.045 +0.045 +0.045 +0.048 +0.045 +0.045 +0.046 +0.041 +0.045 +0.043 +0.045 +0.049 +0.042 +0.044 +0.038 +0.018 +0.045 +0.040 +0.019 +0.045 +0.045 +0.043 +0.046 +0.028 +0.034 +0.042 +0.029 +0.031 +0.044 +0.043 +0.045 +0.043 +0.044 +0.046 +0.044 +0.043 +0.038 +0.045 +0.039 +0.043
# oxidation-state N -0.006
# oxidation-state S -0.022 +0.085 -0.305 -0.386 +0.318 -0.315 +0.118 -0.461
# oxidation-state Na +0.688 +0.743


Computing DFT-D3 correction:
# coordination-number C 3.300 3.301 3.301 3.301 3.301 3.301 3.301 3.300 3.303 3.301 3.301 3.302 3.300 3.300 3.308 3.301 3.301 3.305 3.301 3.298 3.309 3.301 3.299 3.305 3.300 3.301 3.300 3.300 3.299 3.301 3.300 3.298 3.299 3.300 3.300 3.299 3.301 3.301 3.301 3.301 3.304 3.300 3.302 3.301 3.300 3.300 3.299 3.301 3.301 3.296 3.300 3.301 3.301 3.301 3.288 3.291 3.300 3.287 3.287 3.301 3.301 3.299 3.300 3.301 3.302 3.300 3.300 3.300 3.299 3.300 3.298
# coordination-number N 3.217
# coordination-number S 2.306 3.020 1.978 2.894 2.265 1.951 2.724 2.891
# coordination-number Na 5.435 4.045
# diagonal-C6 C 24.28 24.28 24.27 24.28 24.27 24.27 24.28 24.28 24.25 24.27 24.27 24.26 24.28 24.28 24.20 24.28 24.28 24.24 24.28 24.31 24.20 24.28 24.29 24.23 24.28 24.27 24.28 24.28 24.30 24.28 24.28 24.31 24.29 24.28 24.28 24.29 24.28 24.27 24.28 24.28 24.25 24.28 24.26 24.27 24.28 24.28 24.29 24.28 24.27 24.32 24.28 24.27 24.28 24.28 24.40 24.37 24.28 24.41 24.40 24.27 24.28 24.29 24.29 24.28 24.26 24.28 24.28 24.28 24.29 24.28 24.30
# diagonal-C6 N 15.60
# diagonal-C6 S 125.82 125.81 125.92 125.81 125.82 125.94 125.81 125.81
# diagonal-C6 Na 186.11 186.11
EvdW_6 =   -0.068896
EvdW_8 =   -0.058309

-------- Electronic minimization -----------
Will mix electronic density at each iteration.
	FillingsUpdate:  mu: -0.156746506  nElectrons: 355.000000
	FillingsUpdate:  mu: -0.156716410  nElectrons: 355.000000
SCF: Cycle:  0   F: -593.255172307101134   dF: -1.895e-05   |Residual|: 4.795e-03   |deigs|: 1.379e-06  t[s]:     31.87
	FillingsUpdate:  mu: -0.156751540  nElectrons: 355.000000
SCF: Cycle:  1   F: -593.255238105487251   dF: -6.580e-05   |Residual|: 1.768e-03   |deigs|: 6.751e-05  t[s]:     34.22
	FillingsUpdate:  mu: -0.156734101  nElectrons: 355.000000
SCF: Cycle:  2   F: -593.255241062203822   dF: -2.957e-06   |Residual|: 7.582e-04   |deigs|: 4.182e-05  t[s]:     36.59
	FillingsUpdate:  mu: -0.156734798  nElectrons: 355.000000
SCF: Cycle:  3   F: -593.255243460238489   dF: -2.398e-06   |Residual|: 3.358e-04   |deigs|: 3.083e-05  t[s]:     38.95
	FillingsUpdate:  mu: -0.156730177  nElectrons: 355.000000
SCF: Cycle:  4   F: -593.255243499898484   dF: -3.966e-08   |Residual|: 1.548e-04   |deigs|: 2.929e-05  t[s]:     41.33
	FillingsUpdate:  mu: -0.156725688  nElectrons: 355.000000
SCF: Cycle:  5   F: -593.255243722636351   dF: -2.227e-07   |Residual|: 7.656e-05   |deigs|: 3.364e-05  t[s]:     44.33
	FillingsUpdate:  mu: -0.156720608  nElectrons: 355.000000
SCF: Cycle:  6   F: -593.255243832394399   dF: -1.098e-07   |Residual|: 5.110e-05   |deigs|: 3.558e-05  t[s]:     46.72
	FillingsUpdate:  mu: -0.156712717  nElectrons: 355.000000
SCF: Cycle:  7   F: -593.255243901069207   dF: -6.867e-08   |Residual|: 3.758e-05   |deigs|: 4.290e-05  t[s]:     49.71
	FillingsUpdate:  mu: -0.156707995  nElectrons: 355.000000
SCF: Cycle:  8   F: -593.255243924785418   dF: -2.372e-08   |Residual|: 2.827e-05   |deigs|: 2.087e-05  t[s]:     52.74
	FillingsUpdate:  mu: -0.156702572  nElectrons: 355.000000
SCF: Cycle:  9   F: -593.255243937761975   dF: -1.298e-08   |Residual|: 1.932e-05   |deigs|: 1.743e-05  t[s]:     55.80
	FillingsUpdate:  mu: -0.156696456  nElectrons: 355.000000
SCF: Cycle: 10   F: -593.255243946000405   dF: -8.238e-09   |Residual|: 1.450e-05   |deigs|: 1.781e-05  t[s]:     58.83
	FillingsUpdate:  mu: -0.156690418  nElectrons: 355.000000
SCF: Cycle: 11   F: -593.255243950387694   dF: -4.387e-09   |Residual|: 1.018e-05   |deigs|: 2.886e-05  t[s]:     61.88
SCF: Converged (|Delta E|<1.000000e-08 for 2 iters).

Setting wave functions to eigenvectors of Hamiltonian
IonicMinimize: 	Predicted alpha/alphaT>3.000000, increasing alphaT to 3.000000e+00.

Computing DFT-D3 correction:
# coordination-number C 3.300 3.301 3.301 3.301 3.301 3.301 3.301 3.300 3.303 3.301 3.301 3.302 3.300 3.300 3.309 3.301 3.301 3.305 3.301 3.298 3.309 3.301 3.299 3.305 3.300 3.301 3.300 3.300 3.299 3.301 3.300 3.298 3.299 3.300 3.300 3.299 3.301 3.301 3.301 3.301 3.304 3.300 3.302 3.301 3.300 3.300 3.299 3.301 3.301 3.297 3.300 3.301 3.301 3.301 3.288 3.291 3.300 3.287 3.287 3.301 3.301 3.299 3.300 3.301 3.302 3.300 3.300 3.300 3.299 3.300 3.298
# coordination-number N 3.217
# coordination-number S 2.311 3.020 1.976 2.889 2.275 1.950 2.727 2.890
# coordination-number Na 5.431 4.048
# diagonal-C6 C 24.28 24.28 24.27 24.28 24.27 24.27 24.28 24.28 24.25 24.27 24.27 24.26 24.28 24.28 24.20 24.28 24.28 24.24 24.28 24.31 24.20 24.28 24.29 24.23 24.28 24.27 24.28 24.28 24.30 24.28 24.28 24.31 24.29 24.28 24.28 24.29 24.28 24.27 24.28 24.28 24.25 24.28 24.26 24.27 24.28 24.28 24.29 24.28 24.27 24.32 24.28 24.27 24.28 24.28 24.40 24.36 24.28 24.41 24.40 24.27 24.28 24.29 24.29 24.28 24.26 24.28 24.28 24.28 24.29 24.28 24.30
# diagonal-C6 N 15.60
# diagonal-C6 S 125.82 125.81 125.92 125.81 125.82 125.94 125.81 125.81
# diagonal-C6 Na 186.11 186.11
EvdW_6 =   -0.068895
EvdW_8 =   -0.058325

-------- Electronic minimization -----------
Will mix electronic density at each iteration.
	FillingsUpdate:  mu: -0.156690418  nElectrons: 355.000000
	FillingsUpdate:  mu: -0.157520098  nElectrons: 355.000000
SCF: Cycle:  0   F: -593.249210648185795   dF: +1.547e-03   |Residual|: 4.517e-02   |deigs|: 4.044e-05  t[s]:     69.23
	FillingsUpdate:  mu: -0.157351318  nElectrons: 355.000000
SCF: Cycle:  1   F: -593.254698499434880   dF: -5.488e-03   |Residual|: 1.871e-02   |deigs|: 6.412e-04  t[s]:     72.68
	FillingsUpdate:  mu: -0.157314316  nElectrons: 355.000000
SCF: Cycle:  2   F: -593.255487903097674   dF: -7.894e-04   |Residual|: 6.539e-03   |deigs|: 3.066e-04  t[s]:     75.99
	FillingsUpdate:  mu: -0.157243763  nElectrons: 355.000000
SCF: Cycle:  3   F: -593.255604209850276   dF: -1.163e-04   |Residual|: 3.507e-03   |deigs|: 1.680e-04  t[s]:     78.36
	FillingsUpdate:  mu: -0.157204125  nElectrons: 355.000000
SCF: Cycle:  4   F: -593.255638695007747   dF: -3.449e-05   |Residual|: 1.429e-03   |deigs|: 1.665e-04  t[s]:     80.74
	FillingsUpdate:  mu: -0.157141612  nElectrons: 355.000000
SCF: Cycle:  5   F: -593.255648606802652   dF: -9.912e-06   |Residual|: 7.064e-04   |deigs|: 1.492e-04  t[s]:     83.10
	FillingsUpdate:  mu: -0.157102143  nElectrons: 355.000000
SCF: Cycle:  6   F: -593.255655176070604   dF: -6.569e-06   |Residual|: 4.563e-04   |deigs|: 9.890e-05  t[s]:     85.43
	FillingsUpdate:  mu: -0.157026233  nElectrons: 355.000000
SCF: Cycle:  7   F: -593.255659822012831   dF: -4.646e-06   |Residual|: 3.244e-04   |deigs|: 1.324e-04  t[s]:     87.77
	FillingsUpdate:  mu: -0.156965456  nElectrons: 355.000000
SCF: Cycle:  8   F: -593.255662081582386   dF: -2.260e-06   |Residual|: 2.337e-04   |deigs|: 8.481e-05  t[s]:     90.12
	FillingsUpdate:  mu: -0.156897880  nElectrons: 355.000000
SCF: Cycle:  9   F: -593.255662959530241   dF: -8.779e-07   |Residual|: 1.838e-04   |deigs|: 8.075e-05  t[s]:     92.50
	FillingsUpdate:  mu: -0.156827748  nElectrons: 355.000000
SCF: Cycle: 10   F: -593.255663318708571   dF: -3.592e-07   |Residual|: 1.418e-04   |deigs|: 1.148e-04  t[s]:     95.50
	FillingsUpdate:  mu: -0.156769454  nElectrons: 355.000000
SCF: Cycle: 11   F: -593.255663443949857   dF: -1.252e-07   |Residual|: 1.057e-04   |deigs|: 1.635e-04  t[s]:     98.51
	FillingsUpdate:  mu: -0.156724011  nElectrons: 355.000000
SCF: Cycle: 12   F: -593.255663496935199   dF: -5.299e-08   |Residual|: 8.200e-05   |deigs|: 1.673e-04  t[s]:    101.52
	FillingsUpdate:  mu: -0.156673244  nElectrons: 355.000000
SCF: Cycle: 13   F: -593.255663553387421   dF: -5.645e-08   |Residual|: 5.970e-05   |deigs|: 1.837e-04  t[s]:    104.58
	FillingsUpdate:  mu: -0.156644287  nElectrons: 355.000000
SCF: Cycle: 14   F: -593.255663595131978   dF: -4.174e-08   |Residual|: 4.364e-05   |deigs|: 9.161e-05  t[s]:    107.66
	FillingsUpdate:  mu: -0.156612821  nElectrons: 355.000000
SCF: Cycle: 15   F: -593.255663622847919   dF: -2.772e-08   |Residual|: 3.598e-05   |deigs|: 1.299e-04  t[s]:    110.70
	FillingsUpdate:  mu: -0.156586173  nElectrons: 355.000000
SCF: Cycle: 16   F: -593.255663636380064   dF: -1.353e-08   |Residual|: 3.048e-05   |deigs|: 1.482e-04  t[s]:    113.72
	FillingsUpdate:  mu: -0.156562793  nElectrons: 355.000000
SCF: Cycle: 17   F: -593.255663646306402   dF: -9.926e-09   |Residual|: 2.466e-05   |deigs|: 1.567e-04  t[s]:    116.72
	FillingsUpdate:  mu: -0.156547408  nElectrons: 355.000000
SCF: Cycle: 18   F: -593.255663647807523   dF: -1.501e-09   |Residual|: 1.952e-05   |deigs|: 9.907e-05  t[s]:    119.77
SCF: Converged (|Delta E|<1.000000e-08 for 2 iters).

Setting wave functions to eigenvectors of Hamiltonian

Computing DFT-D3 correction:
# coordination-number C 3.300 3.301 3.301 3.301 3.301 3.301 3.301 3.300 3.303 3.301 3.301 3.302 3.300 3.300 3.309 3.301 3.301 3.305 3.301 3.298 3.309 3.301 3.299 3.305 3.300 3.301 3.300 3.300 3.299 3.301 3.300 3.298 3.299 3.300 3.300 3.299 3.301 3.301 3.301 3.301 3.304 3.300 3.302 3.301 3.300 3.300 3.299 3.301 3.301 3.297 3.300 3.301 3.301 3.301 3.288 3.291 3.300 3.287 3.287 3.301 3.301 3.299 3.300 3.301 3.302 3.300 3.300 3.300 3.299 3.300 3.298
# coordination-number N 3.217
# coordination-number S 2.313 3.020 1.975 2.887 2.280 1.950 2.728 2.890
# coordination-number Na 5.429 4.048
# diagonal-C6 C 24.28 24.28 24.27 24.28 24.27 24.27 24.28 24.28 24.25 24.27 24.27 24.26 24.28 24.28 24.20 24.28 24.28 24.24 24.28 24.31 24.20 24.28 24.29 24.23 24.28 24.27 24.28 24.28 24.30 24.28 24.28 24.31 24.29 24.28 24.28 24.29 24.28 24.27 24.28 24.28 24.25 24.28 24.26 24.27 24.28 24.28 24.29 24.28 24.27 24.31 24.28 24.27 24.28 24.28 24.40 24.36 24.28 24.41 24.40 24.27 24.28 24.29 24.29 24.28 24.26 24.28 24.28 24.28 24.29 24.28 24.30
# diagonal-C6 N 15.60
# diagonal-C6 S 125.82 125.81 125.92 125.81 125.82 125.94 125.81 125.81
# diagonal-C6 Na 186.11 186.11
EvdW_6 =   -0.068895
EvdW_8 =   -0.058333

-------- Electronic minimization -----------
Will mix electronic density at each iteration.
	FillingsUpdate:  mu: -0.156547408  nElectrons: 355.000000
	FillingsUpdate:  mu: -0.156461649  nElectrons: 355.000000
SCF: Cycle:  0   F: -593.255639539023718   dF: -1.124e-05   |Residual|: 4.520e-03   |deigs|: 1.013e-05  t[s]:    127.11
	FillingsUpdate:  mu: -0.156497096  nElectrons: 355.000000
SCF: Cycle:  1   F: -593.255703066669412   dF: -6.353e-05   |Residual|: 1.684e-03   |deigs|: 6.807e-05  t[s]:    129.48
	FillingsUpdate:  mu: -0.156479799  nElectrons: 355.000000
SCF: Cycle:  2   F: -593.255705324177939   dF: -2.258e-06   |Residual|: 7.304e-04   |deigs|: 3.993e-05  t[s]:    131.81
	FillingsUpdate:  mu: -0.156480039  nElectrons: 355.000000
SCF: Cycle:  3   F: -593.255707718936719   dF: -2.395e-06   |Residual|: 3.179e-04   |deigs|: 3.012e-05  t[s]:    134.13
	FillingsUpdate:  mu: -0.156475451  nElectrons: 355.000000
SCF: Cycle:  4   F: -593.255707794733325   dF: -7.580e-08   |Residual|: 1.497e-04   |deigs|: 2.798e-05  t[s]:    136.49
	FillingsUpdate:  mu: -0.156470698  nElectrons: 355.000000
SCF: Cycle:  5   F: -593.255708041727303   dF: -2.470e-07   |Residual|: 7.411e-05   |deigs|: 3.343e-05  t[s]:    138.85
	FillingsUpdate:  mu: -0.156465563  nElectrons: 355.000000
SCF: Cycle:  6   F: -593.255708172409641   dF: -1.307e-07   |Residual|: 5.071e-05   |deigs|: 3.404e-05  t[s]:    141.20
	FillingsUpdate:  mu: -0.156457618  nElectrons: 355.000000
SCF: Cycle:  7   F: -593.255708256517210   dF: -8.411e-08   |Residual|: 3.791e-05   |deigs|: 4.099e-05  t[s]:    143.57
	FillingsUpdate:  mu: -0.156452949  nElectrons: 355.000000
SCF: Cycle:  8   F: -593.255708285227797   dF: -2.871e-08   |Residual|: 2.914e-05   |deigs|: 1.968e-05  t[s]:    145.96
	FillingsUpdate:  mu: -0.156446946  nElectrons: 355.000000
SCF: Cycle:  9   F: -593.255708303018764   dF: -1.779e-08   |Residual|: 2.010e-05   |deigs|: 1.839e-05  t[s]:    148.97
	FillingsUpdate:  mu: -0.156440772  nElectrons: 355.000000
SCF: Cycle: 10   F: -593.255708312737397   dF: -9.719e-09   |Residual|: 1.464e-05   |deigs|: 1.900e-05  t[s]:    151.94
	FillingsUpdate:  mu: -0.156435247  nElectrons: 355.000000
SCF: Cycle: 11   F: -593.255708317607969   dF: -4.871e-09   |Residual|: 1.064e-05   |deigs|: 2.922e-05  t[s]:    154.93
SCF: Converged (|Delta E|<1.000000e-08 for 2 iters).

Setting wave functions to eigenvectors of Hamiltonian

Computing DFT-D3 correction:
# coordination-number C 3.300 3.301 3.301 3.301 3.301 3.301 3.301 3.300 3.303 3.301 3.301 3.302 3.300 3.300 3.309 3.301 3.301 3.305 3.301 3.298 3.309 3.301 3.299 3.305 3.300 3.301 3.300 3.300 3.299 3.301 3.300 3.298 3.299 3.300 3.300 3.299 3.301 3.301 3.301 3.301 3.304 3.300 3.302 3.301 3.300 3.300 3.299 3.301 3.301 3.297 3.300 3.301 3.301 3.301 3.288 3.291 3.300 3.287 3.287 3.301 3.301 3.299 3.300 3.301 3.302 3.300 3.300 3.300 3.299 3.300 3.298
# coordination-number N 3.217
# coordination-number S 2.313 3.020 1.975 2.887 2.280 1.950 2.728 2.890
# coordination-number Na 5.429 4.048
# diagonal-C6 C 24.28 24.28 24.27 24.28 24.27 24.27 24.28 24.28 24.25 24.27 24.27 24.26 24.28 24.28 24.20 24.28 24.28 24.24 24.28 24.31 24.20 24.28 24.29 24.23 24.28 24.27 24.28 24.28 24.30 24.28 24.28 24.31 24.29 24.28 24.28 24.29 24.28 24.27 24.28 24.28 24.25 24.28 24.26 24.27 24.28 24.28 24.29 24.28 24.27 24.31 24.28 24.27 24.28 24.28 24.40 24.36 24.28 24.41 24.40 24.27 24.28 24.29 24.29 24.28 24.26 24.28 24.28 24.28 24.29 24.28 24.30
# diagonal-C6 N 15.60
# diagonal-C6 S 125.82 125.81 125.92 125.81 125.82 125.94 125.81 125.81
# diagonal-C6 Na 186.11 186.11
EvdW_6 =   -0.068895
EvdW_8 =   -0.058333

# Ionic positions in cartesian coordinates:
ion C  28.010542013705631   0.002014969601156   0.635465203747167 0
ion C  16.341968157882292  20.214705522223607   0.636370795694031 0
ion C   2.338532027351695   4.042411505399060   0.630361847754816 0
ion C  23.343313188735969   0.002278716019722   0.640022467239564 0
ion C   4.672620934470559   0.001554156700161   0.632050616002296 0
ion C  11.674116326115334  20.215100669694028   0.619847495055023 0
ion C  25.676530282256284   4.042904097616445   0.653564930084009 0
ion C  18.675851376129700  16.172910511284943   0.662695583431347 0
ion C   4.671777948336020   8.082036709586005   0.612564386226399 0
ion C  18.676336142016080   0.002101964498535   0.651180333522277 0
ion C   9.339850970925752   0.001738039847832   0.641511836963307 0
ion C   9.341212652353351  16.175613291750459   0.599279306155555 0
ion C  23.342941439729607   8.084920466015539   0.683240254571249 0
ion C  21.009110272076708  12.128959849493356   0.688453340004557 0
ion C   7.009085367604252  12.128528685817338   0.597262204671189 0
ion C  14.008105470077210   0.001988816408382   0.654008834012114 0
ion C  14.009120976896664  16.174984627607692   0.629938477890011 0
ion C   7.005550759074101   4.041176716120078   0.616350899393808 0
ion C  21.010101094155836   4.043302536041172   0.668670850704729 0
ion C  16.344445762465487  12.130683361169906   0.668518806438794 0
ion C   9.337643998902927   8.081728763982859   0.614931622729934 0
ion C  16.343783017314891   4.042062713362387   0.668836182024798 0
ion C  11.674085450205249   4.041278849785761   0.642196060576936 0
ion C  11.675597583834264  12.133622242506720   0.630068253549407 0
ion C  18.678074956154809   8.085220585829878   0.685769374381508 0
ion C   7.007175797728255  20.216155157604103   0.619709324068161 0
ion C  -6.996748017889800  20.214440105700564   0.653094683289385 0
ion C   0.002354623270169   8.082966457809835   0.657418822396948 0
ion C  14.012576459862725   8.083203697825988   0.669712893069494 0
ion C   2.339067441062872  20.216465077180068   0.646220757178249 0
ion C  -4.663670527593792  16.172490992184059   0.678596642017759 0
ion C   2.336125814129785  12.127745765919109   0.656417500003109 0
ion C  -2.332224039758668  12.128030282589300   0.685859862245795 0
ion C  -2.329659352792410  20.215194179952768   0.659830322184195 0
ion C   4.673933801454849  16.177740252210711   0.625359734501050 0
ion C   0.002990588629148  16.174656174657997   0.666554428718456 0
ion C  14.008266720144102  21.561374576259517   0.629777200837147 0
ion C   2.338930816614256   1.348570645432834   0.632009758527847 0
ion C  25.677100562977380   1.348988124751942   0.641986895200073 0
ion C  16.342686998612663  17.520648868856785   0.642302048336074 0
ion C   4.672307145938162   5.388219921962990   0.616057256550324 0
ion C  21.010123495302889   1.349044430338556   0.652394834146865 0
ion C   7.005937845436384   1.348033936218268   0.628031389286509 0
ion C  11.674692189550257  17.521226022139913   0.612057705166649 0
ion C  23.343784883173043   5.390651685198355   0.669612389866280 0
ion C  18.676972543384359  13.478483594758318   0.675595907033575 0
ion C   7.004963348139576   9.432115986525980   0.597538283264729 0
ion C  16.342472076605748   1.348066366442404   0.659130179870282 0
ion C  11.673522256343780   1.347802312891912   0.646547034509048 0
ion C   9.340696631175403  13.481256291567631   0.599303874261302 0
ion C  21.010487586627971   9.434228317035956   0.689549670827176 0
ion C   9.340862584041272  21.562275316056120   0.623251203387415 0
ion C  -9.330262385564788  21.561165527783945   0.640491424243255 0
ion C   0.004476893676090   5.389148113018151   0.645932445799481 0
ion C  14.011432130181314  13.480719160062115   0.643556882023976 0
ion C   9.339051356617166   5.386992451363917   0.621078239496768 0
ion C  18.677007069088155   5.390558998944344   0.676741055188348 0
ion C  16.345725884609092   9.434637493571932   0.679131999516677 0
ion C  14.009428395823310   5.387478001177438   0.662736904438848 0
ion C   4.673293824799767  21.561882602550448   0.637519226383223 0
ion C  -6.996841473985327  17.520066852095106   0.666346621047357 0
ion C   2.337134667876788   9.428913976861832   0.643387178107247 0
ion C  -2.330217064543965   9.432650452790400   0.678563548363968 0
ion C  -4.663349535264295  21.561481505082671   0.652392573786173 0
ion C   7.008365318233412  17.523060541264897   0.607450639135720 0
ion C   0.004487123343837  21.561671103490092   0.654109318198199 0
ion C  -4.664147187494722  13.477588422800194   0.688047082736968 0
ion C   4.674619807111762  13.479414560663223   0.625188064189185 0
ion C   2.338448909138405  17.522455183042435   0.645633689115609 0
ion C  -2.330712054942804  17.520790606615741   0.670058696770369 0
ion C   0.000363098194401  13.478789474313889   0.675559226948007 0
ion N  11.674484029805171   9.432912355349794   0.644194404697448 0
ion S  12.493800690961679   4.339683233576330  10.479052558575169 1
ion S   8.379287932764786   4.632879641973612  10.708028058018927 1
ion S   6.877073387119047   5.664754333565844   7.397076463749951 1
ion S   4.978525056676107  10.837657464025192  11.509211522155450 1
ion S   4.781821367478209  14.610155594435291  11.082939133622343 1
ion S   6.940609879419606  15.800816712553175   8.260479241662960 1
ion S  13.800489110615066   7.497202427951049   8.653629411628922 1
ion S  13.264687637335363  10.730282834575807  10.727875170097219 1
ion Na   8.848964082608481  10.760322284892409   7.659877326999370 1
ion Na   9.395300389051890   9.132838702392467  13.735105973068798 1

# Forces in Cartesian coordinates:
force C  -0.000474761502413   0.000409210230385  -0.000126213936664 0
force C  -0.000824441225401   0.000222415433735   0.000020585692875 0
force C  -0.000358192281174  -0.000125604662563   0.000071174398103 0
force C   0.000977580386403   0.000429299995438  -0.000074295700648 0
force C  -0.000662301944959   0.000774431173153   0.000037363266532 0
force C   0.000202044452547   0.000472253324338   0.000020716570275 0
force C   0.000269288917740  -0.000778796455978   0.000015706675175 0
force C  -0.000089270953979   0.001983543523185  -0.000013913569887 0
force C   0.000763501629637  -0.003951006354990   0.000587212883807 0
force C   0.000683708520056   0.000548620383704  -0.000071234757865 0
force C  -0.002068117661841  -0.000756552777446   0.000030717379157 0
force C   0.004401341159143   0.001192981105333   0.000562609613872 0
force C  -0.000151093008446  -0.000488857787997  -0.000116042528154 0
force C   0.001776911864937  -0.000915781968549  -0.000004091844974 0
force C  -0.007729156917329   0.004347102754764   0.001114075618053 0
force C   0.001600436583222  -0.000858162726886   0.000125538730863 0
force C  -0.004631580850128   0.000928063185974   0.000122533017910 0
force C  -0.003195984035183   0.003357305437788  -0.000025762344144 0
force C   0.000428654569888  -0.000088580692713  -0.000030115991426 0
force C   0.005496866170173   0.003067608354920   0.000217933518310 0
force C   0.005724697018750   0.002682138509263   0.000371874553391 0
force C   0.003096939202184   0.003650596957670   0.000138560663851 0
force C  -0.000219873221905  -0.005997467595100   0.000350878637146 0
force C   0.000587590559614  -0.005965357524332  -0.000189259456396 0
force C  -0.001609514795332  -0.004204910861251   0.000045614848215 0
force C   0.000966140297216   0.000144522989513   0.000176914051407 0
force C  -0.001871235448759   0.000987018371831  -0.000018990995963 0
force C   0.000916887461375  -0.000293748831559   0.000141116605180 0
force C  -0.005618843737881   0.003263708330658  -0.000432656347223 0
force C   0.001698367195570   0.000566951204397  -0.000009528030865 0
force C   0.000232777694154   0.000005757108706  -0.000078243347819 0
force C  -0.000556439735343  -0.000434911364758  -0.000718400933143 0
force C   0.000717803865415  -0.001666051665680  -0.000036326634389 0
force C   0.000019731436716  -0.000332231325010  -0.000006505403390 0
force C  -0.000201571155182   0.000033376682022   0.000089161700252 0
force C   0.000349233129002  -0.000488057126670   0.000084302798986 0
force C   0.000074405938716  -0.000243383645350   0.000033211578995 0
force C   0.000446704330129  -0.000031994381858   0.000125508110951 0
force C  -0.000110160747544  -0.000111707440799   0.000108872165124 0
force C   0.001458879762786  -0.001060918157683   0.000137294801333 0
force C   0.000611680677438   0.000278253303964   0.000084527561422 0
force C  -0.000710189885991   0.000061458091600   0.000154084523311 0
force C   0.001859686265723  -0.000610120802306   0.000129845641418 0
force C   0.000188200554717  -0.000525079533899   0.000167308688638 0
force C  -0.000520648628380   0.000322566593354   0.000096996239956 0
force C  -0.004640225024755  -0.002951345341853   0.000002273934336 0
force C   0.009929712179457   0.002163455249017   0.001201872195063 0
force C  -0.001726275416261  -0.000599868772602   0.000049187096883 0
force C   0.000223037837811   0.005277751951788   0.000154065414865 0
force C   0.003406058065238  -0.010484950823067   0.000951631637510 0
force C  -0.000341629437072   0.001559149208813   0.000030003106515 0
force C  -0.000361356577029  -0.000346516096104   0.000103386103091 0
force C   0.001560825885406  -0.000688836959934   0.000099524328105 0
force C   0.000175648684683   0.000380526991990   0.000141816018160 0
force C  -0.003340969735871  -0.010491945036695   0.000257367182966 0
force C   0.007476791939045   0.007469635662576   0.000168007195246 0
force C  -0.000608850660237   0.000221433148999   0.000226052935037 0
force C  -0.010394729429511   0.002050808017046   0.000104794745574 0
force C  -0.007238950335354   0.007905736486887   0.000170362499697 0
force C  -0.001611317442196  -0.000711377688010   0.000129867684332 0
force C  -0.000401271190893  -0.001270612991019   0.000089081963793 0
force C   0.000170807811713   0.003689682962829  -0.000031055145235 0
force C   0.000136396959208   0.001881077414758   0.000105759425276 0
force C   0.000982206355934   0.001161677182202   0.000095084454692 0
force C  -0.002204224768607  -0.001315148321130   0.000345704190825 0
force C  -0.000741364435449   0.001181044384335   0.000101482060440 0
force C  -0.001269442451761  -0.000075208318117   0.000010279854013 0
force C   0.002748491962412  -0.003109674993580   0.000026785550138 0
force C   0.000537009807762  -0.001817258616310   0.000236467438082 0
force C   0.000344194091032  -0.000067512504683   0.000116622533245 0
force C   0.002913472201157  -0.000690404122248  -0.000116982657697 0
force N   0.000652648918435  -0.000449487474150  -0.000326766421287 0
force S  -0.000063266843690   0.000896069261884  -0.000255114110878 1
force S  -0.000001344047910   0.000681368503098  -0.004101770044735 1
force S   0.001853491225107  -0.001081750480915   0.001054207459333 1
force S  -0.001924980383058  -0.000654992603479   0.002786066576350 1
force S   0.000371242822541  -0.001458636357033   0.000130266422269 1
force S   0.001905623276917   0.002688575980766  -0.003522405654232 1
force S  -0.001220112293501  -0.001015718536215  -0.000066324665069 1
force S   0.000155871013985   0.000596211074304  -0.000975172012892 1
force Na  -0.001409278212912   0.000188159135676  -0.002796572854393 1
force Na   0.000012895195217  -0.000491452980395  -0.000083725548039 1

# Energy components:
   Eewald =    -2401.0835660022949014
       EH =    -1944.7881564392982909
     Eloc =     3700.5703786471176500
      Enl =      -70.8465839432485609
     EvdW =       -0.1272273990724039
      Exc =     -179.4125971961132109
 Exc_core =       16.6214469088843977
       KE =      285.8983583011452652
-------------------------------------
     Etot =     -593.1679471228799230
       TS =        0.0877611947280796
-------------------------------------
        F =     -593.2557083176079686

IonicMinimize: Iter:   1  F: -593.255708317607969  |grad|_K:  1.584e-03  alpha:  3.931e+00  linmin:  5.517e-03  t[s]:    158.66

#--- Lowdin population analysis ---
# oxidation-state C +0.044 +0.044 +0.046 +0.044 +0.046 +0.043 +0.044 +0.045 +0.041 +0.045 +0.048 +0.041 +0.044 +0.045 +0.035 +0.047 +0.043 +0.049 +0.044 +0.047 +0.133 +0.044 +0.051 +0.128 +0.044 +0.046 +0.045 +0.045 +0.140 +0.047 +0.044 +0.045 +0.045 +0.045 +0.048 +0.045 +0.045 +0.046 +0.041 +0.045 +0.043 +0.044 +0.049 +0.042 +0.044 +0.038 +0.018 +0.045 +0.040 +0.019 +0.045 +0.045 +0.043 +0.046 +0.028 +0.035 +0.042 +0.029 +0.031 +0.044 +0.043 +0.045 +0.043 +0.044 +0.046 +0.043 +0.043 +0.037 +0.045 +0.039 +0.043
# oxidation-state N -0.006
# oxidation-state S -0.008 +0.070 -0.321 -0.384 +0.334 -0.303 +0.129 -0.465
# oxidation-state Na +0.687 +0.742


Computing DFT-D3 correction:
# coordination-number C 3.300 3.301 3.301 3.301 3.301 3.301 3.301 3.300 3.303 3.301 3.301 3.302 3.300 3.300 3.309 3.301 3.301 3.305 3.301 3.298 3.309 3.301 3.299 3.305 3.300 3.301 3.300 3.300 3.299 3.301 3.300 3.298 3.299 3.300 3.300 3.299 3.301 3.301 3.301 3.301 3.304 3.300 3.302 3.301 3.300 3.300 3.300 3.301 3.301 3.297 3.300 3.301 3.301 3.301 3.288 3.291 3.300 3.287 3.287 3.301 3.301 3.299 3.300 3.301 3.302 3.300 3.300 3.300 3.299 3.300 3.298
# coordination-number N 3.217
# coordination-number S 2.317 3.021 1.976 2.875 2.284 1.945 2.728 2.886
# coordination-number Na 5.413 4.045
# diagonal-C6 C 24.28 24.28 24.27 24.28 24.27 24.27 24.28 24.28 24.25 24.27 24.27 24.26 24.28 24.28 24.19 24.28 24.28 24.24 24.28 24.31 24.19 24.28 24.29 24.23 24.28 24.27 24.28 24.28 24.30 24.28 24.28 24.31 24.29 24.28 24.28 24.29 24.28 24.27 24.28 24.28 24.25 24.28 24.26 24.27 24.28 24.28 24.28 24.28 24.27 24.31 24.28 24.27 24.28 24.28 24.40 24.36 24.28 24.41 24.40 24.27 24.28 24.29 24.29 24.28 24.26 24.28 24.28 24.28 24.29 24.28 24.30
# diagonal-C6 N 15.60
# diagonal-C6 S 125.82 125.81 125.92 125.81 125.82 125.95 125.81 125.81
# diagonal-C6 Na 186.11 186.11
EvdW_6 =   -0.068908
EvdW_8 =   -0.058384

-------- Electronic minimization -----------
Will mix electronic density at each iteration.
	FillingsUpdate:  mu: -0.156435247  nElectrons: 355.000000
	FillingsUpdate:  mu: -0.156499601  nElectrons: 355.000000
SCF: Cycle:  0   F: -593.255862674652803   dF: -8.228e-05   |Residual|: 5.330e-03   |deigs|: 7.839e-06  t[s]:    167.51
	FillingsUpdate:  mu: -0.156498070  nElectrons: 355.000000
SCF: Cycle:  1   F: -593.255924420357132   dF: -6.175e-05   |Residual|: 2.046e-03   |deigs|: 6.474e-05  t[s]:    175.06
	FillingsUpdate:  mu: -0.156489709  nElectrons: 355.000000
SCF: Cycle:  2   F: -593.255929558048251   dF: -5.138e-06   |Residual|: 6.804e-04   |deigs|: 5.735e-05  t[s]:    177.41
	FillingsUpdate:  mu: -0.156483995  nElectrons: 355.000000
SCF: Cycle:  3   F: -593.255930710516623   dF: -1.152e-06   |Residual|: 3.222e-04   |deigs|: 5.425e-05  t[s]:    183.14
	FillingsUpdate:  mu: -0.156476942  nElectrons: 355.000000
SCF: Cycle:  4   F: -593.255930994616506   dF: -2.841e-07   |Residual|: 1.461e-04   |deigs|: 5.912e-05  t[s]:    190.47
	FillingsUpdate:  mu: -0.156470750  nElectrons: 355.000000
SCF: Cycle:  5   F: -593.255931257427847   dF: -2.628e-07   |Residual|: 8.258e-05   |deigs|: 5.482e-05  t[s]:    192.81
	FillingsUpdate:  mu: -0.156461984  nElectrons: 355.000000
SCF: Cycle:  6   F: -593.255931400975896   dF: -1.435e-07   |Residual|: 5.511e-05   |deigs|: 6.253e-05  t[s]:    195.19
	FillingsUpdate:  mu: -0.156449739  nElectrons: 355.000000
SCF: Cycle:  7   F: -593.255931529210329   dF: -1.282e-07   |Residual|: 4.445e-05   |deigs|: 7.462e-05  t[s]:    197.58
	FillingsUpdate:  mu: -0.156443554  nElectrons: 355.000000
SCF: Cycle:  8   F: -593.255931551865842   dF: -2.266e-08   |Residual|: 3.353e-05   |deigs|: 2.364e-05  t[s]:    199.96
	FillingsUpdate:  mu: -0.156431654  nElectrons: 355.000000
SCF: Cycle:  9   F: -593.255931574825240   dF: -2.296e-08   |Residual|: 2.525e-05   |deigs|: 3.038e-05  t[s]:    202.98
	FillingsUpdate:  mu: -0.156419617  nElectrons: 355.000000
SCF: Cycle: 10   F: -593.255931586624456   dF: -1.180e-08   |Residual|: 1.886e-05   |deigs|: 2.857e-05  t[s]:    206.02
	FillingsUpdate:  mu: -0.156409883  nElectrons: 355.000000
SCF: Cycle: 11   F: -593.255931591895205   dF: -5.271e-09   |Residual|: 1.474e-05   |deigs|: 3.919e-05  t[s]:    209.10
	FillingsUpdate:  mu: -0.156400572  nElectrons: 355.000000
SCF: Cycle: 12   F: -593.255931595065931   dF: -3.171e-09   |Residual|: 1.119e-05   |deigs|: 6.168e-05  t[s]:    212.11
SCF: Converged (|Delta E|<1.000000e-08 for 2 iters).

Setting wave functions to eigenvectors of Hamiltonian

Computing DFT-D3 correction:
# coordination-number C 3.300 3.301 3.301 3.301 3.301 3.301 3.301 3.300 3.303 3.301 3.301 3.303 3.300 3.300 3.309 3.301 3.301 3.305 3.301 3.298 3.309 3.301 3.299 3.305 3.300 3.301 3.300 3.300 3.299 3.301 3.300 3.298 3.299 3.300 3.300 3.299 3.301 3.301 3.301 3.301 3.304 3.300 3.302 3.301 3.300 3.300 3.300 3.301 3.301 3.297 3.300 3.301 3.301 3.301 3.288 3.291 3.300 3.287 3.287 3.301 3.301 3.299 3.300 3.301 3.302 3.300 3.300 3.300 3.300 3.300 3.298
# coordination-number N 3.217
# coordination-number S 2.322 3.021 1.977 2.861 2.289 1.940 2.728 2.882
# coordination-number Na 5.395 4.041
# diagonal-C6 C 24.28 24.28 24.27 24.28 24.27 24.27 24.28 24.28 24.25 24.27 24.27 24.26 24.28 24.28 24.19 24.28 24.28 24.24 24.28 24.31 24.19 24.28 24.29 24.23 24.28 24.27 24.28 24.28 24.30 24.28 24.28 24.30 24.29 24.28 24.28 24.29 24.28 24.27 24.28 24.28 24.25 24.28 24.26 24.27 24.28 24.28 24.28 24.28 24.27 24.31 24.28 24.27 24.28 24.28 24.40 24.36 24.28 24.41 24.40 24.27 24.28 24.29 24.29 24.28 24.26 24.28 24.28 24.28 24.29 24.28 24.30
# diagonal-C6 N 15.60
# diagonal-C6 S 125.82 125.81 125.92 125.81 125.82 125.95 125.81 125.81
# diagonal-C6 Na 186.11 186.11
EvdW_6 =   -0.068923
EvdW_8 =   -0.058441

-------- Electronic minimization -----------
Will mix electronic density at each iteration.
	FillingsUpdate:  mu: -0.156400572  nElectrons: 355.000000
	FillingsUpdate:  mu: -0.156459014  nElectrons: 355.000000
SCF: Cycle:  0   F: -593.255930750351467   dF: -9.962e-05   |Residual|: 5.897e-03   |deigs|: 8.774e-06  t[s]:    219.42
	FillingsUpdate:  mu: -0.156457729  nElectrons: 355.000000
SCF: Cycle:  1   F: -593.256006482288626   dF: -7.573e-05   |Residual|: 2.272e-03   |deigs|: 7.237e-05  t[s]:    221.78
	FillingsUpdate:  mu: -0.156448205  nElectrons: 355.000000
SCF: Cycle:  2   F: -593.256012899573420   dF: -6.417e-06   |Residual|: 7.508e-04   |deigs|: 6.281e-05  t[s]:    224.14
	FillingsUpdate:  mu: -0.156441900  nElectrons: 355.000000
SCF: Cycle:  3   F: -593.256014357221829   dF: -1.458e-06   |Residual|: 3.563e-04   |deigs|: 5.797e-05  t[s]:    226.49
	FillingsUpdate:  mu: -0.156433928  nElectrons: 355.000000
SCF: Cycle:  4   F: -593.256014724604938   dF: -3.674e-07   |Residual|: 1.614e-04   |deigs|: 6.314e-05  t[s]:    228.85
	FillingsUpdate:  mu: -0.156427023  nElectrons: 355.000000
SCF: Cycle:  5   F: -593.256015063162522   dF: -3.386e-07   |Residual|: 9.215e-05   |deigs|: 5.754e-05  t[s]:    231.22
	FillingsUpdate:  mu: -0.156417080  nElectrons: 355.000000
SCF: Cycle:  6   F: -593.256015253546479   dF: -1.904e-07   |Residual|: 6.184e-05   |deigs|: 6.608e-05  t[s]:    233.56
	FillingsUpdate:  mu: -0.156403457  nElectrons: 355.000000
SCF: Cycle:  7   F: -593.256015419593837   dF: -1.660e-07   |Residual|: 4.988e-05   |deigs|: 7.654e-05  t[s]:    235.91
	FillingsUpdate:  mu: -0.156396473  nElectrons: 355.000000
SCF: Cycle:  8   F: -593.256015449493134   dF: -2.990e-08   |Residual|: 3.763e-05   |deigs|: 2.457e-05  t[s]:    238.28
	FillingsUpdate:  mu: -0.156383313  nElectrons: 355.000000
SCF: Cycle:  9   F: -593.256015479322969   dF: -2.983e-08   |Residual|: 2.846e-05   |deigs|: 3.072e-05  t[s]:    241.28
	FillingsUpdate:  mu: -0.156369942  nElectrons: 355.000000
SCF: Cycle: 10   F: -593.256015494350436   dF: -1.503e-08   |Residual|: 2.129e-05   |deigs|: 3.099e-05  t[s]:    244.29
	FillingsUpdate:  mu: -0.156359440  nElectrons: 355.000000
SCF: Cycle: 11   F: -593.256015500922445   dF: -6.572e-09   |Residual|: 1.650e-05   |deigs|: 4.204e-05  t[s]:    247.34
	FillingsUpdate:  mu: -0.156349374  nElectrons: 355.000000
SCF: Cycle: 12   F: -593.256015504756192   dF: -3.834e-09   |Residual|: 1.254e-05   |deigs|: 6.490e-05  t[s]:    250.35
SCF: Converged (|Delta E|<1.000000e-08 for 2 iters).

Setting wave functions to eigenvectors of Hamiltonian

Computing DFT-D3 correction:
# coordination-number C 3.300 3.301 3.301 3.301 3.301 3.301 3.301 3.300 3.303 3.301 3.301 3.303 3.300 3.300 3.309 3.301 3.301 3.305 3.301 3.298 3.309 3.301 3.299 3.305 3.300 3.301 3.300 3.300 3.299 3.301 3.300 3.298 3.299 3.300 3.300 3.299 3.301 3.301 3.301 3.301 3.304 3.300 3.302 3.301 3.300 3.300 3.300 3.301 3.301 3.297 3.300 3.301 3.301 3.301 3.288 3.291 3.300 3.287 3.287 3.301 3.301 3.299 3.300 3.301 3.302 3.300 3.300 3.300 3.300 3.300 3.298
# coordination-number N 3.217
# coordination-number S 2.322 3.021 1.977 2.861 2.289 1.940 2.728 2.882
# coordination-number Na 5.395 4.041
# diagonal-C6 C 24.28 24.28 24.27 24.28 24.27 24.27 24.28 24.28 24.25 24.27 24.27 24.26 24.28 24.28 24.19 24.28 24.28 24.24 24.28 24.31 24.19 24.28 24.29 24.23 24.28 24.27 24.28 24.28 24.30 24.28 24.28 24.30 24.29 24.28 24.28 24.29 24.28 24.27 24.28 24.28 24.25 24.28 24.26 24.27 24.28 24.28 24.28 24.28 24.27 24.31 24.28 24.27 24.28 24.28 24.40 24.36 24.28 24.41 24.40 24.27 24.28 24.29 24.29 24.28 24.26 24.28 24.28 24.28 24.29 24.28 24.30
# diagonal-C6 N 15.60
# diagonal-C6 S 125.82 125.81 125.92 125.81 125.82 125.95 125.81 125.81
# diagonal-C6 Na 186.11 186.11
EvdW_6 =   -0.068923
EvdW_8 =   -0.058441

# Ionic positions in cartesian coordinates:
ion C  28.010542013705631   0.002014969601156   0.635465203747167 0
ion C  16.341968157882292  20.214705522223607   0.636370795694031 0
ion C   2.338532027351695   4.042411505399060   0.630361847754816 0
ion C  23.343313188735969   0.002278716019722   0.640022467239564 0
ion C   4.672620934470559   0.001554156700161   0.632050616002296 0
ion C  11.674116326115334  20.215100669694028   0.619847495055023 0
ion C  25.676530282256284   4.042904097616445   0.653564930084009 0
ion C  18.675851376129700  16.172910511284943   0.662695583431347 0
ion C   4.671777948336020   8.082036709586005   0.612564386226399 0
ion C  18.676336142016080   0.002101964498535   0.651180333522277 0
ion C   9.339850970925752   0.001738039847832   0.641511836963307 0
ion C   9.341212652353351  16.175613291750459   0.599279306155555 0
ion C  23.342941439729607   8.084920466015539   0.683240254571249 0
ion C  21.009110272076708  12.128959849493356   0.688453340004557 0
ion C   7.009085367604252  12.128528685817338   0.597262204671189 0
ion C  14.008105470077210   0.001988816408382   0.654008834012114 0
ion C  14.009120976896664  16.174984627607692   0.629938477890011 0
ion C   7.005550759074101   4.041176716120078   0.616350899393808 0
ion C  21.010101094155836   4.043302536041172   0.668670850704729 0
ion C  16.344445762465487  12.130683361169906   0.668518806438794 0
ion C   9.337643998902927   8.081728763982859   0.614931622729934 0
ion C  16.343783017314891   4.042062713362387   0.668836182024798 0
ion C  11.674085450205249   4.041278849785761   0.642196060576936 0
ion C  11.675597583834264  12.133622242506720   0.630068253549407 0
ion C  18.678074956154809   8.085220585829878   0.685769374381508 0
ion C   7.007175797728255  20.216155157604103   0.619709324068161 0
ion C  -6.996748017889800  20.214440105700564   0.653094683289385 0
ion C   0.002354623270169   8.082966457809835   0.657418822396948 0
ion C  14.012576459862725   8.083203697825988   0.669712893069494 0
ion C   2.339067441062872  20.216465077180068   0.646220757178249 0
ion C  -4.663670527593792  16.172490992184059   0.678596642017759 0
ion C   2.336125814129785  12.127745765919109   0.656417500003109 0
ion C  -2.332224039758668  12.128030282589300   0.685859862245795 0
ion C  -2.329659352792410  20.215194179952768   0.659830322184195 0
ion C   4.673933801454849  16.177740252210711   0.625359734501050 0
ion C   0.002990588629148  16.174656174657997   0.666554428718456 0
ion C  14.008266720144102  21.561374576259517   0.629777200837147 0
ion C   2.338930816614256   1.348570645432834   0.632009758527847 0
ion C  25.677100562977380   1.348988124751942   0.641986895200073 0
ion C  16.342686998612663  17.520648868856785   0.642302048336074 0
ion C   4.672307145938162   5.388219921962990   0.616057256550324 0
ion C  21.010123495302889   1.349044430338556   0.652394834146865 0
ion C   7.005937845436384   1.348033936218268   0.628031389286509 0
ion C  11.674692189550257  17.521226022139913   0.612057705166649 0
ion C  23.343784883173043   5.390651685198355   0.669612389866280 0
ion C  18.676972543384359  13.478483594758318   0.675595907033575 0
ion C   7.004963348139576   9.432115986525980   0.597538283264729 0
ion C  16.342472076605748   1.348066366442404   0.659130179870282 0
ion C  11.673522256343780   1.347802312891912   0.646547034509048 0
ion C   9.340696631175403  13.481256291567631   0.599303874261302 0
ion C  21.010487586627971   9.434228317035956   0.689549670827176 0
ion C   9.340862584041272  21.562275316056120   0.623251203387415 0
ion C  -9.330262385564788  21.561165527783945   0.640491424243255 0
ion C   0.004476893676090   5.389148113018151   0.645932445799481 0
ion C  14.011432130181314  13.480719160062115   0.643556882023976 0
ion C   9.339051356617166   5.386992451363917   0.621078239496768 0
ion C  18.677007069088155   5.390558998944344   0.676741055188348 0
ion C  16.345725884609092   9.434637493571932   0.679131999516677 0
ion C  14.009428395823310   5.387478001177438   0.662736904438848 0
ion C   4.673293824799767  21.561882602550448   0.637519226383223 0
ion C  -6.996841473985327  17.520066852095106   0.666346621047357 0
ion C   2.337134667876788   9.428913976861832   0.643387178107247 0
ion C  -2.330217064543965   9.432650452790400   0.678563548363968 0
ion C  -4.663349535264295  21.561481505082671   0.652392573786173 0
ion C   7.008365318233412  17.523060541264897   0.607450639135720 0
ion C   0.004487123343837  21.561671103490092   0.654109318198199 0
ion C  -4.664147187494722  13.477588422800194   0.688047082736968 0
ion C   4.674619807111762  13.479414560663223   0.625188064189185 0
ion C   2.338448909138405  17.522455183042435   0.645633689115609 0
ion C  -2.330712054942804  17.520790606615741   0.670058696770369 0
ion C   0.000363098194401  13.478789474313889   0.675559226948007 0
ion N  11.674484029805171   9.432912355349794   0.644194404697448 0
ion S  12.494110633071779   4.355780833356937  10.471788650563218 1
ion S   8.386616551696521   4.635382403344399  10.680199821923251 1
ion S   6.889690120811013   5.657572418403005   7.395391308275409 1
ion S   4.958033912223611  10.836062728202666  11.537006729909406 1
ion S   4.795883799037957  14.593611573151639  11.072471828621156 1
ion S   6.950425060395396  15.824013758670745   8.237124387225636 1
ion S  13.784376794777161   7.484186305875087   8.661163879065008 1
ion S  13.267582507937021  10.732267166126697  10.715028343832131 1
ion Na   8.835296917503820  10.763036166387405   7.632682002145359 1
ion Na   9.395463044527633   9.128028428536856  13.734698012328280 1

# Forces in Cartesian coordinates:
force C  -0.000477285815739   0.000408377610327  -0.000114922669069 0
force C  -0.000827027231075   0.000222335593241   0.000032029063143 0
force C  -0.000360986944999  -0.000128256211347   0.000082609520825 0
force C   0.000975090800532   0.000429417465763  -0.000063675919841 0
force C  -0.000663993829362   0.000770612326869   0.000048983340234 0
force C   0.000201870048091   0.000470939917839   0.000030218207457 0
force C   0.000266489166799  -0.000781657096075   0.000027045283496 0
force C  -0.000089814716036   0.001984706284050  -0.000001800549455 0
force C   0.000751051459693  -0.003961675251239   0.000596100716190 0
force C   0.000683600218267   0.000549870955234  -0.000060261517271 0
force C  -0.002068782616268  -0.000762895136526   0.000043339419543 0
force C   0.004404321294325   0.001192967776714   0.000567294639759 0
force C  -0.000155160907705  -0.000492786095563  -0.000104509420595 0
force C   0.001775527437632  -0.000917730360798   0.000008076919617 0
force C  -0.007736928776124   0.004372001436601   0.001120460356409 0
force C   0.001605526686159  -0.000859929699661   0.000137979012668 0
force C  -0.004632000911489   0.000928230073445   0.000133098337915 0
force C  -0.003196528294921   0.003353984897241  -0.000022440561660 0
force C   0.000426209862288  -0.000089063100842  -0.000017790084516 0
force C   0.005499132803239   0.003068499879158   0.000228725936525 0
force C   0.005729092619764   0.002662119964769   0.000378378400797 0
force C   0.003094838108288   0.003653120676422   0.000151091418610 0
force C  -0.000211924203608  -0.006005138327839   0.000362646182456 0
force C   0.000597109940090  -0.005943178602847  -0.000185081469561 0
force C  -0.001610793750810  -0.004206879947402   0.000058340133585 0
force C   0.000966601612415   0.000143585935764   0.000184473552262 0
force C  -0.001873309206382   0.000986998483287  -0.000006704867456 0
force C   0.000912012489070  -0.000297976221628   0.000149495381167 0
force C  -0.005602331765659   0.003258509251612  -0.000424369216897 0
force C   0.001700225552001   0.000568886153234  -0.000000416155889 0
force C   0.000228618021477   0.000005859425008  -0.000067589373994 0
force C  -0.000560335048939  -0.000428313719061  -0.000713377648649 0
force C   0.000713926610842  -0.001667282930600  -0.000028263048803 0
force C   0.000020085353137  -0.000331400842199   0.000004180572343 0
force C  -0.000202091278054   0.000038665780301   0.000094098133124 0
force C   0.000349204903339  -0.000483958851154   0.000091348475467 0
force C   0.000077773172652  -0.000245775111959   0.000043934692166 0
force C   0.000445482510716  -0.000036878654360   0.000137060558093 0
force C  -0.000108903142078  -0.000110610162571   0.000119995454109 0
force C   0.001460299636682  -0.001064113390504   0.000148517599358 0
force C   0.000611330436822   0.000275532306517   0.000089714611241 0
force C  -0.000709454733629   0.000064148147589   0.000165465066477 0
force C   0.001860401968774  -0.000615567089666   0.000141529970813 0
force C   0.000188541528293  -0.000529488992840   0.000174917414924 0
force C  -0.000523240161809   0.000325740052216   0.000109008207517 0
force C  -0.004642961741898  -0.002952763905071   0.000014456015334 0
force C   0.009929838498536   0.002156651060948   0.001213581210686 0
force C  -0.001726028779562  -0.000598360187906   0.000061434834673 0
force C   0.000223633526708   0.005283027833716   0.000167330282016 0
force C   0.003420419803390  -0.010468078433178   0.000956170107927 0
force C  -0.000343865855521   0.001561534854919   0.000042478126035 0
force C  -0.000359146813867  -0.000344907583938   0.000112961961034 0
force C   0.001562981002644  -0.000692733828278   0.000111797417041 0
[...]
        F =     -593.2695735943556201

IonicMinimize: Iter: 127  F: -593.269573594355620  |grad|_K:  2.949e-04  alpha:  1.756e-02  linmin:  8.369e-04  t[s]:  13162.38

#--- Lowdin population analysis ---
# oxidation-state C +0.044 +0.044 +0.043 +0.044 +0.046 +0.045 +0.043 +0.045 +0.026 +0.045 +0.048 +0.046 +0.043 +0.045 +0.030 +0.046 +0.046 +0.045 +0.043 +0.052 +0.138 +0.044 +0.052 +0.149 +0.044 +0.047 +0.045 +0.041 +0.140 +0.047 +0.044 +0.037 +0.044 +0.045 +0.044 +0.045 +0.044 +0.045 +0.040 +0.045 +0.038 +0.044 +0.049 +0.044 +0.044 +0.039 +0.004 +0.045 +0.041 +0.031 +0.044 +0.046 +0.043 +0.044 +0.036 +0.035 +0.042 +0.031 +0.032 +0.044 +0.043 +0.033 +0.041 +0.044 +0.046 +0.044 +0.042 +0.030 +0.046 +0.039 +0.042
# oxidation-state N +0.005
# oxidation-state S -0.060 +0.067 -0.284 -0.411 +0.304 -0.300 +0.176 -0.466
# oxidation-state Na +0.685 +0.735


Computing DFT-D3 correction:
# coordination-number C 3.301 3.301 3.303 3.301 3.302 3.301 3.301 3.300 3.350 3.301 3.302 3.304 3.301 3.300 3.372 3.301 3.301 3.312 3.301 3.298 3.324 3.301 3.301 3.306 3.300 3.302 3.301 3.301 3.305 3.301 3.300 3.309 3.299 3.300 3.308 3.299 3.301 3.301 3.301 3.301 3.312 3.300 3.304 3.301 3.300 3.300 3.412 3.301 3.302 3.300 3.300 3.301 3.301 3.301 3.289 3.296 3.300 3.288 3.291 3.301 3.301 3.314 3.300 3.301 3.306 3.301 3.300 3.323 3.301 3.300 3.299
# coordination-number N 3.220
# coordination-number S 2.896 2.635 2.012 2.857 2.455 1.974 2.482 2.892
# coordination-number Na 5.182 4.411
# diagonal-C6 C 24.28 24.28 24.25 24.28 24.27 24.27 24.27 24.28 23.74 24.27 24.27 24.24 24.28 24.28 23.48 24.27 24.27 24.16 24.28 24.30 24.04 24.27 24.27 24.22 24.28 24.26 24.28 24.27 24.24 24.27 24.28 24.20 24.29 24.28 24.21 24.29 24.28 24.27 24.28 24.28 24.16 24.28 24.25 24.27 24.28 24.28 22.94 24.28 24.27 24.28 24.28 24.27 24.27 24.27 24.39 24.32 24.28 24.39 24.36 24.27 24.28 24.14 24.28 24.27 24.22 24.28 24.28 24.05 24.27 24.28 24.29
# diagonal-C6 N 15.60
# diagonal-C6 S 125.81 125.81 125.89 125.81 125.81 125.92 125.81 125.81
# diagonal-C6 Na 186.11 186.11
EvdW_6 =   -0.072641
EvdW_8 =   -0.065080

-------- Electronic minimization -----------
Will mix electronic density at each iteration.
	FillingsUpdate:  mu: -0.158065823  nElectrons: 355.000000
	FillingsUpdate:  mu: -0.158071752  nElectrons: 355.000000
SCF: Cycle:  0   F: -593.269573549549250   dF: +8.304e-08   |Residual|: 7.556e-05   |deigs|: 6.333e-08  t[s]:  13168.19
	FillingsUpdate:  mu: -0.158072594  nElectrons: 355.000000
SCF: Cycle:  1   F: -593.269573636652922   dF: -8.710e-08   |Residual|: 2.809e-05   |deigs|: 2.765e-06  t[s]:  13170.55
	FillingsUpdate:  mu: -0.158071986  nElectrons: 355.000000
SCF: Cycle:  2   F: -593.269573638236352   dF: -1.583e-09   |Residual|: 1.348e-05   |deigs|: 1.393e-06  t[s]:  13172.90
	FillingsUpdate:  mu: -0.158071725  nElectrons: 355.000000
SCF: Cycle:  3   F: -593.269573642904447   dF: -4.668e-09   |Residual|: 8.535e-06   |deigs|: 2.172e-06  t[s]:  13175.19
SCF: Converged (|Delta E|<1.000000e-08 for 2 iters).

Setting wave functions to eigenvectors of Hamiltonian
IonicMinimize: 	Wrong curvature in test step, increasing alphaT to 5.268254e-02.

Computing DFT-D3 correction:
# coordination-number C 3.301 3.301 3.303 3.301 3.302 3.301 3.301 3.300 3.350 3.301 3.302 3.304 3.301 3.300 3.372 3.301 3.301 3.312 3.301 3.298 3.324 3.301 3.301 3.306 3.300 3.302 3.301 3.301 3.305 3.301 3.300 3.309 3.299 3.300 3.308 3.299 3.301 3.301 3.301 3.301 3.312 3.300 3.304 3.301 3.300 3.300 3.412 3.301 3.302 3.300 3.300 3.301 3.301 3.301 3.289 3.296 3.300 3.288 3.291 3.301 3.301 3.314 3.300 3.301 3.306 3.301 3.300 3.323 3.301 3.300 3.299
# coordination-number N 3.220
# coordination-number S 2.896 2.635 2.012 2.857 2.455 1.974 2.482 2.892
# coordination-number Na 5.182 4.411
# diagonal-C6 C 24.28 24.28 24.25 24.28 24.27 24.27 24.27 24.28 23.74 24.27 24.27 24.24 24.28 24.28 23.48 24.27 24.27 24.16 24.28 24.30 24.04 24.27 24.27 24.22 24.28 24.26 24.28 24.27 24.24 24.27 24.28 24.20 24.29 24.28 24.21 24.29 24.28 24.27 24.28 24.28 24.16 24.28 24.25 24.27 24.28 24.28 22.94 24.28 24.27 24.28 24.28 24.27 24.27 24.27 24.39 24.32 24.28 24.39 24.36 24.27 24.28 24.14 24.28 24.27 24.22 24.28 24.28 24.05 24.27 24.28 24.29
# diagonal-C6 N 15.60
# diagonal-C6 S 125.81 125.81 125.89 125.81 125.81 125.92 125.81 125.81
# diagonal-C6 Na 186.11 186.11
EvdW_6 =   -0.072641
EvdW_8 =   -0.065080

-------- Electronic minimization -----------
Will mix electronic density at each iteration.
	FillingsUpdate:  mu: -0.158071725  nElectrons: 355.000000
	FillingsUpdate:  mu: -0.158065812  nElectrons: 355.000000
SCF: Cycle:  0   F: -593.269573288251422   dF: +3.546e-07   |Residual|: 1.185e-04   |deigs|: 1.347e-08  t[s]:  13180.89
	FillingsUpdate:  mu: -0.158063013  nElectrons: 355.000000
SCF: Cycle:  1   F: -593.269573627119371   dF: -3.389e-07   |Residual|: 4.750e-05   |deigs|: 5.863e-06  t[s]:  13183.24
	FillingsUpdate:  mu: -0.158064134  nElectrons: 355.000000
SCF: Cycle:  2   F: -593.269573623214796   dF: +3.905e-09   |Residual|: 1.770e-05   |deigs|: 1.763e-06  t[s]:  13185.58
	FillingsUpdate:  mu: -0.158064578  nElectrons: 355.000000
SCF: Cycle:  3   F: -593.269573637360850   dF: -1.415e-08   |Residual|: 1.157e-05   |deigs|: 3.606e-06  t[s]:  13187.93
	FillingsUpdate:  mu: -0.158065172  nElectrons: 355.000000
SCF: Cycle:  4   F: -593.269573642847490   dF: -5.487e-09   |Residual|: 7.562e-06   |deigs|: 5.385e-06  t[s]:  13190.20
	FillingsUpdate:  mu: -0.158065481  nElectrons: 355.000000
SCF: Cycle:  5   F: -593.269573644329398   dF: -1.482e-09   |Residual|: 5.820e-06   |deigs|: 4.672e-06  t[s]:  13192.32
SCF: Converged (|Delta E|<1.000000e-08 for 2 iters).

Setting wave functions to eigenvectors of Hamiltonian

Computing DFT-D3 correction:
# coordination-number C 3.301 3.301 3.303 3.301 3.302 3.301 3.301 3.300 3.350 3.301 3.302 3.304 3.301 3.300 3.372 3.301 3.301 3.312 3.301 3.298 3.324 3.301 3.301 3.306 3.300 3.302 3.301 3.301 3.305 3.301 3.300 3.309 3.299 3.300 3.308 3.299 3.301 3.301 3.301 3.301 3.312 3.300 3.304 3.301 3.300 3.300 3.412 3.301 3.302 3.300 3.300 3.301 3.301 3.301 3.289 3.296 3.300 3.288 3.291 3.301 3.301 3.314 3.300 3.301 3.306 3.301 3.300 3.323 3.301 3.300 3.299
# coordination-number N 3.220
# coordination-number S 2.896 2.635 2.012 2.857 2.455 1.974 2.482 2.892
# coordination-number Na 5.182 4.411
# diagonal-C6 C 24.28 24.28 24.25 24.28 24.27 24.27 24.27 24.28 23.74 24.27 24.27 24.24 24.28 24.28 23.48 24.27 24.27 24.16 24.28 24.30 24.04 24.27 24.27 24.22 24.28 24.26 24.28 24.27 24.24 24.27 24.28 24.20 24.29 24.28 24.21 24.29 24.28 24.27 24.28 24.28 24.16 24.28 24.25 24.27 24.28 24.28 22.94 24.28 24.27 24.28 24.28 24.27 24.27 24.27 24.39 24.32 24.28 24.39 24.36 24.27 24.28 24.14 24.28 24.27 24.22 24.28 24.28 24.05 24.27 24.28 24.29
# diagonal-C6 N 15.60
# diagonal-C6 S 125.81 125.81 125.89 125.81 125.81 125.92 125.81 125.81
# diagonal-C6 Na 186.11 186.11
EvdW_6 =   -0.072641
EvdW_8 =   -0.065080

# Ionic positions in cartesian coordinates:
ion C  28.010542013705631   0.002014969601156   0.635465203747167 0
ion C  16.341968157882292  20.214705522223607   0.636370795694031 0
ion C   2.338532027351695   4.042411505399060   0.630361847754816 0
ion C  23.343313188735969   0.002278716019722   0.640022467239564 0
ion C   4.672620934470559   0.001554156700161   0.632050616002296 0
ion C  11.674116326115334  20.215100669694028   0.619847495055023 0
ion C  25.676530282256284   4.042904097616445   0.653564930084009 0
ion C  18.675851376129700  16.172910511284943   0.662695583431347 0
ion C   4.671777948336020   8.082036709586005   0.612564386226399 0
ion C  18.676336142016080   0.002101964498535   0.651180333522277 0
ion C   9.339850970925752   0.001738039847832   0.641511836963307 0
ion C   9.341212652353351  16.175613291750459   0.599279306155555 0
ion C  23.342941439729607   8.084920466015539   0.683240254571249 0
ion C  21.009110272076708  12.128959849493356   0.688453340004557 0
ion C   7.009085367604252  12.128528685817338   0.597262204671189 0
ion C  14.008105470077210   0.001988816408382   0.654008834012114 0
ion C  14.009120976896664  16.174984627607692   0.629938477890011 0
ion C   7.005550759074101   4.041176716120078   0.616350899393808 0
ion C  21.010101094155836   4.043302536041172   0.668670850704729 0
ion C  16.344445762465487  12.130683361169906   0.668518806438794 0
ion C   9.337643998902927   8.081728763982859   0.614931622729934 0
ion C  16.343783017314891   4.042062713362387   0.668836182024798 0
ion C  11.674085450205249   4.041278849785761   0.642196060576936 0
ion C  11.675597583834264  12.133622242506720   0.630068253549407 0
ion C  18.678074956154809   8.085220585829878   0.685769374381508 0
ion C   7.007175797728255  20.216155157604103   0.619709324068161 0
ion C  -6.996748017889800  20.214440105700564   0.653094683289385 0
ion C   0.002354623270169   8.082966457809835   0.657418822396948 0
ion C  14.012576459862725   8.083203697825988   0.669712893069494 0
ion C   2.339067441062872  20.216465077180068   0.646220757178249 0
ion C  -4.663670527593792  16.172490992184059   0.678596642017759 0
ion C   2.336125814129785  12.127745765919109   0.656417500003109 0
ion C  -2.332224039758668  12.128030282589300   0.685859862245795 0
ion C  -2.329659352792410  20.215194179952768   0.659830322184195 0
ion C   4.673933801454849  16.177740252210711   0.625359734501050 0
ion C   0.002990588629148  16.174656174657997   0.666554428718456 0
ion C  14.008266720144102  21.561374576259517   0.629777200837147 0
ion C   2.338930816614256   1.348570645432834   0.632009758527847 0
ion C  25.677100562977380   1.348988124751942   0.641986895200073 0
ion C  16.342686998612663  17.520648868856785   0.642302048336074 0
ion C   4.672307145938162   5.388219921962990   0.616057256550324 0
ion C  21.010123495302889   1.349044430338556   0.652394834146865 0
ion C   7.005937845436384   1.348033936218268   0.628031389286509 0
ion C  11.674692189550257  17.521226022139913   0.612057705166649 0
ion C  23.343784883173043   5.390651685198355   0.669612389866280 0
ion C  18.676972543384359  13.478483594758318   0.675595907033575 0
ion C   7.004963348139576   9.432115986525980   0.597538283264729 0
ion C  16.342472076605748   1.348066366442404   0.659130179870282 0
ion C  11.673522256343780   1.347802312891912   0.646547034509048 0
ion C   9.340696631175403  13.481256291567631   0.599303874261302 0
ion C  21.010487586627971   9.434228317035956   0.689549670827176 0
ion C   9.340862584041272  21.562275316056120   0.623251203387415 0
ion C  -9.330262385564788  21.561165527783945   0.640491424243255 0
ion C   0.004476893676090   5.389148113018151   0.645932445799481 0
ion C  14.011432130181314  13.480719160062115   0.643556882023976 0
ion C   9.339051356617166   5.386992451363917   0.621078239496768 0
ion C  18.677007069088155   5.390558998944344   0.676741055188348 0
ion C  16.345725884609092   9.434637493571932   0.679131999516677 0
ion C  14.009428395823310   5.387478001177438   0.662736904438848 0
ion C   4.673293824799767  21.561882602550448   0.637519226383223 0
ion C  -6.996841473985327  17.520066852095106   0.666346621047357 0
ion C   2.337134667876788   9.428913976861832   0.643387178107247 0
ion C  -2.330217064543965   9.432650452790400   0.678563548363968 0
ion C  -4.663349535264295  21.561481505082671   0.652392573786173 0
ion C   7.008365318233412  17.523060541264897   0.607450639135720 0
ion C   0.004487123343837  21.561671103490092   0.654109318198199 0
ion C  -4.664147187494722  13.477588422800194   0.688047082736968 0
ion C   4.674619807111762  13.479414560663223   0.625188064189185 0
ion C   2.338448909138405  17.522455183042435   0.645633689115609 0
ion C  -2.330712054942804  17.520790606615741   0.670058696770369 0
ion C   0.000363098194401  13.478789474313889   0.675559226948007 0
ion N  11.674484029805171   9.432912355349794   0.644194404697448 0
ion S  12.157601098675316   5.456696727210174  10.370526980013269 1
ion S   7.861729408270000   4.849229322359080  10.426177585640060 1
ion S   6.686271328891801   4.821365108936281   6.887111479648573 1
ion S   5.272583105483167  11.649092134442531  11.865676212685830 1
ion S   5.869393319187088  15.244281465514238  10.680693000046958 1
ion S   5.886590928184376  15.561163644578370   6.935822004794709 1
ion S  12.836013291422207   7.228560988211750   7.060946632098404 1
ion S  11.755967593442357  10.953986981437854   7.171156004814669 1
ion Na   6.368287720470838  10.164942268744518   6.690863468389883 1
ion Na  10.274346228114517  10.320671571776725  12.078409680911069 1

# Forces in Cartesian coordinates:
force C  -0.000446881788306   0.000439973943977  -0.000102309682374 0
force C  -0.000794432781423   0.000177313641577   0.000048542112274 0
force C  -0.000439815544117  -0.000327569310493   0.000093417988309 0
force C   0.000837082330815   0.000338227882722  -0.000061609209531 0
force C  -0.000497443354852   0.000666339489371  -0.000055121463093 0
force C   0.000178603306769   0.000275791462664   0.000059126198278 0
force C   0.000263019213235  -0.000835758677270   0.000042106595105 0
force C  -0.000151764834021   0.001788546448704   0.000034318863987 0
force C   0.000453592749113  -0.004452146625501   0.000446926696654 0
force C   0.000609601027955   0.000436095893512  -0.000047939662589 0
force C  -0.001976207608861  -0.000743985814495   0.000022015335783 0
force C   0.004555522214085   0.000300652908235   0.000428977508325 0
force C  -0.000191590558219  -0.000592459546420  -0.000103732771348 0
force C   0.001613357129486  -0.000882149428816   0.000021489137331 0
force C  -0.006343185318953   0.005115810646362   0.000209966791891 0
force C   0.001497542310031  -0.000792081295463   0.000174479001495 0
force C  -0.004772828180468   0.000425480443747   0.000110299363737 0
force C  -0.002939287768704   0.003184109872953  -0.000726323247358 0
force C   0.000308913441881  -0.000127221734224  -0.000015246153827 0
force C   0.004532153655338   0.002892211269063   0.000254843633808 0
force C   0.008325827315989   0.003123215545912   0.000789065040109 0
force C   0.002721817633014   0.003671255762759   0.000047354906906 0
force C  -0.000017339775219  -0.005673568736970   0.000088887109864 0
force C   0.000225005110437  -0.007357917355369  -0.000160756390467 0
force C  -0.001643193645061  -0.004233751875135   0.000063155486710 0
force C   0.000815234513900   0.000127024609403   0.000132499660135 0
force C  -0.001751708817718   0.000937547678432   0.000025072837202 0
force C   0.000442474220001  -0.000517277338550   0.000263867685325 0
force C  -0.007046232012381   0.004381143093898  -0.000467660749230 0
force C   0.001596278449159   0.000360167057897  -0.000008347550204 0
force C   0.000217973056656   0.000009802121252  -0.000063061294259 0
force C  -0.000775881900430   0.000115139646899  -0.000796704812870 0
force C   0.000753015308178  -0.001495529590393  -0.000027698388740 0
force C   0.000108490506285  -0.000331043539683   0.000022207947243 0
force C  -0.000227855992086   0.000312503397308  -0.000387518485375 0
force C   0.000453683726428  -0.000321402254355   0.000115890125732 0
force C   0.000037141947048  -0.000262640683203   0.000051812489611 0
force C   0.000398611170178  -0.000103222505363   0.000139817013078 0
force C  -0.000013754907284  -0.000082536857048   0.000129411591408 0
force C   0.001276992953977  -0.001090939984496   0.000172610127538 0
force C   0.000453515570166  -0.000348788428599  -0.000125890219933 0
force C  -0.000606265871538   0.000080169180838   0.000167823081037 0
force C   0.001708278926346  -0.000901276569695   0.000070720500437 0
force C   0.000197471753678  -0.000653981777767   0.000298195691223 0
force C  -0.000518535377380   0.000408674042633   0.000109345247635 0
force C  -0.004473965981974  -0.002839151322961   0.000043825635190 0
force C   0.010762897199351   0.002637101790614   0.000805621432042 0
force C  -0.001694871670419  -0.000518934988043   0.000104254699057 0
force C   0.000189823050995   0.005233240309875   0.000213476729945 0
force C   0.004248701406248  -0.010429590458079   0.000239806118699 0
force C  -0.000438460436198   0.001562426204352   0.000052012917439 0
force C  -0.000357405409391  -0.000364388707329   0.000139596015513 0
force C   0.001509725554730  -0.000542926040458   0.000129052266857 0
force C   0.000079619314069   0.000312982006146   0.000158350022648 0
force C  -0.003596703051600  -0.010725121087351  -0.000165166377773 0
force C   0.007779701485160   0.007824580398591  -0.000201146018981 0
force C  -0.000494928122679   0.000367454769250   0.000289044243652 0
force C  -0.010412403564750   0.002577245791268   0.000180997341138 0
force C  -0.007265291708689   0.007368628549062  -0.000589161535289 0
force C  -0.001376698569654  -0.000720875112165   0.000192524947669 0
force C  -0.000385136515587  -0.001180505861641   0.000098225344043 0
force C  -0.000369564682976   0.003788860949024   0.000071386409292 0
force C   0.000128669523594   0.001836249207878   0.000122298317497 0
force C   0.000841467260602   0.001209094284169   0.000119396381765 0
force C  -0.001898128524063  -0.001158795451863   0.000045767296003 0
force C  -0.000739111241670   0.001071579025409   0.000127104249920 0
force C  -0.001247652570471  -0.000025728832075   0.000032597419171 0
force C   0.002515313416229  -0.002917111595165  -0.000644134208227 0
force C   0.000240719202709  -0.001622241592471   0.000160150733765 0
force C   0.000413605445460  -0.000090469062163   0.000140311336185 0
force C   0.002679801926270  -0.000576914611124   0.000038257422655 0
force N   0.000264158720713   0.000371241604266  -0.002586032671483 0
force S  -0.000079943708451  -0.000292533617278   0.000627403051977 1
force S  -0.000186670089693   0.000016689327015  -0.000509363084427 1
force S   0.000028032535835   0.000240080684364   0.000843372961763 1
force S  -0.000042298399766  -0.000371582155561   0.000090326482931 1
force S  -0.000075929951137   0.000224648379114   0.000147897535296 1
force S   0.000034234222510   0.000039927584857  -0.000273498254218 1
force S  -0.000225833058163   0.000479345940043  -0.000626034712823 1
force S   0.000065323813661  -0.000108818976752  -0.000031428724836 1
force Na   0.000061677436083  -0.000178877608850  -0.000085617770498 1
force Na   0.000100377014027   0.000045568893668   0.000204887767730 1

# Energy components:
   Eewald =    -2219.7361023605781156
       EH =    -1763.9786053871544027
     Eloc =     3338.4066938572509571
      Enl =      -70.8395223581286757
     EvdW =       -0.1377210895321079
      Exc =     -179.4222897314426461
 Exc_core =       16.6214473980954693
       KE =      285.9045760527080802
-------------------------------------
     Etot =     -593.1815236187813980
       TS =        0.0880500255480269
-------------------------------------
        F =     -593.2695736443293981

IonicMinimize: Iter: 128  F: -593.269573644329398  |grad|_K:  2.967e-04  alpha: -1.928e-02  linmin: -2.603e-03  t[s]:  13195.52
IonicMinimize: Converged (|Delta F|<1.000000e-06 for 2 iters).

#--- Lowdin population analysis ---
# oxidation-state C +0.044 +0.044 +0.043 +0.044 +0.046 +0.045 +0.043 +0.045 +0.026 +0.045 +0.048 +0.046 +0.043 +0.045 +0.030 +0.046 +0.046 +0.045 +0.043 +0.052 +0.138 +0.044 +0.052 +0.149 +0.044 +0.047 +0.045 +0.041 +0.140 +0.047 +0.044 +0.037 +0.044 +0.045 +0.044 +0.045 +0.044 +0.045 +0.040 +0.045 +0.038 +0.044 +0.049 +0.044 +0.044 +0.039 +0.004 +0.045 +0.041 +0.031 +0.044 +0.046 +0.043 +0.044 +0.036 +0.035 +0.042 +0.031 +0.032 +0.044 +0.043 +0.033 +0.041 +0.044 +0.046 +0.044 +0.042 +0.030 +0.046 +0.039 +0.042
# oxidation-state N +0.005
# oxidation-state S -0.060 +0.067 -0.284 -0.411 +0.304 -0.300 +0.176 -0.466
# oxidation-state Na +0.685 +0.735


Dumping 'Na2S8@N_graphene.fillings' ... done
Dumping 'Na2S8@N_graphene.wfns' ... done
Dumping 'Na2S8@N_graphene.ionpos' ... done
Dumping 'Na2S8@N_graphene.eigenvals' ... done
End date and time: Fri Sep 27 11:41:39 2024  (Duration: 0-3:40:07.02)
Done!
