
*************** JDFTx 1.7.0  ***************

Start date and time: Sat Sep  7 12:29:45 2024
Executable jdftx_gpu with command-line: -i /home/akim2/JDFTx/Na2S4@N_graphene-glyme-vdw/Na2S4@N_graphene-glyme-vdw.in -o /home/akim2/JDFTx/Na2S4@N_graphene-glyme-vdw/Na2S4@N_graphene-glyme-vdw.out
Running on hosts (process indices):  exp-2-57 (0)
Divided in process groups (process indices):  0 (0)
gpuInit: Found compatible cuda device 0 'Tesla V100-SXM2-32GB'
gpuInit: Selected device 0
Resource initialization completed at t[s]:      0.52
Run totals: 1 processes, 40 threads, 1 GPUs


Input parsed successfully to the following command list (including defaults):

basis kpoint-dependent
coords-type Cartesian
core-overlap-check vector
coulomb-interaction Slab 001
coulomb-truncation-embed 0 0 6
davidson-band-ratio 1.1
dump End State
dump-name Na2S4@N_graphene-glyme-vdw.$VAR
elec-cutoff 20 100
elec-eigen-algo Davidson
elec-ex-corr gga-PBE
elec-smearing Fermi 0.01
electronic-minimize  \
	dirUpdateScheme      FletcherReeves \
	linminMethod         DirUpdateRecommended \
	nIterations          100 \
	history              15 \
	knormThreshold       0 \
	energyDiffThreshold  1e-08 \
	nEnergyDiff          2 \
	alphaTstart          1 \
	alphaTmin            1e-10 \
	updateTestStepSize   yes \
	alphaTreduceFactor   0.1 \
	alphaTincreaseFactor 3 \
	nAlphaAdjustMax      3 \
	wolfeEnergy          0.0001 \
	wolfeGradient        0.9 \
	fdTest               no
electronic-scf  \
	nIterations	50 \
	energyDiffThreshold	1e-08 \
	residualThreshold	1e-07 \
	mixFraction	0.5 \
	qMetric	0.8 \
	history	10 \
	nEigSteps	2 \
	eigDiffThreshold	1e-08 \
	mixedVariable	Density \
	qKerker	0.8 \
	qKappa	-1 \
	verbose	no \
	mixFractionMag	1.5
exchange-regularization WignerSeitzTruncated
fluid LinearPCM 298.000000 1.013250
fluid-ex-corr lda-TF lda-PZ
fluid-gummel-loop 10 1.000000e-05
fluid-minimize  \
	dirUpdateScheme      PolakRibiere \
	linminMethod         DirUpdateRecommended \
	nIterations          400 \
	history              15 \
	knormThreshold       1e-11 \
	energyDiffThreshold  0 \
	nEnergyDiff          2 \
	alphaTstart          1 \
	alphaTmin            1e-10 \
	updateTestStepSize   yes \
	alphaTreduceFactor   0.1 \
	alphaTincreaseFactor 3 \
	nAlphaAdjustMax      6 \
	wolfeEnergy          0.0001 \
	wolfeGradient        0.9 \
	fdTest               no
fluid-solvent Glyme 9.62137 ScalarEOS \
	epsBulk 7.2 \
	pMol 0 \
	epsInf 1.9 \
	Pvap 0 \
	sigmaBulk 0 \
	Rvdw 0 \
	Res 0 \
	tauNuc 343133
forces-output-coords Positions
ion C -14.002918197300012  24.253758582300001   2.000000000000000 0
ion C  -2.333816550000000   4.042302545699999   2.000000000000000 0
ion C  11.669101647300000  20.211493831199999   2.000000000000000 0
ion C  -9.335266200000008  24.253758582300001   2.000000000000000 0
ion C   9.335303994599993  24.253758582300001   2.000000000000000 0
ion C   2.333816549999999   4.042302545699999   2.000000000000000 0
ion C -11.669120544600000  20.211493831199999   2.000000000000000 0
ion C  -4.667651997299999   8.084605091399998   2.000000000000000 0
ion C   9.335285097299998  16.169191285499998   2.000000000000000 0
ion C  -4.667614202700010  24.253758582300001   2.000000000000000 0
ion C   4.667651997299995  24.253758582300001   2.000000000000000 0
ion C   4.667651997299999   8.084605091399998   2.000000000000000 0
ion C  -9.335303994599998  16.169191285499998   2.000000000000000 0
ion C  -7.001468547300001  12.126907637100000   2.000000000000000 0
ion C   0.000037794599988  24.253758582300001   2.000000000000000 0
ion C   0.000000000000000   8.084605091399998   2.000000000000000 0
ion C   7.001449650000005  20.211493831199999   2.000000000000000 0
ion C  -7.001468547300000  20.211493831199999   2.000000000000000 0
ion C  -2.333816549999999  12.126907637100000   2.000000000000000 0
ion C   4.667633100000000  16.169191285499998   2.000000000000000 0
ion C  -2.333816549999993  20.211493831199999   2.000000000000000 0
ion C   2.333835447300000  20.211493831199999   2.000000000000000 0
ion C   2.333835447299999  12.126907637100000   2.000000000000000 0
ion C  -4.667651997299999  16.169191285499998   2.000000000000000 0
ion C   7.001449650000000   4.042302545699999   2.000000000000000 0
ion C  21.004386744600001   4.042302545699999   2.000000000000000 0
ion C  14.002937094600000  16.169191285499998   2.000000000000000 0
ion C   0.000000000000000  16.169191285499998   2.000000000000000 0
ion C  11.669101647300000   4.042302545699999   2.000000000000000 0
ion C  18.670589091899998   8.084605091399998   2.000000000000000 0
ion C  11.669101647300000  12.126907637100000   2.000000000000000 0
ion C  16.336753644600002  12.126907637100000   2.000000000000000 0
ion C  16.336753644600002   4.042302545699999   2.000000000000000 0
ion C   9.335285097300002   8.084605091399998   2.000000000000000 0
ion C  14.002937094600000   8.084605091399998   2.000000000000000 0
ion C   0.000018897300000   2.694868363800000   2.000000000000000 0
ion C  11.669120544600000  22.906362195000000   2.000000000000000 0
ion C -11.669120544600002  22.906362195000000   2.000000000000000 0
ion C  -2.333816549999999   6.737152012199999   2.000000000000000 0
ion C   9.335285097299998  18.864059649300000   2.000000000000000 0
ion C  -7.001468547300003  22.906362195000000   2.000000000000000 0
ion C   7.001468547300002  22.906362195000000   2.000000000000000 0
ion C   2.333816550000000   6.737152012199999   2.000000000000000 0
ion C  -9.335285097299998  18.864059649300000   2.000000000000000 0
ion C  -4.667633100000000  10.779454557899999   2.000000000000000 0
ion C   7.001468547300002  14.821757103600000   2.000000000000000 0
ion C  -2.333835447300000  22.906362195000000   2.000000000000000 0
ion C   2.333816550000000  22.906362195000000   2.000000000000000 0
ion C   4.667633100000000  10.779454557899999   2.000000000000000 0
ion C  -7.001468547300001  14.821757103600000   2.000000000000000 0
ion C   4.667633100000003   2.694868363800000   2.000000000000000 0
ion C  23.338222191900002   2.694868363800000   2.000000000000000 0
ion C  14.002918197300001  18.864059649300000   2.000000000000000 0
ion C   0.000018897300000  10.779454557899999   2.000000000000000 0
ion C   4.667633100000000  18.864059649300000   2.000000000000000 0
ion C  -4.667633099999995  18.864059649300000   2.000000000000000 0
ion C  -2.333816550000000  14.821757103600000   2.000000000000000 0
ion C   2.333816550000000  14.821757103600000   2.000000000000000 0
ion C  -0.000018897299999  18.864059649300000   2.000000000000000 0
ion C   9.335285097300000   2.694868363800000   2.000000000000000 0
ion C  21.004386744599998   6.737152012199999   2.000000000000000 0
ion C  11.669120544600002  14.821757103600000   2.000000000000000 0
ion C  16.336734747299992  14.821757103600000   2.000000000000000 0
ion C  18.670570194600000   2.694868363800000   2.000000000000000 0
ion C   7.001468547300000   6.737152012199999   2.000000000000000 0
ion C  14.002937094600002   2.694868363800000   2.000000000000000 0
ion C  18.670570194600000  10.779454557899999   2.000000000000000 0
ion C   9.335285097300000  10.779454557899999   2.000000000000000 0
ion C  11.669120544600000   6.737152012199999   2.000000000000000 0
ion C  16.336734747299989   6.737152012199999   2.000000000000000 0
ion C  14.002937094600000  10.779454557899999   2.000000000000000 0
ion N   7.001449650000002  12.126907637100000   2.000000000000000 0
ion S   6.174936078686164  14.158273753493756   8.435162547173919 1
ion S   4.299376190579984  14.128976221550239  11.844917646593295 1
ion S   1.962487620754862  17.370522428336109  12.085625345598377 1
ion S  -0.280463044931450  17.577631338407290   8.914025920905317 1
ion Na   4.498273710148059  19.025105375745152   7.415170109618058 1
ion Na   1.183859805568671  12.781829323736760   7.519584204589894 1
ion-species GBRV/$ID_pbe.uspp
ion-width Ecut
ionic-minimize  \
	dirUpdateScheme      FletcherReeves \
	linminMethod         DirUpdateRecommended \
	nIterations          200 \
	history              15 \
	knormThreshold       0.0001 \
	energyDiffThreshold  1e-06 \
	nEnergyDiff          2 \
	alphaTstart          1 \
	alphaTmin            1e-10 \
	updateTestStepSize   yes \
	alphaTreduceFactor   0.1 \
	alphaTincreaseFactor 3 \
	nAlphaAdjustMax      3 \
	wolfeEnergy          0.0001 \
	wolfeGradient        0.9 \
	fdTest               no
kpoint   0.000000000000   0.000000000000   0.000000000000  1.00000000000000
kpoint-folding 1 1 1 
latt-move-scale 1 1 1
latt-scale 1 1 1 
lattice Triclinic 28.0058 28.0058 37.7946 90 90 120
lattice-minimize  \
	dirUpdateScheme      L-BFGS \
	linminMethod         DirUpdateRecommended \
	nIterations          0 \
	history              15 \
	knormThreshold       0 \
	energyDiffThreshold  1e-06 \
	nEnergyDiff          2 \
	alphaTstart          1 \
	alphaTmin            1e-10 \
	updateTestStepSize   yes \
	alphaTreduceFactor   0.1 \
	alphaTincreaseFactor 3 \
	nAlphaAdjustMax      3 \
	wolfeEnergy          0.0001 \
	wolfeGradient        0.9 \
	fdTest               no
lcao-params -1 1e-06 0.01
pcm-variant GLSSA13
spintype no-spin
subspace-rotation-factor 1 yes
symmetries automatic
symmetry-threshold 0.0001
van-der-waals D3



---------- Setting up symmetries ----------

Found 24 point-group symmetries of the bravais lattice
Found 1 space-group symmetries with basis
Applied RMS atom displacement 0 bohrs to make symmetries exact.

---------- Initializing the Grid ----------
R = 
[      28.0058     -14.0029            0  ]
[            0      24.2537            0  ]
[            0            0      37.7946  ]
unit cell volume = 25671.8
G =
[   0.224353    0.12953         -0  ]
[          0   0.259061          0  ]
[          0         -0   0.166246  ]
Minimum fftbox size, Smin = [  128  128  172  ]
Chosen fftbox size, S = [  128  128  180  ]

---------- Initializing tighter grid for wavefunction operations ----------
R = 
[      28.0058     -14.0029            0  ]
[            0      24.2537            0  ]
[            0            0      37.7946  ]
unit cell volume = 25671.8
G =
[   0.224353    0.12953         -0  ]
[          0   0.259061          0  ]
[          0         -0   0.166246  ]
Minimum fftbox size, Smin = [  116  116  156  ]
Chosen fftbox size, S = [  120  120  160  ]

---------- Exchange Correlation functional ----------
Initalized PBE GGA exchange.
Initalized PBE GGA correlation.

---------- Setting up pseudopotentials ----------
Width of ionic core gaussian charges (only for fluid interactions / plotting) set to 0.397384

Reading pseudopotential file '/home/akim2/jdftx_install/build/pseudopotentials/GBRV/c_pbe.uspp':
  Title: C.  Created by USPP 7.3.6 on 3-2-2014
  Reference state energy: -5.406344.  4 valence electrons in orbitals:
    |200>  occupation: 2  eigenvalue: -0.504890
    |210>  occupation: 2  eigenvalue: -0.194356
  lMax: 1  lLocal: 2  QijEcut: 5
  4 projectors sampled on a log grid with 503 points:
    l: 0  eig: -0.504890  rCut: 1.3
    l: 0  eig: 0.000000  rCut: 1.3
    l: 1  eig: -0.194357  rCut: 1.3
    l: 1  eig: 0.000000  rCut: 1.3
  Partial core density with radius 1.1
  Transforming core density to a uniform radial grid of dG=0.02 with 1625 points.
  Transforming local potential to a uniform radial grid of dG=0.02 with 1625 points.
  Transforming nonlocal projectors to a uniform radial grid of dG=0.02 with 432 points.
  Transforming density augmentations to a uniform radial grid of dG=0.02 with 1625 points.
  Transforming atomic orbitals to a uniform radial grid of dG=0.02 with 432 points.
  Core radius for overlap checks: 1.30 bohrs.

Reading pseudopotential file '/home/akim2/jdftx_install/build/pseudopotentials/GBRV/n_pbe.uspp':
  Title: N.  Created by USPP 7.3.6 on 3-2-2014
  Reference state energy: -9.763716.  5 valence electrons in orbitals:
    |200>  occupation: 2  eigenvalue: -0.681964
    |210>  occupation: 3  eigenvalue: -0.260726
  lMax: 1  lLocal: 2  QijEcut: 6
  4 projectors sampled on a log grid with 491 points:
    l: 0  eig: -0.681964  rCut: 1.15
    l: 0  eig: 0.000000  rCut: 1.15
    l: 1  eig: -0.260729  rCut: 1.2
    l: 1  eig: 0.500000  rCut: 1.2
  Partial core density with radius 0.8
  Transforming core density to a uniform radial grid of dG=0.02 with 1625 points.
  Transforming local potential to a uniform radial grid of dG=0.02 with 1625 points.
  Transforming nonlocal projectors to a uniform radial grid of dG=0.02 with 432 points.
  Transforming density augmentations to a uniform radial grid of dG=0.02 with 1625 points.
  Transforming atomic orbitals to a uniform radial grid of dG=0.02 with 432 points.
  Core radius for overlap checks: 1.20 bohrs.

Reading pseudopotential file '/home/akim2/jdftx_install/build/pseudopotentials/GBRV/s_pbe.uspp':
  Title: S.  Created by USPP 7.3.6 on 1-4-15
  Reference state energy: -11.898476.  6 valence electrons in orbitals:
    |300>  occupation: 2  eigenvalue: -0.634167
    |310>  occupation: 4  eigenvalue: -0.257568
  lMax: 2  lLocal: 3  QijEcut: 6
  6 projectors sampled on a log grid with 635 points:
    l: 0  eig: -0.634161  rCut: 1.5
    l: 0  eig: 1.500000  rCut: 1.5
    l: 1  eig: -0.257567  rCut: 1.5
    l: 1  eig: 1.500000  rCut: 1.5
    l: 2  eig: -1.000000  rCut: 1.5
    l: 2  eig: 1.500000  rCut: 1.5
  Partial core density with radius 1.15
  Transforming core density to a uniform radial grid of dG=0.02 with 1625 points.
  Transforming local potential to a uniform radial grid of dG=0.02 with 1625 points.
  Transforming nonlocal projectors to a uniform radial grid of dG=0.02 with 432 points.
  Transforming density augmentations to a uniform radial grid of dG=0.02 with 1625 points.
  Transforming atomic orbitals to a uniform radial grid of dG=0.02 with 432 points.
  Core radius for overlap checks: 1.50 bohrs.

Reading pseudopotential file '/home/akim2/jdftx_install/build/pseudopotentials/GBRV/na_pbe.uspp':
  Title: Na.  Created by USPP 7.3.6 on 23-9-15
  Reference state energy: -47.625620.  9 valence electrons in orbitals:
    |200>  occupation: 2  eigenvalue: -2.085638
    |210>  occupation: 6  eigenvalue: -1.053708
    |300>  occupation: 1  eigenvalue: -0.100838
  lMax: 2  lLocal: 0  QijEcut: 6
  5 projectors sampled on a log grid with 657 points:
    l: 0  eig: -2.085640  rCut: 1.37
    l: 0  eig: -0.100839  rCut: 1.37
    l: 1  eig: -1.053708  rCut: 1.47
    l: 1  eig: 0.500000  rCut: 1.47
    l: 2  eig: 0.750000  rCut: 2
  Transforming local potential to a uniform radial grid of dG=0.02 with 1625 points.
  Transforming nonlocal projectors to a uniform radial grid of dG=0.02 with 432 points.
  Transforming density augmentations to a uniform radial grid of dG=0.02 with 1625 points.
  Transforming atomic orbitals to a uniform radial grid of dG=0.02 with 432 points.
  Core radius for overlap checks: 2.00 bohrs.

Initialized 4 species with 78 total atoms.

Folded 1 k-points by 1x1x1 to 1 k-points.

---------- Setting up k-points, bands, fillings ----------
No reducable k-points. 
Computing the number of bands and number of electrons
Calculating initial fillings.
nElectrons: 331.000000   nBands: 314   nStates: 1

----- Setting up reduced wavefunction bases (one per k-point) -----
average nbasis = 109673.000 , ideal nbasis = 109671.883

---------- Setting up coulomb interaction ----------
Fluid mode embedding: using embedded box, but periodic Coulomb kernel.
(Fluid response is responsible for (approximate) separation between periodic images.)
Setting up double-sized grid for truncated Coulomb potentials:
R = 
[      28.0058     -14.0029            0  ]
[            0      24.2537            0  ]
[            0            0      75.5892  ]
unit cell volume = 51343.6
G =
[   0.224353    0.12953         -0  ]
[          0   0.259061          0  ]
[          0         -0  0.0831228  ]
Chosen fftbox size, S = [  128  128  360  ]
Integer grid location selected as the embedding center:
   Grid: [  0  0  29  ]
   Lattice: [  0  0  0.158753  ]
   Cartesian: [  0  0  6  ]
Constructing Wigner-Seitz cell: 8 faces (6 quadrilaterals, 2 hexagons)
Range-separation parameter for embedded mesh potentials due to point charges: 0.590105 bohrs.

Initializing DFT-D3 calculator:
	Parameters set for gga-PBE functional
	s6:  1.000  s_r6:  1.217
	s8:  0.722  s_r8:  1.000
	Per-atom parameters loaded for:
	 C:  sqrtQ[a0]:  3.105  Rcov[a0]:  1.417  CN: [ 0.00 0.99 2.00 3.00 3.98 ]
	 N:  sqrtQ[a0]:  2.712  Rcov[a0]:  1.342  CN: [ 0.00 0.99 2.01 2.99 ]
	 S:  sqrtQ[a0]:  4.041  Rcov[a0]:  1.928  CN: [ 0.00 0.99 1.99 ]
	Na:  sqrtQ[a0]:  6.586  Rcov[a0]:  2.646  CN: [ 0.00 0.97 ]

---------- Setting up ewald sum ----------
Optimum gaussian width for ewald sums = 7.173367 bohr.
Real space sum over 405 unit cells with max indices [  4  4  2  ]
Reciprocal space sum over 7875 terms with max indices [  7  7  17  ]

Computing DFT-D3 correction:
# coordination-number C 3.300 3.300 3.301 3.300 3.301 3.300 3.300 3.301 3.296 3.300 3.311 3.293 3.300 3.300 3.302 3.315 3.448 3.300 3.356 3.441 3.304 3.494 3.615 3.303 3.300 3.300 3.300 3.368 3.300 3.300 3.288 3.300 3.300 3.287 3.300 3.300 3.300 3.300 3.302 3.317 3.300 3.321 3.304 3.300 3.304 3.325 3.301 3.326 3.336 3.300 3.300 3.300 3.300 3.478 3.800 3.301 3.335 3.495 3.331 3.300 3.300 3.299 3.300 3.301 3.298 3.300 3.300 3.300 3.300 3.300 3.300
# coordination-number N 3.220
# coordination-number S 2.926 3.102 3.109 2.935
# coordination-number Na 4.558 4.407
# diagonal-C6 C 24.28 24.28 24.27 24.29 24.27 24.28 24.29 24.27 24.32 24.28 24.18 24.35 24.28 24.28 24.26 24.14 22.41 24.28 23.67 22.51 24.25 21.73 20.10 24.26 24.28 24.28 24.28 23.53 24.29 24.29 24.40 24.29 24.28 24.40 24.29 24.28 24.28 24.29 24.27 24.11 24.28 24.07 24.25 24.29 24.25 24.03 24.27 24.02 23.91 24.28 24.28 24.28 24.28 21.97 18.75 24.27 23.92 21.72 23.97 24.29 24.28 24.29 24.29 24.28 24.30 24.28 24.28 24.28 24.29 24.29 24.29
# diagonal-C6 N 15.60
# diagonal-C6 S 125.81 125.81 125.81 125.81
# diagonal-C6 Na 186.11 186.11
EvdW_6 =   -0.063707
EvdW_8 =   -0.056461

---------- Allocating electronic variables ----------
Initializing wave functions:  linear combination of atomic orbitals
C pseudo-atom occupations:   s ( 2 )  p ( 2 )
N pseudo-atom occupations:   s ( 2 )  p ( 3 )
S pseudo-atom occupations:   s ( 2 )  p ( 4 )
Na pseudo-atom occupations:   s ( 2 1 )  p ( 6 )
	FillingsUpdate:  mu: -0.166246780  nElectrons: 331.000000
LCAOMinimize: Iter:   0  F: -546.8508521817675501  |grad|_K:  9.862e-03  alpha:  1.000e+00
	FillingsUpdate:  mu: -0.213835030  nElectrons: 331.000000
LCAOMinimize: Iter:   1  F: -547.4573948826656533  |grad|_K:  2.226e-03  alpha:  1.904e-01  linmin:  8.987e-02  cgtest: -1.872e+00  t[s]:     11.83
	FillingsUpdate:  mu: -0.214028258  nElectrons: 331.000000
LCAOMinimize: Iter:   2  F: -547.4589131499205905  |grad|_K:  2.434e-03  alpha:  4.983e-02  linmin: -2.089e-04  cgtest:  9.148e-01  t[s]:     13.70
LCAOMinimize: 	Wrong curvature in test step, increasing alphaT to 1.494796e-01.
	FillingsUpdate:  mu: -0.210610531  nElectrons: 331.000000
LCAOMinimize: Iter:   3  F: -547.4998878227943351  |grad|_K:  3.078e-03  alpha: -6.247e-02  linmin: -2.442e-01  cgtest:  6.508e-01  t[s]:     15.45
	FillingsUpdate:  mu: -0.206891459  nElectrons: 331.000000
LCAOMinimize: Iter:   4  F: -547.5429984251543374  |grad|_K:  3.206e-03  alpha:  1.951e-02  linmin: -2.677e-01  cgtest:  7.570e-01  t[s]:     17.37
LCAOMinimize: 	Wrong curvature in test step, increasing alphaT to 5.852399e-02.
	FillingsUpdate:  mu: -0.204455770  nElectrons: 331.000000
LCAOMinimize: Iter:   5  F: -547.5780958444453290  |grad|_K:  2.742e-03  alpha: -5.317e-01  linmin: -2.722e-01  cgtest:  8.598e-01  t[s]:     19.20
LCAOMinimize: Encountered beta<0, resetting CG.
	FillingsUpdate:  mu: -0.229665210  nElectrons: 331.000000
LCAOMinimize: Iter:   6  F: -547.6201922418173353  |grad|_K:  6.423e-04  alpha:  8.092e-02  linmin: -2.327e-01  cgtest:  7.190e-01  t[s]:     21.15
LCAOMinimize: Encountered beta<0, resetting CG.
	FillingsUpdate:  mu: -0.233340587  nElectrons: 331.000000
LCAOMinimize: Iter:   7  F: -547.6228137807763687  |grad|_K:  3.976e-04  alpha:  1.312e-01  linmin:  1.682e-02  cgtest: -7.892e-02  t[s]:     23.08
	FillingsUpdate:  mu: -0.230821820  nElectrons: 331.000000
LCAOMinimize: Iter:   8  F: -547.6250246742324634  |grad|_K:  2.729e-04  alpha:  2.976e-01  linmin: -2.451e-03  cgtest:  3.242e-01  t[s]:     25.01
	FillingsUpdate:  mu: -0.230278763  nElectrons: 331.000000
LCAOMinimize: Iter:   9  F: -547.6257046364262351  |grad|_K:  1.787e-04  alpha:  1.841e-01  linmin:  2.515e-04  cgtest: -5.042e-02  t[s]:     26.95
	FillingsUpdate:  mu: -0.231571106  nElectrons: 331.000000
LCAOMinimize: Iter:  10  F: -547.6259595211870419  |grad|_K:  7.819e-05  alpha:  1.608e-01  linmin:  1.376e-03  cgtest:  3.987e-02  t[s]:     28.88
	FillingsUpdate:  mu: -0.231430664  nElectrons: 331.000000
LCAOMinimize: Iter:  11  F: -547.6260073711193854  |grad|_K:  4.557e-05  alpha:  1.586e-01  linmin: -5.973e-04  cgtest:  2.224e-02  t[s]:     30.83
	FillingsUpdate:  mu: -0.231174468  nElectrons: 331.000000
LCAOMinimize: Iter:  12  F: -547.6260326367356583  |grad|_K:  2.170e-05  alpha:  2.443e-01  linmin: -3.817e-04  cgtest: -1.204e-02  t[s]:     32.77
	FillingsUpdate:  mu: -0.231295761  nElectrons: 331.000000
LCAOMinimize: Iter:  13  F: -547.6260368289537155  |grad|_K:  1.726e-05  alpha:  1.790e-01  linmin:  1.013e-05  cgtest:  7.280e-04  t[s]:     34.70
	FillingsUpdate:  mu: -0.231294720  nElectrons: 331.000000
LCAOMinimize: Iter:  14  F: -547.6260397053126781  |grad|_K:  6.735e-06  alpha:  1.945e-01  linmin: -4.215e-05  cgtest:  5.316e-03  t[s]:     36.66
	FillingsUpdate:  mu: -0.231271168  nElectrons: 331.000000
LCAOMinimize: Iter:  15  F: -547.6260403357722453  |grad|_K:  4.283e-06  alpha:  2.801e-01  linmin:  1.449e-05  cgtest: -4.791e-04  t[s]:     38.57
	FillingsUpdate:  mu: -0.231291264  nElectrons: 331.000000
LCAOMinimize: Iter:  16  F: -547.6260404464828753  |grad|_K:  2.092e-06  alpha:  1.217e-01  linmin: -3.594e-05  cgtest:  1.042e-03  t[s]:     40.50
LCAOMinimize: Converged (|Delta F|<1.000000e-06 for 2 iters).
----- createFluidSolver() ----- (Fluid-side solver setup)
   Initializing fluid molecule 'Glyme'
     Net charge: 0   dipole magnitude: 0
     Initializing spherical shell mfKernel with radius 0 Bohr
     deltaS corrections:

Correction to mu due to finite nuclear width = -0.00639648
   Cavity determined by nc: 8.36e-05 and sigma: 0.6
   Effective cavity tension: -8.03e-06 Eh/bohr^2 to account for cavitation and dispersion.


---- Citations for features of the code used in this run ----

   Software package:
      R. Sundararaman, K. Letchworth-Weaver, K.A. Schwarz, D. Gunceler, Y. Ozhabes and T.A. Arias, 'JDFTx: software for joint density-functional theory', SoftwareX 6, 278 (2017)

   gga-PBE exchange-correlation functional:
      J.P. Perdew, K. Burke and M. Ernzerhof, Phys. Rev. Lett. 77, 3865 (1996)

   Pseudopotentials:
      KF Garrity, JW Bennett, KM Rabe and D Vanderbilt, Comput. Mater. Sci. 81, 446 (2014)

   Truncated Coulomb potentials:
      R. Sundararaman and T.A. Arias, Phys. Rev. B 87, 165122 (2013)

   DFT-D3 dispersion correction:
      S. Grimme, J. Antony, S. Ehrlich and H. Krieg, J. Chem. Phys. 132, 154104 (2010)

   Linear/nonlinear dielectric/ionic fluid model with effective cavity tension:
      D. Gunceler, K. Letchworth-Weaver, R. Sundararaman, K.A. Schwarz and T.A. Arias, Modelling Simul. Mater. Sci. Eng. 21, 074005 (2013)

This list may not be complete. Please suggest additional citations or
report any other bugs at https://github.com/shankar1729/jdftx/issues

Initialization completed successfully at t[s]:     40.78


Computing DFT-D3 correction:
# coordination-number C 3.300 3.300 3.301 3.300 3.301 3.300 3.300 3.301 3.296 3.300 3.311 3.293 3.300 3.300 3.302 3.315 3.448 3.300 3.356 3.441 3.304 3.494 3.615 3.303 3.300 3.300 3.300 3.368 3.300 3.300 3.288 3.300 3.300 3.287 3.300 3.300 3.300 3.300 3.302 3.317 3.300 3.321 3.304 3.300 3.304 3.325 3.301 3.326 3.336 3.300 3.300 3.300 3.300 3.478 3.800 3.301 3.335 3.495 3.331 3.300 3.300 3.299 3.300 3.301 3.298 3.300 3.300 3.300 3.300 3.300 3.300
# coordination-number N 3.220
# coordination-number S 2.926 3.102 3.109 2.935
# coordination-number Na 4.558 4.407
# diagonal-C6 C 24.28 24.28 24.27 24.29 24.27 24.28 24.29 24.27 24.32 24.28 24.18 24.35 24.28 24.28 24.26 24.14 22.41 24.28 23.67 22.51 24.25 21.73 20.10 24.26 24.28 24.28 24.28 23.53 24.29 24.29 24.40 24.29 24.28 24.40 24.29 24.28 24.28 24.29 24.27 24.11 24.28 24.07 24.25 24.29 24.25 24.03 24.27 24.02 23.91 24.28 24.28 24.28 24.28 21.97 18.75 24.27 23.92 21.72 23.97 24.29 24.28 24.29 24.29 24.28 24.30 24.28 24.28 24.28 24.29 24.29 24.29
# diagonal-C6 N 15.60
# diagonal-C6 S 125.81 125.81 125.81 125.81
# diagonal-C6 Na 186.11 186.11
EvdW_6 =   -0.063707
EvdW_8 =   -0.056461
Fluid solver invoked on fresh (random / LCAO) wavefunctions
Running a vacuum solve first:

-------- Initial electronic minimization -----------
Will mix electronic density at each iteration.
	FillingsUpdate:  mu: -0.231291264  nElectrons: 331.000000
	FillingsUpdate:  mu: -0.240976295  nElectrons: 331.000000
SCF: Cycle:  0   F: -551.203848026253240   dF: -3.578e+00   |Residual|: 9.652e-01   |deigs|: 1.242e-01  t[s]:     48.48
	FillingsUpdate:  mu: -0.212516162  nElectrons: 331.000000
SCF: Cycle:  1   F: -551.791854722448534   dF: -5.880e-01   |Residual|: 4.911e-01   |deigs|: 3.429e-02  t[s]:     52.72
	FillingsUpdate:  mu: -0.178409394  nElectrons: 331.000000
SCF: Cycle:  2   F: -552.068394576480841   dF: -2.765e-01   |Residual|: 1.116e-01   |deigs|: 3.437e-02  t[s]:     56.98
	FillingsUpdate:  mu: -0.172476890  nElectrons: 331.000000
SCF: Cycle:  3   F: -552.087405884044074   dF: -1.901e-02   |Residual|: 6.955e-02   |deigs|: 6.242e-03  t[s]:     61.27
	FillingsUpdate:  mu: -0.160987196  nElectrons: 331.000000
SCF: Cycle:  4   F: -552.110249508729794   dF: -2.284e-02   |Residual|: 3.619e-02   |deigs|: 1.073e-02  t[s]:     65.52
	FillingsUpdate:  mu: -0.151014792  nElectrons: 331.000000
SCF: Cycle:  5   F: -552.121883229908917   dF: -1.163e-02   |Residual|: 2.609e-02   |deigs|: 9.140e-03  t[s]:     69.74
	FillingsUpdate:  mu: -0.147310892  nElectrons: 331.000000
SCF: Cycle:  6   F: -552.124464895193455   dF: -2.582e-03   |Residual|: 1.910e-02   |deigs|: 3.644e-03  t[s]:     73.93
	FillingsUpdate:  mu: -0.142064269  nElectrons: 331.000000
SCF: Cycle:  7   F: -552.126041196372512   dF: -1.576e-03   |Residual|: 1.273e-02   |deigs|: 5.586e-03  t[s]:     77.93
	FillingsUpdate:  mu: -0.137339125  nElectrons: 331.000000
SCF: Cycle:  8   F: -552.127195378001716   dF: -1.154e-03   |Residual|: 1.532e-02   |deigs|: 4.482e-03  t[s]:     81.87
	FillingsUpdate:  mu: -0.136141318  nElectrons: 331.000000
SCF: Cycle:  9   F: -552.127600868838044   dF: -4.055e-04   |Residual|: 7.853e-03   |deigs|: 1.418e-03  t[s]:     85.82
	FillingsUpdate:  mu: -0.132452334  nElectrons: 331.000000
SCF: Cycle: 10   F: -552.127906586709059   dF: -3.057e-04   |Residual|: 6.325e-03   |deigs|: 3.283e-03  t[s]:     89.57
	FillingsUpdate:  mu: -0.130800180  nElectrons: 331.000000
SCF: Cycle: 11   F: -552.127906390943849   dF: +1.958e-07   |Residual|: 5.315e-03   |deigs|: 1.451e-03  t[s]:     93.27
	FillingsUpdate:  mu: -0.126731470  nElectrons: 331.000000
SCF: Cycle: 12   F: -552.127902081714183   dF: +4.309e-06   |Residual|: 4.151e-03   |deigs|: 3.789e-03  t[s]:     97.51
	FillingsUpdate:  mu: -0.124067919  nElectrons: 331.000000
SCF: Cycle: 13   F: -552.128073375638451   dF: -1.713e-04   |Residual|: 3.895e-03   |deigs|: 2.823e-03  t[s]:    101.17
	FillingsUpdate:  mu: -0.122498488  nElectrons: 331.000000
SCF: Cycle: 14   F: -552.128091808261843   dF: -1.843e-05   |Residual|: 3.144e-03   |deigs|: 2.247e-03  t[s]:    104.84
	FillingsUpdate:  mu: -0.118924546  nElectrons: 331.000000
SCF: Cycle: 15   F: -552.128150422130489   dF: -5.861e-05   |Residual|: 2.499e-03   |deigs|: 3.709e-03  t[s]:    108.53
	FillingsUpdate:  mu: -0.117910259  nElectrons: 331.000000
SCF: Cycle: 16   F: -552.128170049997152   dF: -1.963e-05   |Residual|: 1.682e-03   |deigs|: 9.478e-04  t[s]:    112.19
	FillingsUpdate:  mu: -0.116754741  nElectrons: 331.000000
SCF: Cycle: 17   F: -552.128182537748216   dF: -1.249e-05   |Residual|: 1.262e-03   |deigs|: 1.024e-03  t[s]:    115.70
	FillingsUpdate:  mu: -0.116468279  nElectrons: 331.000000
SCF: Cycle: 18   F: -552.128186560719882   dF: -4.023e-06   |Residual|: 8.991e-04   |deigs|: 5.645e-04  t[s]:    119.39
	FillingsUpdate:  mu: -0.116386671  nElectrons: 331.000000
SCF: Cycle: 19   F: -552.128189579762420   dF: -3.019e-06   |Residual|: 4.915e-04   |deigs|: 9.756e-04  t[s]:    123.07
	FillingsUpdate:  mu: -0.116386015  nElectrons: 331.000000
SCF: Cycle: 20   F: -552.128191463810481   dF: -1.884e-06   |Residual|: 3.190e-04   |deigs|: 5.057e-04  t[s]:    126.61
	FillingsUpdate:  mu: -0.116402143  nElectrons: 331.000000
SCF: Cycle: 21   F: -552.128192166189592   dF: -7.024e-07   |Residual|: 1.847e-04   |deigs|: 3.807e-04  t[s]:    130.27
	FillingsUpdate:  mu: -0.116390025  nElectrons: 331.000000
SCF: Cycle: 22   F: -552.128192339518591   dF: -1.733e-07   |Residual|: 1.180e-04   |deigs|: 1.745e-04  t[s]:    138.30
	FillingsUpdate:  mu: -0.116365614  nElectrons: 331.000000
SCF: Cycle: 23   F: -552.128192464001131   dF: -1.245e-07   |Residual|: 7.503e-05   |deigs|: 2.883e-04  t[s]:    142.04
	FillingsUpdate:  mu: -0.116338222  nElectrons: 331.000000
SCF: Cycle: 24   F: -552.128192497537839   dF: -3.354e-08   |Residual|: 4.490e-05   |deigs|: 2.062e-04  t[s]:    145.79
	FillingsUpdate:  mu: -0.116317374  nElectrons: 331.000000
SCF: Cycle: 25   F: -552.128192514725697   dF: -1.719e-08   |Residual|: 2.759e-05   |deigs|: 2.076e-04  t[s]:    149.44
	FillingsUpdate:  mu: -0.116311872  nElectrons: 331.000000
SCF: Cycle: 26   F: -552.128192530006686   dF: -1.528e-08   |Residual|: 2.069e-05   |deigs|: 8.087e-05  t[s]:    153.48
	FillingsUpdate:  mu: -0.116311437  nElectrons: 331.000000
SCF: Cycle: 27   F: -552.128192543975274   dF: -1.397e-08   |Residual|: 1.410e-05   |deigs|: 1.194e-04  t[s]:    157.16
	FillingsUpdate:  mu: -0.116310642  nElectrons: 331.000000
SCF: Cycle: 28   F: -552.128192551032043   dF: -7.057e-09   |Residual|: 1.079e-05   |deigs|: 1.048e-04  t[s]:    160.89
	FillingsUpdate:  mu: -0.116312126  nElectrons: 331.000000
SCF: Cycle: 29   F: -552.128192556021190   dF: -4.989e-09   |Residual|: 8.894e-06   |deigs|: 4.715e-05  t[s]:    164.45
SCF: Converged (|Delta E|<1.000000e-08 for 2 iters).

Setting wave functions to eigenvectors of Hamiltonian
Vacuum energy after initial minimize, F = -552.128192556021190


-------- Electronic minimization -----------
Will mix electronic density at each iteration.
	FillingsUpdate:  mu: -0.116312126  nElectrons: 331.000000
	Linear fluid (dielectric constant: 7.2) occupying 0.838872 of unit cell:	Completed after 12 iterations at t[s]:    165.36
	FillingsUpdate:  mu: -0.118381062  nElectrons: 331.000000
	Linear fluid (dielectric constant: 7.2) occupying 0.839352 of unit cell:	Completed after 9 iterations at t[s]:    170.39
SCF: Cycle:  0   F: -552.158873650010378   dF: -3.342e-03   |Residual|: 1.621e-02   |deigs|: 3.844e-03  t[s]:    170.56
	Linear fluid (dielectric constant: 7.2) occupying 0.839189 of unit cell:	Completed after 9 iterations at t[s]:    170.77
	FillingsUpdate:  mu: -0.118345485  nElectrons: 331.000000
	Linear fluid (dielectric constant: 7.2) occupying 0.839429 of unit cell:	Completed after 9 iterations at t[s]:    174.71
SCF: Cycle:  1   F: -552.160811779550841   dF: -1.938e-03   |Residual|: 7.128e-03   |deigs|: 7.095e-04  t[s]:    174.88
	Linear fluid (dielectric constant: 7.2) occupying 0.839421 of unit cell:	Completed after 9 iterations at t[s]:    175.08
	FillingsUpdate:  mu: -0.118286634  nElectrons: 331.000000
	Linear fluid (dielectric constant: 7.2) occupying 0.839560 of unit cell:	Completed after 9 iterations at t[s]:    179.44
SCF: Cycle:  2   F: -552.161489311989158   dF: -6.775e-04   |Residual|: 4.591e-03   |deigs|: 5.578e-04  t[s]:    179.62
	Linear fluid (dielectric constant: 7.2) occupying 0.839495 of unit cell:	Completed after 9 iterations at t[s]:    179.82
	FillingsUpdate:  mu: -0.118120091  nElectrons: 331.000000
	Linear fluid (dielectric constant: 7.2) occupying 0.839711 of unit cell:	Completed after 9 iterations at t[s]:    184.25
SCF: Cycle:  3   F: -552.161921435453110   dF: -4.321e-04   |Residual|: 2.708e-03   |deigs|: 4.096e-04  t[s]:    184.42
	Linear fluid (dielectric constant: 7.2) occupying 0.839532 of unit cell:	Completed after 8 iterations at t[s]:    184.61
	FillingsUpdate:  mu: -0.117834971  nElectrons: 331.000000
	Linear fluid (dielectric constant: 7.2) occupying 0.839835 of unit cell:	Completed after 9 iterations at t[s]:    189.01
SCF: Cycle:  4   F: -552.162358512532819   dF: -4.371e-04   |Residual|: 2.282e-03   |deigs|: 4.256e-04  t[s]:    189.18
	Linear fluid (dielectric constant: 7.2) occupying 0.839558 of unit cell:	Completed after 8 iterations at t[s]:    189.37
	FillingsUpdate:  mu: -0.117674038  nElectrons: 331.000000
	Linear fluid (dielectric constant: 7.2) occupying 0.839862 of unit cell:	Completed after 9 iterations at t[s]:    193.75
SCF: Cycle:  5   F: -552.162558960348065   dF: -2.004e-04   |Residual|: 2.013e-03   |deigs|: 2.309e-04  t[s]:    193.92
	Linear fluid (dielectric constant: 7.2) occupying 0.839698 of unit cell:	Completed after 7 iterations at t[s]:    194.24
	FillingsUpdate:  mu: -0.117120641  nElectrons: 331.000000
	Linear fluid (dielectric constant: 7.2) occupying 0.839865 of unit cell:	Completed after 8 iterations at t[s]:    198.64
SCF: Cycle:  6   F: -552.163038379809223   dF: -4.794e-04   |Residual|: 1.438e-03   |deigs|: 8.292e-04  t[s]:    198.81
	Linear fluid (dielectric constant: 7.2) occupying 0.839645 of unit cell:	Completed after 7 iterations at t[s]:    198.98
	FillingsUpdate:  mu: -0.116809016  nElectrons: 331.000000
	Linear fluid (dielectric constant: 7.2) occupying 0.839815 of unit cell:	Completed after 7 iterations at t[s]:    203.33
SCF: Cycle:  7   F: -552.163260069832063   dF: -2.217e-04   |Residual|: 1.070e-03   |deigs|: 5.398e-04  t[s]:    203.50
	Linear fluid (dielectric constant: 7.2) occupying 0.839495 of unit cell:	Completed after 7 iterations at t[s]:    203.68
	FillingsUpdate:  mu: -0.116784809  nElectrons: 331.000000
	Linear fluid (dielectric constant: 7.2) occupying 0.839804 of unit cell:	Completed after 7 iterations at t[s]:    208.05
SCF: Cycle:  8   F: -552.163285842221399   dF: -2.577e-05   |Residual|: 7.508e-04   |deigs|: 1.667e-04  t[s]:    208.22
	Linear fluid (dielectric constant: 7.2) occupying 0.839464 of unit cell:	Completed after 6 iterations at t[s]:    208.39
	FillingsUpdate:  mu: -0.116805698  nElectrons: 331.000000
	Linear fluid (dielectric constant: 7.2) occupying 0.839788 of unit cell:	Completed after 6 iterations at t[s]:    212.14
SCF: Cycle:  9   F: -552.163293018868671   dF: -7.177e-06   |Residual|: 5.202e-04   |deigs|: 1.264e-04  t[s]:    212.31
	Linear fluid (dielectric constant: 7.2) occupying 0.839476 of unit cell:	Completed after 6 iterations at t[s]:    212.48
	FillingsUpdate:  mu: -0.116831060  nElectrons: 331.000000
	Linear fluid (dielectric constant: 7.2) occupying 0.839773 of unit cell:	Completed after 6 iterations at t[s]:    216.25
SCF: Cycle: 10   F: -552.163297780291146   dF: -4.761e-06   |Residual|: 3.399e-04   |deigs|: 1.867e-04  t[s]:    216.42
	Linear fluid (dielectric constant: 7.2) occupying 0.839548 of unit cell:	Completed after 5 iterations at t[s]:    216.58
	FillingsUpdate:  mu: -0.116879597  nElectrons: 331.000000
	Linear fluid (dielectric constant: 7.2) occupying 0.839764 of unit cell:	Completed after 5 iterations at t[s]:    222.11
SCF: Cycle: 11   F: -552.163299149193790   dF: -1.369e-06   |Residual|: 2.831e-04   |deigs|: 2.669e-04  t[s]:    222.27
	Linear fluid (dielectric constant: 7.2) occupying 0.839598 of unit cell:	Completed after 5 iterations at t[s]:    222.43
	FillingsUpdate:  mu: -0.116924890  nElectrons: 331.000000
	Linear fluid (dielectric constant: 7.2) occupying 0.839772 of unit cell:	Completed after 5 iterations at t[s]:    234.21
SCF: Cycle: 12   F: -552.163299703543430   dF: -5.543e-07   |Residual|: 2.604e-04   |deigs|: 2.992e-04  t[s]:    234.37
	Linear fluid (dielectric constant: 7.2) occupying 0.839642 of unit cell:	Completed after 5 iterations at t[s]:    234.53
	FillingsUpdate:  mu: -0.116954037  nElectrons: 331.000000
	Linear fluid (dielectric constant: 7.2) occupying 0.839777 of unit cell:	Completed after 5 iterations at t[s]:    238.35
SCF: Cycle: 13   F: -552.163300013793219   dF: -3.102e-07   |Residual|: 2.063e-04   |deigs|: 2.437e-04  t[s]:    238.51
	Linear fluid (dielectric constant: 7.2) occupying 0.839671 of unit cell:	Completed after 6 iterations at t[s]:    238.68
	FillingsUpdate:  mu: -0.117017245  nElectrons: 331.000000
	Linear fluid (dielectric constant: 7.2) occupying 0.839790 of unit cell:	Completed after 6 iterations at t[s]:    243.03
SCF: Cycle: 14   F: -552.163298675376382   dF: +1.338e-06   |Residual|: 2.036e-04   |deigs|: 1.922e-04  t[s]:    243.19
	Linear fluid (dielectric constant: 7.2) occupying 0.839720 of unit cell:	Completed after 5 iterations at t[s]:    243.36
	FillingsUpdate:  mu: -0.117029524  nElectrons: 331.000000
	Linear fluid (dielectric constant: 7.2) occupying 0.839786 of unit cell:	Completed after 5 iterations at t[s]:    247.19
SCF: Cycle: 15   F: -552.163298949805835   dF: -2.744e-07   |Residual|: 2.403e-04   |deigs|: 1.697e-04  t[s]:    247.35
	Linear fluid (dielectric constant: 7.2) occupying 0.839729 of unit cell:	Completed after 4 iterations at t[s]:    247.50
	FillingsUpdate:  mu: -0.117044464  nElectrons: 331.000000
	Linear fluid (dielectric constant: 7.2) occupying 0.839788 of unit cell:	Completed after 4 iterations at t[s]:    251.32
SCF: Cycle: 16   F: -552.163299810206809   dF: -8.604e-07   |Residual|: 1.473e-04   |deigs|: 8.223e-05  t[s]:    251.48
	Linear fluid (dielectric constant: 7.2) occupying 0.839754 of unit cell:	Completed after 4 iterations at t[s]:    251.63
	FillingsUpdate:  mu: -0.117041622  nElectrons: 331.000000
	Linear fluid (dielectric constant: 7.2) occupying 0.839785 of unit cell:	Completed after 3 iterations at t[s]:    255.93
SCF: Cycle: 17   F: -552.163300248348037   dF: -4.381e-07   |Residual|: 1.279e-04   |deigs|: 1.158e-04  t[s]:    256.08
	Linear fluid (dielectric constant: 7.2) occupying 0.839776 of unit cell:	Completed after 2 iterations at t[s]:    256.21
	FillingsUpdate:  mu: -0.117049401  nElectrons: 331.000000
	Linear fluid (dielectric constant: 7.2) occupying 0.839786 of unit cell:	Completed after 3 iterations at t[s]:    259.91
SCF: Cycle: 18   F: -552.163300336441239   dF: -8.809e-08   |Residual|: 8.762e-05   |deigs|: 7.958e-05  t[s]:    260.06
	Linear fluid (dielectric constant: 7.2) occupying 0.839789 of unit cell:	Completed after 2 iterations at t[s]:    260.19
	FillingsUpdate:  mu: -0.117063991  nElectrons: 331.000000
	Linear fluid (dielectric constant: 7.2) occupying 0.839787 of unit cell:	Completed after 2 iterations at t[s]:    263.98
SCF: Cycle: 19   F: -552.163300512377532   dF: -1.759e-07   |Residual|: 8.249e-05   |deigs|: 1.815e-04  t[s]:    264.13
	Linear fluid (dielectric constant: 7.2) occupying 0.839789 of unit cell:	Completed after 2 iterations at t[s]:    264.26
	FillingsUpdate:  mu: -0.117071773  nElectrons: 331.000000
	Linear fluid (dielectric constant: 7.2) occupying 0.839789 of unit cell:	Completed after 2 iterations at t[s]:    268.00
SCF: Cycle: 20   F: -552.163300543453261   dF: -3.108e-08   |Residual|: 5.746e-05   |deigs|: 1.087e-04  t[s]:    268.15
	Linear fluid (dielectric constant: 7.2) occupying 0.839783 of unit cell:	Completed after 2 iterations at t[s]:    268.28
	FillingsUpdate:  mu: -0.117076914  nElectrons: 331.000000
	Linear fluid (dielectric constant: 7.2) occupying 0.839789 of unit cell:	Completed after 2 iterations at t[s]:    272.56
SCF: Cycle: 21   F: -552.163300654270984   dF: -1.108e-07   |Residual|: 4.814e-05   |deigs|: 9.613e-05  t[s]:    272.70
	Linear fluid (dielectric constant: 7.2) occupying 0.839779 of unit cell:	Completed after 1 iterations at t[s]:    272.82
	FillingsUpdate:  mu: -0.117083096  nElectrons: 331.000000
	Linear fluid (dielectric constant: 7.2) occupying 0.839788 of unit cell:	Completed after 1 iterations at t[s]:    276.63
SCF: Cycle: 22   F: -552.163300701504227   dF: -4.723e-08   |Residual|: 3.315e-05   |deigs|: 6.657e-05  t[s]:    276.78
	Linear fluid (dielectric constant: 7.2) occupying 0.839776 of unit cell:	Completed after 1 iterations at t[s]:    276.89
	FillingsUpdate:  mu: -0.117085107  nElectrons: 331.000000
	Linear fluid (dielectric constant: 7.2) occupying 0.839787 of unit cell:	Completed after 1 iterations at t[s]:    280.61
SCF: Cycle: 23   F: -552.163300722125996   dF: -2.062e-08   |Residual|: 2.816e-05   |deigs|: 8.085e-05  t[s]:    280.75
	Linear fluid (dielectric constant: 7.2) occupying 0.839777 of unit cell:	Completed after 1 iterations at t[s]:    280.86
	FillingsUpdate:  mu: -0.117085139  nElectrons: 331.000000
	Linear fluid (dielectric constant: 7.2) occupying 0.839787 of unit cell:	Completed after 1 iterations at t[s]:    284.62
SCF: Cycle: 24   F: -552.163300727791125   dF: -5.665e-09   |Residual|: 2.286e-05   |deigs|: 4.653e-05  t[s]:    284.77
	Linear fluid (dielectric constant: 7.2) occupying 0.839779 of unit cell:	Completed after 1 iterations at t[s]:    284.88
	FillingsUpdate:  mu: -0.117085736  nElectrons: 331.000000
	Linear fluid (dielectric constant: 7.2) occupying 0.839787 of unit cell:	Completed after 1 iterations at t[s]:    288.65
SCF: Cycle: 25   F: -552.163300724002056   dF: +3.789e-09   |Residual|: 2.378e-05   |deigs|: 4.241e-05  t[s]:    288.79
	Linear fluid (dielectric constant: 7.2) occupying 0.839783 of unit cell:	Completed after 0 iterations at t[s]:    288.90
	FillingsUpdate:  mu: -0.117081585  nElectrons: 331.000000
	Linear fluid (dielectric constant: 7.2) occupying 0.839787 of unit cell:	Completed after 1 iterations at t[s]:    292.63
SCF: Cycle: 26   F: -552.163300728725403   dF: -4.723e-09   |Residual|: 2.601e-05   |deigs|: 4.346e-05  t[s]:    292.77
	Linear fluid (dielectric constant: 7.2) occupying 0.839784 of unit cell:	Completed after 0 iterations at t[s]:    292.88
	FillingsUpdate:  mu: -0.117085863  nElectrons: 331.000000
	Linear fluid (dielectric constant: 7.2) occupying 0.839788 of unit cell:	Completed after 1 iterations at t[s]:    296.61
SCF: Cycle: 27   F: -552.163300706279642   dF: +2.245e-08   |Residual|: 5.232e-05   |deigs|: 3.086e-05  t[s]:    296.76
	Linear fluid (dielectric constant: 7.2) occupying 0.839784 of unit cell:	Completed after 1 iterations at t[s]:    296.88
	FillingsUpdate:  mu: -0.117086333  nElectrons: 331.000000
	Linear fluid (dielectric constant: 7.2) occupying 0.839787 of unit cell:	Completed after 0 iterations at t[s]:    300.54
SCF: Cycle: 28   F: -552.163300742078377   dF: -3.580e-08   |Residual|: 1.211e-05   |deigs|: 1.309e-05  t[s]:    300.68
	Linear fluid (dielectric constant: 7.2) occupying 0.839785 of unit cell:	Completed after 0 iterations at t[s]:    300.78
	FillingsUpdate:  mu: -0.117083879  nElectrons: 331.000000
	Linear fluid (dielectric constant: 7.2) occupying 0.839787 of unit cell:	Completed after 0 iterations at t[s]:    304.45
SCF: Cycle: 29   F: -552.163300743839841   dF: -1.761e-09   |Residual|: 1.522e-05   |deigs|: 8.615e-06  t[s]:    304.59
	Linear fluid (dielectric constant: 7.2) occupying 0.839785 of unit cell:	Completed after 0 iterations at t[s]:    304.69
	FillingsUpdate:  mu: -0.117085157  nElectrons: 331.000000
	Linear fluid (dielectric constant: 7.2) occupying 0.839787 of unit cell:	Completed after 0 iterations at t[s]:    308.62
SCF: Cycle: 30   F: -552.163300744656226   dF: -8.164e-10   |Residual|: 1.038e-05   |deigs|: 1.378e-05  t[s]:    308.75
SCF: Converged (|Delta E|<1.000000e-08 for 2 iters).

Setting wave functions to eigenvectors of Hamiltonian
Single-point solvation energy estimate, DeltaF = -0.035108188635036

Computing DFT-D3 correction:
# coordination-number C 3.300 3.300 3.301 3.300 3.301 3.300 3.300 3.301 3.296 3.300 3.311 3.293 3.300 3.300 3.302 3.315 3.448 3.300 3.356 3.441 3.304 3.494 3.615 3.303 3.300 3.300 3.300 3.368 3.300 3.300 3.288 3.300 3.300 3.287 3.300 3.300 3.300 3.300 3.302 3.317 3.300 3.321 3.304 3.300 3.304 3.325 3.301 3.326 3.336 3.300 3.300 3.300 3.300 3.478 3.800 3.301 3.335 3.495 3.331 3.300 3.300 3.299 3.300 3.301 3.298 3.300 3.300 3.300 3.300 3.300 3.300
# coordination-number N 3.220
# coordination-number S 2.926 3.102 3.109 2.935
# coordination-number Na 4.558 4.407
# diagonal-C6 C 24.28 24.28 24.27 24.29 24.27 24.28 24.29 24.27 24.32 24.28 24.18 24.35 24.28 24.28 24.26 24.14 22.41 24.28 23.67 22.51 24.25 21.73 20.10 24.26 24.28 24.28 24.28 23.53 24.29 24.29 24.40 24.29 24.28 24.40 24.29 24.28 24.28 24.29 24.27 24.11 24.28 24.07 24.25 24.29 24.25 24.03 24.27 24.02 23.91 24.28 24.28 24.28 24.28 21.97 18.75 24.27 23.92 21.72 23.97 24.29 24.28 24.29 24.29 24.28 24.30 24.28 24.28 24.28 24.29 24.29 24.29
# diagonal-C6 N 15.60
# diagonal-C6 S 125.81 125.81 125.81 125.81
# diagonal-C6 Na 186.11 186.11
EvdW_6 =   -0.063707
EvdW_8 =   -0.056461

# Ionic positions in cartesian coordinates:
ion C -14.002918197300012  24.253758582300001   2.000000000000000 0
ion C  -2.333816550000000   4.042302545699999   2.000000000000000 0
ion C  11.669101647300000  20.211493831199999   2.000000000000000 0
ion C  -9.335266200000008  24.253758582300001   2.000000000000000 0
ion C   9.335303994599993  24.253758582300001   2.000000000000000 0
ion C   2.333816549999999   4.042302545699999   2.000000000000000 0
ion C -11.669120544600000  20.211493831199999   2.000000000000000 0
ion C  -4.667651997299999   8.084605091399998   2.000000000000000 0
ion C   9.335285097299998  16.169191285499998   2.000000000000000 0
ion C  -4.667614202700010  24.253758582300001   2.000000000000000 0
ion C   4.667651997299995  24.253758582300001   2.000000000000000 0
ion C   4.667651997299999   8.084605091399998   2.000000000000000 0
ion C  -9.335303994599998  16.169191285499998   2.000000000000000 0
ion C  -7.001468547300001  12.126907637100000   2.000000000000000 0
ion C   0.000037794599988  24.253758582300001   2.000000000000000 0
ion C   0.000000000000000   8.084605091399998   2.000000000000000 0
ion C   7.001449650000005  20.211493831199999   2.000000000000000 0
ion C  -7.001468547300000  20.211493831199999   2.000000000000000 0
ion C  -2.333816549999999  12.126907637100000   2.000000000000000 0
ion C   4.667633100000000  16.169191285499998   2.000000000000000 0
ion C  -2.333816549999993  20.211493831199999   2.000000000000000 0
ion C   2.333835447300000  20.211493831199999   2.000000000000000 0
ion C   2.333835447299999  12.126907637100000   2.000000000000000 0
ion C  -4.667651997299999  16.169191285499998   2.000000000000000 0
ion C   7.001449650000000   4.042302545699999   2.000000000000000 0
ion C  21.004386744600001   4.042302545699999   2.000000000000000 0
ion C  14.002937094600000  16.169191285499998   2.000000000000000 0
ion C   0.000000000000000  16.169191285499998   2.000000000000000 0
ion C  11.669101647300000   4.042302545699999   2.000000000000000 0
ion C  18.670589091899998   8.084605091399998   2.000000000000000 0
ion C  11.669101647300000  12.126907637100000   2.000000000000000 0
ion C  16.336753644600002  12.126907637100000   2.000000000000000 0
ion C  16.336753644600002   4.042302545699999   2.000000000000000 0
ion C   9.335285097300002   8.084605091399998   2.000000000000000 0
ion C  14.002937094600000   8.084605091399998   2.000000000000000 0
ion C   0.000018897300000   2.694868363800000   2.000000000000000 0
ion C  11.669120544600000  22.906362195000000   2.000000000000000 0
ion C -11.669120544600002  22.906362195000000   2.000000000000000 0
ion C  -2.333816549999999   6.737152012199999   2.000000000000000 0
ion C   9.335285097299998  18.864059649300000   2.000000000000000 0
ion C  -7.001468547300003  22.906362195000000   2.000000000000000 0
ion C   7.001468547300002  22.906362195000000   2.000000000000000 0
ion C   2.333816550000000   6.737152012199999   2.000000000000000 0
ion C  -9.335285097299998  18.864059649300000   2.000000000000000 0
ion C  -4.667633100000000  10.779454557899999   2.000000000000000 0
ion C   7.001468547300002  14.821757103600000   2.000000000000000 0
ion C  -2.333835447300000  22.906362195000000   2.000000000000000 0
ion C   2.333816550000000  22.906362195000000   2.000000000000000 0
ion C   4.667633100000000  10.779454557899999   2.000000000000000 0
ion C  -7.001468547300001  14.821757103600000   2.000000000000000 0
ion C   4.667633100000003   2.694868363800000   2.000000000000000 0
ion C  23.338222191900002   2.694868363800000   2.000000000000000 0
ion C  14.002918197300001  18.864059649300000   2.000000000000000 0
ion C   0.000018897300000  10.779454557899999   2.000000000000000 0
ion C   4.667633100000000  18.864059649300000   2.000000000000000 0
ion C  -4.667633099999995  18.864059649300000   2.000000000000000 0
ion C  -2.333816550000000  14.821757103600000   2.000000000000000 0
ion C   2.333816550000000  14.821757103600000   2.000000000000000 0
ion C  -0.000018897299999  18.864059649300000   2.000000000000000 0
ion C   9.335285097300000   2.694868363800000   2.000000000000000 0
ion C  21.004386744599998   6.737152012199999   2.000000000000000 0
ion C  11.669120544600002  14.821757103600000   2.000000000000000 0
ion C  16.336734747299992  14.821757103600000   2.000000000000000 0
ion C  18.670570194600000   2.694868363800000   2.000000000000000 0
ion C   7.001468547300000   6.737152012199999   2.000000000000000 0
ion C  14.002937094600002   2.694868363800000   2.000000000000000 0
ion C  18.670570194600000  10.779454557899999   2.000000000000000 0
ion C   9.335285097300000  10.779454557899999   2.000000000000000 0
ion C  11.669120544600000   6.737152012199999   2.000000000000000 0
ion C  16.336734747299989   6.737152012199999   2.000000000000000 0
ion C  14.002937094600000  10.779454557899999   2.000000000000000 0
ion N   7.001449650000002  12.126907637100000   2.000000000000000 0
ion S   6.174936078686164  14.158273753493756   8.435162547173919 1
ion S   4.299376190579984  14.128976221550239  11.844917646593295 1
ion S   1.962487620754862  17.370522428336109  12.085625345598377 1
ion S  -0.280463044931450  17.577631338407290   8.914025920905317 1
ion Na   4.498273710148059  19.025105375745152   7.415170109618058 1
ion Na   1.183859805568671  12.781829323736760   7.519584204589894 1

# Forces in Cartesian coordinates:
force C   0.001680064849669  -0.000975249634774  -0.000134255725589 0
force C   0.000864479763894  -0.000285366420347  -0.000128380730962 0
force C   0.001559777339942  -0.001165069012584  -0.000117083793606 0
force C   0.000802718069544   0.001179132159820  -0.000143371678847 0
force C   0.000747659741159  -0.000432654555751  -0.000082286293233 0
force C   0.001759084649340  -0.000768970247611  -0.000102331960413 0
force C  -0.000560096589137  -0.001202257594516  -0.000150867450670 0
force C   0.000158668849756   0.000298246750667  -0.000158913955753 0
force C  -0.002928514488151  -0.010205037778937  -0.000179937381808 0
force C  -0.000997668329718   0.000911959021377  -0.000103736682433 0
force C  -0.000153603774290   0.000161406889126  -0.000453622810736 0
force C   0.007184748961560   0.007866905028939   0.000325489758212 0
force C  -0.001312680818274   0.000563126663466  -0.000122655172953 0
force C  -0.000045477346076   0.002030804140589  -0.000135412767929 0
force C  -0.002182427975420  -0.000971587267724   0.000438513606771 0
force C   0.000533964883775  -0.001294076038576  -0.000241056558262 0
force C   0.002412231751989   0.000551719249644  -0.000132316732058 0
force C   0.000152355578805  -0.000054709337226   0.000005770403782 0
force C  -0.001191061327206   0.002151234058061  -0.000083615137593 0
force C   0.003529089321990  -0.011653287584577  -0.001533315197110 0
force C   0.000764985261350  -0.001412427627580  -0.000205489840588 0
force C  -0.004287947467831   0.000052314381398  -0.000963760349696 0
force C   0.010907807319543   0.001975130335057  -0.000949635553650 0
force C   0.001007867040158   0.000529208527781   0.000156167623441 0
force C  -0.000169396405578   0.005335606216242  -0.000146580283122 0
force C   0.000244757122251  -0.000111822352973  -0.000128160981856 0
force C  -0.004770901354750  -0.002581800286611  -0.000072421410042 0
force C   0.004281497196921  -0.002057281897140  -0.001040074512619 0
force C  -0.001986796466483  -0.000890923952301  -0.000154371829051 0
force C  -0.000300751198640   0.000597220766215  -0.000158109976505 0
force C  -0.009735901327799   0.002504044193337   0.000534246641248 0
force C  -0.000288583717070   0.002083695233946  -0.000138146963416 0
force C  -0.000726701680874  -0.000020308923478  -0.000146080048075 0
force C  -0.007034597802155   0.007173785222825   0.000254156381151 0
force C  -0.000635050755054   0.000262465948887  -0.000141381140268 0
force C  -0.000849731307103   0.000838865267545  -0.000145467656985 0
force C  -0.000992787199871   0.000316909032148  -0.000141707176905 0
force C  -0.001828659303776   0.000974682784242  -0.000151927648777 0
force C  -0.000459482478780  -0.000089395811897  -0.000130857150454 0
force C  -0.003742793698453   0.000792224298115   0.000329394863767 0
force C   0.000230999779762  -0.000183534015544  -0.000117547721461 0
force C   0.000100091526583   0.001199411516597  -0.000503110460359 0
force C  -0.003511986383940   0.003126057421002  -0.000247132217552 0
force C   0.000183426057673  -0.000177872104005  -0.000116487487546 0
force C  -0.000241601651662  -0.001116138995868  -0.000074187110727 0
force C   0.000773762928551  -0.005748354340529  -0.000628554271342 0
force C   0.002026754440424   0.001028084598072   0.000495836969931 0
force C   0.000567193561809   0.000919897640998   0.000284742695917 0
force C   0.006917671546910   0.001381063676204  -0.000101627964237 0
force C   0.000140829293407  -0.002180541903510   0.000037205597751 0
force C  -0.001778670806852  -0.000951565282229  -0.000142222221674 0
force C  -0.001001507042185   0.000584112720447  -0.000134153426147 0
force C  -0.000089008035368   0.001937712843506  -0.000122493658606 0
force C   0.000483378372981  -0.005527243087262  -0.000427514100841 0
force C   0.004670665812389  -0.000008835791610  -0.000738452298273 0
force C  -0.000164087702917  -0.000006755069780   0.000108257857538 0
force C  -0.002585010480262  -0.000477244355048  -0.000335885726792 0
force C  -0.005734306099314   0.005238713702950  -0.001746681014338 0
force C  -0.001036603976671   0.002558053855079  -0.000578051486297 0
force C   0.002198253755357  -0.000767437140523  -0.000144711477381 0
force C  -0.000084441082920  -0.000678078714861  -0.000118462463149 0
force C   0.005840073057084   0.003109599423959   0.000404031801981 0
force C   0.001685058106967  -0.001507019115131  -0.000138837682221 0
force C   0.000598698498028   0.000514556488813  -0.000054626896503 0
force C   0.000427130512716  -0.006590083896099   0.000064227276700 0
force C   0.000851894623211   0.000854533594458  -0.000170429854529 0
force C  -0.000327363255352  -0.001123133166853  -0.000152036866461 0
force C  -0.004771259597138   0.002787357852440   0.000199593505839 0
force C   0.003354922211538   0.003692819485981  -0.000122900993201 0
force C   0.000331787159385  -0.000171038493329  -0.000136112011424 0
force C  -0.001503570627917  -0.004572588680670  -0.000122868876611 0
force N   0.000081804608692  -0.000107751460858  -0.001738112121050 0
force S   0.000686157674021  -0.001293024026701   0.001718564860472 1
force S   0.002071638838032   0.000588393437342   0.000153752730503 1
force S  -0.001867628885542  -0.000472184515167   0.000516379326121 1
force S  -0.000579260051222   0.001557986174261   0.001796896265459 1
force Na   0.002442732158764   0.004384539629086   0.001421502092732 1
force Na  -0.002722169059418  -0.004751030848906   0.001263848946302 1

# Energy components:
   A_diel =       -0.0441526894043209
   Eewald =     4953.6439585596499455
       EH =     5387.4912870815915085
     Eloc =   -10932.8828284672199516
      Enl =      -77.9026908053197502
     EvdW =       -0.1201678887155219
      Exc =     -162.7832944659827774
 Exc_core =        9.5505266921321361
       KE =      270.9498170098472087
-------------------------------------
     Etot =     -552.0975449734226004
       TS =        0.0657557712336335
-------------------------------------
        F =     -552.1633007446562260

IonicMinimize: Iter:   0  F: -552.163300744656226  |grad|_K:  2.089e-03  alpha:  1.000e+00

#--- Lowdin population analysis ---
# oxidation-state C +0.036 +0.037 +0.037 +0.037 +0.035 +0.037 +0.037 +0.036 +0.025 +0.037 +0.032 +0.024 +0.037 +0.037 +0.037 +0.030 +0.015 +0.035 +0.024 +0.011 +0.039 +0.016 -0.009 +0.037 +0.033 +0.034 +0.034 +0.023 +0.039 +0.038 +0.027 +0.039 +0.038 +0.027 +0.038 +0.037 +0.037 +0.039 +0.034 +0.032 +0.039 +0.028 +0.035 +0.039 +0.034 +0.135 +0.040 +0.029 +0.132 +0.039 +0.039 +0.036 +0.039 +0.010 -0.007 +0.040 +0.029 +0.018 +0.037 +0.040 +0.036 +0.044 +0.040 +0.035 +0.043 +0.037 +0.037 +0.140 +0.039 +0.037 +0.039
# oxidation-state N +0.002
# oxidation-state S -0.507 +0.044 +0.046 -0.495
# oxidation-state Na +0.819 +0.820


Computing DFT-D3 correction:
# coordination-number C 3.300 3.300 3.301 3.300 3.301 3.300 3.300 3.301 3.296 3.300 3.311 3.293 3.300 3.300 3.302 3.315 3.448 3.300 3.356 3.440 3.304 3.494 3.614 3.303 3.300 3.300 3.300 3.368 3.300 3.300 3.288 3.300 3.300 3.287 3.300 3.300 3.300 3.300 3.302 3.317 3.300 3.321 3.304 3.300 3.304 3.325 3.301 3.326 3.336 3.300 3.300 3.300 3.300 3.479 3.799 3.301 3.335 3.494 3.331 3.300 3.300 3.299 3.300 3.301 3.298 3.300 3.300 3.300 3.300 3.300 3.300
# coordination-number N 3.220
# coordination-number S 2.924 3.100 3.106 2.933
# coordination-number Na 4.546 4.395
# diagonal-C6 C 24.28 24.28 24.27 24.29 24.27 24.28 24.29 24.27 24.32 24.28 24.18 24.35 24.28 24.28 24.26 24.14 22.41 24.28 23.67 22.53 24.25 21.73 20.11 24.26 24.28 24.28 24.28 23.53 24.29 24.29 24.40 24.29 24.28 24.40 24.29 24.28 24.28 24.29 24.27 24.11 24.28 24.07 24.25 24.29 24.25 24.03 24.27 24.02 23.91 24.28 24.28 24.28 24.28 21.96 18.75 24.27 23.92 21.74 23.97 24.29 24.28 24.29 24.29 24.28 24.30 24.28 24.28 24.28 24.29 24.29 24.29
# diagonal-C6 N 15.60
# diagonal-C6 S 125.81 125.81 125.81 125.81
# diagonal-C6 Na 186.11 186.11
EvdW_6 =   -0.063709
EvdW_8 =   -0.056473

-------- Electronic minimization -----------
Will mix electronic density at each iteration.
	FillingsUpdate:  mu: -0.117085157  nElectrons: 331.000000
	Linear fluid (dielectric constant: 7.2) occupying 0.839778 of unit cell:	Completed after 4 iterations at t[s]:    317.25
	FillingsUpdate:  mu: -0.117035147  nElectrons: 331.000000
	Linear fluid (dielectric constant: 7.2) occupying 0.839777 of unit cell:	Completed after 4 iterations at t[s]:    320.64
SCF: Cycle:  0   F: -552.163371268004425   dF: +3.219e-06   |Residual|: 9.400e-04   |deigs|: 8.702e-07  t[s]:    320.80
	Linear fluid (dielectric constant: 7.2) occupying 0.839783 of unit cell:	Completed after 4 iterations at t[s]:    320.95
	FillingsUpdate:  mu: -0.117043319  nElectrons: 331.000000
	Linear fluid (dielectric constant: 7.2) occupying 0.839779 of unit cell:	Completed after 3 iterations at t[s]:    323.74
SCF: Cycle:  1   F: -552.163377260985158   dF: -5.993e-06   |Residual|: 2.976e-04   |deigs|: 3.274e-05  t[s]:    323.89
	Linear fluid (dielectric constant: 7.2) occupying 0.839785 of unit cell:	Completed after 3 iterations at t[s]:    324.02
	FillingsUpdate:  mu: -0.117043365  nElectrons: 331.000000
	Linear fluid (dielectric constant: 7.2) occupying 0.839780 of unit cell:	Completed after 2 iterations at t[s]:    326.81
SCF: Cycle:  2   F: -552.163377763285098   dF: -5.023e-07   |Residual|: 1.541e-04   |deigs|: 9.594e-06  t[s]:    326.96
	Linear fluid (dielectric constant: 7.2) occupying 0.839785 of unit cell:	Completed after 2 iterations at t[s]:    327.08
	FillingsUpdate:  mu: -0.117047398  nElectrons: 331.000000
	Linear fluid (dielectric constant: 7.2) occupying 0.839780 of unit cell:	Completed after 2 iterations at t[s]:    329.84
SCF: Cycle:  3   F: -552.163377883885801   dF: -1.206e-07   |Residual|: 7.365e-05   |deigs|: 1.251e-05  t[s]:    329.99
	Linear fluid (dielectric constant: 7.2) occupying 0.839783 of unit cell:	Completed after 2 iterations at t[s]:    330.11
	FillingsUpdate:  mu: -0.117047267  nElectrons: 331.000000
	Linear fluid (dielectric constant: 7.2) occupying 0.839780 of unit cell:	Completed after 2 iterations at t[s]:    332.85
SCF: Cycle:  4   F: -552.163377893508255   dF: -9.622e-09   |Residual|: 3.993e-05   |deigs|: 1.152e-05  t[s]:    333.00
	Linear fluid (dielectric constant: 7.2) occupying 0.839779 of unit cell:	Completed after 2 iterations at t[s]:    333.12
	FillingsUpdate:  mu: -0.117048171  nElectrons: 331.000000
	Linear fluid (dielectric constant: 7.2) occupying 0.839780 of unit cell:	Completed after 1 iterations at t[s]:    336.83
SCF: Cycle:  5   F: -552.163377920114954   dF: -2.661e-08   |Residual|: 2.560e-05   |deigs|: 1.443e-05  t[s]:    336.98
	Linear fluid (dielectric constant: 7.2) occupying 0.839776 of unit cell:	Completed after 1 iterations at t[s]:    337.10
	FillingsUpdate:  mu: -0.117046383  nElectrons: 331.000000
	Linear fluid (dielectric constant: 7.2) occupying 0.839780 of unit cell:	Completed after 1 iterations at t[s]:    340.84
SCF: Cycle:  6   F: -552.163377929261628   dF: -9.147e-09   |Residual|: 2.224e-05   |deigs|: 2.096e-05  t[s]:    340.98
	Linear fluid (dielectric constant: 7.2) occupying 0.839776 of unit cell:	Completed after 0 iterations at t[s]:    341.09
	FillingsUpdate:  mu: -0.117045930  nElectrons: 331.000000
	Linear fluid (dielectric constant: 7.2) occupying 0.839780 of unit cell:	Completed after 1 iterations at t[s]:    344.78
SCF: Cycle:  7   F: -552.163377912313535   dF: +1.695e-08   |Residual|: 4.508e-05   |deigs|: 1.496e-05  t[s]:    344.92
	Linear fluid (dielectric constant: 7.2) occupying 0.839775 of unit cell:	Completed after 1 iterations at t[s]:    345.03
	FillingsUpdate:  mu: -0.117045649  nElectrons: 331.000000
	Linear fluid (dielectric constant: 7.2) occupying 0.839780 of unit cell:	Completed after 0 iterations at t[s]:    348.70
SCF: Cycle:  8   F: -552.163377942020929   dF: -2.971e-08   |Residual|: 1.411e-05   |deigs|: 1.564e-05  t[s]:    348.83
	Linear fluid (dielectric constant: 7.2) occupying 0.839776 of unit cell:	Completed after 0 iterations at t[s]:    348.94
	FillingsUpdate:  mu: -0.117046824  nElectrons: 331.000000
	Linear fluid (dielectric constant: 7.2) occupying 0.839780 of unit cell:	Completed after 1 iterations at t[s]:    352.52
SCF: Cycle:  9   F: -552.163377939490033   dF: +2.531e-09   |Residual|: 2.826e-05   |deigs|: 2.280e-05  t[s]:    352.66
	Linear fluid (dielectric constant: 7.2) occupying 0.839777 of unit cell:	Completed after 1 iterations at t[s]:    352.78
	FillingsUpdate:  mu: -0.117044584  nElectrons: 331.000000
	Linear fluid (dielectric constant: 7.2) occupying 0.839780 of unit cell:	Completed after 1 iterations at t[s]:    356.48
SCF: Cycle: 10   F: -552.163377940026407   dF: -5.364e-10   |Residual|: 2.924e-05   |deigs|: 1.931e-05  t[s]:    356.62
	Linear fluid (dielectric constant: 7.2) occupying 0.839779 of unit cell:	Completed after 1 iterations at t[s]:    356.74
	FillingsUpdate:  mu: -0.117043782  nElectrons: 331.000000
	Linear fluid (dielectric constant: 7.2) occupying 0.839780 of unit cell:	Completed after 1 iterations at t[s]:    360.50
SCF: Cycle: 11   F: -552.163377943080036   dF: -3.054e-09   |Residual|: 2.444e-05   |deigs|: 1.106e-05  t[s]:    360.64
SCF: Converged (|Delta E|<1.000000e-08 for 2 iters).

Setting wave functions to eigenvectors of Hamiltonian
IonicMinimize: 	Predicted alpha/alphaT>3.000000, increasing alphaT to 3.000000e+00.

Computing DFT-D3 correction:
# coordination-number C 3.300 3.300 3.301 3.300 3.301 3.300 3.300 3.301 3.296 3.300 3.311 3.293 3.300 3.300 3.302 3.315 3.449 3.300 3.357 3.438 3.304 3.493 3.613 3.303 3.300 3.300 3.300 3.367 3.300 3.300 3.288 3.300 3.300 3.287 3.300 3.300 3.300 3.300 3.302 3.317 3.300 3.321 3.304 3.300 3.304 3.324 3.301 3.326 3.336 3.300 3.300 3.300 3.300 3.479 3.797 3.301 3.335 3.491 3.330 3.300 3.300 3.299 3.300 3.301 3.298 3.300 3.300 3.300 3.300 3.300 3.300
# coordination-number N 3.220
# coordination-number S 2.919 3.096 3.101 2.929
# coordination-number Na 4.521 4.370
# diagonal-C6 C 24.28 24.28 24.27 24.29 24.27 24.28 24.29 24.27 24.32 24.28 24.17 24.35 24.28 24.28 24.26 24.14 22.41 24.28 23.67 22.56 24.25 21.75 20.13 24.26 24.28 24.28 24.28 23.54 24.29 24.29 24.40 24.29 24.28 24.40 24.29 24.28 24.28 24.29 24.27 24.11 24.28 24.07 24.25 24.29 24.25 24.04 24.27 24.02 23.91 24.28 24.28 24.28 24.28 21.95 18.76 24.27 23.92 21.77 23.97 24.29 24.28 24.29 24.29 24.28 24.30 24.28 24.28 24.28 24.29 24.29 24.29
# diagonal-C6 N 15.60
# diagonal-C6 S 125.81 125.81 125.81 125.81
# diagonal-C6 Na 186.11 186.11
EvdW_6 =   -0.063713
EvdW_8 =   -0.056497

-------- Electronic minimization -----------
Will mix electronic density at each iteration.
	FillingsUpdate:  mu: -0.117043782  nElectrons: 331.000000
	Linear fluid (dielectric constant: 7.2) occupying 0.839762 of unit cell:	Completed after 5 iterations at t[s]:    365.94
	FillingsUpdate:  mu: -0.116929002  nElectrons: 331.000000
	Linear fluid (dielectric constant: 7.2) occupying 0.839758 of unit cell:	Completed after 5 iterations at t[s]:    370.30
SCF: Cycle:  0   F: -552.163503696834027   dF: +7.155e-06   |Residual|: 1.755e-03   |deigs|: 1.775e-06  t[s]:    370.46
	Linear fluid (dielectric constant: 7.2) occupying 0.839773 of unit cell:	Completed after 5 iterations at t[s]:    370.62
	FillingsUpdate:  mu: -0.116946598  nElectrons: 331.000000
	Linear fluid (dielectric constant: 7.2) occupying 0.839762 of unit cell:	Completed after 4 iterations at t[s]:    373.43
SCF: Cycle:  1   F: -552.163522138282246   dF: -1.844e-05   |Residual|: 5.891e-04   |deigs|: 5.343e-05  t[s]:    373.59
	Linear fluid (dielectric constant: 7.2) occupying 0.839777 of unit cell:	Completed after 4 iterations at t[s]:    373.73
	FillingsUpdate:  mu: -0.116950452  nElectrons: 331.000000
	Linear fluid (dielectric constant: 7.2) occupying 0.839765 of unit cell:	Completed after 4 iterations at t[s]:    376.54
SCF: Cycle:  2   F: -552.163523893281308   dF: -1.755e-06   |Residual|: 2.824e-04   |deigs|: 1.873e-05  t[s]:    376.70
	Linear fluid (dielectric constant: 7.2) occupying 0.839778 of unit cell:	Completed after 4 iterations at t[s]:    376.85
	FillingsUpdate:  mu: -0.116951546  nElectrons: 331.000000
	Linear fluid (dielectric constant: 7.2) occupying 0.839765 of unit cell:	Completed after 3 iterations at t[s]:    379.65
SCF: Cycle:  3   F: -552.163524229824588   dF: -3.365e-07   |Residual|: 1.310e-04   |deigs|: 1.882e-05  t[s]:    379.80
	Linear fluid (dielectric constant: 7.2) occupying 0.839772 of unit cell:	Completed after 3 iterations at t[s]:    379.93
	FillingsUpdate:  mu: -0.116951512  nElectrons: 331.000000
	Linear fluid (dielectric constant: 7.2) occupying 0.839765 of unit cell:	Completed after 2 iterations at t[s]:    382.67
SCF: Cycle:  4   F: -552.163524357871893   dF: -1.280e-07   |Residual|: 6.642e-05   |deigs|: 2.247e-05  t[s]:    382.82
	Linear fluid (dielectric constant: 7.2) occupying 0.839763 of unit cell:	Completed after 2 iterations at t[s]:    382.95
	FillingsUpdate:  mu: -0.116958338  nElectrons: 331.000000
	Linear fluid (dielectric constant: 7.2) occupying 0.839765 of unit cell:	Completed after 2 iterations at t[s]:    386.72
SCF: Cycle:  5   F: -552.163524421113607   dF: -6.324e-08   |Residual|: 4.330e-05   |deigs|: 3.118e-05  t[s]:    386.86
	Linear fluid (dielectric constant: 7.2) occupying 0.839759 of unit cell:	Completed after 2 iterations at t[s]:    386.99
	FillingsUpdate:  mu: -0.116957462  nElectrons: 331.000000
	Linear fluid (dielectric constant: 7.2) occupying 0.839765 of unit cell:	Completed after 2 iterations at t[s]:    390.61
SCF: Cycle:  6   F: -552.163524438816239   dF: -1.770e-08   |Residual|: 3.486e-05   |deigs|: 2.526e-05  t[s]:    390.76
	Linear fluid (dielectric constant: 7.2) occupying 0.839757 of unit cell:	Completed after 2 iterations at t[s]:    390.88
	FillingsUpdate:  mu: -0.116957676  nElectrons: 331.000000
	Linear fluid (dielectric constant: 7.2) occupying 0.839765 of unit cell:	Completed after 2 iterations at t[s]:    394.59
SCF: Cycle:  7   F: -552.163524456868231   dF: -1.805e-08   |Residual|: 2.777e-05   |deigs|: 1.981e-05  t[s]:    394.74
	Linear fluid (dielectric constant: 7.2) occupying 0.839756 of unit cell:	Completed after 1 iterations at t[s]:    394.85
	FillingsUpdate:  mu: -0.116953058  nElectrons: 331.000000
	Linear fluid (dielectric constant: 7.2) occupying 0.839765 of unit cell:	Completed after 1 iterations at t[s]:    398.56
SCF: Cycle:  8   F: -552.163524480401975   dF: -2.353e-08   |Residual|: 3.442e-05   |deigs|: 5.252e-05  t[s]:    398.70
	Linear fluid (dielectric constant: 7.2) occupying 0.839758 of unit cell:	Completed after 1 iterations at t[s]:    398.82
	FillingsUpdate:  mu: -0.116951708  nElectrons: 331.000000
	Linear fluid (dielectric constant: 7.2) occupying 0.839764 of unit cell:	Completed after 1 iterations at t[s]:    402.51
SCF: Cycle:  9   F: -552.163524487109726   dF: -6.708e-09   |Residual|: 3.133e-05   |deigs|: 2.715e-05  t[s]:    402.65
	Linear fluid (dielectric constant: 7.2) occupying 0.839761 of unit cell:	Completed after 1 iterations at t[s]:    402.77
	FillingsUpdate:  mu: -0.116951379  nElectrons: 331.000000
	Linear fluid (dielectric constant: 7.2) occupying 0.839764 of unit cell:	Completed after 0 iterations at t[s]:    406.45
SCF: Cycle: 10   F: -552.163524502252585   dF: -1.514e-08   |Residual|: 1.729e-05   |deigs|: 3.178e-05  t[s]:    406.59
	Linear fluid (dielectric constant: 7.2) occupying 0.839764 of unit cell:	Completed after 0 iterations at t[s]:    406.70
	FillingsUpdate:  mu: -0.116953602  nElectrons: 331.000000
	Linear fluid (dielectric constant: 7.2) occupying 0.839765 of unit cell:	Completed after 0 iterations at t[s]:    410.36
SCF: Cycle: 11   F: -552.163524506085651   dF: -3.833e-09   |Residual|: 1.253e-05   |deigs|: 1.559e-05  t[s]:    410.50
	Linear fluid (dielectric constant: 7.2) occupying 0.839768 of unit cell:	Completed after 0 iterations at t[s]:    410.61
	FillingsUpdate:  mu: -0.116952621  nElectrons: 331.000000
	Linear fluid (dielectric constant: 7.2) occupying 0.839765 of unit cell:	Completed after 1 iterations at t[s]:    414.38
SCF: Cycle: 12   F: -552.163524502257928   dF: +3.828e-09   |Residual|: 2.026e-05   |deigs|: 1.811e-05  t[s]:    414.52
	Linear fluid (dielectric constant: 7.2) occupying 0.839771 of unit cell:	Completed after 0 iterations at t[s]:    414.63
	FillingsUpdate:  mu: -0.116950675  nElectrons: 331.000000
	Linear fluid (dielectric constant: 7.2) occupying 0.839765 of unit cell:	Completed after 0 iterations at t[s]:    418.35
SCF: Cycle: 13   F: -552.163524505548480   dF: -3.291e-09   |Residual|: 1.319e-05   |deigs|: 1.924e-05  t[s]:    418.48
	Linear fluid (dielectric constant: 7.2) occupying 0.839772 of unit cell:	Completed after 0 iterations at t[s]:    418.59
	FillingsUpdate:  mu: -0.116949904  nElectrons: 331.000000
	Linear fluid (dielectric constant: 7.2) occupying 0.839765 of unit cell:	Completed after 1 iterations at t[s]:    422.30
SCF: Cycle: 14   F: -552.163524500456788   dF: +5.092e-09   |Residual|: 2.407e-05   |deigs|: 1.741e-05  t[s]:    422.44
	Linear fluid (dielectric constant: 7.2) occupying 0.839771 of unit cell:	Completed after 0 iterations at t[s]:    422.55
	FillingsUpdate:  mu: -0.116948170  nElectrons: 331.000000
	Linear fluid (dielectric constant: 7.2) occupying 0.839766 of unit cell:	Completed after 0 iterations at t[s]:    426.28
SCF: Cycle: 15   F: -552.163524502697896   dF: -2.241e-09   |Residual|: 2.251e-05   |deigs|: 2.595e-05  t[s]:    426.42
	Linear fluid (dielectric constant: 7.2) occupying 0.839769 of unit cell:	Completed after 0 iterations at t[s]:    426.52
	FillingsUpdate:  mu: -0.116946666  nElectrons: 331.000000
	Linear fluid (dielectric constant: 7.2) occupying 0.839765 of unit cell:	Completed after 1 iterations at t[s]:    430.29
SCF: Cycle: 16   F: -552.163524485790276   dF: +1.691e-08   |Residual|: 4.489e-05   |deigs|: 4.462e-05  t[s]:    430.43
	Linear fluid (dielectric constant: 7.2) occupying 0.839767 of unit cell:	Completed after 1 iterations at t[s]:    430.55
	FillingsUpdate:  mu: -0.116947428  nElectrons: 331.000000
	Linear fluid (dielectric constant: 7.2) occupying 0.839765 of unit cell:	Completed after 0 iterations at t[s]:    434.26
SCF: Cycle: 17   F: -552.163524508158616   dF: -2.237e-08   |Residual|: 1.450e-05   |deigs|: 3.535e-05  t[s]:    434.40
	Linear fluid (dielectric constant: 7.2) occupying 0.839767 of unit cell:	Completed after 0 iterations at t[s]:    434.50
	FillingsUpdate:  mu: -0.116947650  nElectrons: 331.000000
	Linear fluid (dielectric constant: 7.2) occupying 0.839765 of unit cell:	Completed after 0 iterations at t[s]:    437.25
SCF: Cycle: 18   F: -552.163524508261162   dF: -1.025e-10   |Residual|: 1.197e-05   |deigs|: 1.397e-06  t[s]:    437.39
	Linear fluid (dielectric constant: 7.2) occupying 0.839766 of unit cell:	Completed after 0 iterations at t[s]:    437.49
	FillingsUpdate:  mu: -0.116948526  nElectrons: 331.000000
	Linear fluid (dielectric constant: 7.2) occupying 0.839765 of unit cell:	Completed after 0 iterations at t[s]:    441.53
SCF: Cycle: 19   F: -552.163524509279000   dF: -1.018e-09   |Residual|: 9.377e-06   |deigs|: 3.008e-05  t[s]:    441.67
SCF: Converged (|Delta E|<1.000000e-08 for 2 iters).

Setting wave functions to eigenvectors of Hamiltonian
IonicMinimize: 	Predicted alpha/alphaT>3.000000, increasing alphaT to 9.000000e+00.

Computing DFT-D3 correction:
# coordination-number C 3.300 3.300 3.301 3.300 3.302 3.300 3.300 3.301 3.296 3.300 3.311 3.293 3.300 3.300 3.302 3.315 3.450 3.300 3.357 3.433 3.304 3.490 3.608 3.303 3.300 3.300 3.300 3.365 3.300 3.300 3.287 3.300 3.300 3.287 3.300 3.300 3.300 3.300 3.302 3.317 3.300 3.322 3.304 3.300 3.304 3.324 3.301 3.326 3.336 3.300 3.300 3.300 3.300 3.481 3.790 3.301 3.335 3.484 3.330 3.300 3.300 3.299 3.300 3.301 3.298 3.300 3.300 3.300 3.300 3.300 3.300
# coordination-number N 3.220
# coordination-number S 2.905 3.082 3.086 2.916
# coordination-number Na 4.447 4.295
# diagonal-C6 C 24.28 24.28 24.27 24.29 24.27 24.28 24.29 24.27 24.32 24.28 24.17 24.35 24.28 24.28 24.26 24.13 22.39 24.28 23.66 22.64 24.25 21.79 20.18 24.26 24.28 24.28 24.28 23.57 24.29 24.29 24.40 24.29 24.28 24.40 24.29 24.28 24.28 24.29 24.27 24.11 24.28 24.06 24.25 24.29 24.25 24.04 24.27 24.02 23.91 24.28 24.28 24.28 24.28 21.92 18.79 24.27 23.92 21.89 23.98 24.29 24.28 24.29 24.29 24.28 24.30 24.28 24.28 24.28 24.29 24.29 24.29
# diagonal-C6 N 15.60
# diagonal-C6 S 125.81 125.81 125.81 125.81
# diagonal-C6 Na 186.11 186.11
EvdW_6 =   -0.063726
EvdW_8 =   -0.056569

-------- Electronic minimization -----------
Will mix electronic density at each iteration.
	FillingsUpdate:  mu: -0.116948526  nElectrons: 331.000000
	Linear fluid (dielectric constant: 7.2) occupying 0.839764 of unit cell:	Completed after 9 iterations at t[s]:    445.24
	FillingsUpdate:  mu: -0.114330588  nElectrons: 331.000000
	Linear fluid (dielectric constant: 7.2) occupying 0.839328 of unit cell:	Completed after 9 iterations at t[s]:    450.27
SCF: Cycle:  0   F: -552.148867816495908   dF: -2.774e-02   |Residual|: 9.578e-02   |deigs|: 5.618e-04  t[s]:    450.44
	Linear fluid (dielectric constant: 7.2) occupying 0.840844 of unit cell:	Completed after 12 iterations at t[s]:    450.68
	FillingsUpdate:  mu: -0.114509146  nElectrons: 331.000000
	Linear fluid (dielectric constant: 7.2) occupying 0.839466 of unit cell:	Completed after 10 iterations at t[s]:    455.09
SCF: Cycle:  1   F: -552.159630225244427   dF: -1.076e-02   |Residual|: 4.543e-02   |deigs|: 1.353e-03  t[s]:    455.26
	Linear fluid (dielectric constant: 7.2) occupying 0.841557 of unit cell:	Completed after 12 iterations at t[s]:    455.50
	FillingsUpdate:  mu: -0.114904081  nElectrons: 331.000000
	Linear fluid (dielectric constant: 7.2) occupying 0.839707 of unit cell:	Completed after 10 iterations at t[s]:    459.92
SCF: Cycle:  2   F: -552.163154369546419   dF: -3.524e-03   |Residual|: 9.721e-03   |deigs|: 1.046e-03  t[s]:    460.08
	Linear fluid (dielectric constant: 7.2) occupying 0.841581 of unit cell:	Completed after 11 iterations at t[s]:    460.31
	FillingsUpdate:  mu: -0.115070703  nElectrons: 331.000000
	Linear fluid (dielectric constant: 7.2) occupying 0.839687 of unit cell:	Completed after 10 iterations at t[s]:    464.77
SCF: Cycle:  3   F: -552.163404068804766   dF: -2.497e-04   |Residual|: 4.802e-03   |deigs|: 3.911e-04  t[s]:    464.94
	Linear fluid (dielectric constant: 7.2) occupying 0.841325 of unit cell:	Completed after 10 iterations at t[s]:    465.16
	FillingsUpdate:  mu: -0.115444399  nElectrons: 331.000000
	Linear fluid (dielectric constant: 7.2) occupying 0.839705 of unit cell:	Completed after 10 iterations at t[s]:    469.60
SCF: Cycle:  4   F: -552.163657122524569   dF: -2.531e-04   |Residual|: 2.240e-03   |deigs|: 7.352e-04  t[s]:    469.77
	Linear fluid (dielectric constant: 7.2) occupying 0.840995 of unit cell:	Completed after 9 iterations at t[s]:    469.98
	FillingsUpdate:  mu: -0.115653259  nElectrons: 331.000000
	Linear fluid (dielectric constant: 7.2) occupying 0.839717 of unit cell:	Completed after 9 iterations at t[s]:    474.41
SCF: Cycle:  5   F: -552.163754549205919   dF: -9.743e-05   |Residual|: 1.502e-03   |deigs|: 3.648e-04  t[s]:    474.58
	Linear fluid (dielectric constant: 7.2) occupying 0.840421 of unit cell:	Completed after 8 iterations at t[s]:    474.78
	FillingsUpdate:  mu: -0.115906831  nElectrons: 331.000000
	Linear fluid (dielectric constant: 7.2) occupying 0.839728 of unit cell:	Completed after 8 iterations at t[s]:    479.23
SCF: Cycle:  6   F: -552.163831216817243   dF: -7.667e-05   |Residual|: 8.334e-04   |deigs|: 4.054e-04  t[s]:    479.41
	Linear fluid (dielectric constant: 7.2) occupying 0.839927 of unit cell:	Completed after 8 iterations at t[s]:    479.60
	FillingsUpdate:  mu: -0.116112817  nElectrons: 331.000000
	Linear fluid (dielectric constant: 7.2) occupying 0.839727 of unit cell:	Completed after 8 iterations at t[s]:    483.87
SCF: Cycle:  7   F: -552.163868032953360   dF: -3.682e-05   |Residual|: 5.868e-04   |deigs|: 3.975e-04  t[s]:    484.03
	Linear fluid (dielectric constant: 7.2) occupying 0.839452 of unit cell:	Completed after 7 iterations at t[s]:    484.21
	FillingsUpdate:  mu: -0.116311805  nElectrons: 331.000000
	Linear fluid (dielectric constant: 7.2) occupying 0.839715 of unit cell:	Completed after 7 iterations at t[s]:    488.60
SCF: Cycle:  8   F: -552.163889016072631   dF: -2.098e-05   |Residual|: 4.686e-04   |deigs|: 5.274e-04  t[s]:    488.77
	Linear fluid (dielectric constant: 7.2) occupying 0.839222 of unit cell:	Completed after 6 iterations at t[s]:    488.94
	FillingsUpdate:  mu: -0.116503801  nElectrons: 331.000000
	Linear fluid (dielectric constant: 7.2) occupying 0.839708 of unit cell:	Completed after 6 iterations at t[s]:    492.73
SCF: Cycle:  9   F: -552.163897763478644   dF: -8.747e-06   |Residual|: 3.744e-04   |deigs|: 6.746e-04  t[s]:    492.90
	Linear fluid (dielectric constant: 7.2) occupying 0.839238 of unit cell:	Completed after 7 iterations at t[s]:    493.09
	FillingsUpdate:  mu: -0.116604935  nElectrons: 331.000000
	Linear fluid (dielectric constant: 7.2) occupying 0.839706 of unit cell:	Completed after 6 iterations at t[s]:    496.87
SCF: Cycle: 10   F: -552.163898143525671   dF: -3.800e-07   |Residual|: 3.862e-04   |deigs|: 4.725e-04  t[s]:    497.04
[...]
	Linear fluid (dielectric constant: 7.2) occupying 0.838775 of unit cell:	Completed after 0 iterations at t[s]:   7327.73
	FillingsUpdate:  mu: -0.108795946  nElectrons: 331.000000
	Linear fluid (dielectric constant: 7.2) occupying 0.838777 of unit cell:	Completed after 0 iterations at t[s]:   7330.52
SCF: Cycle: 22   F: -552.168658022374416   dF: -2.130e-10   |Residual|: 1.332e-05   |deigs|: 1.752e-06  t[s]:   7330.65
SCF: Converged (|Delta E|<1.000000e-08 for 2 iters).

Setting wave functions to eigenvectors of Hamiltonian

Computing DFT-D3 correction:
# coordination-number C 3.300 3.300 3.301 3.300 3.302 3.300 3.300 3.301 3.293 3.300 3.308 3.290 3.300 3.300 3.301 3.313 3.374 3.300 3.338 3.320 3.302 3.342 3.384 3.302 3.300 3.300 3.300 3.323 3.300 3.300 3.287 3.300 3.300 3.287 3.300 3.300 3.301 3.300 3.302 3.312 3.300 3.318 3.303 3.300 3.304 3.310 3.300 3.312 3.313 3.300 3.300 3.300 3.300 3.395 3.424 3.301 3.319 3.343 3.310 3.300 3.300 3.298 3.300 3.301 3.298 3.300 3.300 3.299 3.300 3.300 3.300
# coordination-number N 3.216
# coordination-number S 2.858 2.580 2.590 2.864
# coordination-number Na 2.748 2.832
# diagonal-C6 C 24.28 24.28 24.27 24.29 24.27 24.28 24.29 24.27 24.35 24.28 24.20 24.37 24.28 24.28 24.27 24.16 23.46 24.28 23.88 24.08 24.26 23.84 23.32 24.26 24.29 24.28 24.28 24.06 24.29 24.29 24.40 24.29 24.28 24.40 24.29 24.28 24.28 24.29 24.27 24.16 24.29 24.10 24.25 24.29 24.25 24.18 24.28 24.17 24.15 24.28 24.28 24.28 24.28 23.18 22.77 24.28 24.10 23.83 24.19 24.29 24.28 24.30 24.29 24.28 24.30 24.28 24.28 24.29 24.29 24.29 24.29
# diagonal-C6 N 15.60
# diagonal-C6 S 125.81 125.81 125.81 125.81
# diagonal-C6 Na 186.11 186.11
EvdW_6 =   -0.064108
EvdW_8 =   -0.057187

-------- Electronic minimization -----------
Will mix electronic density at each iteration.
	FillingsUpdate:  mu: -0.108795946  nElectrons: 331.000000
	Linear fluid (dielectric constant: 7.2) occupying 0.838780 of unit cell:	Completed after 4 iterations at t[s]:   7335.84
	FillingsUpdate:  mu: -0.108807316  nElectrons: 331.000000
	Linear fluid (dielectric constant: 7.2) occupying 0.838780 of unit cell:	Completed after 2 iterations at t[s]:   7339.31
SCF: Cycle:  0   F: -552.168657777910425   dF: -2.092e-06   |Residual|: 5.701e-04   |deigs|: 2.044e-07  t[s]:   7339.46
	Linear fluid (dielectric constant: 7.2) occupying 0.838775 of unit cell:	Completed after 2 iterations at t[s]:   7339.58
	FillingsUpdate:  mu: -0.108810387  nElectrons: 331.000000
	Linear fluid (dielectric constant: 7.2) occupying 0.838782 of unit cell:	Completed after 2 iterations at t[s]:   7342.37
SCF: Cycle:  1   F: -552.168658498721697   dF: -7.208e-07   |Residual|: 2.368e-04   |deigs|: 7.944e-06  t[s]:   7342.52
	Linear fluid (dielectric constant: 7.2) occupying 0.838772 of unit cell:	Completed after 2 iterations at t[s]:   7342.63
	FillingsUpdate:  mu: -0.108809113  nElectrons: 331.000000
	Linear fluid (dielectric constant: 7.2) occupying 0.838782 of unit cell:	Completed after 1 iterations at t[s]:   7345.43
SCF: Cycle:  2   F: -552.168658594390195   dF: -9.567e-08   |Residual|: 8.779e-05   |deigs|: 6.618e-06  t[s]:   7345.57
	Linear fluid (dielectric constant: 7.2) occupying 0.838770 of unit cell:	Completed after 1 iterations at t[s]:   7345.68
	FillingsUpdate:  mu: -0.108806359  nElectrons: 331.000000
	Linear fluid (dielectric constant: 7.2) occupying 0.838781 of unit cell:	Completed after 0 iterations at t[s]:   7348.45
SCF: Cycle:  3   F: -552.168658615796630   dF: -2.141e-08   |Residual|: 3.754e-05   |deigs|: 8.486e-06  t[s]:   7348.58
	Linear fluid (dielectric constant: 7.2) occupying 0.838772 of unit cell:	Completed after 0 iterations at t[s]:   7348.68
	FillingsUpdate:  mu: -0.108806777  nElectrons: 331.000000
	Linear fluid (dielectric constant: 7.2) occupying 0.838781 of unit cell:	Completed after 1 iterations at t[s]:   7351.44
SCF: Cycle:  4   F: -552.168658607667339   dF: +8.129e-09   |Residual|: 3.288e-05   |deigs|: 8.365e-06  t[s]:   7351.58
	Linear fluid (dielectric constant: 7.2) occupying 0.838773 of unit cell:	Completed after 1 iterations at t[s]:   7351.69
	FillingsUpdate:  mu: -0.108805145  nElectrons: 331.000000
	Linear fluid (dielectric constant: 7.2) occupying 0.838781 of unit cell:	Completed after 0 iterations at t[s]:   7354.46
SCF: Cycle:  5   F: -552.168658619089001   dF: -1.142e-08   |Residual|: 2.163e-05   |deigs|: 5.467e-06  t[s]:   7354.60
	Linear fluid (dielectric constant: 7.2) occupying 0.838774 of unit cell:	Completed after 0 iterations at t[s]:   7354.70
	FillingsUpdate:  mu: -0.108805367  nElectrons: 331.000000
	Linear fluid (dielectric constant: 7.2) occupying 0.838781 of unit cell:	Completed after 1 iterations at t[s]:   7357.47
SCF: Cycle:  6   F: -552.168658609062163   dF: +1.003e-08   |Residual|: 3.173e-05   |deigs|: 6.541e-06  t[s]:   7357.61
	Linear fluid (dielectric constant: 7.2) occupying 0.838777 of unit cell:	Completed after 1 iterations at t[s]:   7357.72
	FillingsUpdate:  mu: -0.108803937  nElectrons: 331.000000
	Linear fluid (dielectric constant: 7.2) occupying 0.838781 of unit cell:	Completed after 0 iterations at t[s]:   7361.51
SCF: Cycle:  7   F: -552.168658624284376   dF: -1.522e-08   |Residual|: 1.377e-05   |deigs|: 1.352e-05  t[s]:   7361.64
	Linear fluid (dielectric constant: 7.2) occupying 0.838779 of unit cell:	Completed after 0 iterations at t[s]:   7361.75
	FillingsUpdate:  mu: -0.108804266  nElectrons: 331.000000
	Linear fluid (dielectric constant: 7.2) occupying 0.838781 of unit cell:	Completed after 0 iterations at t[s]:   7365.55
SCF: Cycle:  8   F: -552.168658624634077   dF: -3.497e-10   |Residual|: 1.536e-05   |deigs|: 1.330e-05  t[s]:   7365.69
	Linear fluid (dielectric constant: 7.2) occupying 0.838781 of unit cell:	Completed after 0 iterations at t[s]:   7365.79
	FillingsUpdate:  mu: -0.108804186  nElectrons: 331.000000
	Linear fluid (dielectric constant: 7.2) occupying 0.838781 of unit cell:	Completed after 0 iterations at t[s]:   7369.61
SCF: Cycle:  9   F: -552.168658625862122   dF: -1.228e-09   |Residual|: 1.555e-05   |deigs|: 7.675e-06  t[s]:   7369.75
SCF: Converged (|Delta E|<1.000000e-08 for 2 iters).

Setting wave functions to eigenvectors of Hamiltonian

Computing DFT-D3 correction:
# coordination-number C 3.300 3.300 3.301 3.300 3.302 3.300 3.300 3.301 3.293 3.300 3.308 3.290 3.300 3.300 3.301 3.313 3.374 3.300 3.338 3.320 3.302 3.342 3.384 3.302 3.300 3.300 3.300 3.323 3.300 3.300 3.287 3.300 3.300 3.287 3.300 3.300 3.301 3.300 3.302 3.312 3.300 3.318 3.303 3.300 3.304 3.310 3.300 3.312 3.313 3.300 3.300 3.300 3.300 3.395 3.424 3.301 3.319 3.343 3.310 3.300 3.300 3.298 3.300 3.301 3.298 3.300 3.300 3.299 3.300 3.300 3.300
# coordination-number N 3.216
# coordination-number S 2.858 2.580 2.590 2.864
# coordination-number Na 2.748 2.832
# diagonal-C6 C 24.28 24.28 24.27 24.29 24.27 24.28 24.29 24.27 24.35 24.28 24.20 24.37 24.28 24.28 24.27 24.16 23.46 24.28 23.88 24.08 24.26 23.84 23.32 24.26 24.29 24.28 24.28 24.06 24.29 24.29 24.40 24.29 24.28 24.40 24.29 24.28 24.28 24.29 24.27 24.16 24.29 24.10 24.25 24.29 24.25 24.18 24.28 24.17 24.15 24.28 24.28 24.28 24.28 23.18 22.77 24.28 24.10 23.83 24.19 24.29 24.28 24.30 24.29 24.28 24.30 24.28 24.28 24.29 24.29 24.29 24.29
# diagonal-C6 N 15.60
# diagonal-C6 S 125.81 125.81 125.81 125.81
# diagonal-C6 Na 186.11 186.11
EvdW_6 =   -0.064108
EvdW_8 =   -0.057187

# Ionic positions in cartesian coordinates:
ion C -14.002918197300012  24.253758582300001   2.000000000000000 0
ion C  -2.333816550000000   4.042302545699999   2.000000000000000 0
ion C  11.669101647300000  20.211493831199999   2.000000000000000 0
ion C  -9.335266200000008  24.253758582300001   2.000000000000000 0
ion C   9.335303994599993  24.253758582300001   2.000000000000000 0
ion C   2.333816549999999   4.042302545699999   2.000000000000000 0
ion C -11.669120544600000  20.211493831199999   2.000000000000000 0
ion C  -4.667651997299999   8.084605091399998   2.000000000000000 0
ion C   9.335285097299998  16.169191285499998   2.000000000000000 0
ion C  -4.667614202700010  24.253758582300001   2.000000000000000 0
ion C   4.667651997299995  24.253758582300001   2.000000000000000 0
ion C   4.667651997299999   8.084605091399998   2.000000000000000 0
ion C  -9.335303994599998  16.169191285499998   2.000000000000000 0
ion C  -7.001468547300001  12.126907637100000   2.000000000000000 0
ion C   0.000037794599988  24.253758582300001   2.000000000000000 0
ion C   0.000000000000000   8.084605091399998   2.000000000000000 0
ion C   7.001449650000005  20.211493831199999   2.000000000000000 0
ion C  -7.001468547300000  20.211493831199999   2.000000000000000 0
ion C  -2.333816549999999  12.126907637100000   2.000000000000000 0
ion C   4.667633100000000  16.169191285499998   2.000000000000000 0
ion C  -2.333816549999993  20.211493831199999   2.000000000000000 0
ion C   2.333835447300000  20.211493831199999   2.000000000000000 0
ion C   2.333835447299999  12.126907637100000   2.000000000000000 0
ion C  -4.667651997299999  16.169191285499998   2.000000000000000 0
ion C   7.001449650000000   4.042302545699999   2.000000000000000 0
ion C  21.004386744600001   4.042302545699999   2.000000000000000 0
ion C  14.002937094600000  16.169191285499998   2.000000000000000 0
ion C   0.000000000000000  16.169191285499998   2.000000000000000 0
ion C  11.669101647300000   4.042302545699999   2.000000000000000 0
ion C  18.670589091899998   8.084605091399998   2.000000000000000 0
ion C  11.669101647300000  12.126907637100000   2.000000000000000 0
ion C  16.336753644600002  12.126907637100000   2.000000000000000 0
ion C  16.336753644600002   4.042302545699999   2.000000000000000 0
ion C   9.335285097300002   8.084605091399998   2.000000000000000 0
ion C  14.002937094600000   8.084605091399998   2.000000000000000 0
ion C   0.000018897300000   2.694868363800000   2.000000000000000 0
ion C  11.669120544600000  22.906362195000000   2.000000000000000 0
ion C -11.669120544600002  22.906362195000000   2.000000000000000 0
ion C  -2.333816549999999   6.737152012199999   2.000000000000000 0
ion C   9.335285097299998  18.864059649300000   2.000000000000000 0
ion C  -7.001468547300003  22.906362195000000   2.000000000000000 0
ion C   7.001468547300002  22.906362195000000   2.000000000000000 0
ion C   2.333816550000000   6.737152012199999   2.000000000000000 0
ion C  -9.335285097299998  18.864059649300000   2.000000000000000 0
ion C  -4.667633100000000  10.779454557899999   2.000000000000000 0
ion C   7.001468547300002  14.821757103600000   2.000000000000000 0
ion C  -2.333835447300000  22.906362195000000   2.000000000000000 0
ion C   2.333816550000000  22.906362195000000   2.000000000000000 0
ion C   4.667633100000000  10.779454557899999   2.000000000000000 0
ion C  -7.001468547300001  14.821757103600000   2.000000000000000 0
ion C   4.667633100000003   2.694868363800000   2.000000000000000 0
ion C  23.338222191900002   2.694868363800000   2.000000000000000 0
ion C  14.002918197300001  18.864059649300000   2.000000000000000 0
ion C   0.000018897300000  10.779454557899999   2.000000000000000 0
ion C   4.667633100000000  18.864059649300000   2.000000000000000 0
ion C  -4.667633099999995  18.864059649300000   2.000000000000000 0
ion C  -2.333816550000000  14.821757103600000   2.000000000000000 0
ion C   2.333816550000000  14.821757103600000   2.000000000000000 0
ion C  -0.000018897299999  18.864059649300000   2.000000000000000 0
ion C   9.335285097300000   2.694868363800000   2.000000000000000 0
ion C  21.004386744599998   6.737152012199999   2.000000000000000 0
ion C  11.669120544600002  14.821757103600000   2.000000000000000 0
ion C  16.336734747299992  14.821757103600000   2.000000000000000 0
ion C  18.670570194600000   2.694868363800000   2.000000000000000 0
ion C   7.001468547300000   6.737152012199999   2.000000000000000 0
ion C  14.002937094600002   2.694868363800000   2.000000000000000 0
ion C  18.670570194600000  10.779454557899999   2.000000000000000 0
ion C   9.335285097300000  10.779454557899999   2.000000000000000 0
ion C  11.669120544600000   6.737152012199999   2.000000000000000 0
ion C  16.336734747299989   6.737152012199999   2.000000000000000 0
ion C  14.002937094600000  10.779454557899999   2.000000000000000 0
ion N   7.001449650000002  12.126907637100000   2.000000000000000 0
ion S   5.707408962330783  14.228712430353507   8.625181160777339 1
ion S   4.891286190891885  14.592855103322195  12.310931197360489 1
ion S   1.267752065790788  16.884745858035750  12.553776603668370 1
ion S   0.170366515122328  17.586544804950837   8.987181005865128 1
ion Na   5.111997968170611  19.572997898537896   8.119531767611894 1
ion Na   0.676630365182200  12.309412645364482   8.079623635275698 1

# Forces in Cartesian coordinates:
force C   0.001734477551863  -0.000973591780337  -0.000124207625412 0
force C   0.000806220447031  -0.000261457802142  -0.000106105858748 0
force C   0.001695822726286  -0.001223375486653  -0.000155999933061 0
force C   0.000844327297752   0.001177674373422  -0.000137467447456 0
force C   0.000719295583253  -0.000338348745297  -0.000110746835512 0
force C   0.001791065359213  -0.000858600065078  -0.000110133549392 0
force C  -0.000525242702077  -0.001281579591532  -0.000148086567773 0
force C   0.000100373747225   0.000381749396300  -0.000167424546195 0
force C  -0.002843261381434  -0.010033367497538  -0.000197699980739 0
force C  -0.000978044131900   0.001021586467461  -0.000122275325149 0
force C  -0.000319701513304  -0.000039653850941  -0.000466148098089 0
force C   0.007223691426942   0.007716592484937   0.000318351382946 0
force C  -0.001375852118319   0.000418886427141  -0.000120315487242 0
force C  -0.000065465135654   0.002077322221567  -0.000124871112079 0
force C  -0.002061374543776  -0.000982647164649   0.000389592380570 0
force C   0.000500801692458  -0.001109600900628  -0.000312792423517 0
force C   0.001142493468868  -0.000139875823504   0.000066405521693 0
force C   0.000079476928486  -0.000007313238376  -0.000080548204814 0
force C  -0.000892932420692   0.002391372542584   0.000101119158349 0
force C   0.003005276248634  -0.010902477830867  -0.000574491482687 0
force C   0.000610630719114  -0.001399843128713  -0.000082941385033 0
force C  -0.003024093009078  -0.000709228485491  -0.000162996702752 0
force C   0.010925891127385   0.002741537002567  -0.000267142481710 0
force C   0.001221763071884   0.000432062239209   0.000404427961480 0
force C  -0.000080058915207   0.005518475684086  -0.000129117489066 0
force C   0.000116910271587  -0.000039453335492  -0.000112494020098 0
force C  -0.004868175381998  -0.002726012175033  -0.000088406718499 0
force C   0.004955126905903  -0.002438836128602  -0.000458126382548 0
force C  -0.001908385207927  -0.000858192427243  -0.000153265266515 0
force C  -0.000333466036629   0.000597037766483  -0.000155482917751 0
force C  -0.009870459814521   0.002362831543751   0.000472494834875 0
force C  -0.000290722957598   0.002048691641667  -0.000132756235254 0
force C  -0.000699962739607  -0.000022832919315  -0.000145297175316 0
force C  -0.006927924596825   0.007352162318173   0.000091383500314 0
force C  -0.000593753243707   0.000304945456303  -0.000144311512921 0
force C  -0.000787330377622   0.000845821233227  -0.000135767844051 0
force C  -0.000984316222573   0.000299648023205  -0.000144088121199 0
force C  -0.001832123964304   0.001028409535809  -0.000153801838120 0
force C  -0.000391629656422  -0.000185524777146  -0.000146797658464 0
force C  -0.003729689015445   0.000482584082490   0.000459044614039 0
force C   0.000178561433656  -0.000204870960537  -0.000120941908921 0
force C   0.000059147584536   0.001250454110038  -0.000396708207339 0
force C  -0.003330928608099   0.003254826052345  -0.000247717922242 0
force C   0.000186006093983  -0.000065579198105  -0.000138033043417 0
force C  -0.000208628864627  -0.001141812266963  -0.000179737856526 0
force C   0.000171700472782  -0.005262458051576  -0.000441034338741 0
force C   0.002045661963194   0.000992673157749   0.000531913724399 0
force C   0.000621631517848   0.000489028335637   0.000309193913365 0
force C   0.005675423419627   0.001814964644576  -0.000171339186380 0
force C   0.000094509777797  -0.002169005915254  -0.000093208848959 0
force C  -0.001891854760270  -0.000995136472574  -0.000142123351456 0
force C  -0.000872637282724   0.000521342625093  -0.000112943283147 0
force C  -0.000125509688251   0.002076932204398  -0.000118500536230 0
force C   0.001092038864759  -0.005005706383498   0.000030486935315 0
force C   0.004099879797697   0.000005525343341  -0.000015486231400 0
force C  -0.000026009201161  -0.000005129370333   0.000381985165260 0
force C  -0.002246044596140  -0.000501851622512  -0.000271249198859 0
force C  -0.005751813513436   0.004648952456959  -0.000851357010864 0
force C  -0.000475696097753   0.002244834292572  -0.000118369933018 0
force C   0.002170064408192  -0.000895812917835  -0.000147477566916 0
force C  -0.000087492542981  -0.000718277266744  -0.000101275299617 0
force C   0.005820740433994   0.003307260996330   0.000513921321403 0
force C   0.001805969136929  -0.001439312763576  -0.000141125549587 0
force C   0.000616733872613   0.000572123649681  -0.000062192232511 0
force C   0.000220593213877  -0.006779290053280   0.000003278166349 0
force C   0.000739519280995   0.000835783167968  -0.000158034628322 0
force C  -0.000383146416018  -0.001116029757095  -0.000141638168922 0
force C  -0.004360862378192   0.002548439631963   0.000376492481899 0
force C   0.003285710779483   0.003635395622993  -0.000128590204880 0
force C   0.000325161024463  -0.000155779602097  -0.000134409342716 0
force C  -0.001487790074107  -0.004586718568883  -0.000130004346259 0
force N  -0.000031792253076   0.000053944823225  -0.001216430526225 0
force S   0.000235680072660  -0.000096036009040  -0.000397206327925 1
force S  -0.000081079879193   0.000158057989154   0.000407941397944 1
force S  -0.000160835533846  -0.000058958773777  -0.000378751369654 1
force S   0.000184383016048   0.000091441799103   0.000326913027914 1
force Na  -0.000023729352041   0.000192732831793   0.000043935068531 1
force Na  -0.000265593666951  -0.000174448953969   0.000113802695729 1

# Energy components:
   A_diel =       -0.0644969318339833
   Eewald =     4908.4630692465971151
       EH =     5344.9385503159555810
     Eloc =   -10845.1258452674064756
      Enl =      -77.9178551276847458
     EvdW =       -0.1212944093926378
      Exc =     -162.7772458436374166
 Exc_core =        9.5505268786822519
       KE =      270.9513743611450991
-------------------------------------
     Etot =     -552.1032167775748576
       TS =        0.0654418482872757
-------------------------------------
        F =     -552.1686586258621219

IonicMinimize: Iter:  36  F: -552.168658625862122  |grad|_K:  2.231e-04  alpha:  5.175e+00  linmin:  1.351e-03  t[s]:   7373.03
IonicMinimize: Converged (|Delta F|<1.000000e-06 for 2 iters).

#--- Lowdin population analysis ---
# oxidation-state C +0.032 +0.032 +0.032 +0.033 +0.030 +0.033 +0.033 +0.031 +0.021 +0.034 +0.028 +0.020 +0.033 +0.032 +0.033 +0.026 +0.013 +0.031 +0.020 +0.017 +0.035 +0.023 -0.000 +0.034 +0.030 +0.030 +0.030 +0.025 +0.036 +0.034 +0.023 +0.035 +0.034 +0.023 +0.035 +0.033 +0.032 +0.035 +0.029 +0.028 +0.035 +0.023 +0.031 +0.035 +0.029 +0.131 +0.036 +0.027 +0.129 +0.035 +0.035 +0.031 +0.035 +0.009 +0.008 +0.036 +0.028 +0.029 +0.034 +0.036 +0.031 +0.040 +0.036 +0.030 +0.039 +0.033 +0.033 +0.135 +0.035 +0.033 +0.035
# oxidation-state N -0.002
# oxidation-state S -0.415 -0.006 -0.008 -0.406
# oxidation-state Na +0.862 +0.861


Dumping 'Na2S4@N_graphene-glyme-vdw.fillings' ... done
Dumping 'Na2S4@N_graphene-glyme-vdw.wfns' ... done
Dumping 'Na2S4@N_graphene-glyme-vdw.fluidState' ... done
Dumping 'Na2S4@N_graphene-glyme-vdw.ionpos' ... done
Dumping 'Na2S4@N_graphene-glyme-vdw.eigenvals' ... done
End date and time: Sat Sep  7 15:20:16 2024  (Duration: 0-2:02:55.08)
Done!
