
*************** JDFTx 1.7.0  ***************

Start date and time: Tue Sep 10 17:11:45 2024
Executable jdftx_gpu with command-line: -i /home/akim2/JDFTx/Na2S2@N_graphene-vdw/Na2S2@N_graphene-vdw.in -o /home/akim2/JDFTx/Na2S2@N_graphene-vdw/Na2S2@N_graphene-vdw.out
Running on hosts (process indices):  exp-2-60 (0)
Divided in process groups (process indices):  0 (0)
gpuInit: Found compatible cuda device 0 'Tesla V100-SXM2-32GB'
gpuInit: Selected device 0
Resource initialization completed at t[s]:      0.70
Run totals: 1 processes, 40 threads, 1 GPUs


Input parsed successfully to the following command list (including defaults):

basis kpoint-dependent
coords-type Cartesian
core-overlap-check vector
coulomb-interaction Slab 001
coulomb-truncation-embed 0 0 6
davidson-band-ratio 1.1
dump End State
dump-name Na2S2@N_graphene-vdw.$VAR
elec-cutoff 20 100
elec-eigen-algo Davidson
elec-ex-corr gga-PBE
elec-smearing Fermi 0.01
electronic-minimize  \
	dirUpdateScheme      FletcherReeves \
	linminMethod         DirUpdateRecommended \
	nIterations          100 \
	history              15 \
	knormThreshold       0 \
	energyDiffThreshold  1e-08 \
	nEnergyDiff          2 \
	alphaTstart          1 \
	alphaTmin            1e-10 \
	updateTestStepSize   yes \
	alphaTreduceFactor   0.1 \
	alphaTincreaseFactor 3 \
	nAlphaAdjustMax      3 \
	wolfeEnergy          0.0001 \
	wolfeGradient        0.9 \
	fdTest               no
electronic-scf  \
	nIterations	100 \
	energyDiffThreshold	1e-08 \
	residualThreshold	1e-07 \
	mixFraction	0.5 \
	qMetric	0.8 \
	history	10 \
	nEigSteps	2 \
	eigDiffThreshold	1e-08 \
	mixedVariable	Density \
	qKerker	0.8 \
	qKappa	-1 \
	verbose	no \
	mixFractionMag	1.5
exchange-regularization WignerSeitzTruncated
fluid None
fluid-ex-corr lda-TF lda-PZ
fluid-gummel-loop 10 1.000000e-05
fluid-minimize  \
	dirUpdateScheme      PolakRibiere \
	linminMethod         DirUpdateRecommended \
	nIterations          100 \
	history              15 \
	knormThreshold       0 \
	energyDiffThreshold  0 \
	nEnergyDiff          2 \
	alphaTstart          1 \
	alphaTmin            1e-10 \
	updateTestStepSize   yes \
	alphaTreduceFactor   0.1 \
	alphaTincreaseFactor 3 \
	nAlphaAdjustMax      3 \
	wolfeEnergy          0.0001 \
	wolfeGradient        0.9 \
	fdTest               no
fluid-solvent H2O 55.338 ScalarEOS \
	epsBulk 78.4 \
	pMol 0.92466 \
	epsInf 1.77 \
	Pvap 1.06736e-10 \
	sigmaBulk 4.62e-05 \
	Rvdw 2.61727 \
	Res 1.42 \
	tauNuc 343133 \
	poleEl 15 7 1
forces-output-coords Positions
ion C -14.002918197300009  24.253758582300001   2.000000000000000 0
ion C  -2.333816550000000   4.042302545699999   2.000000000000000 0
ion C  11.669101647300000  20.211493831199999   2.000000000000000 0
ion C  -9.335266200000007  24.253758582300001   2.000000000000000 0
ion C   9.335303994599993  24.253758582300001   2.000000000000000 0
ion C   2.333816549999999   4.042302545699999   2.000000000000000 0
ion C -11.669120544600000  20.211493831199999   2.000000000000000 0
ion C  -4.667651997299999   8.084605091399998   2.000000000000000 0
ion C   9.335285097299998  16.169191285499998   2.000000000000000 0
ion C  -4.667614202700008  24.253758582300001   2.000000000000000 0
ion C   4.667651997299995  24.253758582300001   2.000000000000000 0
ion C   4.667651997299999   8.084605091399998   2.000000000000000 0
ion C  -9.335303994599998  16.169191285499998   2.000000000000000 0
ion C  -7.001468547300001  12.126907637100000   2.000000000000000 0
ion C   0.000037794599990  24.253758582300001   2.000000000000000 0
ion C   0.000000000000000   8.084605091399998   2.000000000000000 0
ion C   7.001449650000005  20.211493831199999   2.000000000000000 0
ion C  -7.001468547300000  20.211493831199999   2.000000000000000 0
ion C  -2.333816549999999  12.126907637100000   2.000000000000000 0
ion C   4.667633100000000  16.169191285499998   2.000000000000000 0
ion C  -2.333816549999995  20.211493831199999   2.000000000000000 0
ion C   2.333835447300000  20.211493831199999   2.000000000000000 0
ion C   2.333835447299999  12.126907637100000   2.000000000000000 0
ion C  -4.667651997299999  16.169191285499998   2.000000000000000 0
ion C   7.001449650000000   4.042302545699999   2.000000000000000 0
ion C  21.004386744600001   4.042302545699999   2.000000000000000 0
ion C  14.002937094600000  16.169191285499998   2.000000000000000 0
ion C   0.000000000000000  16.169191285499998   2.000000000000000 0
ion C  11.669101647300000   4.042302545699999   2.000000000000000 0
ion C  18.670589091899998   8.084605091399998   2.000000000000000 0
ion C  11.669101647300000  12.126907637100000   2.000000000000000 0
ion C  16.336753644600002  12.126907637100000   2.000000000000000 0
ion C  16.336753644600002   4.042302545699999   2.000000000000000 0
ion C   9.335285097300002   8.084605091399998   2.000000000000000 0
ion C  14.002937094600000   8.084605091399998   2.000000000000000 0
ion C   0.000018897300000   2.694868363800000   2.000000000000000 0
ion C  11.669120544600000  22.906362195000000   2.000000000000000 0
ion C -11.669120544600002  22.906362195000000   2.000000000000000 0
ion C  -2.333816549999999   6.737152012199999   2.000000000000000 0
ion C   9.335285097299998  18.864059649300000   2.000000000000000 0
ion C  -7.001468547300003  22.906362195000000   2.000000000000000 0
ion C   7.001468547300002  22.906362195000000   2.000000000000000 0
ion C   2.333816550000000   6.737152012199999   2.000000000000000 0
ion C  -9.335285097299998  18.864059649300000   2.000000000000000 0
ion C  -4.667633100000000  10.779454557899999   2.000000000000000 0
ion C   7.001468547300002  14.821757103600000   2.000000000000000 0
ion C  -2.333835447300000  22.906362195000000   2.000000000000000 0
ion C   2.333816550000000  22.906362195000000   2.000000000000000 0
ion C   4.667633100000000  10.779454557899999   2.000000000000000 0
ion C  -7.001468547300001  14.821757103600000   2.000000000000000 0
ion C   4.667633100000003   2.694868363800000   2.000000000000000 0
ion C  23.338222191900002   2.694868363800000   2.000000000000000 0
ion C  14.002918197300001  18.864059649300000   2.000000000000000 0
ion C   0.000018897300000  10.779454557899999   2.000000000000000 0
ion C   4.667633100000000  18.864059649300000   2.000000000000000 0
ion C  -4.667633099999996  18.864059649300000   2.000000000000000 0
ion C  -2.333816550000000  14.821757103600000   2.000000000000000 0
ion C   2.333816550000000  14.821757103600000   2.000000000000000 0
ion C  -0.000018897299999  18.864059649300000   2.000000000000000 0
ion C   9.335285097300000   2.694868363800000   2.000000000000000 0
ion C  21.004386744599998   6.737152012199999   2.000000000000000 0
ion C  11.669120544600002  14.821757103600000   2.000000000000000 0
ion C  16.336734747299992  14.821757103600000   2.000000000000000 0
ion C  18.670570194600000   2.694868363800000   2.000000000000000 0
ion C   7.001468547300000   6.737152012199999   2.000000000000000 0
ion C  14.002937094600002   2.694868363800000   2.000000000000000 0
ion C  18.670570194600000  10.779454557899999   2.000000000000000 0
ion C   9.335285097300000  10.779454557899999   2.000000000000000 0
ion C  11.669120544600000   6.737152012199999   2.000000000000000 0
ion C  16.336734747299989   6.737152012199999   2.000000000000000 0
ion C  14.002937094600000  10.779454557899999   2.000000000000000 0
ion N   7.001449650000002  12.126907637100000   2.000000000000000 0
ion S   2.360315076199998  13.511509479800001   8.162683115400000 1
ion S   5.493157138900001  16.379344830499999   9.049797966600000 1
ion Na   1.080909990999999  18.249722812000002   7.717897365299999 1
ion Na   6.835931527599999  12.641504524999998   6.187801881600000 1
ion-species GBRV/$ID_pbe.uspp
ion-width 0
ionic-minimize  \
	dirUpdateScheme      FletcherReeves \
	linminMethod         DirUpdateRecommended \
	nIterations          200 \
	history              15 \
	knormThreshold       0.0001 \
	energyDiffThreshold  1e-06 \
	nEnergyDiff          2 \
	alphaTstart          1 \
	alphaTmin            1e-10 \
	updateTestStepSize   yes \
	alphaTreduceFactor   0.1 \
	alphaTincreaseFactor 3 \
	nAlphaAdjustMax      3 \
	wolfeEnergy          0.0001 \
	wolfeGradient        0.9 \
	fdTest               no
kpoint   0.000000000000   0.000000000000   0.000000000000  1.00000000000000
kpoint-folding 1 1 1 
latt-move-scale 1 1 1
latt-scale 1 1 1 
lattice Triclinic 28.0058 28.0058 37.7946 90 90 120
lattice-minimize  \
	dirUpdateScheme      L-BFGS \
	linminMethod         DirUpdateRecommended \
	nIterations          0 \
	history              15 \
	knormThreshold       0 \
	energyDiffThreshold  1e-06 \
	nEnergyDiff          2 \
	alphaTstart          1 \
	alphaTmin            1e-10 \
	updateTestStepSize   yes \
	alphaTreduceFactor   0.1 \
	alphaTincreaseFactor 3 \
	nAlphaAdjustMax      3 \
	wolfeEnergy          0.0001 \
	wolfeGradient        0.9 \
	fdTest               no
lcao-params -1 1e-06 0.01
pcm-variant GLSSA13
spintype no-spin
subspace-rotation-factor 1 yes
symmetries automatic
symmetry-threshold 0.0001
van-der-waals D3



---------- Setting up symmetries ----------

Found 24 point-group symmetries of the bravais lattice
Found 1 space-group symmetries with basis
Applied RMS atom displacement 0 bohrs to make symmetries exact.

---------- Initializing the Grid ----------
R = 
[      28.0058     -14.0029            0  ]
[            0      24.2537            0  ]
[            0            0      37.7946  ]
unit cell volume = 25671.8
G =
[   0.224353    0.12953         -0  ]
[          0   0.259061          0  ]
[          0         -0   0.166246  ]
Minimum fftbox size, Smin = [  128  128  172  ]
Chosen fftbox size, S = [  128  128  180  ]

---------- Initializing tighter grid for wavefunction operations ----------
R = 
[      28.0058     -14.0029            0  ]
[            0      24.2537            0  ]
[            0            0      37.7946  ]
unit cell volume = 25671.8
G =
[   0.224353    0.12953         -0  ]
[          0   0.259061          0  ]
[          0         -0   0.166246  ]
Minimum fftbox size, Smin = [  116  116  156  ]
Chosen fftbox size, S = [  120  120  160  ]

---------- Exchange Correlation functional ----------
Initalized PBE GGA exchange.
Initalized PBE GGA correlation.

---------- Setting up pseudopotentials ----------
Width of ionic core gaussian charges (only for fluid interactions / plotting) set to 0

Reading pseudopotential file '/home/akim2/jdftx_install/build/pseudopotentials/GBRV/c_pbe.uspp':
  Title: C.  Created by USPP 7.3.6 on 3-2-2014
  Reference state energy: -5.406344.  4 valence electrons in orbitals:
    |200>  occupation: 2  eigenvalue: -0.504890
    |210>  occupation: 2  eigenvalue: -0.194356
  lMax: 1  lLocal: 2  QijEcut: 5
  4 projectors sampled on a log grid with 503 points:
    l: 0  eig: -0.504890  rCut: 1.3
    l: 0  eig: 0.000000  rCut: 1.3
    l: 1  eig: -0.194357  rCut: 1.3
    l: 1  eig: 0.000000  rCut: 1.3
  Partial core density with radius 1.1
  Transforming core density to a uniform radial grid of dG=0.02 with 1625 points.
  Transforming local potential to a uniform radial grid of dG=0.02 with 1625 points.
  Transforming nonlocal projectors to a uniform radial grid of dG=0.02 with 432 points.
  Transforming density augmentations to a uniform radial grid of dG=0.02 with 1625 points.
  Transforming atomic orbitals to a uniform radial grid of dG=0.02 with 432 points.
  Core radius for overlap checks: 1.30 bohrs.

Reading pseudopotential file '/home/akim2/jdftx_install/build/pseudopotentials/GBRV/n_pbe.uspp':
  Title: N.  Created by USPP 7.3.6 on 3-2-2014
  Reference state energy: -9.763716.  5 valence electrons in orbitals:
    |200>  occupation: 2  eigenvalue: -0.681964
    |210>  occupation: 3  eigenvalue: -0.260726
  lMax: 1  lLocal: 2  QijEcut: 6
  4 projectors sampled on a log grid with 491 points:
    l: 0  eig: -0.681964  rCut: 1.15
    l: 0  eig: 0.000000  rCut: 1.15
    l: 1  eig: -0.260729  rCut: 1.2
    l: 1  eig: 0.500000  rCut: 1.2
  Partial core density with radius 0.8
  Transforming core density to a uniform radial grid of dG=0.02 with 1625 points.
  Transforming local potential to a uniform radial grid of dG=0.02 with 1625 points.
  Transforming nonlocal projectors to a uniform radial grid of dG=0.02 with 432 points.
  Transforming density augmentations to a uniform radial grid of dG=0.02 with 1625 points.
  Transforming atomic orbitals to a uniform radial grid of dG=0.02 with 432 points.
  Core radius for overlap checks: 1.20 bohrs.

Reading pseudopotential file '/home/akim2/jdftx_install/build/pseudopotentials/GBRV/s_pbe.uspp':
  Title: S.  Created by USPP 7.3.6 on 1-4-15
  Reference state energy: -11.898476.  6 valence electrons in orbitals:
    |300>  occupation: 2  eigenvalue: -0.634167
    |310>  occupation: 4  eigenvalue: -0.257568
  lMax: 2  lLocal: 3  QijEcut: 6
  6 projectors sampled on a log grid with 635 points:
    l: 0  eig: -0.634161  rCut: 1.5
    l: 0  eig: 1.500000  rCut: 1.5
    l: 1  eig: -0.257567  rCut: 1.5
    l: 1  eig: 1.500000  rCut: 1.5
    l: 2  eig: -1.000000  rCut: 1.5
    l: 2  eig: 1.500000  rCut: 1.5
  Partial core density with radius 1.15
  Transforming core density to a uniform radial grid of dG=0.02 with 1625 points.
  Transforming local potential to a uniform radial grid of dG=0.02 with 1625 points.
  Transforming nonlocal projectors to a uniform radial grid of dG=0.02 with 432 points.
  Transforming density augmentations to a uniform radial grid of dG=0.02 with 1625 points.
  Transforming atomic orbitals to a uniform radial grid of dG=0.02 with 432 points.
  Core radius for overlap checks: 1.50 bohrs.

Reading pseudopotential file '/home/akim2/jdftx_install/build/pseudopotentials/GBRV/na_pbe.uspp':
  Title: Na.  Created by USPP 7.3.6 on 23-9-15
  Reference state energy: -47.625620.  9 valence electrons in orbitals:
    |200>  occupation: 2  eigenvalue: -2.085638
    |210>  occupation: 6  eigenvalue: -1.053708
    |300>  occupation: 1  eigenvalue: -0.100838
  lMax: 2  lLocal: 0  QijEcut: 6
  5 projectors sampled on a log grid with 657 points:
    l: 0  eig: -2.085640  rCut: 1.37
    l: 0  eig: -0.100839  rCut: 1.37
    l: 1  eig: -1.053708  rCut: 1.47
    l: 1  eig: 0.500000  rCut: 1.47
    l: 2  eig: 0.750000  rCut: 2
  Transforming local potential to a uniform radial grid of dG=0.02 with 1625 points.
  Transforming nonlocal projectors to a uniform radial grid of dG=0.02 with 432 points.
  Transforming density augmentations to a uniform radial grid of dG=0.02 with 1625 points.
  Transforming atomic orbitals to a uniform radial grid of dG=0.02 with 432 points.
  Core radius for overlap checks: 2.00 bohrs.

Initialized 4 species with 76 total atoms.

Folded 1 k-points by 1x1x1 to 1 k-points.

---------- Setting up k-points, bands, fillings ----------
No reducable k-points. 
Computing the number of bands and number of electrons
Calculating initial fillings.
nElectrons: 319.000000   nBands: 306   nStates: 1

----- Setting up reduced wavefunction bases (one per k-point) -----
average nbasis = 109673.000 , ideal nbasis = 109671.883

---------- Setting up coulomb interaction ----------
Setting up double-sized grid for truncated Coulomb potentials:
R = 
[      28.0058     -14.0029            0  ]
[            0      24.2537            0  ]
[            0            0      75.5892  ]
unit cell volume = 51343.6
G =
[   0.224353    0.12953         -0  ]
[          0   0.259061          0  ]
[          0         -0  0.0831228  ]
Chosen fftbox size, S = [  128  128  360  ]
Integer grid location selected as the embedding center:
   Grid: [  0  0  29  ]
   Lattice: [  0  0  0.158753  ]
   Cartesian: [  0  0  6  ]
Constructing Wigner-Seitz cell: 8 faces (6 quadrilaterals, 2 hexagons)
Range-separation parameter for embedded mesh potentials due to point charges: 0.590105 bohrs.
Initialized slab truncation along lattice direction 001

Initializing DFT-D3 calculator:
	Parameters set for gga-PBE functional
	s6:  1.000  s_r6:  1.217
	s8:  0.722  s_r8:  1.000
	Per-atom parameters loaded for:
	 C:  sqrtQ[a0]:  3.105  Rcov[a0]:  1.417  CN: [ 0.00 0.99 2.00 3.00 3.98 ]
	 N:  sqrtQ[a0]:  2.712  Rcov[a0]:  1.342  CN: [ 0.00 0.99 2.01 2.99 ]
	 S:  sqrtQ[a0]:  4.041  Rcov[a0]:  1.928  CN: [ 0.00 0.99 1.99 ]
	Na:  sqrtQ[a0]:  6.586  Rcov[a0]:  2.646  CN: [ 0.00 0.97 ]

---------- Setting up 2D ewald sum ----------
Optimum gaussian width for ewald sums = 15.547689 bohr.
Real space sums over 289 unit cells with max indices [  8  8  0  ]
Reciprocal space sums over 81 terms with max indices [  4  4  0  ]

Computing DFT-D3 correction:
# coordination-number C 3.300 3.300 3.300 3.300 3.300 3.300 3.300 3.300 3.456 3.300 3.301 3.346 3.300 3.300 3.303 3.301 3.306 3.300 3.303 3.532 3.329 3.424 3.423 3.303 3.301 3.300 3.301 3.426 3.300 3.300 3.363 3.300 3.300 3.334 3.301 3.300 3.300 3.300 3.300 3.307 3.300 3.301 3.303 3.300 3.300 4.215 3.304 3.312 4.051 3.300 3.300 3.300 3.300 3.307 3.347 3.304 3.313 3.408 3.534 3.300 3.300 3.338 3.300 3.300 3.315 3.300 3.300 3.945 3.302 3.300 3.302
# coordination-number N 4.197
# coordination-number S 2.941 2.920
# coordination-number Na 2.725 6.206
# diagonal-C6 C 24.29 24.29 24.28 24.29 24.28 24.28 24.29 24.28 22.30 24.28 24.27 23.80 24.28 24.28 24.25 24.27 24.23 24.28 24.26 21.17 23.99 22.76 22.78 24.25 24.28 24.29 24.27 22.73 24.28 24.29 23.59 24.28 24.28 23.94 24.28 24.29 24.28 24.29 24.28 24.21 24.28 24.27 24.26 24.28 24.28 18.23 24.24 24.17 18.29 24.28 24.28 24.29 24.28 24.21 23.78 24.24 24.16 23.00 21.14 24.28 24.29 23.89 24.28 24.28 24.13 24.28 24.29 18.39 24.26 24.29 24.26
# diagonal-C6 N 15.58
# diagonal-C6 S 125.81 125.81
# diagonal-C6 Na 186.11 186.11
EvdW_6 =   -0.061120
EvdW_8 =   -0.052457

---------- Allocating electronic variables ----------
Initializing wave functions:  linear combination of atomic orbitals
C pseudo-atom occupations:   s ( 2 )  p ( 2 )
N pseudo-atom occupations:   s ( 2 )  p ( 3 )
S pseudo-atom occupations:   s ( 2 )  p ( 4 )
Na pseudo-atom occupations:   s ( 2 1 )  p ( 6 )
	FillingsUpdate:  mu: -0.254014114  nElectrons: 319.000000
LCAOMinimize: Iter:   0  F: -526.8169160428319628  |grad|_K:  8.635e-03  alpha:  1.000e+00
	FillingsUpdate:  mu: -0.284764860  nElectrons: 319.000000
LCAOMinimize: Iter:   1  F: -526.8232781368658380  |grad|_K:  5.611e-03  alpha:  2.538e-01  linmin:  1.045e-01  cgtest: -1.676e+00  t[s]:     11.49
LCAOMinimize: 	Bad step direction: g.d > 0.
LCAOMinimize: 	Undoing step.
LCAOMinimize: 	Step failed: resetting search direction.
	FillingsUpdate:  mu: -0.284764860  nElectrons: 319.000000
LCAOMinimize: Iter:   2  F: -526.8232781368658380  |grad|_K:  5.611e-03  alpha:  0.000e+00
	FillingsUpdate:  mu: -0.260556965  nElectrons: 319.000000
LCAOMinimize: Iter:   3  F: -527.0174453678214377  |grad|_K:  4.729e-03  alpha:  9.911e-02  linmin: -2.877e-01  cgtest:  6.829e-01  t[s]:     14.93
	FillingsUpdate:  mu: -0.270595086  nElectrons: 319.000000
LCAOMinimize: Iter:   4  F: -527.1382374422815928  |grad|_K:  4.021e-03  alpha:  1.019e-01  linmin:  3.369e-01  cgtest: -6.312e-01  t[s]:     17.02
LCAOMinimize: 	Bad step direction: g.d > 0.
LCAOMinimize: 	Undoing step.
LCAOMinimize: 	Step failed: resetting search direction.
	FillingsUpdate:  mu: -0.270595086  nElectrons: 319.000000
LCAOMinimize: Iter:   5  F: -527.1382374422815928  |grad|_K:  4.021e-03  alpha:  0.000e+00
	FillingsUpdate:  mu: -0.277623464  nElectrons: 319.000000
LCAOMinimize: Iter:   6  F: -527.1902026258251226  |grad|_K:  2.685e-04  alpha:  6.751e-02  linmin:  6.399e-02  cgtest: -2.461e-01  t[s]:     20.56
LCAOMinimize: 	Predicted alpha/alphaT>3.000000, increasing alphaT to 2.025368e-01.
	FillingsUpdate:  mu: -0.276828518  nElectrons: 319.000000
LCAOMinimize: Iter:   7  F: -527.1914296262114021  |grad|_K:  2.096e-04  alpha:  3.906e-01  linmin:  1.021e-03  cgtest:  1.247e-01  t[s]:     23.31
	FillingsUpdate:  mu: -0.278862829  nElectrons: 319.000000
LCAOMinimize: Iter:   8  F: -527.1917970009772034  |grad|_K:  1.819e-04  alpha:  1.754e-01  linmin: -7.112e-04  cgtest:  2.014e-02  t[s]:     25.44
	FillingsUpdate:  mu: -0.278015967  nElectrons: 319.000000
LCAOMinimize: Iter:   9  F: -527.1919933881933957  |grad|_K:  5.633e-05  alpha:  1.250e-01  linmin: -1.567e-04  cgtest: -6.759e-02  t[s]:     27.59
	FillingsUpdate:  mu: -0.277957362  nElectrons: 319.000000
LCAOMinimize: Iter:  10  F: -527.1920312534854247  |grad|_K:  2.919e-05  alpha:  2.528e-01  linmin: -2.742e-04  cgtest:  1.071e-02  t[s]:     29.73
	FillingsUpdate:  mu: -0.278250882  nElectrons: 319.000000
LCAOMinimize: Iter:  11  F: -527.1920400963994098  |grad|_K:  2.819e-05  alpha:  2.198e-01  linmin:  3.067e-05  cgtest:  1.187e-03  t[s]:     31.87
	FillingsUpdate:  mu: -0.278083549  nElectrons: 319.000000
LCAOMinimize: Iter:  12  F: -527.1920443883666394  |grad|_K:  9.861e-06  alpha:  1.149e-01  linmin:  1.677e-04  cgtest:  3.515e-03  t[s]:     34.01
LCAOMinimize: 	Predicted alpha/alphaT>3.000000, increasing alphaT to 3.446985e-01.
	FillingsUpdate:  mu: -0.278111457  nElectrons: 319.000000
LCAOMinimize: Iter:  13  F: -527.1920460410613032  |grad|_K:  5.607e-06  alpha:  3.610e-01  linmin: -2.156e-05  cgtest:  1.132e-03  t[s]:     36.83
	FillingsUpdate:  mu: -0.278160934  nElectrons: 319.000000
LCAOMinimize: Iter:  14  F: -527.1920462606311730  |grad|_K:  4.187e-06  alpha:  1.482e-01  linmin: -7.537e-06  cgtest:  9.547e-05  t[s]:     38.97
	FillingsUpdate:  mu: -0.278133778  nElectrons: 319.000000
LCAOMinimize: Iter:  15  F: -527.1920463604628821  |grad|_K:  1.108e-06  alpha:  1.209e-01  linmin: -1.295e-05  cgtest:  3.792e-04  t[s]:     41.11
LCAOMinimize: Converged (|Delta F|<1.000000e-06 for 2 iters).


---- Citations for features of the code used in this run ----

   Software package:
      R. Sundararaman, K. Letchworth-Weaver, K.A. Schwarz, D. Gunceler, Y. Ozhabes and T.A. Arias, 'JDFTx: software for joint density-functional theory', SoftwareX 6, 278 (2017)

   gga-PBE exchange-correlation functional:
      J.P. Perdew, K. Burke and M. Ernzerhof, Phys. Rev. Lett. 77, 3865 (1996)

   Pseudopotentials:
      KF Garrity, JW Bennett, KM Rabe and D Vanderbilt, Comput. Mater. Sci. 81, 446 (2014)

   Truncated Coulomb potentials:
      R. Sundararaman and T.A. Arias, Phys. Rev. B 87, 165122 (2013)

   DFT-D3 dispersion correction:
      S. Grimme, J. Antony, S. Ehrlich and H. Krieg, J. Chem. Phys. 132, 154104 (2010)

This list may not be complete. Please suggest additional citations or
report any other bugs at https://github.com/shankar1729/jdftx/issues

Initialization completed successfully at t[s]:     41.48


Computing DFT-D3 correction:
# coordination-number C 3.300 3.300 3.300 3.300 3.300 3.300 3.300 3.300 3.456 3.300 3.301 3.346 3.300 3.300 3.303 3.301 3.306 3.300 3.303 3.532 3.329 3.424 3.423 3.303 3.301 3.300 3.301 3.426 3.300 3.300 3.363 3.300 3.300 3.334 3.301 3.300 3.300 3.300 3.300 3.307 3.300 3.301 3.303 3.300 3.300 4.215 3.304 3.312 4.051 3.300 3.300 3.300 3.300 3.307 3.347 3.304 3.313 3.408 3.534 3.300 3.300 3.338 3.300 3.300 3.315 3.300 3.300 3.945 3.302 3.300 3.302
# coordination-number N 4.197
# coordination-number S 2.941 2.920
# coordination-number Na 2.725 6.206
# diagonal-C6 C 24.29 24.29 24.28 24.29 24.28 24.28 24.29 24.28 22.30 24.28 24.27 23.80 24.28 24.28 24.25 24.27 24.23 24.28 24.26 21.17 23.99 22.76 22.78 24.25 24.28 24.29 24.27 22.73 24.28 24.29 23.59 24.28 24.28 23.94 24.28 24.29 24.28 24.29 24.28 24.21 24.28 24.27 24.26 24.28 24.28 18.23 24.24 24.17 18.29 24.28 24.28 24.29 24.28 24.21 23.78 24.24 24.16 23.00 21.14 24.28 24.29 23.89 24.28 24.28 24.13 24.28 24.29 18.39 24.26 24.29 24.26
# diagonal-C6 N 15.58
# diagonal-C6 S 125.81 125.81
# diagonal-C6 Na 186.11 186.11
EvdW_6 =   -0.061120
EvdW_8 =   -0.052457

-------- Electronic minimization -----------
Will mix electronic density at each iteration.
	FillingsUpdate:  mu: -0.278133778  nElectrons: 319.000000
	FillingsUpdate:  mu: -0.285547984  nElectrons: 319.000000
SCF: Cycle:  0   F: -530.647716567215525   dF: -3.456e+00   |Residual|: 9.458e-01   |deigs|: 1.219e-01  t[s]:     49.06
	FillingsUpdate:  mu: -0.260079337  nElectrons: 319.000000
SCF: Cycle:  1   F: -531.144023377812118   dF: -4.963e-01   |Residual|: 4.869e-01   |deigs|: 3.516e-02  t[s]:     53.46
	FillingsUpdate:  mu: -0.228002558  nElectrons: 319.000000
SCF: Cycle:  2   F: -531.444303880868461   dF: -3.003e-01   |Residual|: 1.174e-01   |deigs|: 3.103e-02  t[s]:     57.83
	FillingsUpdate:  mu: -0.219587348  nElectrons: 319.000000
SCF: Cycle:  3   F: -531.461570217454891   dF: -1.727e-02   |Residual|: 7.775e-02   |deigs|: 8.826e-03  t[s]:     62.19
	FillingsUpdate:  mu: -0.207865030  nElectrons: 319.000000
SCF: Cycle:  4   F: -531.485799749735747   dF: -2.423e-02   |Residual|: 3.817e-02   |deigs|: 1.042e-02  t[s]:     66.56
	FillingsUpdate:  mu: -0.199184181  nElectrons: 319.000000
SCF: Cycle:  5   F: -531.499027917746957   dF: -1.323e-02   |Residual|: 2.920e-02   |deigs|: 7.495e-03  t[s]:     70.91
	FillingsUpdate:  mu: -0.193412957  nElectrons: 319.000000
SCF: Cycle:  6   F: -531.500513529130671   dF: -1.486e-03   |Residual|: 1.828e-02   |deigs|: 5.427e-03  t[s]:     75.13
	FillingsUpdate:  mu: -0.188314982  nElectrons: 319.000000
SCF: Cycle:  7   F: -531.504206267271798   dF: -3.693e-03   |Residual|: 1.770e-02   |deigs|: 5.005e-03  t[s]:     79.23
	FillingsUpdate:  mu: -0.185193848  nElectrons: 319.000000
SCF: Cycle:  8   F: -531.505402866163763   dF: -1.197e-03   |Residual|: 1.103e-02   |deigs|: 3.362e-03  t[s]:     83.23
	FillingsUpdate:  mu: -0.182740267  nElectrons: 319.000000
SCF: Cycle:  9   F: -531.506309121720506   dF: -9.063e-04   |Residual|: 8.273e-03   |deigs|: 2.665e-03  t[s]:     87.30
	FillingsUpdate:  mu: -0.180839762  nElectrons: 319.000000
SCF: Cycle: 10   F: -531.506509432658731   dF: -2.003e-04   |Residual|: 6.855e-03   |deigs|: 2.047e-03  t[s]:     91.16
	FillingsUpdate:  mu: -0.177507091  nElectrons: 319.000000
SCF: Cycle: 11   F: -531.506313583398651   dF: +1.958e-04   |Residual|: 5.665e-03   |deigs|: 3.194e-03  t[s]:     95.08
	FillingsUpdate:  mu: -0.175036800  nElectrons: 319.000000
SCF: Cycle: 12   F: -531.506499551559045   dF: -1.860e-04   |Residual|: 4.382e-03   |deigs|: 2.557e-03  t[s]:     98.97
	FillingsUpdate:  mu: -0.170248313  nElectrons: 319.000000
SCF: Cycle: 13   F: -531.506535948542250   dF: -3.640e-05   |Residual|: 3.954e-03   |deigs|: 4.780e-03  t[s]:    102.81
	FillingsUpdate:  mu: -0.166860209  nElectrons: 319.000000
SCF: Cycle: 14   F: -531.506690801409945   dF: -1.549e-04   |Residual|: 3.680e-03   |deigs|: 3.903e-03  t[s]:    106.65
	FillingsUpdate:  mu: -0.161837466  nElectrons: 319.000000
SCF: Cycle: 15   F: -531.506819285040137   dF: -1.285e-04   |Residual|: 3.078e-03   |deigs|: 5.115e-03  t[s]:    110.52
	FillingsUpdate:  mu: -0.159544907  nElectrons: 319.000000
SCF: Cycle: 16   F: -531.506858644987005   dF: -3.936e-05   |Residual|: 2.494e-03   |deigs|: 1.994e-03  t[s]:    114.39
	FillingsUpdate:  mu: -0.156278114  nElectrons: 319.000000
SCF: Cycle: 17   F: -531.506882292697583   dF: -2.365e-05   |Residual|: 1.902e-03   |deigs|: 2.794e-03  t[s]:    118.28
	FillingsUpdate:  mu: -0.154788698  nElectrons: 319.000000
SCF: Cycle: 18   F: -531.506893760302432   dF: -1.147e-05   |Residual|: 1.319e-03   |deigs|: 1.381e-03  t[s]:    122.15
	FillingsUpdate:  mu: -0.154063450  nElectrons: 319.000000
SCF: Cycle: 19   F: -531.506904280238473   dF: -1.052e-05   |Residual|: 9.469e-04   |deigs|: 1.110e-03  t[s]:    126.01
	FillingsUpdate:  mu: -0.153695196  nElectrons: 319.000000
SCF: Cycle: 20   F: -531.506908545452802   dF: -4.265e-06   |Residual|: 6.301e-04   |deigs|: 9.770e-04  t[s]:    129.86
	FillingsUpdate:  mu: -0.153468075  nElectrons: 319.000000
SCF: Cycle: 21   F: -531.506910119635222   dF: -1.574e-06   |Residual|: 4.279e-04   |deigs|: 4.791e-04  t[s]:    133.74
	FillingsUpdate:  mu: -0.153378644  nElectrons: 319.000000
SCF: Cycle: 22   F: -531.506910548937071   dF: -4.293e-07   |Residual|: 3.197e-04   |deigs|: 4.434e-04  t[s]:    137.60
	FillingsUpdate:  mu: -0.153412190  nElectrons: 319.000000
SCF: Cycle: 23   F: -531.506910979159443   dF: -4.302e-07   |Residual|: 1.809e-04   |deigs|: 3.206e-04  t[s]:    141.46
	FillingsUpdate:  mu: -0.153361382  nElectrons: 319.000000
SCF: Cycle: 24   F: -531.506911099302329   dF: -1.201e-07   |Residual|: 1.059e-04   |deigs|: 2.915e-04  t[s]:    145.32
	FillingsUpdate:  mu: -0.153303946  nElectrons: 319.000000
SCF: Cycle: 25   F: -531.506911336633266   dF: -2.373e-07   |Residual|: 9.034e-05   |deigs|: 1.948e-04  t[s]:    149.17
	FillingsUpdate:  mu: -0.153371473  nElectrons: 319.000000
SCF: Cycle: 26   F: -531.506911607220559   dF: -2.706e-07   |Residual|: 7.542e-05   |deigs|: 3.246e-04  t[s]:    153.02
	FillingsUpdate:  mu: -0.153396309  nElectrons: 319.000000
SCF: Cycle: 27   F: -531.506911661447020   dF: -5.423e-08   |Residual|: 6.811e-05   |deigs|: 9.701e-05  t[s]:    156.86
	FillingsUpdate:  mu: -0.153376284  nElectrons: 319.000000
SCF: Cycle: 28   F: -531.506911665428674   dF: -3.982e-09   |Residual|: 4.554e-05   |deigs|: 2.256e-04  t[s]:    160.69
	FillingsUpdate:  mu: -0.153351262  nElectrons: 319.000000
SCF: Cycle: 29   F: -531.506911670232398   dF: -4.804e-09   |Residual|: 3.588e-05   |deigs|: 1.095e-04  t[s]:    164.55
SCF: Converged (|Delta E|<1.000000e-08 for 2 iters).

Setting wave functions to eigenvectors of Hamiltonian

Computing DFT-D3 correction:
# coordination-number C 3.300 3.300 3.300 3.300 3.300 3.300 3.300 3.300 3.456 3.300 3.301 3.346 3.300 3.300 3.303 3.301 3.306 3.300 3.303 3.532 3.329 3.424 3.423 3.303 3.301 3.300 3.301 3.426 3.300 3.300 3.363 3.300 3.300 3.334 3.301 3.300 3.300 3.300 3.300 3.307 3.300 3.301 3.303 3.300 3.300 4.215 3.304 3.312 4.051 3.300 3.300 3.300 3.300 3.307 3.347 3.304 3.313 3.408 3.534 3.300 3.300 3.338 3.300 3.300 3.315 3.300 3.300 3.945 3.302 3.300 3.302
# coordination-number N 4.197
# coordination-number S 2.941 2.920
# coordination-number Na 2.725 6.206
# diagonal-C6 C 24.29 24.29 24.28 24.29 24.28 24.28 24.29 24.28 22.30 24.28 24.27 23.80 24.28 24.28 24.25 24.27 24.23 24.28 24.26 21.17 23.99 22.76 22.78 24.25 24.28 24.29 24.27 22.73 24.28 24.29 23.59 24.28 24.28 23.94 24.28 24.29 24.28 24.29 24.28 24.21 24.28 24.27 24.26 24.28 24.28 18.23 24.24 24.17 18.29 24.28 24.28 24.29 24.28 24.21 23.78 24.24 24.16 23.00 21.14 24.28 24.29 23.89 24.28 24.28 24.13 24.28 24.29 18.39 24.26 24.29 24.26
# diagonal-C6 N 15.58
# diagonal-C6 S 125.81 125.81
# diagonal-C6 Na 186.11 186.11
EvdW_6 =   -0.061120
EvdW_8 =   -0.052457

# Ionic positions in cartesian coordinates:
ion C -14.002918197300009  24.253758582300001   2.000000000000000 0
ion C  -2.333816550000000   4.042302545699999   2.000000000000000 0
ion C  11.669101647300000  20.211493831199999   2.000000000000000 0
ion C  -9.335266200000007  24.253758582300001   2.000000000000000 0
ion C   9.335303994599993  24.253758582300001   2.000000000000000 0
ion C   2.333816549999999   4.042302545699999   2.000000000000000 0
ion C -11.669120544600000  20.211493831199999   2.000000000000000 0
ion C  -4.667651997299999   8.084605091399998   2.000000000000000 0
ion C   9.335285097299998  16.169191285499998   2.000000000000000 0
ion C  -4.667614202700008  24.253758582300001   2.000000000000000 0
ion C   4.667651997299995  24.253758582300001   2.000000000000000 0
ion C   4.667651997299999   8.084605091399998   2.000000000000000 0
ion C  -9.335303994599998  16.169191285499998   2.000000000000000 0
ion C  -7.001468547300001  12.126907637100000   2.000000000000000 0
ion C   0.000037794599990  24.253758582300001   2.000000000000000 0
ion C   0.000000000000000   8.084605091399998   2.000000000000000 0
ion C   7.001449650000005  20.211493831199999   2.000000000000000 0
ion C  -7.001468547300000  20.211493831199999   2.000000000000000 0
ion C  -2.333816549999999  12.126907637100000   2.000000000000000 0
ion C   4.667633100000000  16.169191285499998   2.000000000000000 0
ion C  -2.333816549999995  20.211493831199999   2.000000000000000 0
ion C   2.333835447300000  20.211493831199999   2.000000000000000 0
ion C   2.333835447299999  12.126907637100000   2.000000000000000 0
ion C  -4.667651997299999  16.169191285499998   2.000000000000000 0
ion C   7.001449650000000   4.042302545699999   2.000000000000000 0
ion C  21.004386744600001   4.042302545699999   2.000000000000000 0
ion C  14.002937094600000  16.169191285499998   2.000000000000000 0
ion C   0.000000000000000  16.169191285499998   2.000000000000000 0
ion C  11.669101647300000   4.042302545699999   2.000000000000000 0
ion C  18.670589091899998   8.084605091399998   2.000000000000000 0
ion C  11.669101647300000  12.126907637100000   2.000000000000000 0
ion C  16.336753644600002  12.126907637100000   2.000000000000000 0
ion C  16.336753644600002   4.042302545699999   2.000000000000000 0
ion C   9.335285097300002   8.084605091399998   2.000000000000000 0
ion C  14.002937094600000   8.084605091399998   2.000000000000000 0
ion C   0.000018897300000   2.694868363800000   2.000000000000000 0
ion C  11.669120544600000  22.906362195000000   2.000000000000000 0
ion C -11.669120544600002  22.906362195000000   2.000000000000000 0
ion C  -2.333816549999999   6.737152012199999   2.000000000000000 0
ion C   9.335285097299998  18.864059649300000   2.000000000000000 0
ion C  -7.001468547300003  22.906362195000000   2.000000000000000 0
ion C   7.001468547300002  22.906362195000000   2.000000000000000 0
ion C   2.333816550000000   6.737152012199999   2.000000000000000 0
ion C  -9.335285097299998  18.864059649300000   2.000000000000000 0
ion C  -4.667633100000000  10.779454557899999   2.000000000000000 0
ion C   7.001468547300002  14.821757103600000   2.000000000000000 0
ion C  -2.333835447300000  22.906362195000000   2.000000000000000 0
ion C   2.333816550000000  22.906362195000000   2.000000000000000 0
ion C   4.667633100000000  10.779454557899999   2.000000000000000 0
ion C  -7.001468547300001  14.821757103600000   2.000000000000000 0
ion C   4.667633100000003   2.694868363800000   2.000000000000000 0
ion C  23.338222191900002   2.694868363800000   2.000000000000000 0
ion C  14.002918197300001  18.864059649300000   2.000000000000000 0
ion C   0.000018897300000  10.779454557899999   2.000000000000000 0
ion C   4.667633100000000  18.864059649300000   2.000000000000000 0
ion C  -4.667633099999996  18.864059649300000   2.000000000000000 0
ion C  -2.333816550000000  14.821757103600000   2.000000000000000 0
ion C   2.333816550000000  14.821757103600000   2.000000000000000 0
ion C  -0.000018897299999  18.864059649300000   2.000000000000000 0
ion C   9.335285097300000   2.694868363800000   2.000000000000000 0
ion C  21.004386744599998   6.737152012199999   2.000000000000000 0
ion C  11.669120544600002  14.821757103600000   2.000000000000000 0
ion C  16.336734747299992  14.821757103600000   2.000000000000000 0
ion C  18.670570194600000   2.694868363800000   2.000000000000000 0
ion C   7.001468547300000   6.737152012199999   2.000000000000000 0
ion C  14.002937094600002   2.694868363800000   2.000000000000000 0
ion C  18.670570194600000  10.779454557899999   2.000000000000000 0
ion C   9.335285097300000  10.779454557899999   2.000000000000000 0
ion C  11.669120544600000   6.737152012199999   2.000000000000000 0
ion C  16.336734747299989   6.737152012199999   2.000000000000000 0
ion C  14.002937094600000  10.779454557899999   2.000000000000000 0
ion N   7.001449650000002  12.126907637100000   2.000000000000000 0
ion S   2.360315076199998  13.511509479800001   8.162683115400000 1
ion S   5.493157138900001  16.379344830499999   9.049797966600000 1
ion Na   1.080909990999999  18.249722812000002   7.717897365299999 1
ion Na   6.835931527599999  12.641504524999998   6.187801881600000 1

# Forces in Cartesian coordinates:
force C   0.002084594680175  -0.001108985326259   0.000059496997127 0
force C   0.000733030059671  -0.000244589277809   0.000067546280459 0
force C   0.001808028471884  -0.001180890197898   0.000060081946487 0
force C   0.001059532840367   0.001260204999596   0.000072272781142 0
force C   0.000459665353683  -0.000507371972240   0.000108419562642 0
force C   0.001945286775322  -0.001090121183372   0.000030192978090 0
force C  -0.000554633555341  -0.001473130586978   0.000058692710137 0
force C   0.000354513101478   0.000595370567787   0.000078528697067 0
force C  -0.002279861009640  -0.008167196571552  -0.000372309001567 0
force C  -0.001481154014459   0.001343219401542   0.000118710353153 0
force C  -0.000266297093495  -0.000349255286728   0.000185493268763 0
force C   0.005848785414064   0.006839760564669   0.000111365962861 0
force C  -0.001742541290242   0.000329302548103   0.000060836811973 0
force C   0.000066376509621   0.002375683554832   0.000064095610457 0
force C  -0.002335264149203  -0.000678067693657   0.000044116156804 0
force C   0.000323447166769   0.000500995795994   0.000133907940607 0
force C   0.000025474964597  -0.000257624245351   0.000016155230209 0
force C  -0.000251487889261   0.000209799267313   0.000082279879514 0
force C   0.000209863273828   0.002090939565452   0.000461632336064 0
force C   0.001449030888242  -0.009216515962939  -0.002408147316572 0
force C  -0.001436455611177  -0.000688556108991   0.000708020423819 0
force C   0.000378096072473  -0.000218754484386   0.000534659905403 0
force C   0.008340639028949   0.000883686711028  -0.002473177933016 0
force C   0.001553033148380  -0.000202760281477   0.000103012463333 0
force C  -0.000185047702614   0.006306647935693   0.000112608659588 0
force C   0.000087578956362  -0.000081149197416   0.000054165750201 0
force C  -0.005552235811075  -0.002915096307128   0.000165653742438 0
force C   0.005307310119994  -0.005464658600109  -0.001301992212234 0
force C  -0.002299582773537  -0.001252227422759   0.000059367285473 0
force C   0.000015048995865   0.000537204551603   0.000057406748212 0
force C  -0.008451785584843   0.001930581528343   0.000160980933777 0
force C   0.000083789939169   0.002323680906867   0.000058750165719 0
force C  -0.000690226241632  -0.000272152584623   0.000055229350409 0
force C  -0.006636363532011   0.006053603920274   0.000240999861319 0
force C  -0.000329417214761  -0.000008783930434  -0.000068530990165 0
force C  -0.000908626592981   0.001010241259219   0.000056593074626 0
force C  -0.001321531476116   0.000145696847244   0.000071585705781 0
force C  -0.002404286111812   0.001238838843983   0.000052577923588 0
force C  -0.000176106202131   0.000004711605685   0.000087484690844 0
force C  -0.005075115229125   0.001113362014972   0.000497697875487 0
force C  -0.000110272724135   0.000007058219582   0.000051558392259 0
force C   0.000335706660827  -0.000084856637350   0.000086138493328 0
force C  -0.003408064302280   0.003818997801380   0.000465407094315 0
force C  -0.000051038845745  -0.000058827792825   0.000051065075492 0
force C   0.000579816245660  -0.001078647814379   0.000045422252154 0
force C  -0.000247545783335   0.005725646408734  -0.008027189990302 0
force C   0.002089391928782   0.002226942108530   0.000133678398277 0
force C   0.001873891188486   0.001583361006253   0.000322173328939 0
force C  -0.004522706404666  -0.002072269029500  -0.005285221605161 0
force C  -0.000152309776539  -0.002858897342260   0.000154926794126 0
force C  -0.002439154908325  -0.001147070289124   0.000049064479221 0
force C  -0.000797705504805   0.000508643080144   0.000055442658921 0
force C  -0.000141090736692   0.002586324449388   0.000076791301866 0
force C   0.002558919184887  -0.004552209440432  -0.000173812901150 0
force C   0.006604094869864   0.000605063607374   0.000058769479060 0
force C  -0.000823028159022  -0.000120004666502   0.000175815685369 0
force C  -0.002621047281932  -0.001940012486648   0.000100547624361 0
force C  -0.006365161229676   0.004350399564745  -0.002136360892326 0
force C  -0.000630668757769   0.001894836898250   0.000917290709889 0
force C   0.002640706138158  -0.001093500988201   0.000045391874603 0
force C  -0.000122239375820  -0.000797679769875   0.000055327902130 0
force C   0.008142807424534   0.005230087526852  -0.000310757720586 0
force C   0.002443547774658  -0.001500576973673   0.000045628931263 0
force C   0.000814799706929   0.000632897554655   0.000055432177541 0
force C   0.000072922171095  -0.009066341510546  -0.000147508519947 0
force C   0.001095885980510   0.001331536747107   0.000128403001722 0
force C  -0.000501593488063  -0.001143601019609   0.000051065942005 0
force C   0.003137132817171  -0.001944196153504  -0.002128780329861 0
force C   0.003800901620280   0.003651909518651   0.000252789728011 0
force C   0.000255455261000  -0.000011844466706   0.000071549838378 0
force C  -0.001198320309607  -0.004843864594244   0.000311074490513 0
force N  -0.000391849200783  -0.001828321501776  -0.013352862332856 0
force S   0.022991826205802   0.020286637364699   0.013813343767121 1
force S  -0.024901531395341  -0.019565892610927  -0.003187196010513 1
force Na  -0.002208048753644   0.003630510156967  -0.002594101296964 1
force Na   0.004460541086588  -0.004057361421969   0.025439640839592 1

# Energy components:
   Eewald =    -1168.8160763114831298
       EH =     -763.5872026839954287
     Eloc =     1367.5094885411256200
      Enl =      -81.3887770284003977
     EvdW =       -0.1135775198584012
      Exc =     -154.3637082150391393
 Exc_core =        6.0150662243316493
       KE =      263.3047738643655862
-------------------------------------
     Etot =     -531.4400131289537512
       TS =        0.0668985412786623
-------------------------------------
        F =     -531.5069116702323981

IonicMinimize: Iter:   0  F: -531.506911670232398  |grad|_K:  1.542e-02  alpha:  1.000e+00

#--- Lowdin population analysis ---
# oxidation-state C +0.040 +0.041 +0.042 +0.038 +0.041 +0.041 +0.038 +0.041 +0.017 +0.034 +0.037 +0.018 +0.038 +0.040 +0.031 +0.041 +0.043 +0.032 +0.042 +0.020 +0.018 +0.010 +0.031 +0.033 +0.033 +0.037 +0.035 +0.016 +0.038 +0.040 +0.011 +0.039 +0.039 +0.013 +0.038 +0.039 +0.040 +0.040 +0.040 +0.041 +0.038 +0.037 +0.039 +0.039 +0.040 +0.075 +0.029 +0.027 +0.091 +0.038 +0.040 +0.039 +0.040 +0.043 +0.032 +0.030 +0.036 +0.040 -0.003 +0.038 +0.038 +0.027 +0.039 +0.037 +0.030 +0.036 +0.039 +0.081 +0.034 +0.037 +0.035
# oxidation-state N -0.065
# oxidation-state S -0.499 -0.512
# oxidation-state Na +0.829 +0.814


Computing DFT-D3 correction:
# coordination-number C 3.300 3.300 3.300 3.300 3.300 3.300 3.300 3.300 3.450 3.300 3.301 3.344 3.300 3.300 3.303 3.301 3.306 3.300 3.303 3.523 3.329 3.425 3.418 3.303 3.301 3.300 3.301 3.427 3.300 3.300 3.361 3.300 3.300 3.333 3.301 3.300 3.300 3.300 3.300 3.307 3.300 3.301 3.303 3.300 3.300 4.208 3.304 3.312 4.037 3.300 3.300 3.300 3.300 3.307 3.347 3.304 3.313 3.405 3.536 3.300 3.300 3.337 3.300 3.300 3.315 3.300 3.300 3.933 3.302 3.300 3.302
# coordination-number N 4.195
# coordination-number S 2.955 2.934
# coordination-number Na 2.729 6.143
# diagonal-C6 C 24.29 24.29 24.28 24.29 24.28 24.28 24.29 24.28 22.39 24.28 24.27 23.82 24.28 24.28 24.25 24.27 24.23 24.28 24.26 21.30 23.99 22.75 22.85 24.25 24.28 24.29 24.27 22.73 24.28 24.29 23.61 24.28 24.28 23.95 24.28 24.29 24.28 24.29 24.28 24.22 24.28 24.27 24.26 24.28 24.28 18.23 24.24 24.17 18.30 24.28 24.28 24.29 24.28 24.21 23.78 24.24 24.16 23.03 21.12 24.28 24.29 23.90 24.28 24.28 24.14 24.28 24.29 18.41 24.26 24.29 24.26
# diagonal-C6 N 15.58
# diagonal-C6 S 125.81 125.81
# diagonal-C6 Na 186.11 186.11
EvdW_6 =   -0.061134
EvdW_8 =   -0.052459

-------- Electronic minimization -----------
Will mix electronic density at each iteration.
	FillingsUpdate:  mu: -0.153351262  nElectrons: 319.000000
	FillingsUpdate:  mu: -0.152801139  nElectrons: 319.000000
SCF: Cycle:  0   F: -531.490347777651891   dF: +1.512e-04   |Residual|: 7.736e-02   |deigs|: 2.761e-04  t[s]:    175.53
	FillingsUpdate:  mu: -0.151942154  nElectrons: 319.000000
SCF: Cycle:  1   F: -531.507719962130977   dF: -1.737e-02   |Residual|: 3.468e-02   |deigs|: 1.380e-03  t[s]:    179.89
	FillingsUpdate:  mu: -0.152405961  nElectrons: 319.000000
SCF: Cycle:  2   F: -531.508744089302354   dF: -1.024e-03   |Residual|: 1.318e-02   |deigs|: 4.533e-04  t[s]:    184.25
	FillingsUpdate:  mu: -0.152266212  nElectrons: 319.000000
SCF: Cycle:  3   F: -531.509562756005266   dF: -8.187e-04   |Residual|: 6.045e-03   |deigs|: 3.162e-04  t[s]:    188.62
	FillingsUpdate:  mu: -0.152320413  nElectrons: 319.000000
SCF: Cycle:  4   F: -531.509575660782048   dF: -1.290e-05   |Residual|: 1.697e-03   |deigs|: 1.766e-04  t[s]:    192.44
	FillingsUpdate:  mu: -0.152325733  nElectrons: 319.000000
SCF: Cycle:  5   F: -531.509596494197581   dF: -2.083e-05   |Residual|: 1.248e-03   |deigs|: 8.705e-05  t[s]:    200.13
	FillingsUpdate:  mu: -0.152361040  nElectrons: 319.000000
SCF: Cycle:  6   F: -531.509608543159743   dF: -1.205e-05   |Residual|: 6.808e-04   |deigs|: 1.916e-04  t[s]:    206.49
	FillingsUpdate:  mu: -0.152386406  nElectrons: 319.000000
SCF: Cycle:  7   F: -531.509611703143491   dF: -3.160e-06   |Residual|: 5.185e-04   |deigs|: 9.624e-05  t[s]:    210.07
	FillingsUpdate:  mu: -0.152419863  nElectrons: 319.000000
SCF: Cycle:  8   F: -531.509615979887258   dF: -4.277e-06   |Residual|: 3.170e-04   |deigs|: 1.155e-04  t[s]:    213.81
	FillingsUpdate:  mu: -0.152465120  nElectrons: 319.000000
SCF: Cycle:  9   F: -531.509617361484175   dF: -1.382e-06   |Residual|: 2.202e-04   |deigs|: 1.038e-04  t[s]:    217.80
	FillingsUpdate:  mu: -0.152500456  nElectrons: 319.000000
SCF: Cycle: 10   F: -531.509618845855130   dF: -1.484e-06   |Residual|: 1.785e-04   |deigs|: 1.263e-04  t[s]:    221.58
	FillingsUpdate:  mu: -0.152541172  nElectrons: 319.000000
SCF: Cycle: 11   F: -531.509619372373777   dF: -5.265e-07   |Residual|: 1.253e-04   |deigs|: 1.691e-04  t[s]:    225.37
	FillingsUpdate:  mu: -0.152581389  nElectrons: 319.000000
SCF: Cycle: 12   F: -531.509619774093949   dF: -4.017e-07   |Residual|: 1.044e-04   |deigs|: 1.616e-04  t[s]:    229.15
	FillingsUpdate:  mu: -0.152619798  nElectrons: 319.000000
SCF: Cycle: 13   F: -531.509619998256085   dF: -2.242e-07   |Residual|: 7.909e-05   |deigs|: 1.232e-04  t[s]:    232.91
	FillingsUpdate:  mu: -0.152659102  nElectrons: 319.000000
SCF: Cycle: 14   F: -531.509620120450109   dF: -1.222e-07   |Residual|: 6.252e-05   |deigs|: 1.003e-04  t[s]:    236.71
	FillingsUpdate:  mu: -0.152689768  nElectrons: 319.000000
SCF: Cycle: 15   F: -531.509620169486993   dF: -4.904e-08   |Residual|: 4.970e-05   |deigs|: 9.186e-05  t[s]:    240.48
	FillingsUpdate:  mu: -0.152721116  nElectrons: 319.000000
SCF: Cycle: 16   F: -531.509620184075743   dF: -1.459e-08   |Residual|: 3.638e-05   |deigs|: 1.127e-04  t[s]:    244.27
	FillingsUpdate:  mu: -0.152739896  nElectrons: 319.000000
SCF: Cycle: 17   F: -531.509620197340382   dF: -1.326e-08   |Residual|: 2.475e-05   |deigs|: 4.481e-05  t[s]:    248.05
	FillingsUpdate:  mu: -0.152753462  nElectrons: 319.000000
SCF: Cycle: 18   F: -531.509620201160715   dF: -3.820e-09   |Residual|: 1.965e-05   |deigs|: 4.324e-05  t[s]:    251.84
	FillingsUpdate:  mu: -0.152765107  nElectrons: 319.000000
SCF: Cycle: 19   F: -531.509620202175483   dF: -1.015e-09   |Residual|: 1.659e-05   |deigs|: 5.740e-05  t[s]:    255.59
SCF: Converged (|Delta E|<1.000000e-08 for 2 iters).

Setting wave functions to eigenvectors of Hamiltonian
IonicMinimize: 	Predicted alpha/alphaT>3.000000, increasing alphaT to 3.000000e+00.

Computing DFT-D3 correction:
# coordination-number C 3.300 3.300 3.300 3.300 3.300 3.300 3.300 3.300 3.439 3.300 3.301 3.341 3.300 3.300 3.303 3.301 3.306 3.300 3.303 3.506 3.329 3.427 3.408 3.303 3.300 3.300 3.301 3.427 3.300 3.300 3.358 3.300 3.300 3.331 3.301 3.300 3.300 3.300 3.300 3.307 3.300 3.301 3.303 3.300 3.300 4.191 3.304 3.312 4.008 3.300 3.300 3.300 3.300 3.307 3.347 3.304 3.313 3.401 3.539 3.300 3.300 3.335 3.300 3.300 3.314 3.300 3.300 3.908 3.302 3.300 3.302
# coordination-number N 4.191
# coordination-number S 2.974 2.956
# coordination-number Na 2.737 6.017
# diagonal-C6 C 24.29 24.29 24.28 24.29 24.28 24.28 24.29 24.28 22.56 24.28 24.27 23.85 24.28 24.28 24.25 24.27 24.23 24.28 24.26 21.56 23.98 22.73 22.99 24.25 24.28 24.29 24.27 22.72 24.28 24.29 23.65 24.28 24.28 23.97 24.28 24.29 24.28 24.29 24.28 24.22 24.28 24.27 24.26 24.28 24.28 18.23 24.24 24.16 18.32 24.28 24.28 24.29 24.28 24.22 23.78 24.24 24.16 23.10 21.07 24.28 24.29 23.92 24.28 24.28 24.14 24.28 24.29 18.45 24.27 24.29 24.26
# diagonal-C6 N 15.58
# diagonal-C6 S 125.81 125.81
# diagonal-C6 Na 186.11 186.11
EvdW_6 =   -0.061160
EvdW_8 =   -0.052463

-------- Electronic minimization -----------
Will mix electronic density at each iteration.
	FillingsUpdate:  mu: -0.152765107  nElectrons: 319.000000
	FillingsUpdate:  mu: -0.151381608  nElectrons: 319.000000
SCF: Cycle:  0   F: -531.442100494765214   dF: -4.954e-03   |Residual|: 1.555e-01   |deigs|: 1.108e-03  t[s]:    263.54
	FillingsUpdate:  mu: -0.150075429  nElectrons: 319.000000
SCF: Cycle:  1   F: -531.507787072189331   dF: -6.569e-02   |Residual|: 6.673e-02   |deigs|: 2.779e-03  t[s]:    267.88
	FillingsUpdate:  mu: -0.150760035  nElectrons: 319.000000
SCF: Cycle:  2   F: -531.511525205963608   dF: -3.738e-03   |Residual|: 2.366e-02   |deigs|: 8.001e-04  t[s]:    272.23
	FillingsUpdate:  mu: -0.150523137  nElectrons: 319.000000
SCF: Cycle:  3   F: -531.513852535310548   dF: -2.327e-03   |Residual|: 1.185e-02   |deigs|: 5.621e-04  t[s]:    276.50
	FillingsUpdate:  mu: -0.150679376  nElectrons: 319.000000
SCF: Cycle:  4   F: -531.513821551740307   dF: +3.098e-05   |Residual|: 3.576e-03   |deigs|: 3.330e-04  t[s]:    280.82
	FillingsUpdate:  mu: -0.150656631  nElectrons: 319.000000
SCF: Cycle:  5   F: -531.513969600379596   dF: -1.480e-04   |Residual|: 2.493e-03   |deigs|: 1.799e-04  t[s]:    284.56
	FillingsUpdate:  mu: -0.150732868  nElectrons: 319.000000
SCF: Cycle:  6   F: -531.514006265693070   dF: -3.667e-05   |Residual|: 1.336e-03   |deigs|: 3.199e-04  t[s]:    288.42
	FillingsUpdate:  mu: -0.150794583  nElectrons: 319.000000
SCF: Cycle:  7   F: -531.514012232043683   dF: -5.966e-06   |Residual|: 1.095e-03   |deigs|: 1.634e-04  t[s]:    292.26
	FillingsUpdate:  mu: -0.150857920  nElectrons: 319.000000
SCF: Cycle:  8   F: -531.514033094458341   dF: -2.086e-05   |Residual|: 6.404e-04   |deigs|: 1.848e-04  t[s]:    296.05
	FillingsUpdate:  mu: -0.150945864  nElectrons: 319.000000
SCF: Cycle:  9   F: -531.514034386542789   dF: -1.292e-06   |Residual|: 5.080e-04   |deigs|: 1.307e-04  t[s]:    299.80
	FillingsUpdate:  mu: -0.151026810  nElectrons: 319.000000
SCF: Cycle: 10   F: -531.514042553825675   dF: -8.167e-06   |Residual|: 3.659e-04   |deigs|: 2.116e-04  t[s]:    303.61
	FillingsUpdate:  mu: -0.151116895  nElectrons: 319.000000
SCF: Cycle: 11   F: -531.514044605956201   dF: -2.052e-06   |Residual|: 2.508e-04   |deigs|: 2.433e-04  t[s]:    307.40
	FillingsUpdate:  mu: -0.151191306  nElectrons: 319.000000
SCF: Cycle: 12   F: -531.514046270274662   dF: -1.664e-06   |Residual|: 2.134e-04   |deigs|: 2.109e-04  t[s]:    311.04
	FillingsUpdate:  mu: -0.151270669  nElectrons: 319.000000
SCF: Cycle: 13   F: -531.514047233348492   dF: -9.631e-07   |Residual|: 1.613e-04   |deigs|: 1.758e-04  t[s]:    314.72
	FillingsUpdate:  mu: -0.151358026  nElectrons: 319.000000
SCF: Cycle: 14   F: -531.514047747615450   dF: -5.143e-07   |Residual|: 1.278e-04   |deigs|: 1.772e-04  t[s]:    318.48
	FillingsUpdate:  mu: -0.151418012  nElectrons: 319.000000
SCF: Cycle: 15   F: -531.514047905729740   dF: -1.581e-07   |Residual|: 9.689e-05   |deigs|: 2.079e-04  t[s]:    322.24
	FillingsUpdate:  mu: -0.151478050  nElectrons: 319.000000
SCF: Cycle: 16   F: -531.514047975544713   dF: -6.981e-08   |Residual|: 7.045e-05   |deigs|: 1.809e-04  t[s]:    326.07
	FillingsUpdate:  mu: -0.151519238  nElectrons: 319.000000
SCF: Cycle: 17   F: -531.514048017807909   dF: -4.226e-08   |Residual|: 4.752e-05   |deigs|: 9.766e-05  t[s]:    329.71
	FillingsUpdate:  mu: -0.151543195  nElectrons: 319.000000
SCF: Cycle: 18   F: -531.514048028149887   dF: -1.034e-08   |Residual|: 3.722e-05   |deigs|: 7.381e-05  t[s]:    333.53
	FillingsUpdate:  mu: -0.151567978  nElectrons: 319.000000
SCF: Cycle: 19   F: -531.514048032770802   dF: -4.621e-09   |Residual|: 3.015e-05   |deigs|: 9.332e-05  t[s]:    337.32
	FillingsUpdate:  mu: -0.151596436  nElectrons: 319.000000
SCF: Cycle: 20   F: -531.514048035169026   dF: -2.398e-09   |Residual|: 2.643e-05   |deigs|: 1.444e-04  t[s]:    341.14
SCF: Converged (|Delta E|<1.000000e-08 for 2 iters).

Setting wave functions to eigenvectors of Hamiltonian
IonicMinimize: 	Predicted alpha/alphaT>3.000000, increasing alphaT to 9.000000e+00.

Computing DFT-D3 correction:
# coordination-number C 3.300 3.300 3.300 3.300 3.300 3.300 3.300 3.300 3.409 3.300 3.301 3.332 3.300 3.300 3.303 3.301 3.305 3.300 3.302 3.461 3.331 3.431 3.383 3.303 3.300 3.300 3.301 3.429 3.300 3.300 3.348 3.300 3.300 3.325 3.300 3.300 3.300 3.300 3.300 3.306 3.300 3.301 3.302 3.300 3.300 4.125 3.305 3.312 3.915 3.300 3.300 3.300 3.300 3.306 3.347 3.305 3.313 3.388 3.548 3.300 3.300 3.330 3.300 3.300 3.312 3.300 3.300 3.830 3.302 3.300 3.302
# coordination-number N 4.171
# coordination-number S 2.999 2.985
# coordination-number Na 2.760 5.625
# diagonal-C6 C 24.29 24.29 24.28 24.29 24.28 24.28 24.29 24.28 22.99 24.28 24.27 23.95 24.28 24.28 24.25 24.27 24.23 24.28 24.26 22.22 23.97 22.66 23.33 24.25 24.28 24.29 24.27 22.69 24.28 24.29 23.77 24.28 24.28 24.03 24.28 24.29 24.28 24.29 24.28 24.23 24.28 24.27 24.26 24.28 24.28 18.25 24.24 24.16 18.44 24.28 24.28 24.29 24.28 24.23 23.78 24.24 24.16 23.27 20.94 24.28 24.29 23.98 24.28 24.28 24.16 24.28 24.29 18.64 24.27 24.29 24.26
# diagonal-C6 N 15.58
# diagonal-C6 S 125.81 125.81
# diagonal-C6 Na 186.11 186.11
EvdW_6 =   -0.061228
EvdW_8 =   -0.052471

-------- Electronic minimization -----------
Will mix electronic density at each iteration.
	FillingsUpdate:  mu: -0.151596436  nElectrons: 319.000000
	FillingsUpdate:  mu: -0.144359320  nElectrons: 319.000000
SCF: Cycle:  0   F: -531.036831022198044   dF: -2.376e-01   |Residual|: 4.891e-01   |deigs|: 8.038e-03  t[s]:    349.06
	FillingsUpdate:  mu: -0.144814735  nElectrons: 319.000000
SCF: Cycle:  1   F: -531.438118479166064   dF: -4.013e-01   |Residual|: 1.932e-01   |deigs|: 8.325e-03  t[s]:    353.39
	FillingsUpdate:  mu: -0.142921569  nElectrons: 319.000000
SCF: Cycle:  2   F: -531.502403217049391   dF: -6.428e-02   |Residual|: 7.593e-02   |deigs|: 4.348e-03  t[s]:    357.54
	FillingsUpdate:  mu: -0.145149782  nElectrons: 319.000000
SCF: Cycle:  3   F: -531.496078529196097   dF: +6.325e-03   |Residual|: 4.316e-02   |deigs|: 1.774e-03  t[s]:    361.85
	FillingsUpdate:  mu: -0.145025996  nElectrons: 319.000000
SCF: Cycle:  4   F: -531.506026365545381   dF: -9.948e-03   |Residual|: 2.515e-02   |deigs|: 7.593e-04  t[s]:    366.13
	FillingsUpdate:  mu: -0.144610077  nElectrons: 319.000000
SCF: Cycle:  5   F: -531.514052204521818   dF: -8.026e-03   |Residual|: 8.056e-03   |deigs|: 9.227e-04  t[s]:    370.45
	FillingsUpdate:  mu: -0.144806211  nElectrons: 319.000000
SCF: Cycle:  6   F: -531.514566781876511   dF: -5.146e-04   |Residual|: 4.312e-03   |deigs|: 7.547e-04  t[s]:    374.62
	FillingsUpdate:  mu: -0.145128738  nElectrons: 319.000000
SCF: Cycle:  7   F: -531.514278669040664   dF: +2.881e-04   |Residual|: 5.073e-03   |deigs|: 3.909e-04  t[s]:    378.52
	FillingsUpdate:  mu: -0.145189820  nElectrons: 319.000000
SCF: Cycle:  8   F: -531.514767461349606   dF: -4.888e-04   |Residual|: 2.225e-03   |deigs|: 3.805e-04  t[s]:    382.33
	FillingsUpdate:  mu: -0.145504694  nElectrons: 319.000000
SCF: Cycle:  9   F: -531.514638429426668   dF: +1.290e-04   |Residual|: 2.745e-03   |deigs|: 2.789e-04  t[s]:    386.15
	FillingsUpdate:  mu: -0.145715489  nElectrons: 319.000000
SCF: Cycle: 10   F: -531.514788087284387   dF: -1.497e-04   |Residual|: 1.274e-03   |deigs|: 3.542e-04  t[s]:    389.95
	FillingsUpdate:  mu: -0.145949993  nElectrons: 319.000000
SCF: Cycle: 11   F: -531.514837526626934   dF: -4.944e-05   |Residual|: 8.725e-04   |deigs|: 3.474e-04  t[s]:    393.74
	FillingsUpdate:  mu: -0.146195414  nElectrons: 319.000000
SCF: Cycle: 12   F: -531.514847708596562   dF: -1.018e-05   |Residual|: 7.132e-04   |deigs|: 3.716e-04  t[s]:    397.53
	FillingsUpdate:  mu: -0.146441498  nElectrons: 319.000000
SCF: Cycle: 13   F: -531.514863040878026   dF: -1.533e-05   |Residual|: 5.492e-04   |deigs|: 3.400e-04  t[s]:    401.32
	FillingsUpdate:  mu: -0.146750774  nElectrons: 319.000000
SCF: Cycle: 14   F: -531.514868784901182   dF: -5.744e-06   |Residual|: 3.956e-04   |deigs|: 4.129e-04  t[s]:    405.08
	FillingsUpdate:  mu: -0.146906135  nElectrons: 319.000000
SCF: Cycle: 15   F: -531.514870232043450   dF: -1.447e-06   |Residual|: 3.334e-04   |deigs|: 3.459e-04  t[s]:    408.74
	FillingsUpdate:  mu: -0.147126647  nElectrons: 319.000000
SCF: Cycle: 16   F: -531.514871019625389   dF: -7.876e-07   |Residual|: 2.188e-04   |deigs|: 4.534e-04  t[s]:    414.93
	FillingsUpdate:  mu: -0.147248297  nElectrons: 319.000000
SCF: Cycle: 17   F: -531.514871265452030   dF: -2.458e-07   |Residual|: 1.564e-04   |deigs|: 2.235e-04  t[s]:    419.36
	FillingsUpdate:  mu: -0.147324344  nElectrons: 319.000000
SCF: Cycle: 18   F: -531.514871336009264   dF: -7.056e-08   |Residual|: 1.259e-04   |deigs|: 1.511e-04  t[s]:    424.12
	FillingsUpdate:  mu: -0.147402321  nElectrons: 319.000000
SCF: Cycle: 19   F: -531.514871390609869   dF: -5.460e-08   |Residual|: 9.602e-05   |deigs|: 1.880e-04  t[s]:    427.79
	FillingsUpdate:  mu: -0.147476585  nElectrons: 319.000000
SCF: Cycle: 20   F: -531.514871408895033   dF: -1.829e-08   |Residual|: 8.338e-05   |deigs|: 2.245e-04  t[s]:    431.47
	FillingsUpdate:  mu: -0.147546038  nElectrons: 319.000000
SCF: Cycle: 21   F: -531.514871416551159   dF: -7.656e-09   |Residual|: 7.802e-05   |deigs|: 1.730e-04  t[s]:    435.28
	FillingsUpdate:  mu: -0.147629761  nElectrons: 319.000000
SCF: Cycle: 22   F: -531.514871446744792   dF: -3.019e-08   |Residual|: 6.348e-05   |deigs|: 1.520e-04  t[s]:    439.49
	FillingsUpdate:  mu: -0.147717931  nElectrons: 319.000000
SCF: Cycle: 23   F: -531.514871472852406   dF: -2.611e-08   |Residual|: 5.051e-05   |deigs|: 2.054e-04  t[s]:    443.27
	FillingsUpdate:  mu: -0.147754141  nElectrons: 319.000000
SCF: Cycle: 24   F: -531.514871485260869   dF: -1.241e-08   |Residual|: 3.939e-05   |deigs|: 9.683e-05  t[s]:    446.93
	FillingsUpdate:  mu: -0.147784927  nElectrons: 319.000000
SCF: Cycle: 25   F: -531.514871503784320   dF: -1.852e-08   |Residual|: 2.872e-05   |deigs|: 7.452e-05  t[s]:    450.73
	FillingsUpdate:  mu: -0.147805669  nElectrons: 319.000000
SCF: Cycle: 26   F: -531.514871513956791   dF: -1.017e-08   |Residual|: 1.979e-05   |deigs|: 6.228e-05  t[s]:    454.55
	FillingsUpdate:  mu: -0.147822831  nElectrons: 319.000000
SCF: Cycle: 27   F: -531.514871518821110   dF: -4.864e-09   |Residual|: 1.517e-05   |deigs|: 7.405e-05  t[s]:    458.34
	FillingsUpdate:  mu: -0.147833250  nElectrons: 319.000000
SCF: Cycle: 28   F: -531.514871519951726   dF: -1.131e-09   |Residual|: 1.141e-05   |deigs|: 3.799e-05  t[s]:    462.14
SCF: Converged (|Delta E|<1.000000e-08 for 2 iters).

Setting wave functions to eigenvectors of Hamiltonian

Computing DFT-D3 correction:
# coordination-number C 3.300 3.300 3.300 3.300 3.300 3.300 3.300 3.300 3.420 3.300 3.301 3.336 3.300 3.300 3.303 3.301 3.306 3.300 3.302 3.478 3.330 3.429 3.393 3.303 3.300 3.300 3.301 3.428 3.300 3.300 3.352 3.300 3.300 3.327 3.301 3.300 3.300 3.300 3.300 3.306 3.300 3.301 3.302 3.300 3.300 4.155 3.305 3.312 3.955 3.300 3.300 3.300 3.300 3.306 3.347 3.305 3.313 3.393 3.544 3.300 3.300 3.332 3.300 3.300 3.313 3.300 3.300 3.862 3.302 3.300 3.302
# coordination-number N 4.181
# coordination-number S 2.992 2.977
# coordination-number Na 2.751 5.789
# diagonal-C6 C 24.29 24.29 24.28 24.29 24.28 24.28 24.29 24.28 22.82 24.28 24.27 23.91 24.28 24.28 24.25 24.27 24.23 24.28 24.26 21.96 23.97 22.69 23.20 24.25 24.28 24.29 24.27 22.71 24.28 24.29 23.73 24.28 24.28 24.00 24.28 24.29 24.28 24.29 24.28 24.22 24.28 24.27 24.26 24.28 24.28 18.24 24.24 24.16 18.38 24.28 24.28 24.29 24.28 24.22 23.78 24.24 24.16 23.20 21.00 24.28 24.29 23.96 24.28 24.28 24.15 24.28 24.29 18.55 24.27 24.29 24.26
# diagonal-C6 N 15.58
# diagonal-C6 S 125.81 125.81
# diagonal-C6 Na 186.11 186.11
EvdW_6 =   -0.061202
EvdW_8 =   -0.052469

-------- Electronic minimization -----------
Will mix electronic density at each iteration.
	FillingsUpdate:  mu: -0.147833250  nElectrons: 319.000000
	FillingsUpdate:  mu: -0.149450410  nElectrons: 319.000000
SCF: Cycle:  0   F: -531.513323227298088   dF: +1.517e-03   |Residual|: 2.835e-02   |deigs|: 5.850e-05  t[s]:    472.04
	FillingsUpdate:  mu: -0.148785602  nElectrons: 319.000000
SCF: Cycle:  1   F: -531.517070475119112   dF: -3.747e-03   |Residual|: 1.129e-02   |deigs|: 7.092e-04  t[s]:    476.24
	FillingsUpdate:  mu: -0.149068793  nElectrons: 319.000000
SCF: Cycle:  2   F: -531.517239802991298   dF: -1.693e-04   |Residual|: 5.664e-03   |deigs|: 2.933e-04  t[s]:    480.09
	FillingsUpdate:  mu: -0.149029169  nElectrons: 319.000000
SCF: Cycle:  3   F: -531.517401493859211   dF: -1.617e-04   |Residual|: 1.620e-03   |deigs|: 1.874e-04  t[s]:    483.73
	FillingsUpdate:  mu: -0.149056744  nElectrons: 319.000000
SCF: Cycle:  4   F: -531.517408341734608   dF: -6.848e-06   |Residual|: 7.017e-04   |deigs|: 9.666e-05  t[s]:    486.48
	FillingsUpdate:  mu: -0.149074535  nElectrons: 319.000000
SCF: Cycle:  5   F: -531.517418322507410   dF: -9.981e-06   |Residual|: 4.777e-04   |deigs|: 8.358e-05  t[s]:    489.22
	FillingsUpdate:  mu: -0.149108250  nElectrons: 319.000000
SCF: Cycle:  6   F: -531.517426592404377   dF: -8.270e-06   |Residual|: 2.987e-04   |deigs|: 1.437e-04  t[s]:    491.99
	FillingsUpdate:  mu: -0.149133930  nElectrons: 319.000000
SCF: Cycle:  7   F: -531.517427762389616   dF: -1.170e-06   |Residual|: 2.385e-04   |deigs|: 8.549e-05  t[s]:    494.75
	FillingsUpdate:  mu: -0.149168224  nElectrons: 319.000000
SCF: Cycle:  8   F: -531.517430053722592   dF: -2.291e-06   |Residual|: 1.576e-04   |deigs|: 1.177e-04  t[s]:    498.50
	FillingsUpdate:  mu: -0.149205467  nElectrons: 319.000000
SCF: Cycle:  9   F: -531.517430626207215   dF: -5.725e-07   |Residual|: 1.290e-04   |deigs|: 1.027e-04  t[s]:    502.28
	FillingsUpdate:  mu: -0.149257496  nElectrons: 319.000000
SCF: Cycle: 10   F: -531.517431302902651   dF: -6.767e-07   |Residual|: 1.143e-04   |deigs|: 1.336e-04  t[s]:    506.11
	FillingsUpdate:  mu: -0.149303037  nElectrons: 319.000000
SCF: Cycle: 11   F: -531.517431572734949   dF: -2.698e-07   |Residual|: 8.809e-05   |deigs|: 9.054e-05  t[s]:    509.91
	FillingsUpdate:  mu: -0.149350565  nElectrons: 319.000000
SCF: Cycle: 12   F: -531.517431759455576   dF: -1.867e-07   |Residual|: 7.128e-05   |deigs|: 1.056e-04  t[s]:    513.67
	FillingsUpdate:  mu: -0.149379460  nElectrons: 319.000000
SCF: Cycle: 13   F: -531.517431817191436   dF: -5.774e-08   |Residual|: 5.167e-05   |deigs|: 1.078e-04  t[s]:    517.48
	FillingsUpdate:  mu: -0.149408992  nElectrons: 319.000000
SCF: Cycle: 14   F: -531.517431843404665   dF: -2.621e-08   |Residual|: 3.413e-05   |deigs|: 1.398e-04  t[s]:    521.26
	FillingsUpdate:  mu: -0.149425269  nElectrons: 319.000000
SCF: Cycle: 15   F: -531.517431847713283   dF: -4.309e-09   |Residual|: 2.384e-05   |deigs|: 5.145e-05  t[s]:    525.04
	FillingsUpdate:  mu: -0.149439404  nElectrons: 319.000000
SCF: Cycle: 16   F: -531.517431850449611   dF: -2.736e-09   |Residual|: 2.042e-05   |deigs|: 5.635e-05  t[s]:    528.79
SCF: Converged (|Delta E|<1.000000e-08 for 2 iters).

Setting wave functions to eigenvectors of Hamiltonian

Computing DFT-D3 correction:
# coordination-number C 3.300 3.300 3.300 3.300 3.300 3.300 3.300 3.300 3.420 3.300 3.301 3.336 3.300 3.300 3.303 3.301 3.306 3.300 3.302 3.478 3.330 3.429 3.393 3.303 3.300 3.300 3.301 3.428 3.300 3.300 3.352 3.300 3.300 3.327 3.301 3.300 3.300 3.300 3.300 3.306 3.300 3.301 3.302 3.300 3.300 4.155 3.305 3.312 3.955 3.300 3.300 3.300 3.300 3.306 3.347 3.305 3.313 3.393 3.544 3.300 3.300 3.332 3.300 3.300 3.313 3.300 3.300 3.862 3.302 3.300 3.302
# coordination-number N 4.181
# coordination-number S 2.992 2.977
# coordination-number Na 2.751 5.789
# diagonal-C6 C 24.29 24.29 24.28 24.29 24.28 24.28 24.29 24.28 22.82 24.28 24.27 23.91 24.28 24.28 24.25 24.27 24.23 24.28 24.26 21.96 23.97 22.69 23.20 24.25 24.28 24.29 24.27 22.71 24.28 24.29 23.73 24.28 24.28 24.00 24.28 24.29 24.28 24.29 24.28 24.22 24.28 24.27 24.26 24.28 24.28 18.24 24.24 24.16 18.38 24.28 24.28 24.29 24.28 24.22 23.78 24.24 24.16 23.20 21.00 24.28 24.29 23.96 24.28 24.28 24.15 24.28 24.29 18.55 24.27 24.29 24.26
# diagonal-C6 N 15.58
# diagonal-C6 S 125.81 125.81
# diagonal-C6 Na 186.11 186.11
EvdW_6 =   -0.061202
EvdW_8 =   -0.052469

# Ionic positions in cartesian coordinates:
ion C -14.002918197300009  24.253758582300001   2.000000000000000 0
ion C  -2.333816550000000   4.042302545699999   2.000000000000000 0
ion C  11.669101647300000  20.211493831199999   2.000000000000000 0
ion C  -9.335266200000007  24.253758582300001   2.000000000000000 0
ion C   9.335303994599993  24.253758582300001   2.000000000000000 0
ion C   2.333816549999999   4.042302545699999   2.000000000000000 0
ion C -11.669120544600000  20.211493831199999   2.000000000000000 0
ion C  -4.667651997299999   8.084605091399998   2.000000000000000 0
ion C   9.335285097299998  16.169191285499998   2.000000000000000 0
ion C  -4.667614202700008  24.253758582300001   2.000000000000000 0
ion C   4.667651997299995  24.253758582300001   2.000000000000000 0
ion C   4.667651997299999   8.084605091399998   2.000000000000000 0
ion C  -9.335303994599998  16.169191285499998   2.000000000000000 0
ion C  -7.001468547300001  12.126907637100000   2.000000000000000 0
ion C   0.000037794599990  24.253758582300001   2.000000000000000 0
ion C   0.000000000000000   8.084605091399998   2.000000000000000 0
ion C   7.001449650000005  20.211493831199999   2.000000000000000 0
ion C  -7.001468547300000  20.211493831199999   2.000000000000000 0
ion C  -2.333816549999999  12.126907637100000   2.000000000000000 0
ion C   4.667633100000000  16.169191285499998   2.000000000000000 0
ion C  -2.333816549999995  20.211493831199999   2.000000000000000 0
ion C   2.333835447300000  20.211493831199999   2.000000000000000 0
ion C   2.333835447299999  12.126907637100000   2.000000000000000 0
ion C  -4.667651997299999  16.169191285499998   2.000000000000000 0
ion C   7.001449650000000   4.042302545699999   2.000000000000000 0
ion C  21.004386744600001   4.042302545699999   2.000000000000000 0
ion C  14.002937094600000  16.169191285499998   2.000000000000000 0
ion C   0.000000000000000  16.169191285499998   2.000000000000000 0
ion C  11.669101647300000   4.042302545699999   2.000000000000000 0
ion C  18.670589091899998   8.084605091399998   2.000000000000000 0
ion C  11.669101647300000  12.126907637100000   2.000000000000000 0
ion C  16.336753644600002  12.126907637100000   2.000000000000000 0
ion C  16.336753644600002   4.042302545699999   2.000000000000000 0
ion C   9.335285097300002   8.084605091399998   2.000000000000000 0
ion C  14.002937094600000   8.084605091399998   2.000000000000000 0
ion C   0.000018897300000   2.694868363800000   2.000000000000000 0
ion C  11.669120544600000  22.906362195000000   2.000000000000000 0
ion C -11.669120544600002  22.906362195000000   2.000000000000000 0
ion C  -2.333816549999999   6.737152012199999   2.000000000000000 0
ion C   9.335285097299998  18.864059649300000   2.000000000000000 0
ion C  -7.001468547300003  22.906362195000000   2.000000000000000 0
ion C   7.001468547300002  22.906362195000000   2.000000000000000 0
ion C   2.333816550000000   6.737152012199999   2.000000000000000 0
ion C  -9.335285097299998  18.864059649300000   2.000000000000000 0
ion C  -4.667633100000000  10.779454557899999   2.000000000000000 0
ion C   7.001468547300002  14.821757103600000   2.000000000000000 0
ion C  -2.333835447300000  22.906362195000000   2.000000000000000 0
ion C   2.333816550000000  22.906362195000000   2.000000000000000 0
ion C   4.667633100000000  10.779454557899999   2.000000000000000 0
ion C  -7.001468547300001  14.821757103600000   2.000000000000000 0
ion C   4.667633100000003   2.694868363800000   2.000000000000000 0
ion C  23.338222191900002   2.694868363800000   2.000000000000000 0
ion C  14.002918197300001  18.864059649300000   2.000000000000000 0
ion C   0.000018897300000  10.779454557899999   2.000000000000000 0
ion C   4.667633100000000  18.864059649300000   2.000000000000000 0
ion C  -4.667633099999996  18.864059649300000   2.000000000000000 0
ion C  -2.333816550000000  14.821757103600000   2.000000000000000 0
ion C   2.333816550000000  14.821757103600000   2.000000000000000 0
ion C  -0.000018897299999  18.864059649300000   2.000000000000000 0
ion C   9.335285097300000   2.694868363800000   2.000000000000000 0
ion C  21.004386744599998   6.737152012199999   2.000000000000000 0
ion C  11.669120544600002  14.821757103600000   2.000000000000000 0
ion C  16.336734747299992  14.821757103600000   2.000000000000000 0
ion C  18.670570194600000   2.694868363800000   2.000000000000000 0
ion C   7.001468547300000   6.737152012199999   2.000000000000000 0
ion C  14.002937094600002   2.694868363800000   2.000000000000000 0
ion C  18.670570194600000  10.779454557899999   2.000000000000000 0
ion C   9.335285097300000  10.779454557899999   2.000000000000000 0
ion C  11.669120544600000   6.737152012199999   2.000000000000000 0
ion C  16.336734747299989   6.737152012199999   2.000000000000000 0
ion C  14.002937094600000  10.779454557899999   2.000000000000000 0
ion N   7.001449650000002  12.126907637100000   2.000000000000000 0
ion S   2.510276520232930  13.643826652283462   8.252779002507832 1
ion S   5.330739870552073  16.251728629704797   9.029009860780382 1
ion Na   1.066508256373629  18.273402381462713   7.700977649006985 1
ion Na   6.865024874797629  12.615040869074816   6.353728904614016 1

# Forces in Cartesian coordinates:
force C   0.002108015695679  -0.001112691561560  -0.000001977956774 0
force C   0.000750644289405  -0.000256580100322   0.000004689794957 0
force C   0.001825394968994  -0.001125671095564   0.000001539573884 0
force C   0.001063737075124   0.001263977448145   0.000013550786438 0
force C   0.000480689925060  -0.000502869632434   0.000045745343516 0
force C   0.001932511933039  -0.001105739551254  -0.000024475297228 0
force C  -0.000553563791240  -0.001450419816122  -0.000000714138154 0
force C   0.000363102633195   0.000598582856997   0.000012745516515 0
force C  -0.002324039700314  -0.008188226956519  -0.000278060992366 0
force C  -0.001503786826716   0.001345993512476   0.000064627840732 0
force C  -0.000273474118175  -0.000313787549504   0.000122097758156 0
force C   0.005810008116549   0.006904080718863   0.000086672064368 0
force C  -0.001758007187114   0.000372812204253   0.000001741736494 0
force C   0.000059785910049   0.002393214620133   0.000002144094224 0
force C  -0.002383123080946  -0.000649852083904  -0.000005882695646 0
force C   0.000292070477304   0.000445531959087   0.000075578205901 0
force C   0.000093002988509  -0.000153058048661  -0.000026244109015 0
force C  -0.000246711764228   0.000222584348782   0.000029300655777 0
force C   0.000166307595970   0.002057550912422   0.000377700148345 0
force C   0.001688050788689  -0.009276217909752  -0.002093654883806 0
force C  -0.001531871277889  -0.000637305154377   0.000679196066261 0
force C   0.000374635647604  -0.000070798911443   0.000566117067422 0
force C   0.008382158798734   0.000855413660828  -0.002122297637635 0
force C   0.001489959691370  -0.000174234591199   0.000046135660195 0
force C  -0.000205849861328   0.006305141893492   0.000054156998030 0
force C   0.000109269579166  -0.000084978028533  -0.000006100329361 0
force C  -0.005542577896468  -0.002888233544468   0.000100416023667 0
force C   0.005244932419001  -0.005581297377097  -0.001020519588619 0
force C  -0.002329452252370  -0.001256080896849   0.000002995592046 0
force C   0.000030588579720   0.000551169889280  -0.000004474366313 0
force C  -0.008473247457659   0.001937512019689   0.000162406153049 0
force C   0.000090605860674   0.002338081036686   0.000001289886341 0
force C  -0.000697177504277  -0.000276600707479  -0.000004696561267 0
force C  -0.006651744804426   0.006061050578686   0.000225124283117 0
force C  -0.000310551504060  -0.000034486707468  -0.000128521248786 0
force C  -0.000922255788226   0.001028723038257  -0.000004041703512 0
force C  -0.001336775487901   0.000136734804261   0.000007983880965 0
force C  -0.002409615206583   0.001225115999331  -0.000009223605542 0
force C  -0.000201566900098   0.000002665016361   0.000023798979436 0
force C  -0.004996730952261   0.001104891968918   0.000397062237659 0
force C  -0.000107917619650   0.000027472856111  -0.000007245491514 0
force C   0.000356091567367  -0.000050185795958   0.000033929022954 0
force C  -0.003405773288504   0.003772456515687   0.000371955727640 0
force C  -0.000070556665309  -0.000104937424684  -0.000009313542641 0
force C   0.000560226673338  -0.001111434133756  -0.000011584397901 0
force C  -0.000316401482214   0.004704942312094  -0.005850095365198 0
force C   0.002087937145588   0.002266275532785   0.000081268931995 0
force C   0.001902142696611   0.001644407639681   0.000283239399388 0
force C  -0.004095982596524  -0.001786163614803  -0.004282821482908 0
force C  -0.000143219774530  -0.002879883771045   0.000093015321534 0
force C  -0.002438299179210  -0.001160103544302  -0.000011880699657 0
force C  -0.000808775569191   0.000517244061166  -0.000004830783252 0
force C  -0.000117535837231   0.002576122930155   0.000016042539615 0
force C   0.002521267178604  -0.004538301686882  -0.000147008748471 0
force C   0.006631041842012   0.000588116617951   0.000048896829904 0
force C  -0.000855615180545  -0.000135169266371   0.000117822653153 0
force C  -0.002755422443910  -0.002022550096096   0.000084271861766 0
force C  -0.006259363883244   0.004093339453716  -0.001678007144543 0
force C  -0.000704071621311   0.002055978953426   0.001079330262250 0
force C   0.002685975252503  -0.001099021422725  -0.000013325710074 0
force C  -0.000140854845424  -0.000784562658846  -0.000005108189157 0
force C   0.008102444162093   0.005163677309215  -0.000307426245936 0
force C   0.002471869202215  -0.001532956681213  -0.000013885913118 0
force C   0.000795895883696   0.000631458852260  -0.000002539798664 0
force C   0.000135681261059  -0.009068699541904  -0.000178118260765 0
force C   0.001123341715454   0.001344867278611   0.000074729642936 0
force C  -0.000509475047733  -0.001170685122936  -0.000007833474794 0
force C   0.002869106370380  -0.001754349621483  -0.001725363651447 0
force C   0.003819981987324   0.003610694965864   0.000190925000130 0
force C   0.000245848010796  -0.000015641923409   0.000014475568715 0
force C  -0.001164406537644  -0.004823594190046   0.000243705591942 0
force N  -0.000637388775441  -0.001163420201127  -0.007778416336435 0
force S  -0.007242992664722  -0.006135841324793   0.006335435129365 1
force S   0.003450348561363   0.008706543693322   0.007729635493777 1
force Na  -0.004695046281698   0.006042681446354  -0.004465749664463 1
force Na   0.009030085235486  -0.008416048677943   0.011577759232602 1

# Energy components:
   Eewald =    -1171.9223893623952790
       EH =     -765.9278534458354670
     Eloc =     1372.8360824391659207
      Enl =      -81.3690842205119935
     EvdW =       -0.1136704405925971
      Exc =     -154.4277907677124233
 Exc_core =        6.0150673313404814
       KE =      263.4596576397043464
-------------------------------------
     Etot =     -531.4499808268369634
       TS =        0.0674510236125973
-------------------------------------
        F =     -531.5174318504496114

IonicMinimize: Iter:   1  F: -531.517431850449611  |grad|_K:  7.318e-03  alpha:  6.522e+00  linmin:  2.995e-02  t[s]:    531.62

#--- Lowdin population analysis ---
# oxidation-state C +0.039 +0.040 +0.040 +0.037 +0.040 +0.040 +0.037 +0.040 +0.015 +0.033 +0.036 +0.016 +0.037 +0.039 +0.030 +0.040 +0.041 +0.032 +0.040 +0.017 +0.016 +0.007 +0.027 +0.031 +0.032 +0.036 +0.034 +0.013 +0.037 +0.040 +0.009 +0.038 +0.038 +0.011 +0.037 +0.039 +0.039 +0.039 +0.039 +0.039 +0.037 +0.036 +0.037 +0.038 +0.039 +0.077 +0.028 +0.026 +0.092 +0.037 +0.039 +0.038 +0.039 +0.041 +0.029 +0.029 +0.034 +0.036 -0.006 +0.037 +0.038 +0.025 +0.038 +0.036 +0.029 +0.035 +0.038 +0.081 +0.033 +0.036 +0.033
# oxidation-state N -0.062
# oxidation-state S -0.452 -0.464
# oxidation-state Na +0.843 +0.825


Computing DFT-D3 correction:
# coordination-number C 3.300 3.300 3.300 3.300 3.300 3.300 3.300 3.300 3.405 3.300 3.301 3.332 3.300 3.300 3.304 3.301 3.305 3.300 3.302 3.449 3.332 3.436 3.378 3.303 3.300 3.300 3.301 3.432 3.300 3.300 3.350 3.300 3.300 3.327 3.301 3.300 3.300 3.300 3.300 3.306 3.300 3.301 3.302 3.300 3.300 4.111 3.305 3.313 3.903 3.300 3.300 3.300 3.300 3.306 3.347 3.305 3.313 3.384 3.559 3.300 3.300 3.330 3.300 3.300 3.313 3.300 3.300 3.840 3.302 3.300 3.302
# coordination-number N 4.169
# coordination-number S 2.983 2.971
# coordination-number Na 2.762 5.566
# diagonal-C6 C 24.29 24.29 24.28 24.29 24.28 24.28 24.29 24.28 23.04 24.28 24.27 23.95 24.28 24.28 24.25 24.27 24.23 24.28 24.26 22.40 23.95 22.59 23.40 24.25 24.28 24.29 24.27 22.66 24.28 24.29 23.75 24.28 24.28 24.01 24.28 24.29 24.28 24.29 24.28 24.23 24.28 24.27 24.26 24.28 24.28 18.26 24.23 24.16 18.46 24.28 24.28 24.29 24.28 24.23 23.78 24.24 24.15 23.32 20.80 24.28 24.29 23.98 24.28 24.28 24.16 24.28 24.29 18.61 24.27 24.29 24.26
# diagonal-C6 N 15.58
# diagonal-C6 S 125.81 125.81
# diagonal-C6 Na 186.11 186.11
EvdW_6 =   -0.061215
EvdW_8 =   -0.052502

-------- Electronic minimization -----------
Will mix electronic density at each iteration.
	FillingsUpdate:  mu: -0.149439404  nElectrons: 319.000000
	FillingsUpdate:  mu: -0.141688242  nElectrons: 319.000000
SCF: Cycle:  0   F: -531.451480041873310   dF: -1.761e-01   |Residual|: 2.338e-01   |deigs|: 3.880e-03  t[s]:    539.48
	FillingsUpdate:  mu: -0.143307900  nElectrons: 319.000000
SCF: Cycle:  1   F: -531.504123743591663   dF: -5.264e-02   |Residual|: 1.105e-01   |deigs|: 2.598e-03  t[s]:    543.78
	FillingsUpdate:  mu: -0.143168343  nElectrons: 319.000000
SCF: Cycle:  2   F: -531.517145415445498   dF: -1.302e-02   |Residual|: 2.996e-02   |deigs|: 1.347e-03  t[s]:    548.09
	FillingsUpdate:  mu: -0.144069321  nElectrons: 319.000000
SCF: Cycle:  3   F: -531.518747023012224   dF: -1.602e-03   |Residual|: 1.481e-02   |deigs|: 6.224e-04  t[s]:    552.37
	FillingsUpdate:  mu: -0.144338368  nElectrons: 319.000000
SCF: Cycle:  4   F: -531.519383933284985   dF: -6.369e-04   |Residual|: 6.168e-03   |deigs|: 4.565e-04  t[s]:    556.65
	FillingsUpdate:  mu: -0.144702583  nElectrons: 319.000000
SCF: Cycle:  5   F: -531.519516374244404   dF: -1.324e-04   |Residual|: 3.693e-03   |deigs|: 3.660e-04  t[s]:    560.42
	FillingsUpdate:  mu: -0.145175770  nElectrons: 319.000000
SCF: Cycle:  6   F: -531.519669503604973   dF: -1.531e-04   |Residual|: 2.312e-03   |deigs|: 5.854e-04  t[s]:    564.21
	FillingsUpdate:  mu: -0.145656756  nElectrons: 319.000000
SCF: Cycle:  7   F: -531.519775463796577   dF: -1.060e-04   |Residual|: 1.789e-03   |deigs|: 7.032e-04  t[s]:    567.96
	FillingsUpdate:  mu: -0.146241916  nElectrons: 319.000000
SCF: Cycle:  8   F: -531.519875709339999   dF: -1.002e-04   |Residual|: 1.464e-03   |deigs|: 9.264e-04  t[s]:    571.76
	FillingsUpdate:  mu: -0.146732165  nElectrons: 319.000000
SCF: Cycle:  9   F: -531.519928453378157   dF: -5.274e-05   |Residual|: 1.176e-03   |deigs|: 8.089e-04  t[s]:    575.55
	FillingsUpdate:  mu: -0.147148633  nElectrons: 319.000000
SCF: Cycle: 10   F: -531.519964383761703   dF: -3.593e-05   |Residual|: 9.062e-04   |deigs|: 6.717e-04  t[s]:    579.31
[...]
force N   0.002916590464195  -0.000107648642067  -0.001195892198071 0
force S  -0.000381398237077  -0.000021458449544  -0.000010338476974 1
force S   0.000005909763390   0.000121991643596  -0.000343424055633 1
force Na   0.000006805624191   0.000163102402413   0.000461894813892 1
force Na  -0.000647241006953  -0.000118864344291   0.000051663915051 1

# Energy components:
   Eewald =    -1196.3577404452680639
       EH =     -790.6832237939024708
     Eloc =     1422.0413018924318749
      Enl =      -81.3205783553028709
     EvdW =       -0.1127497079228857
      Exc =     -154.3751777025076706
 Exc_core =        6.0150671107372071
       KE =      263.3299045782332541
-------------------------------------
     Etot =     -531.4631964235015857
       TS =        0.0684722798642636
-------------------------------------
        F =     -531.5316687033658809

IonicMinimize: Iter:  85  F: -531.531668703365881  |grad|_K:  2.820e-04  alpha:  1.024e+00  linmin: -1.225e-03  t[s]:  13305.87

#--- Lowdin population analysis ---
# oxidation-state C +0.037 +0.039 +0.028 +0.036 +0.039 +0.037 +0.029 +0.038 +0.010 +0.037 +0.040 +0.012 +0.028 +0.037 +0.039 +0.031 +0.039 +0.032 +0.033 +0.009 +0.037 +0.039 -0.022 +0.035 +0.034 +0.036 -0.018 +0.026 +0.041 +0.038 +0.010 +0.026 +0.039 +0.027 +0.038 +0.037 +0.036 +0.036 +0.034 +0.032 +0.039 +0.039 +0.030 +0.033 +0.035 +0.117 +0.039 +0.039 +0.083 +0.036 +0.039 +0.037 +0.015 +0.021 +0.038 +0.038 +0.034 +0.008 +0.037 +0.040 +0.037 -0.012 +0.014 +0.038 +0.038 +0.039 +0.034 +0.136 +0.040 +0.038 +0.028
# oxidation-state N -0.018
# oxidation-state S -0.457 -0.456
# oxidation-state Na +0.839 +0.842


Computing DFT-D3 correction:
# coordination-number C 3.300 3.300 3.320 3.300 3.300 3.300 3.305 3.300 3.438 3.300 3.300 3.323 3.305 3.300 3.300 3.304 3.302 3.300 3.302 3.367 3.300 3.301 3.632 3.300 3.300 3.300 3.805 3.307 3.300 3.300 3.441 3.321 3.300 3.292 3.302 3.300 3.301 3.300 3.300 3.326 3.300 3.300 3.305 3.302 3.300 3.413 3.300 3.300 3.742 3.300 3.300 3.300 3.374 3.323 3.304 3.300 3.302 3.440 3.301 3.300 3.300 3.951 3.377 3.300 3.302 3.300 3.301 3.328 3.301 3.300 3.327
# coordination-number N 3.414
# coordination-number S 2.924 2.924
# coordination-number Na 3.414 3.724
# diagonal-C6 C 24.28 24.29 24.08 24.28 24.28 24.28 24.24 24.28 22.57 24.29 24.28 24.05 24.24 24.28 24.29 24.24 24.26 24.28 24.26 23.54 24.28 24.28 19.92 24.28 24.28 24.29 18.73 24.21 24.28 24.28 22.52 24.07 24.29 24.35 24.27 24.28 24.27 24.28 24.28 24.01 24.29 24.28 24.23 24.27 24.28 22.93 24.29 24.28 19.03 24.28 24.28 24.29 23.45 24.05 24.24 24.28 24.27 22.54 24.28 24.28 24.29 18.38 23.41 24.29 24.26 24.29 24.27 24.00 24.27 24.28 24.00
# diagonal-C6 N 15.58
# diagonal-C6 S 125.81 125.81
# diagonal-C6 Na 186.11 186.11
EvdW_6 =   -0.061029
EvdW_8 =   -0.051714

-------- Electronic minimization -----------
Will mix electronic density at each iteration.
	FillingsUpdate:  mu: -0.150242306  nElectrons: 319.000000
	FillingsUpdate:  mu: -0.150257226  nElectrons: 319.000000
SCF: Cycle:  0   F: -531.531668387195623   dF: +1.583e-07   |Residual|: 4.248e-04   |deigs|: 5.083e-08  t[s]:  13314.34
	FillingsUpdate:  mu: -0.150265179  nElectrons: 319.000000
SCF: Cycle:  1   F: -531.531669296558221   dF: -9.094e-07   |Residual|: 1.922e-04   |deigs|: 1.273e-05  t[s]:  13317.94
	FillingsUpdate:  mu: -0.150259375  nElectrons: 319.000000
SCF: Cycle:  2   F: -531.531669355561917   dF: -5.900e-08   |Residual|: 1.046e-04   |deigs|: 8.074e-06  t[s]:  13320.69
	FillingsUpdate:  mu: -0.150258837  nElectrons: 319.000000
SCF: Cycle:  3   F: -531.531669429280782   dF: -7.372e-08   |Residual|: 3.467e-05   |deigs|: 1.324e-05  t[s]:  13323.42
	FillingsUpdate:  mu: -0.150257603  nElectrons: 319.000000
SCF: Cycle:  4   F: -531.531669433697289   dF: -4.417e-09   |Residual|: 1.829e-05   |deigs|: 1.403e-05  t[s]:  13326.17
	FillingsUpdate:  mu: -0.150256062  nElectrons: 319.000000
SCF: Cycle:  5   F: -531.531669440477231   dF: -6.780e-09   |Residual|: 1.246e-05   |deigs|: 2.197e-05  t[s]:  13329.94
SCF: Converged (|Delta E|<1.000000e-08 for 2 iters).

Setting wave functions to eigenvectors of Hamiltonian

Computing DFT-D3 correction:
# coordination-number C 3.300 3.300 3.320 3.300 3.300 3.300 3.305 3.300 3.438 3.300 3.300 3.323 3.305 3.300 3.300 3.304 3.302 3.300 3.302 3.367 3.300 3.301 3.632 3.300 3.300 3.300 3.805 3.307 3.300 3.300 3.441 3.321 3.300 3.292 3.302 3.300 3.301 3.300 3.300 3.327 3.300 3.300 3.305 3.302 3.300 3.413 3.300 3.300 3.742 3.300 3.300 3.300 3.374 3.323 3.304 3.300 3.302 3.440 3.301 3.300 3.300 3.951 3.377 3.300 3.302 3.300 3.301 3.328 3.301 3.300 3.327
# coordination-number N 3.414
# coordination-number S 2.925 2.924
# coordination-number Na 3.414 3.725
# diagonal-C6 C 24.28 24.29 24.08 24.28 24.28 24.28 24.24 24.28 22.56 24.29 24.28 24.05 24.24 24.28 24.29 24.24 24.26 24.28 24.26 23.54 24.28 24.28 19.92 24.28 24.28 24.29 18.73 24.21 24.28 24.28 22.52 24.07 24.29 24.35 24.27 24.28 24.27 24.28 24.28 24.01 24.29 24.28 24.23 24.27 24.28 22.93 24.29 24.28 19.03 24.28 24.28 24.29 23.45 24.05 24.24 24.28 24.27 22.54 24.28 24.28 24.29 18.38 23.41 24.29 24.26 24.29 24.27 24.00 24.27 24.28 24.00
# diagonal-C6 N 15.58
# diagonal-C6 S 125.81 125.81
# diagonal-C6 Na 186.11 186.11
EvdW_6 =   -0.061029
EvdW_8 =   -0.051713

-------- Electronic minimization -----------
Will mix electronic density at each iteration.
	FillingsUpdate:  mu: -0.150256062  nElectrons: 319.000000
	FillingsUpdate:  mu: -0.150245235  nElectrons: 319.000000
SCF: Cycle:  0   F: -531.531668988622300   dF: +4.268e-07   |Residual|: 1.876e-04   |deigs|: 1.381e-07  t[s]:  13338.44
	FillingsUpdate:  mu: -0.150236869  nElectrons: 319.000000
SCF: Cycle:  1   F: -531.531669484449822   dF: -4.958e-07   |Residual|: 1.390e-04   |deigs|: 9.013e-06  t[s]:  13341.22
	FillingsUpdate:  mu: -0.150240035  nElectrons: 319.000000
SCF: Cycle:  2   F: -531.531669526421979   dF: -4.197e-08   |Residual|: 4.724e-05   |deigs|: 2.846e-06  t[s]:  13343.95
	FillingsUpdate:  mu: -0.150239981  nElectrons: 319.000000
SCF: Cycle:  3   F: -531.531669541369183   dF: -1.495e-08   |Residual|: 1.352e-05   |deigs|: 2.662e-06  t[s]:  13346.70
	FillingsUpdate:  mu: -0.150239833  nElectrons: 319.000000
SCF: Cycle:  4   F: -531.531669543901899   dF: -2.533e-09   |Residual|: 8.022e-06   |deigs|: 1.549e-06  t[s]:  13349.44
	FillingsUpdate:  mu: -0.150239677  nElectrons: 319.000000
SCF: Cycle:  5   F: -531.531669545755790   dF: -1.854e-09   |Residual|: 5.677e-06   |deigs|: 2.653e-06  t[s]:  13353.20
SCF: Converged (|Delta E|<1.000000e-08 for 2 iters).

Setting wave functions to eigenvectors of Hamiltonian

Computing DFT-D3 correction:
# coordination-number C 3.300 3.300 3.320 3.300 3.300 3.300 3.305 3.300 3.438 3.300 3.300 3.323 3.305 3.300 3.300 3.304 3.302 3.300 3.302 3.367 3.300 3.301 3.632 3.300 3.300 3.300 3.805 3.307 3.300 3.300 3.441 3.321 3.300 3.292 3.302 3.300 3.301 3.300 3.300 3.327 3.300 3.300 3.305 3.302 3.300 3.413 3.300 3.300 3.742 3.300 3.300 3.300 3.374 3.323 3.304 3.300 3.302 3.440 3.301 3.300 3.300 3.951 3.377 3.300 3.302 3.300 3.301 3.328 3.301 3.300 3.327
# coordination-number N 3.414
# coordination-number S 2.925 2.924
# coordination-number Na 3.414 3.725
# diagonal-C6 C 24.28 24.29 24.08 24.28 24.28 24.28 24.24 24.28 22.56 24.29 24.28 24.05 24.24 24.28 24.29 24.24 24.26 24.28 24.26 23.54 24.28 24.28 19.92 24.28 24.28 24.29 18.73 24.21 24.28 24.28 22.52 24.07 24.29 24.35 24.27 24.28 24.27 24.28 24.28 24.01 24.29 24.28 24.23 24.27 24.28 22.93 24.29 24.28 19.03 24.28 24.28 24.29 23.45 24.05 24.24 24.28 24.27 22.54 24.28 24.28 24.29 18.38 23.41 24.29 24.26 24.29 24.27 24.00 24.27 24.28 24.00
# diagonal-C6 N 15.58
# diagonal-C6 S 125.81 125.81
# diagonal-C6 Na 186.11 186.11
EvdW_6 =   -0.061029
EvdW_8 =   -0.051713

# Ionic positions in cartesian coordinates:
ion C -14.002918197300009  24.253758582300001   2.000000000000000 0
ion C  -2.333816550000000   4.042302545699999   2.000000000000000 0
ion C  11.669101647300000  20.211493831199999   2.000000000000000 0
ion C  -9.335266200000007  24.253758582300001   2.000000000000000 0
ion C   9.335303994599993  24.253758582300001   2.000000000000000 0
ion C   2.333816549999999   4.042302545699999   2.000000000000000 0
ion C -11.669120544600000  20.211493831199999   2.000000000000000 0
ion C  -4.667651997299999   8.084605091399998   2.000000000000000 0
ion C   9.335285097299998  16.169191285499998   2.000000000000000 0
ion C  -4.667614202700008  24.253758582300001   2.000000000000000 0
ion C   4.667651997299995  24.253758582300001   2.000000000000000 0
ion C   4.667651997299999   8.084605091399998   2.000000000000000 0
ion C  -9.335303994599998  16.169191285499998   2.000000000000000 0
ion C  -7.001468547300001  12.126907637100000   2.000000000000000 0
ion C   0.000037794599990  24.253758582300001   2.000000000000000 0
ion C   0.000000000000000   8.084605091399998   2.000000000000000 0
ion C   7.001449650000005  20.211493831199999   2.000000000000000 0
ion C  -7.001468547300000  20.211493831199999   2.000000000000000 0
ion C  -2.333816549999999  12.126907637100000   2.000000000000000 0
ion C   4.667633100000000  16.169191285499998   2.000000000000000 0
ion C  -2.333816549999995  20.211493831199999   2.000000000000000 0
ion C   2.333835447300000  20.211493831199999   2.000000000000000 0
ion C   2.333835447299999  12.126907637100000   2.000000000000000 0
ion C  -4.667651997299999  16.169191285499998   2.000000000000000 0
ion C   7.001449650000000   4.042302545699999   2.000000000000000 0
ion C  21.004386744600001   4.042302545699999   2.000000000000000 0
ion C  14.002937094600000  16.169191285499998   2.000000000000000 0
ion C   0.000000000000000  16.169191285499998   2.000000000000000 0
ion C  11.669101647300000   4.042302545699999   2.000000000000000 0
ion C  18.670589091899998   8.084605091399998   2.000000000000000 0
ion C  11.669101647300000  12.126907637100000   2.000000000000000 0
ion C  16.336753644600002  12.126907637100000   2.000000000000000 0
ion C  16.336753644600002   4.042302545699999   2.000000000000000 0
ion C   9.335285097300002   8.084605091399998   2.000000000000000 0
ion C  14.002937094600000   8.084605091399998   2.000000000000000 0
ion C   0.000018897300000   2.694868363800000   2.000000000000000 0
ion C  11.669120544600000  22.906362195000000   2.000000000000000 0
ion C -11.669120544600002  22.906362195000000   2.000000000000000 0
ion C  -2.333816549999999   6.737152012199999   2.000000000000000 0
ion C   9.335285097299998  18.864059649300000   2.000000000000000 0
ion C  -7.001468547300003  22.906362195000000   2.000000000000000 0
ion C   7.001468547300002  22.906362195000000   2.000000000000000 0
ion C   2.333816550000000   6.737152012199999   2.000000000000000 0
ion C  -9.335285097299998  18.864059649300000   2.000000000000000 0
ion C  -4.667633100000000  10.779454557899999   2.000000000000000 0
ion C   7.001468547300002  14.821757103600000   2.000000000000000 0
ion C  -2.333835447300000  22.906362195000000   2.000000000000000 0
ion C   2.333816550000000  22.906362195000000   2.000000000000000 0
ion C   4.667633100000000  10.779454557899999   2.000000000000000 0
ion C  -7.001468547300001  14.821757103600000   2.000000000000000 0
ion C   4.667633100000003   2.694868363800000   2.000000000000000 0
ion C  23.338222191900002   2.694868363800000   2.000000000000000 0
ion C  14.002918197300001  18.864059649300000   2.000000000000000 0
ion C   0.000018897300000  10.779454557899999   2.000000000000000 0
ion C   4.667633100000000  18.864059649300000   2.000000000000000 0
ion C  -4.667633099999996  18.864059649300000   2.000000000000000 0
ion C  -2.333816550000000  14.821757103600000   2.000000000000000 0
ion C   2.333816550000000  14.821757103600000   2.000000000000000 0
ion C  -0.000018897299999  18.864059649300000   2.000000000000000 0
ion C   9.335285097300000   2.694868363800000   2.000000000000000 0
ion C  21.004386744599998   6.737152012199999   2.000000000000000 0
ion C  11.669120544600002  14.821757103600000   2.000000000000000 0
ion C  16.336734747299992  14.821757103600000   2.000000000000000 0
ion C  18.670570194600000   2.694868363800000   2.000000000000000 0
ion C   7.001468547300000   6.737152012199999   2.000000000000000 0
ion C  14.002937094600002   2.694868363800000   2.000000000000000 0
ion C  18.670570194600000  10.779454557899999   2.000000000000000 0
ion C   9.335285097300000  10.779454557899999   2.000000000000000 0
ion C  11.669120544600000   6.737152012199999   2.000000000000000 0
ion C  16.336734747299989   6.737152012199999   2.000000000000000 0
ion C  14.002937094600000  10.779454557899999   2.000000000000000 0
ion N   7.001449650000002  12.126907637100000   2.000000000000000 0
ion S   9.215713061462328  11.778558106036597   8.855651537568102 1
ion S   7.927437043051153  15.478908557706403   9.346778647557716 1
ion Na   4.439872557186393  12.472582720786718   7.224500096693866 1
ion Na  12.514316976506610  15.278456965661908   7.125040148815851 1

# Forces in Cartesian coordinates:
force C   0.002070126827661  -0.001029813097877   0.000014648141992 0
force C   0.000661413271128  -0.000429695298130   0.000011873116498 0
force C   0.001065239009029  -0.000361982255612   0.000033080219486 0
force C   0.001163275540092   0.001096115452173   0.000022530425922 0
force C   0.000382259180014  -0.000612717146968   0.000032013167493 0
force C   0.002175259635000  -0.001167120884419   0.000112301109190 0
force C   0.000032296241691  -0.001035751560754   0.000145929085422 0
force C  -0.000031975233244   0.000489556941712   0.000016128821967 0
force C  -0.005796570488975  -0.008398615661328  -0.000756756739592 0
force C  -0.001085633528070   0.000978831777764   0.000013655429845 0
force C  -0.000267236750126  -0.000501613766742   0.000028681295475 0
force C   0.007238429332809   0.005314047824334   0.000404166148414 0
force C  -0.000798986033401   0.000850431727456   0.000156871720151 0
force C   0.000064399293422   0.002486130816609   0.000009188956124 0
force C  -0.002039797699242  -0.001124893915095   0.000019050962900 0
force C  -0.000093273227505  -0.000256739389053  -0.000069212787222 0
force C   0.000057953952212  -0.000427000501979   0.000313466518894 0
force C  -0.000049137317366  -0.000137741542832   0.000075828828647 0
force C  -0.000422875549060   0.002487503890829   0.000046860010655 0
force C   0.004588272611289  -0.007676787880379  -0.000348106960796 0
force C   0.000419218887885  -0.001376983936599   0.000017658122908 0
force C  -0.001423499008809  -0.000829506789106   0.000011174579086 0
force C   0.008182434234927   0.002136353177876   0.001035140924609 0
force C   0.001668928413504   0.000623332735724   0.000064605805178 0
force C   0.000045982838173   0.005760393337062   0.000034948018584 0
force C  -0.000127748806863  -0.000276884595956   0.000017712560190 0
force C  -0.004141880862787  -0.002009286711385   0.001120651739663 0
force C   0.004439013952077  -0.002103291993942   0.000339308150277 0
force C  -0.001742108036477  -0.000885736664770   0.000037352318869 0
force C  -0.000287434048429   0.000502999246128   0.000008966630165 0
force C  -0.010271321226148  -0.000775493166980  -0.000969732335019 0
force C   0.000531914454420   0.001418257923434   0.000090211022641 0
force C  -0.000684058863061  -0.000121942422642   0.000024103044154 0
force C  -0.005993278743666   0.007986834701077  -0.000331962227126 0
force C  -0.000315890184602   0.000013249988325   0.000328246841160 0
force C  -0.001100029218416   0.000900954214487   0.000023450366305 0
force C  -0.001359144407303   0.000672483066599   0.000153300655519 0
force C  -0.002251799616452   0.001576762709534   0.000025163814923 0
force C  -0.000413591319664  -0.000096576577749   0.000072891074125 0
force C  -0.005588942669790   0.001353755058440  -0.000210778069771 0
force C   0.000080865626506   0.000347440370966   0.000012399419873 0
force C  -0.000148319292582   0.000306343570746   0.000017711911525 0
force C  -0.003409853025024   0.002920824066044   0.000096166645260 0
force C   0.000625037276422   0.000246960726867  -0.000048089047022 0
force C   0.000290670107555  -0.001430616266873   0.000054488879638 0
force C   0.001329719189544  -0.002686705393144  -0.001158906140027 0
force C   0.002287068391953   0.001345633709923   0.000016256360638 0
force C   0.001191462104676   0.000087701824484   0.000047239555421 0
force C   0.005473587603154  -0.000165386342668  -0.000075815321545 0
force C   0.000138702189537  -0.002952491145363   0.000021817605121 0
force C  -0.002274966180456  -0.001006646838422   0.000031327839290 0
force C  -0.000736602532665   0.000568116373350   0.000014749202572 0
force C   0.000279338048989   0.005483783299269   0.000396272138287 0
force C  -0.000592248703286  -0.005899561163977   0.000503928151750 0
force C   0.004648286261579   0.001329029041277   0.000333292207701 0
force C   0.000024025952703  -0.000049107270979   0.000015014296365 0
force C  -0.002661845621080  -0.001461901289208  -0.000012777411490 0
force C  -0.007572637388014   0.006178010381280   0.000071815733192 0
force C   0.000063146076328   0.002543248449521   0.000044521514740 0
force C   0.002152464140891  -0.000824744718059   0.000030325115582 0
force C   0.000114865560366  -0.000683346667237   0.000024608473026 0
force C   0.004053505479176   0.002186893178543  -0.001071223699066 0
force C   0.004956342082643  -0.002798041853450   0.000427907134844 0
force C   0.000852068205495   0.000514840302091   0.000017675716823 0
force C   0.000407305663720  -0.007414479176283   0.000063385902190 0
force C   0.000791956996886   0.000964672237268   0.000024023547934 0
force C  -0.000041475162916  -0.001528333153964   0.000152773637638 0
force C  -0.003577528421225   0.000912530804998  -0.000155723212506 0
force C   0.002764294995236   0.003772134432814   0.000181600382658 0
force C   0.000196753163385  -0.000214938960058   0.000009002283592 0
force C  -0.002109039603448  -0.005655241632831  -0.000259986372040 0
force N   0.002914754855406  -0.000108825687150  -0.001186598731961 0
force S  -0.000234623934477  -0.000418596948179  -0.000054553343958 1
force S  -0.000132452931068   0.000515452849435  -0.000279601529034 1
force Na  -0.000042316255048   0.000152473692264   0.000433263502762 1
force Na  -0.000605368874431  -0.000102023714655   0.000041364678518 1

# Energy components:
   Eewald =    -1196.4188937746114334
       EH =     -790.7455280010855176
     Eloc =     1422.1637615806041595
      Enl =      -81.3205545904559131
     EvdW =       -0.1127412124424338
      Exc =     -154.3757779983332057
 Exc_core =        6.0150671495764252
       KE =      263.3314785295480078
-------------------------------------
     Etot =     -531.4631883171999789
       TS =        0.0684812285557868
-------------------------------------
        F =     -531.5316695457557898

IonicMinimize: Iter:  86  F: -531.531669545755790  |grad|_K:  3.144e-04  alpha:  1.412e+00  linmin: -1.087e-03  t[s]:  13356.01
IonicMinimize: Converged (|Delta F|<1.000000e-06 for 2 iters).

#--- Lowdin population analysis ---
# oxidation-state C +0.037 +0.039 +0.028 +0.036 +0.039 +0.037 +0.029 +0.038 +0.010 +0.037 +0.040 +0.012 +0.028 +0.037 +0.039 +0.031 +0.039 +0.032 +0.033 +0.009 +0.037 +0.039 -0.022 +0.035 +0.034 +0.036 -0.018 +0.026 +0.041 +0.038 +0.010 +0.026 +0.039 +0.027 +0.038 +0.037 +0.036 +0.036 +0.034 +0.032 +0.039 +0.039 +0.030 +0.033 +0.035 +0.117 +0.039 +0.039 +0.083 +0.036 +0.039 +0.037 +0.015 +0.021 +0.038 +0.038 +0.034 +0.008 +0.037 +0.040 +0.037 -0.012 +0.014 +0.038 +0.038 +0.039 +0.034 +0.136 +0.040 +0.038 +0.028
# oxidation-state N -0.018
# oxidation-state S -0.457 -0.456
# oxidation-state Na +0.839 +0.842


Dumping 'Na2S2@N_graphene-vdw.fillings' ... done
Dumping 'Na2S2@N_graphene-vdw.wfns' ... done
Dumping 'Na2S2@N_graphene-vdw.ionpos' ... done
Dumping 'Na2S2@N_graphene-vdw.eigenvals' ... done
End date and time: Tue Sep 10 20:54:23 2024  (Duration: 0-3:42:37.71)
Done!
