
*************** JDFTx 1.7.0  ***************

Start date and time: Wed Sep 11 03:34:27 2024
Executable jdftx_gpu with command-line: -i /home/akim2/JDFTx/Na2S2@N_graphene-PC-vdw/Na2S2@N_graphene-PC-vdw.in -o /home/akim2/JDFTx/Na2S2@N_graphene-PC-vdw/Na2S2@N_graphene-PC-vdw.out
Running on hosts (process indices):  exp-1-60 (0)
Divided in process groups (process indices):  0 (0)
gpuInit: Found compatible cuda device 0 'Tesla V100-SXM2-32GB'
gpuInit: Selected device 0
Resource initialization completed at t[s]:      0.44
Run totals: 1 processes, 40 threads, 1 GPUs


Input parsed successfully to the following command list (including defaults):

basis kpoint-dependent
coords-type Cartesian
core-overlap-check vector
coulomb-interaction Slab 001
coulomb-truncation-embed 0 0 6
davidson-band-ratio 1.1
dump End State
dump-name Na2S2@N_graphene-PC-vdw.$VAR
elec-cutoff 20 100
elec-eigen-algo Davidson
elec-ex-corr gga-PBE
elec-smearing Fermi 0.01
electronic-minimize  \
	dirUpdateScheme      FletcherReeves \
	linminMethod         DirUpdateRecommended \
	nIterations          100 \
	history              15 \
	knormThreshold       0 \
	energyDiffThreshold  1e-08 \
	nEnergyDiff          2 \
	alphaTstart          1 \
	alphaTmin            1e-10 \
	updateTestStepSize   yes \
	alphaTreduceFactor   0.1 \
	alphaTincreaseFactor 3 \
	nAlphaAdjustMax      3 \
	wolfeEnergy          0.0001 \
	wolfeGradient        0.9 \
	fdTest               no
electronic-scf  \
	nIterations	100 \
	energyDiffThreshold	1e-08 \
	residualThreshold	1e-07 \
	mixFraction	0.5 \
	qMetric	0.8 \
	history	10 \
	nEigSteps	2 \
	eigDiffThreshold	1e-08 \
	mixedVariable	Density \
	qKerker	0.8 \
	qKappa	-1 \
	verbose	no \
	mixFractionMag	1.5
exchange-regularization WignerSeitzTruncated
fluid LinearPCM 298.000000 1.013250
fluid-ex-corr lda-TF lda-PZ
fluid-gummel-loop 10 1.000000e-05
fluid-minimize  \
	dirUpdateScheme      PolakRibiere \
	linminMethod         DirUpdateRecommended \
	nIterations          400 \
	history              15 \
	knormThreshold       1e-11 \
	energyDiffThreshold  0 \
	nEnergyDiff          2 \
	alphaTstart          1 \
	alphaTmin            1e-10 \
	updateTestStepSize   yes \
	alphaTreduceFactor   0.1 \
	alphaTincreaseFactor 3 \
	nAlphaAdjustMax      6 \
	wolfeEnergy          0.0001 \
	wolfeGradient        0.9 \
	fdTest               no
fluid-solvent PC 11.6429 ScalarEOS \
	epsBulk 64 \
	pMol 2.95 \
	epsInf 2.02 \
	Pvap 1.53277e-13 \
	sigmaBulk 2.88e-05 \
	Rvdw 0 \
	Res 0 \
	tauNuc 343133
forces-output-coords Positions
ion C -14.002918197300012  24.253758582300001   2.000000000000000 0
ion C  -2.333816550000000   4.042302545699999   2.000000000000000 0
ion C  11.669101647300000  20.211493831199999   2.000000000000000 0
ion C  -9.335266200000008  24.253758582300001   2.000000000000000 0
ion C   9.335303994599993  24.253758582300001   2.000000000000000 0
ion C   2.333816549999999   4.042302545699999   2.000000000000000 0
ion C -11.669120544600000  20.211493831199999   2.000000000000000 0
ion C  -4.667651997299999   8.084605091399998   2.000000000000000 0
ion C   9.335285097299998  16.169191285499998   2.000000000000000 0
ion C  -4.667614202700010  24.253758582300001   2.000000000000000 0
ion C   4.667651997299995  24.253758582300001   2.000000000000000 0
ion C   4.667651997299999   8.084605091399998   2.000000000000000 0
ion C  -9.335303994599998  16.169191285499998   2.000000000000000 0
ion C  -7.001468547300001  12.126907637100000   2.000000000000000 0
ion C   0.000037794599988  24.253758582300001   2.000000000000000 0
ion C   0.000000000000000   8.084605091399998   2.000000000000000 0
ion C   7.001449650000005  20.211493831199999   2.000000000000000 0
ion C  -7.001468547300000  20.211493831199999   2.000000000000000 0
ion C  -2.333816549999999  12.126907637100000   2.000000000000000 0
ion C   4.667633100000000  16.169191285499998   2.000000000000000 0
ion C  -2.333816549999993  20.211493831199999   2.000000000000000 0
ion C   2.333835447300000  20.211493831199999   2.000000000000000 0
ion C   2.333835447299999  12.126907637100000   2.000000000000000 0
ion C  -4.667651997299999  16.169191285499998   2.000000000000000 0
ion C   7.001449650000000   4.042302545699999   2.000000000000000 0
ion C  21.004386744600001   4.042302545699999   2.000000000000000 0
ion C  14.002937094600000  16.169191285499998   2.000000000000000 0
ion C   0.000000000000000  16.169191285499998   2.000000000000000 0
ion C  11.669101647300000   4.042302545699999   2.000000000000000 0
ion C  18.670589091899998   8.084605091399998   2.000000000000000 0
ion C  11.669101647300000  12.126907637100000   2.000000000000000 0
ion C  16.336753644600002  12.126907637100000   2.000000000000000 0
ion C  16.336753644600002   4.042302545699999   2.000000000000000 0
ion C   9.335285097300002   8.084605091399998   2.000000000000000 0
ion C  14.002937094600000   8.084605091399998   2.000000000000000 0
ion C   0.000018897300000   2.694868363800000   2.000000000000000 0
ion C  11.669120544600000  22.906362195000000   2.000000000000000 0
ion C -11.669120544600002  22.906362195000000   2.000000000000000 0
ion C  -2.333816549999999   6.737152012199999   2.000000000000000 0
ion C   9.335285097299998  18.864059649300000   2.000000000000000 0
ion C  -7.001468547300003  22.906362195000000   2.000000000000000 0
ion C   7.001468547300002  22.906362195000000   2.000000000000000 0
ion C   2.333816550000000   6.737152012199999   2.000000000000000 0
ion C  -9.335285097299998  18.864059649300000   2.000000000000000 0
ion C  -4.667633100000000  10.779454557899999   2.000000000000000 0
ion C   7.001468547300002  14.821757103600000   2.000000000000000 0
ion C  -2.333835447300000  22.906362195000000   2.000000000000000 0
ion C   2.333816550000000  22.906362195000000   2.000000000000000 0
ion C   4.667633100000000  10.779454557899999   2.000000000000000 0
ion C  -7.001468547300001  14.821757103600000   2.000000000000000 0
ion C   4.667633100000003   2.694868363800000   2.000000000000000 0
ion C  23.338222191900002   2.694868363800000   2.000000000000000 0
ion C  14.002918197300001  18.864059649300000   2.000000000000000 0
ion C   0.000018897300000  10.779454557899999   2.000000000000000 0
ion C   4.667633100000000  18.864059649300000   2.000000000000000 0
ion C  -4.667633099999995  18.864059649300000   2.000000000000000 0
ion C  -2.333816550000000  14.821757103600000   2.000000000000000 0
ion C   2.333816550000000  14.821757103600000   2.000000000000000 0
ion C  -0.000018897299999  18.864059649300000   2.000000000000000 0
ion C   9.335285097300000   2.694868363800000   2.000000000000000 0
ion C  21.004386744599998   6.737152012199999   2.000000000000000 0
ion C  11.669120544600002  14.821757103600000   2.000000000000000 0
ion C  16.336734747299992  14.821757103600000   2.000000000000000 0
ion C  18.670570194600000   2.694868363800000   2.000000000000000 0
ion C   7.001468547300000   6.737152012199999   2.000000000000000 0
ion C  14.002937094600002   2.694868363800000   2.000000000000000 0
ion C  18.670570194600000  10.779454557899999   2.000000000000000 0
ion C   9.335285097300000  10.779454557899999   2.000000000000000 0
ion C  11.669120544600000   6.737152012199999   2.000000000000000 0
ion C  16.336734747299989   6.737152012199999   2.000000000000000 0
ion C  14.002937094600000  10.779454557899999   2.000000000000000 0
ion N   7.001449650000002  12.126907637100000   2.000000000000000 0
ion S   9.215713061462331  11.778558106036597   8.855651537568102 1
ion S   7.927437043051153  15.478908557706403   9.346778647557716 1
ion Na   4.439872557186393  12.472582720786718   7.224500096693866 1
ion Na  12.514316976506610  15.278456965661908   7.125040148815851 1
ion-species GBRV/$ID_pbe.uspp
ion-width Ecut
ionic-minimize  \
	dirUpdateScheme      FletcherReeves \
	linminMethod         DirUpdateRecommended \
	nIterations          200 \
	history              15 \
	knormThreshold       0.0001 \
	energyDiffThreshold  1e-06 \
	nEnergyDiff          2 \
	alphaTstart          1 \
	alphaTmin            1e-10 \
	updateTestStepSize   yes \
	alphaTreduceFactor   0.1 \
	alphaTincreaseFactor 3 \
	nAlphaAdjustMax      3 \
	wolfeEnergy          0.0001 \
	wolfeGradient        0.9 \
	fdTest               no
kpoint   0.000000000000   0.000000000000   0.000000000000  1.00000000000000
kpoint-folding 1 1 1 
latt-move-scale 1 1 1
latt-scale 1 1 1 
lattice Triclinic 28.0058 28.0058 37.7946 90 90 120
lattice-minimize  \
	dirUpdateScheme      L-BFGS \
	linminMethod         DirUpdateRecommended \
	nIterations          0 \
	history              15 \
	knormThreshold       0 \
	energyDiffThreshold  1e-06 \
	nEnergyDiff          2 \
	alphaTstart          1 \
	alphaTmin            1e-10 \
	updateTestStepSize   yes \
	alphaTreduceFactor   0.1 \
	alphaTincreaseFactor 3 \
	nAlphaAdjustMax      3 \
	wolfeEnergy          0.0001 \
	wolfeGradient        0.9 \
	fdTest               no
lcao-params -1 1e-06 0.01
pcm-variant GLSSA13
spintype no-spin
subspace-rotation-factor 1 yes
symmetries automatic
symmetry-threshold 0.0001
van-der-waals D3



---------- Setting up symmetries ----------

Found 24 point-group symmetries of the bravais lattice
Found 1 space-group symmetries with basis
Applied RMS atom displacement 0 bohrs to make symmetries exact.

---------- Initializing the Grid ----------
R = 
[      28.0058     -14.0029            0  ]
[            0      24.2537            0  ]
[            0            0      37.7946  ]
unit cell volume = 25671.8
G =
[   0.224353    0.12953         -0  ]
[          0   0.259061          0  ]
[          0         -0   0.166246  ]
Minimum fftbox size, Smin = [  128  128  172  ]
Chosen fftbox size, S = [  128  128  180  ]

---------- Initializing tighter grid for wavefunction operations ----------
R = 
[      28.0058     -14.0029            0  ]
[            0      24.2537            0  ]
[            0            0      37.7946  ]
unit cell volume = 25671.8
G =
[   0.224353    0.12953         -0  ]
[          0   0.259061          0  ]
[          0         -0   0.166246  ]
Minimum fftbox size, Smin = [  116  116  156  ]
Chosen fftbox size, S = [  120  120  160  ]

---------- Exchange Correlation functional ----------
Initalized PBE GGA exchange.
Initalized PBE GGA correlation.

---------- Setting up pseudopotentials ----------
Width of ionic core gaussian charges (only for fluid interactions / plotting) set to 0.397384

Reading pseudopotential file '/home/akim2/jdftx_install/build/pseudopotentials/GBRV/c_pbe.uspp':
  Title: C.  Created by USPP 7.3.6 on 3-2-2014
  Reference state energy: -5.406344.  4 valence electrons in orbitals:
    |200>  occupation: 2  eigenvalue: -0.504890
    |210>  occupation: 2  eigenvalue: -0.194356
  lMax: 1  lLocal: 2  QijEcut: 5
  4 projectors sampled on a log grid with 503 points:
    l: 0  eig: -0.504890  rCut: 1.3
    l: 0  eig: 0.000000  rCut: 1.3
    l: 1  eig: -0.194357  rCut: 1.3
    l: 1  eig: 0.000000  rCut: 1.3
  Partial core density with radius 1.1
  Transforming core density to a uniform radial grid of dG=0.02 with 1625 points.
  Transforming local potential to a uniform radial grid of dG=0.02 with 1625 points.
  Transforming nonlocal projectors to a uniform radial grid of dG=0.02 with 432 points.
  Transforming density augmentations to a uniform radial grid of dG=0.02 with 1625 points.
  Transforming atomic orbitals to a uniform radial grid of dG=0.02 with 432 points.
  Core radius for overlap checks: 1.30 bohrs.

Reading pseudopotential file '/home/akim2/jdftx_install/build/pseudopotentials/GBRV/n_pbe.uspp':
  Title: N.  Created by USPP 7.3.6 on 3-2-2014
  Reference state energy: -9.763716.  5 valence electrons in orbitals:
    |200>  occupation: 2  eigenvalue: -0.681964
    |210>  occupation: 3  eigenvalue: -0.260726
  lMax: 1  lLocal: 2  QijEcut: 6
  4 projectors sampled on a log grid with 491 points:
    l: 0  eig: -0.681964  rCut: 1.15
    l: 0  eig: 0.000000  rCut: 1.15
    l: 1  eig: -0.260729  rCut: 1.2
    l: 1  eig: 0.500000  rCut: 1.2
  Partial core density with radius 0.8
  Transforming core density to a uniform radial grid of dG=0.02 with 1625 points.
  Transforming local potential to a uniform radial grid of dG=0.02 with 1625 points.
  Transforming nonlocal projectors to a uniform radial grid of dG=0.02 with 432 points.
  Transforming density augmentations to a uniform radial grid of dG=0.02 with 1625 points.
  Transforming atomic orbitals to a uniform radial grid of dG=0.02 with 432 points.
  Core radius for overlap checks: 1.20 bohrs.

Reading pseudopotential file '/home/akim2/jdftx_install/build/pseudopotentials/GBRV/s_pbe.uspp':
  Title: S.  Created by USPP 7.3.6 on 1-4-15
  Reference state energy: -11.898476.  6 valence electrons in orbitals:
    |300>  occupation: 2  eigenvalue: -0.634167
    |310>  occupation: 4  eigenvalue: -0.257568
  lMax: 2  lLocal: 3  QijEcut: 6
  6 projectors sampled on a log grid with 635 points:
    l: 0  eig: -0.634161  rCut: 1.5
    l: 0  eig: 1.500000  rCut: 1.5
    l: 1  eig: -0.257567  rCut: 1.5
    l: 1  eig: 1.500000  rCut: 1.5
    l: 2  eig: -1.000000  rCut: 1.5
    l: 2  eig: 1.500000  rCut: 1.5
  Partial core density with radius 1.15
  Transforming core density to a uniform radial grid of dG=0.02 with 1625 points.
  Transforming local potential to a uniform radial grid of dG=0.02 with 1625 points.
  Transforming nonlocal projectors to a uniform radial grid of dG=0.02 with 432 points.
  Transforming density augmentations to a uniform radial grid of dG=0.02 with 1625 points.
  Transforming atomic orbitals to a uniform radial grid of dG=0.02 with 432 points.
  Core radius for overlap checks: 1.50 bohrs.

Reading pseudopotential file '/home/akim2/jdftx_install/build/pseudopotentials/GBRV/na_pbe.uspp':
  Title: Na.  Created by USPP 7.3.6 on 23-9-15
  Reference state energy: -47.625620.  9 valence electrons in orbitals:
    |200>  occupation: 2  eigenvalue: -2.085638
    |210>  occupation: 6  eigenvalue: -1.053708
    |300>  occupation: 1  eigenvalue: -0.100838
  lMax: 2  lLocal: 0  QijEcut: 6
  5 projectors sampled on a log grid with 657 points:
    l: 0  eig: -2.085640  rCut: 1.37
    l: 0  eig: -0.100839  rCut: 1.37
    l: 1  eig: -1.053708  rCut: 1.47
    l: 1  eig: 0.500000  rCut: 1.47
    l: 2  eig: 0.750000  rCut: 2
  Transforming local potential to a uniform radial grid of dG=0.02 with 1625 points.
  Transforming nonlocal projectors to a uniform radial grid of dG=0.02 with 432 points.
  Transforming density augmentations to a uniform radial grid of dG=0.02 with 1625 points.
  Transforming atomic orbitals to a uniform radial grid of dG=0.02 with 432 points.
  Core radius for overlap checks: 2.00 bohrs.

Initialized 4 species with 76 total atoms.

Folded 1 k-points by 1x1x1 to 1 k-points.

---------- Setting up k-points, bands, fillings ----------
No reducable k-points. 
Computing the number of bands and number of electrons
Calculating initial fillings.
nElectrons: 319.000000   nBands: 306   nStates: 1

----- Setting up reduced wavefunction bases (one per k-point) -----
average nbasis = 109673.000 , ideal nbasis = 109671.883

---------- Setting up coulomb interaction ----------
Fluid mode embedding: using embedded box, but periodic Coulomb kernel.
(Fluid response is responsible for (approximate) separation between periodic images.)
Setting up double-sized grid for truncated Coulomb potentials:
R = 
[      28.0058     -14.0029            0  ]
[            0      24.2537            0  ]
[            0            0      75.5892  ]
unit cell volume = 51343.6
G =
[   0.224353    0.12953         -0  ]
[          0   0.259061          0  ]
[          0         -0  0.0831228  ]
Chosen fftbox size, S = [  128  128  360  ]
Integer grid location selected as the embedding center:
   Grid: [  0  0  29  ]
   Lattice: [  0  0  0.158753  ]
   Cartesian: [  0  0  6  ]
Constructing Wigner-Seitz cell: 8 faces (6 quadrilaterals, 2 hexagons)
Range-separation parameter for embedded mesh potentials due to point charges: 0.590105 bohrs.

Initializing DFT-D3 calculator:
	Parameters set for gga-PBE functional
	s6:  1.000  s_r6:  1.217
	s8:  0.722  s_r8:  1.000
	Per-atom parameters loaded for:
	 C:  sqrtQ[a0]:  3.105  Rcov[a0]:  1.417  CN: [ 0.00 0.99 2.00 3.00 3.98 ]
	 N:  sqrtQ[a0]:  2.712  Rcov[a0]:  1.342  CN: [ 0.00 0.99 2.01 2.99 ]
	 S:  sqrtQ[a0]:  4.041  Rcov[a0]:  1.928  CN: [ 0.00 0.99 1.99 ]
	Na:  sqrtQ[a0]:  6.586  Rcov[a0]:  2.646  CN: [ 0.00 0.97 ]

---------- Setting up ewald sum ----------
Optimum gaussian width for ewald sums = 7.204490 bohr.
Real space sum over 405 unit cells with max indices [  4  4  2  ]
Reciprocal space sum over 7875 terms with max indices [  7  7  17  ]

Computing DFT-D3 correction:
# coordination-number C 3.300 3.300 3.320 3.300 3.300 3.300 3.305 3.300 3.438 3.300 3.300 3.323 3.305 3.300 3.300 3.304 3.302 3.300 3.302 3.367 3.300 3.301 3.632 3.300 3.300 3.300 3.805 3.307 3.300 3.300 3.441 3.321 3.300 3.292 3.302 3.300 3.301 3.300 3.300 3.327 3.300 3.300 3.305 3.302 3.300 3.413 3.300 3.300 3.742 3.300 3.300 3.300 3.374 3.323 3.304 3.300 3.302 3.440 3.301 3.300 3.300 3.951 3.377 3.300 3.302 3.300 3.301 3.328 3.301 3.300 3.327
# coordination-number N 3.414
# coordination-number S 2.925 2.924
# coordination-number Na 3.414 3.725
# diagonal-C6 C 24.28 24.29 24.08 24.28 24.28 24.28 24.24 24.28 22.56 24.29 24.28 24.05 24.24 24.28 24.29 24.24 24.26 24.28 24.26 23.54 24.28 24.28 19.92 24.28 24.28 24.29 18.73 24.21 24.28 24.28 22.52 24.07 24.29 24.35 24.27 24.28 24.27 24.28 24.28 24.01 24.29 24.28 24.23 24.27 24.28 22.93 24.29 24.28 19.03 24.28 24.28 24.29 23.45 24.05 24.24 24.28 24.27 22.54 24.28 24.28 24.29 18.38 23.41 24.29 24.26 24.29 24.27 24.00 24.27 24.28 24.00
# diagonal-C6 N 15.58
# diagonal-C6 S 125.81 125.81
# diagonal-C6 Na 186.11 186.11
EvdW_6 =   -0.061029
EvdW_8 =   -0.051713

---------- Allocating electronic variables ----------
Initializing wave functions:  linear combination of atomic orbitals
C pseudo-atom occupations:   s ( 2 )  p ( 2 )
N pseudo-atom occupations:   s ( 2 )  p ( 3 )
S pseudo-atom occupations:   s ( 2 )  p ( 4 )
Na pseudo-atom occupations:   s ( 2 1 )  p ( 6 )
	FillingsUpdate:  mu: -0.195667379  nElectrons: 319.000000
LCAOMinimize: Iter:   0  F: -526.6459647515878260  |grad|_K:  9.338e-03  alpha:  1.000e+00
	FillingsUpdate:  mu: -0.229241856  nElectrons: 319.000000
LCAOMinimize: Iter:   1  F: -526.8514075255873195  |grad|_K:  3.125e-03  alpha:  2.309e-01  linmin:  5.845e-02  cgtest: -2.578e+00  t[s]:     10.87
LCAOMinimize: 	Bad step direction: g.d > 0.
LCAOMinimize: 	Undoing step.
LCAOMinimize: 	Step failed: resetting search direction.
	FillingsUpdate:  mu: -0.229241856  nElectrons: 319.000000
LCAOMinimize: Iter:   2  F: -526.8514075255873195  |grad|_K:  3.125e-03  alpha:  0.000e+00
	FillingsUpdate:  mu: -0.200191180  nElectrons: 319.000000
LCAOMinimize: Iter:   3  F: -527.0813466700963090  |grad|_K:  5.094e-03  alpha:  1.251e-01  linmin: -3.032e-01  cgtest:  1.569e-01  t[s]:     14.35
	FillingsUpdate:  mu: -0.221907186  nElectrons: 319.000000
LCAOMinimize: Iter:   4  F: -527.1386006829529833  |grad|_K:  4.385e-03  alpha:  2.188e-02  linmin:  3.453e-01  cgtest: -8.118e-01  t[s]:     16.42
LCAOMinimize: 	Bad step direction: g.d > 0.
LCAOMinimize: 	Undoing step.
LCAOMinimize: 	Step failed: resetting search direction.
	FillingsUpdate:  mu: -0.221907186  nElectrons: 319.000000
LCAOMinimize: Iter:   5  F: -527.1386006829529833  |grad|_K:  4.385e-03  alpha:  0.000e+00
LCAOMinimize: 	Predicted alpha/alphaT>3.000000, increasing alphaT to 6.563577e-02.
	FillingsUpdate:  mu: -0.224794841  nElectrons: 319.000000
LCAOMinimize: Iter:   6  F: -527.2007318042708448  |grad|_K:  5.610e-04  alpha:  6.892e-02  linmin:  7.707e-02  cgtest: -4.079e-01  t[s]:     20.56
	FillingsUpdate:  mu: -0.223818123  nElectrons: 319.000000
LCAOMinimize: Iter:   7  F: -527.2030208874652999  |grad|_K:  3.607e-04  alpha:  2.045e-01  linmin:  4.936e-03  cgtest:  4.156e-01  t[s]:     22.66
	FillingsUpdate:  mu: -0.227929520  nElectrons: 319.000000
LCAOMinimize: Iter:   8  F: -527.2035496733843729  |grad|_K:  2.029e-04  alpha:  8.639e-02  linmin: -1.111e-03  cgtest:  2.036e-02  t[s]:     24.76
LCAOMinimize: 	Predicted alpha/alphaT>3.000000, increasing alphaT to 2.591649e-01.
	FillingsUpdate:  mu: -0.227522042  nElectrons: 319.000000
LCAOMinimize: Iter:   9  F: -527.2041569705908159  |grad|_K:  1.238e-04  alpha:  3.114e-01  linmin: -2.770e-04  cgtest: -3.086e-02  t[s]:     27.52
	FillingsUpdate:  mu: -0.226505026  nElectrons: 319.000000
LCAOMinimize: Iter:  10  F: -527.2043641947260539  |grad|_K:  7.852e-05  alpha:  2.860e-01  linmin:  1.373e-04  cgtest:  8.181e-03  t[s]:     29.63
	FillingsUpdate:  mu: -0.227223892  nElectrons: 319.000000
LCAOMinimize: Iter:  11  F: -527.2043859605809075  |grad|_K:  2.384e-05  alpha:  7.473e-02  linmin: -1.073e-03  cgtest:  2.894e-02  t[s]:     31.74
LCAOMinimize: 	Predicted alpha/alphaT>3.000000, increasing alphaT to 2.241788e-01.
	FillingsUpdate:  mu: -0.227291717  nElectrons: 319.000000
LCAOMinimize: Iter:  12  F: -527.2043962563984678  |grad|_K:  1.401e-05  alpha:  3.832e-01  linmin: -6.576e-05  cgtest: -7.973e-03  t[s]:     34.48
	FillingsUpdate:  mu: -0.227147767  nElectrons: 319.000000
LCAOMinimize: Iter:  13  F: -527.2043982957366097  |grad|_K:  1.323e-05  alpha:  2.206e-01  linmin:  7.033e-06  cgtest: -3.916e-04  t[s]:     36.61
	FillingsUpdate:  mu: -0.227264617  nElectrons: 319.000000
LCAOMinimize: Iter:  14  F: -527.2043991649140935  |grad|_K:  4.963e-06  alpha:  1.054e-01  linmin: -2.693e-05  cgtest:  2.649e-03  t[s]:     38.73
LCAOMinimize: 	Predicted alpha/alphaT>3.000000, increasing alphaT to 3.160773e-01.
	FillingsUpdate:  mu: -0.227280833  nElectrons: 319.000000
LCAOMinimize: Iter:  15  F: -527.2043995619648058  |grad|_K:  1.541e-06  alpha:  3.420e-01  linmin: -1.990e-05  cgtest: -1.909e-04  t[s]:     41.49
LCAOMinimize: Converged (|Delta F|<1.000000e-06 for 2 iters).
----- createFluidSolver() ----- (Fluid-side solver setup)
   Initializing fluid molecule 'PC'
     Net charge: 0   dipole magnitude: 0
     Initializing spherical shell mfKernel with radius 0 Bohr
     deltaS corrections:

Correction to mu due to finite nuclear width = -0.00616459
   Cavity determined by nc: 0.00098 and sigma: 0.6
   Effective cavity tension: 9.53e-06 Eh/bohr^2 to account for cavitation and dispersion.


---- Citations for features of the code used in this run ----

   Software package:
      R. Sundararaman, K. Letchworth-Weaver, K.A. Schwarz, D. Gunceler, Y. Ozhabes and T.A. Arias, 'JDFTx: software for joint density-functional theory', SoftwareX 6, 278 (2017)

   gga-PBE exchange-correlation functional:
      J.P. Perdew, K. Burke and M. Ernzerhof, Phys. Rev. Lett. 77, 3865 (1996)

   Pseudopotentials:
      KF Garrity, JW Bennett, KM Rabe and D Vanderbilt, Comput. Mater. Sci. 81, 446 (2014)

   Truncated Coulomb potentials:
      R. Sundararaman and T.A. Arias, Phys. Rev. B 87, 165122 (2013)

   DFT-D3 dispersion correction:
      S. Grimme, J. Antony, S. Ehrlich and H. Krieg, J. Chem. Phys. 132, 154104 (2010)

   Linear/nonlinear dielectric/ionic fluid model with effective cavity tension:
      D. Gunceler, K. Letchworth-Weaver, R. Sundararaman, K.A. Schwarz and T.A. Arias, Modelling Simul. Mater. Sci. Eng. 21, 074005 (2013)

This list may not be complete. Please suggest additional citations or
report any other bugs at https://github.com/shankar1729/jdftx/issues

Initialization completed successfully at t[s]:     41.86


Computing DFT-D3 correction:
# coordination-number C 3.300 3.300 3.320 3.300 3.300 3.300 3.305 3.300 3.438 3.300 3.300 3.323 3.305 3.300 3.300 3.304 3.302 3.300 3.302 3.367 3.300 3.301 3.632 3.300 3.300 3.300 3.805 3.307 3.300 3.300 3.441 3.321 3.300 3.292 3.302 3.300 3.301 3.300 3.300 3.327 3.300 3.300 3.305 3.302 3.300 3.413 3.300 3.300 3.742 3.300 3.300 3.300 3.374 3.323 3.304 3.300 3.302 3.440 3.301 3.300 3.300 3.951 3.377 3.300 3.302 3.300 3.301 3.328 3.301 3.300 3.327
# coordination-number N 3.414
# coordination-number S 2.925 2.924
# coordination-number Na 3.414 3.725
# diagonal-C6 C 24.28 24.29 24.08 24.28 24.28 24.28 24.24 24.28 22.56 24.29 24.28 24.05 24.24 24.28 24.29 24.24 24.26 24.28 24.26 23.54 24.28 24.28 19.92 24.28 24.28 24.29 18.73 24.21 24.28 24.28 22.52 24.07 24.29 24.35 24.27 24.28 24.27 24.28 24.28 24.01 24.29 24.28 24.23 24.27 24.28 22.93 24.29 24.28 19.03 24.28 24.28 24.29 23.45 24.05 24.24 24.28 24.27 22.54 24.28 24.28 24.29 18.38 23.41 24.29 24.26 24.29 24.27 24.00 24.27 24.28 24.00
# diagonal-C6 N 15.58
# diagonal-C6 S 125.81 125.81
# diagonal-C6 Na 186.11 186.11
EvdW_6 =   -0.061029
EvdW_8 =   -0.051713
Fluid solver invoked on fresh (random / LCAO) wavefunctions
Running a vacuum solve first:

-------- Initial electronic minimization -----------
Will mix electronic density at each iteration.
	FillingsUpdate:  mu: -0.227280833  nElectrons: 319.000000
	FillingsUpdate:  mu: -0.234559120  nElectrons: 319.000000
SCF: Cycle:  0   F: -530.664541442926748   dF: -3.460e+00   |Residual|: 9.491e-01   |deigs|: 1.239e-01  t[s]:     49.31
	FillingsUpdate:  mu: -0.209603965  nElectrons: 319.000000
SCF: Cycle:  1   F: -531.163606854920658   dF: -4.991e-01   |Residual|: 4.877e-01   |deigs|: 3.525e-02  t[s]:     53.67
	FillingsUpdate:  mu: -0.176696104  nElectrons: 319.000000
SCF: Cycle:  2   F: -531.475459744918226   dF: -3.119e-01   |Residual|: 1.281e-01   |deigs|: 3.067e-02  t[s]:     58.07
	FillingsUpdate:  mu: -0.169274253  nElectrons: 319.000000
SCF: Cycle:  3   F: -531.486608854849919   dF: -1.115e-02   |Residual|: 8.118e-02   |deigs|: 8.966e-03  t[s]:     62.39
	FillingsUpdate:  mu: -0.158436845  nElectrons: 319.000000
SCF: Cycle:  4   F: -531.515413322449717   dF: -2.880e-02   |Residual|: 4.290e-02   |deigs|: 9.050e-03  t[s]:     66.67
	FillingsUpdate:  mu: -0.149428862  nElectrons: 319.000000
SCF: Cycle:  5   F: -531.523394227559152   dF: -7.981e-03   |Residual|: 3.110e-02   |deigs|: 8.312e-03  t[s]:     71.01
	FillingsUpdate:  mu: -0.143146658  nElectrons: 319.000000
SCF: Cycle:  6   F: -531.527497736973260   dF: -4.104e-03   |Residual|: 1.867e-02   |deigs|: 5.443e-03  t[s]:     75.24
	FillingsUpdate:  mu: -0.136586387  nElectrons: 319.000000
SCF: Cycle:  7   F: -531.529552636130120   dF: -2.055e-03   |Residual|: 1.534e-02   |deigs|: 6.195e-03  t[s]:     79.35
	FillingsUpdate:  mu: -0.134189814  nElectrons: 319.000000
SCF: Cycle:  8   F: -531.529490116709212   dF: +6.252e-05   |Residual|: 1.414e-02   |deigs|: 2.815e-03  t[s]:     83.56
	FillingsUpdate:  mu: -0.131094198  nElectrons: 319.000000
SCF: Cycle:  9   F: -531.530996307153828   dF: -1.506e-03   |Residual|: 8.692e-03   |deigs|: 2.567e-03  t[s]:     87.59
	FillingsUpdate:  mu: -0.129364945  nElectrons: 319.000000
SCF: Cycle: 10   F: -531.531329357208847   dF: -3.331e-04   |Residual|: 7.191e-03   |deigs|: 1.737e-03  t[s]:     91.46
	FillingsUpdate:  mu: -0.126351518  nElectrons: 319.000000
SCF: Cycle: 11   F: -531.531587092762152   dF: -2.577e-04   |Residual|: 5.451e-03   |deigs|: 2.718e-03  t[s]:     95.35
	FillingsUpdate:  mu: -0.123453447  nElectrons: 319.000000
SCF: Cycle: 12   F: -531.531458282993981   dF: +1.288e-04   |Residual|: 4.437e-03   |deigs|: 2.686e-03  t[s]:     99.18
	FillingsUpdate:  mu: -0.120458164  nElectrons: 319.000000
SCF: Cycle: 13   F: -531.531628177732728   dF: -1.699e-04   |Residual|: 4.149e-03   |deigs|: 2.950e-03  t[s]:    103.02
	FillingsUpdate:  mu: -0.117346721  nElectrons: 319.000000
SCF: Cycle: 14   F: -531.531642501669921   dF: -1.432e-05   |Residual|: 2.924e-03   |deigs|: 3.641e-03  t[s]:    106.89
	FillingsUpdate:  mu: -0.114742529  nElectrons: 319.000000
SCF: Cycle: 15   F: -531.531657532350437   dF: -1.503e-05   |Residual|: 2.597e-03   |deigs|: 2.882e-03  t[s]:    110.75
	FillingsUpdate:  mu: -0.113343037  nElectrons: 319.000000
SCF: Cycle: 16   F: -531.531676940832654   dF: -1.941e-05   |Residual|: 1.712e-03   |deigs|: 1.413e-03  t[s]:    117.28
	FillingsUpdate:  mu: -0.112148315  nElectrons: 319.000000
SCF: Cycle: 17   F: -531.531686883092902   dF: -9.942e-06   |Residual|: 1.191e-03   |deigs|: 1.164e-03  t[s]:    121.75
	FillingsUpdate:  mu: -0.111791764  nElectrons: 319.000000
SCF: Cycle: 18   F: -531.531691287843387   dF: -4.405e-06   |Residual|: 8.992e-04   |deigs|: 3.962e-04  t[s]:    129.81
	FillingsUpdate:  mu: -0.111716286  nElectrons: 319.000000
SCF: Cycle: 19   F: -531.531693860024120   dF: -2.572e-06   |Residual|: 5.566e-04   |deigs|: 3.162e-04  t[s]:    133.67
	FillingsUpdate:  mu: -0.111662573  nElectrons: 319.000000
SCF: Cycle: 20   F: -531.531695373601679   dF: -1.514e-06   |Residual|: 4.084e-04   |deigs|: 3.966e-04  t[s]:    137.62
	FillingsUpdate:  mu: -0.111558570  nElectrons: 319.000000
SCF: Cycle: 21   F: -531.531696531826583   dF: -1.158e-06   |Residual|: 2.496e-04   |deigs|: 4.646e-04  t[s]:    141.59
	FillingsUpdate:  mu: -0.111465622  nElectrons: 319.000000
SCF: Cycle: 22   F: -531.531696681922767   dF: -1.501e-07   |Residual|: 1.780e-04   |deigs|: 4.252e-04  t[s]:    145.57
	FillingsUpdate:  mu: -0.111399539  nElectrons: 319.000000
SCF: Cycle: 23   F: -531.531696707996389   dF: -2.607e-08   |Residual|: 1.434e-04   |deigs|: 3.616e-04  t[s]:    149.53
	FillingsUpdate:  mu: -0.111331697  nElectrons: 319.000000
SCF: Cycle: 24   F: -531.531696797161658   dF: -8.917e-08   |Residual|: 9.452e-05   |deigs|: 3.708e-04  t[s]:    153.42
	FillingsUpdate:  mu: -0.111323633  nElectrons: 319.000000
SCF: Cycle: 25   F: -531.531696815950113   dF: -1.879e-08   |Residual|: 6.938e-05   |deigs|: 1.340e-04  t[s]:    157.32
	FillingsUpdate:  mu: -0.111291104  nElectrons: 319.000000
SCF: Cycle: 26   F: -531.531696897195957   dF: -8.125e-08   |Residual|: 5.320e-05   |deigs|: 3.378e-04  t[s]:    161.18
	FillingsUpdate:  mu: -0.111250405  nElectrons: 319.000000
SCF: Cycle: 27   F: -531.531696961045100   dF: -6.385e-08   |Residual|: 5.011e-05   |deigs|: 2.417e-04  t[s]:    165.08
	FillingsUpdate:  mu: -0.111218089  nElectrons: 319.000000
SCF: Cycle: 28   F: -531.531697063953516   dF: -1.029e-07   |Residual|: 4.284e-05   |deigs|: 2.350e-04  t[s]:    168.97
	FillingsUpdate:  mu: -0.111217959  nElectrons: 319.000000
SCF: Cycle: 29   F: -531.531697113421842   dF: -4.947e-08   |Residual|: 3.128e-05   |deigs|: 1.436e-04  t[s]:    172.86
	FillingsUpdate:  mu: -0.111224792  nElectrons: 319.000000
SCF: Cycle: 30   F: -531.531697132054774   dF: -1.863e-08   |Residual|: 2.616e-05   |deigs|: 1.250e-04  t[s]:    176.80
	FillingsUpdate:  mu: -0.111237828  nElectrons: 319.000000
SCF: Cycle: 31   F: -531.531697140346637   dF: -8.292e-09   |Residual|: 1.930e-05   |deigs|: 8.818e-05  t[s]:    180.74
	FillingsUpdate:  mu: -0.111244999  nElectrons: 319.000000
SCF: Cycle: 32   F: -531.531697144698455   dF: -4.352e-09   |Residual|: 1.506e-05   |deigs|: 3.715e-05  t[s]:    184.69
SCF: Converged (|Delta E|<1.000000e-08 for 2 iters).

Setting wave functions to eigenvectors of Hamiltonian
Vacuum energy after initial minimize, F = -531.531697144698455


-------- Electronic minimization -----------
Will mix electronic density at each iteration.
	FillingsUpdate:  mu: -0.111244999  nElectrons: 319.000000
	Linear fluid (dielectric constant: 64) occupying 0.891645 of unit cell:	Completed after 44 iterations at t[s]:    186.03
	FillingsUpdate:  mu: -0.102709452  nElectrons: 319.000000
	Linear fluid (dielectric constant: 64) occupying 0.891456 of unit cell:	Completed after 36 iterations at t[s]:    191.62
SCF: Cycle:  0   F: -531.661443785566121   dF: -2.304e-02   |Residual|: 6.665e-02   |deigs|: 3.094e-03  t[s]:    191.79
	Linear fluid (dielectric constant: 64) occupying 0.891694 of unit cell:	Completed after 33 iterations at t[s]:    192.29
	FillingsUpdate:  mu: -0.102001058  nElectrons: 319.000000
	Linear fluid (dielectric constant: 64) occupying 0.891460 of unit cell:	Completed after 33 iterations at t[s]:    197.12
SCF: Cycle:  1   F: -531.673695929139285   dF: -1.225e-02   |Residual|: 3.257e-02   |deigs|: 1.843e-03  t[s]:    197.29
	Linear fluid (dielectric constant: 64) occupying 0.891621 of unit cell:	Completed after 31 iterations at t[s]:    197.75
	FillingsUpdate:  mu: -0.102251065  nElectrons: 319.000000
	Linear fluid (dielectric constant: 64) occupying 0.891478 of unit cell:	Completed after 31 iterations at t[s]:    202.59
SCF: Cycle:  2   F: -531.676992501200971   dF: -3.297e-03   |Residual|: 2.091e-02   |deigs|: 1.168e-03  t[s]:    202.76
	Linear fluid (dielectric constant: 64) occupying 0.891523 of unit cell:	Completed after 28 iterations at t[s]:    203.17
	FillingsUpdate:  mu: -0.101790706  nElectrons: 319.000000
	Linear fluid (dielectric constant: 64) occupying 0.891476 of unit cell:	Completed after 29 iterations at t[s]:    207.98
SCF: Cycle:  3   F: -531.677963259684589   dF: -9.708e-04   |Residual|: 1.468e-02   |deigs|: 1.055e-03  t[s]:    208.15
	Linear fluid (dielectric constant: 64) occupying 0.891400 of unit cell:	Completed after 26 iterations at t[s]:    208.55
	FillingsUpdate:  mu: -0.101642325  nElectrons: 319.000000
	Linear fluid (dielectric constant: 64) occupying 0.891454 of unit cell:	Completed after 26 iterations at t[s]:    213.27
SCF: Cycle:  4   F: -531.678626340655455   dF: -6.631e-04   |Residual|: 1.010e-02   |deigs|: 1.016e-03  t[s]:    213.44
	Linear fluid (dielectric constant: 64) occupying 0.891304 of unit cell:	Completed after 23 iterations at t[s]:    213.83
	FillingsUpdate:  mu: -0.101527721  nElectrons: 319.000000
	Linear fluid (dielectric constant: 64) occupying 0.891411 of unit cell:	Completed after 23 iterations at t[s]:    218.52
SCF: Cycle:  5   F: -531.679010377579857   dF: -3.840e-04   |Residual|: 7.436e-03   |deigs|: 9.242e-04  t[s]:    218.69
	Linear fluid (dielectric constant: 64) occupying 0.891208 of unit cell:	Completed after 21 iterations at t[s]:    219.05
	FillingsUpdate:  mu: -0.101656457  nElectrons: 319.000000
	Linear fluid (dielectric constant: 64) occupying 0.891375 of unit cell:	Completed after 20 iterations at t[s]:    223.56
SCF: Cycle:  6   F: -531.679185253748869   dF: -1.749e-04   |Residual|: 4.580e-03   |deigs|: 6.138e-04  t[s]:    223.74
	Linear fluid (dielectric constant: 64) occupying 0.891145 of unit cell:	Completed after 19 iterations at t[s]:    224.08
	FillingsUpdate:  mu: -0.101839826  nElectrons: 319.000000
	Linear fluid (dielectric constant: 64) occupying 0.891366 of unit cell:	Completed after 17 iterations at t[s]:    228.73
SCF: Cycle:  7   F: -531.679236863940673   dF: -5.161e-05   |Residual|: 3.075e-03   |deigs|: 5.998e-04  t[s]:    228.90
	Linear fluid (dielectric constant: 64) occupying 0.891156 of unit cell:	Completed after 17 iterations at t[s]:    229.22
	FillingsUpdate:  mu: -0.102014091  nElectrons: 319.000000
	Linear fluid (dielectric constant: 64) occupying 0.891373 of unit cell:	Completed after 15 iterations at t[s]:    233.08
SCF: Cycle:  8   F: -531.679264525977715   dF: -2.766e-05   |Residual|: 2.238e-03   |deigs|: 6.735e-04  t[s]:    233.25
	Linear fluid (dielectric constant: 64) occupying 0.891221 of unit cell:	Completed after 15 iterations at t[s]:    233.55
	FillingsUpdate:  mu: -0.102166677  nElectrons: 319.000000
	Linear fluid (dielectric constant: 64) occupying 0.891385 of unit cell:	Completed after 13 iterations at t[s]:    237.43
SCF: Cycle:  9   F: -531.679275726440665   dF: -1.120e-05   |Residual|: 1.602e-03   |deigs|: 6.959e-04  t[s]:    237.61
	Linear fluid (dielectric constant: 64) occupying 0.891291 of unit cell:	Completed after 13 iterations at t[s]:    237.88
	FillingsUpdate:  mu: -0.102170330  nElectrons: 319.000000
	Linear fluid (dielectric constant: 64) occupying 0.891389 of unit cell:	Completed after 13 iterations at t[s]:    241.86
SCF: Cycle: 10   F: -531.679281351794430   dF: -5.625e-06   |Residual|: 1.150e-03   |deigs|: 4.224e-04  t[s]:    242.04
	Linear fluid (dielectric constant: 64) occupying 0.891346 of unit cell:	Completed after 11 iterations at t[s]:    242.27
	FillingsUpdate:  mu: -0.102164918  nElectrons: 319.000000
	Linear fluid (dielectric constant: 64) occupying 0.891395 of unit cell:	Completed after 10 iterations at t[s]:    246.28
SCF: Cycle: 11   F: -531.679282279913423   dF: -9.281e-07   |Residual|: 9.357e-04   |deigs|: 6.084e-04  t[s]:    246.45
	Linear fluid (dielectric constant: 64) occupying 0.891358 of unit cell:	Completed after 9 iterations at t[s]:    246.65
	FillingsUpdate:  mu: -0.102186234  nElectrons: 319.000000
	Linear fluid (dielectric constant: 64) occupying 0.891397 of unit cell:	Completed after 9 iterations at t[s]:    250.67
SCF: Cycle: 12   F: -531.679283142675445   dF: -8.628e-07   |Residual|: 8.468e-04   |deigs|: 2.758e-04  t[s]:    250.84
	Linear fluid (dielectric constant: 64) occupying 0.891371 of unit cell:	Completed after 7 iterations at t[s]:    251.02
	FillingsUpdate:  mu: -0.102161806  nElectrons: 319.000000
	Linear fluid (dielectric constant: 64) occupying 0.891400 of unit cell:	Completed after 9 iterations at t[s]:    254.96
SCF: Cycle: 13   F: -531.679281557573290   dF: +1.585e-06   |Residual|: 9.053e-04   |deigs|: 2.880e-04  t[s]:    255.13
	Linear fluid (dielectric constant: 64) occupying 0.891369 of unit cell:	Completed after 7 iterations at t[s]:    255.33
	FillingsUpdate:  mu: -0.102196488  nElectrons: 319.000000
	Linear fluid (dielectric constant: 64) occupying 0.891401 of unit cell:	Completed after 5 iterations at t[s]:    259.25
SCF: Cycle: 14   F: -531.679283581336335   dF: -2.024e-06   |Residual|: 6.499e-04   |deigs|: 2.878e-04  t[s]:    259.41
	Linear fluid (dielectric constant: 64) occupying 0.891382 of unit cell:	Completed after 5 iterations at t[s]:    259.58
	FillingsUpdate:  mu: -0.102189026  nElectrons: 319.000000
	Linear fluid (dielectric constant: 64) occupying 0.891402 of unit cell:	Completed after 5 iterations at t[s]:    263.33
SCF: Cycle: 15   F: -531.679283811243295   dF: -2.299e-07   |Residual|: 5.563e-04   |deigs|: 3.187e-04  t[s]:    263.49
	Linear fluid (dielectric constant: 64) occupying 0.891391 of unit cell:	Completed after 4 iterations at t[s]:    263.64
	FillingsUpdate:  mu: -0.102196713  nElectrons: 319.000000
	Linear fluid (dielectric constant: 64) occupying 0.891403 of unit cell:	Completed after 4 iterations at t[s]:    267.61
SCF: Cycle: 16   F: -531.679284519446583   dF: -7.082e-07   |Residual|: 4.925e-04   |deigs|: 1.871e-04  t[s]:    267.77
	Linear fluid (dielectric constant: 64) occupying 0.891395 of unit cell:	Completed after 4 iterations at t[s]:    267.93
	FillingsUpdate:  mu: -0.102220020  nElectrons: 319.000000
	Linear fluid (dielectric constant: 64) occupying 0.891402 of unit cell:	Completed after 4 iterations at t[s]:    271.78
SCF: Cycle: 17   F: -531.679284934055090   dF: -4.146e-07   |Residual|: 3.982e-04   |deigs|: 2.789e-04  t[s]:    271.93
	Linear fluid (dielectric constant: 64) occupying 0.891397 of unit cell:	Completed after 5 iterations at t[s]:    272.10
	FillingsUpdate:  mu: -0.102216989  nElectrons: 319.000000
	Linear fluid (dielectric constant: 64) occupying 0.891403 of unit cell:	Completed after 3 iterations at t[s]:    275.88
SCF: Cycle: 18   F: -531.679285522422106   dF: -5.884e-07   |Residual|: 3.645e-04   |deigs|: 3.981e-04  t[s]:    276.03
	Linear fluid (dielectric constant: 64) occupying 0.891397 of unit cell:	Completed after 1 iterations at t[s]:    276.15
	FillingsUpdate:  mu: -0.102234709  nElectrons: 319.000000
	Linear fluid (dielectric constant: 64) occupying 0.891405 of unit cell:	Completed after 1 iterations at t[s]:    279.90
SCF: Cycle: 19   F: -531.679285638134957   dF: -1.157e-07   |Residual|: 2.222e-04   |deigs|: 1.072e-04  t[s]:    280.03
	Linear fluid (dielectric constant: 64) occupying 0.891397 of unit cell:	Completed after 0 iterations at t[s]:    280.14
	FillingsUpdate:  mu: -0.102231950  nElectrons: 319.000000
	Linear fluid (dielectric constant: 64) occupying 0.891405 of unit cell:	Completed after 1 iterations at t[s]:    284.02
SCF: Cycle: 20   F: -531.679285872025048   dF: -2.339e-07   |Residual|: 1.709e-04   |deigs|: 2.002e-04  t[s]:    284.15
	Linear fluid (dielectric constant: 64) occupying 0.891400 of unit cell:	Completed after 3 iterations at t[s]:    284.30
	FillingsUpdate:  mu: -0.102225536  nElectrons: 319.000000
	Linear fluid (dielectric constant: 64) occupying 0.891404 of unit cell:	Completed after 2 iterations at t[s]:    288.26
SCF: Cycle: 21   F: -531.679285850620090   dF: +2.140e-08   |Residual|: 2.639e-04   |deigs|: 2.269e-04  t[s]:    288.40
	Linear fluid (dielectric constant: 64) occupying 0.891399 of unit cell:	Completed after 1 iterations at t[s]:    288.52
	FillingsUpdate:  mu: -0.102237757  nElectrons: 319.000000
	Linear fluid (dielectric constant: 64) occupying 0.891405 of unit cell:	Completed after 0 iterations at t[s]:    292.21
SCF: Cycle: 22   F: -531.679285925872819   dF: -7.525e-08   |Residual|: 1.796e-04   |deigs|: 8.643e-05  t[s]:    292.34
	Linear fluid (dielectric constant: 64) occupying 0.891401 of unit cell:	Completed after 0 iterations at t[s]:    292.45
	FillingsUpdate:  mu: -0.102235778  nElectrons: 319.000000
	Linear fluid (dielectric constant: 64) occupying 0.891405 of unit cell:	Completed after 0 iterations at t[s]:    296.25
SCF: Cycle: 23   F: -531.679286029794071   dF: -1.039e-07   |Residual|: 1.195e-04   |deigs|: 1.254e-04  t[s]:    296.38
	Linear fluid (dielectric constant: 64) occupying 0.891404 of unit cell:	Completed after 0 iterations at t[s]:    296.47
	FillingsUpdate:  mu: -0.102236300  nElectrons: 319.000000
	Linear fluid (dielectric constant: 64) occupying 0.891405 of unit cell:	Completed after 0 iterations at t[s]:    300.27
SCF: Cycle: 24   F: -531.679286117264041   dF: -8.747e-08   |Residual|: 9.080e-05   |deigs|: 1.783e-04  t[s]:    300.39
	Linear fluid (dielectric constant: 64) occupying 0.891404 of unit cell:	Completed after 1 iterations at t[s]:    300.51
	FillingsUpdate:  mu: -0.102230849  nElectrons: 319.000000
	Linear fluid (dielectric constant: 64) occupying 0.891405 of unit cell:	Completed after 0 iterations at t[s]:    304.36
SCF: Cycle: 25   F: -531.679286101791376   dF: +1.547e-08   |Residual|: 1.754e-04   |deigs|: 1.141e-04  t[s]:    304.49
	Linear fluid (dielectric constant: 64) occupying 0.891404 of unit cell:	Completed after 0 iterations at t[s]:    304.60
	FillingsUpdate:  mu: -0.102234259  nElectrons: 319.000000
	Linear fluid (dielectric constant: 64) occupying 0.891405 of unit cell:	Completed after 0 iterations at t[s]:    308.47
SCF: Cycle: 26   F: -531.679286108522206   dF: -6.731e-09   |Residual|: 1.270e-04   |deigs|: 4.418e-05  t[s]:    308.60
	Linear fluid (dielectric constant: 64) occupying 0.891404 of unit cell:	Completed after 0 iterations at t[s]:    308.70
	FillingsUpdate:  mu: -0.102233380  nElectrons: 319.000000
	Linear fluid (dielectric constant: 64) occupying 0.891405 of unit cell:	Completed after 0 iterations at t[s]:    313.13
SCF: Cycle: 27   F: -531.679286121403265   dF: -1.288e-08   |Residual|: 1.024e-04   |deigs|: 5.403e-05  t[s]:    313.25
	Linear fluid (dielectric constant: 64) occupying 0.891404 of unit cell:	Completed after 1 iterations at t[s]:    313.38
	FillingsUpdate:  mu: -0.102236172  nElectrons: 319.000000
	Linear fluid (dielectric constant: 64) occupying 0.891405 of unit cell:	Completed after 0 iterations at t[s]:    317.07
SCF: Cycle: 28   F: -531.679286063769837   dF: +5.763e-08   |Residual|: 5.998e-05   |deigs|: 5.774e-05  t[s]:    317.21
	Linear fluid (dielectric constant: 64) occupying 0.891404 of unit cell:	Completed after 0 iterations at t[s]:    317.30
	FillingsUpdate:  mu: -0.102240269  nElectrons: 319.000000
	Linear fluid (dielectric constant: 64) occupying 0.891405 of unit cell:	Completed after 0 iterations at t[s]:    321.14
SCF: Cycle: 29   F: -531.679286075643404   dF: -1.187e-08   |Residual|: 6.464e-05   |deigs|: 3.736e-05  t[s]:    321.26
	Linear fluid (dielectric constant: 64) occupying 0.891404 of unit cell:	Completed after 0 iterations at t[s]:    321.36
	FillingsUpdate:  mu: -0.102240390  nElectrons: 319.000000
	Linear fluid (dielectric constant: 64) occupying 0.891405 of unit cell:	Completed after 0 iterations at t[s]:    325.21
SCF: Cycle: 30   F: -531.679286106592713   dF: -3.095e-08   |Residual|: 6.376e-05   |deigs|: 4.552e-05  t[s]:    325.33
	Linear fluid (dielectric constant: 64) occupying 0.891405 of unit cell:	Completed after 0 iterations at t[s]:    325.43
	FillingsUpdate:  mu: -0.102240656  nElectrons: 319.000000
	Linear fluid (dielectric constant: 64) occupying 0.891405 of unit cell:	Completed after 0 iterations at t[s]:    329.29
SCF: Cycle: 31   F: -531.679286123323891   dF: -1.673e-08   |Residual|: 6.479e-05   |deigs|: 9.977e-05  t[s]:    329.42
	Linear fluid (dielectric constant: 64) occupying 0.891405 of unit cell:	Completed after 0 iterations at t[s]:    329.52
	FillingsUpdate:  mu: -0.102238009  nElectrons: 319.000000
	Linear fluid (dielectric constant: 64) occupying 0.891405 of unit cell:	Completed after 0 iterations at t[s]:    338.64
SCF: Cycle: 32   F: -531.679286130022660   dF: -6.699e-09   |Residual|: 3.828e-05   |deigs|: 2.791e-05  t[s]:    338.76
	Linear fluid (dielectric constant: 64) occupying 0.891405 of unit cell:	Completed after 0 iterations at t[s]:    338.86
	FillingsUpdate:  mu: -0.102238106  nElectrons: 319.000000
	Linear fluid (dielectric constant: 64) occupying 0.891405 of unit cell:	Completed after 0 iterations at t[s]:    342.86
SCF: Cycle: 33   F: -531.679286140072691   dF: -1.005e-08   |Residual|: 4.128e-05   |deigs|: 1.402e-05  t[s]:    343.00
	Linear fluid (dielectric constant: 64) occupying 0.891405 of unit cell:	Completed after 0 iterations at t[s]:    350.13
	FillingsUpdate:  mu: -0.102238119  nElectrons: 319.000000
	Linear fluid (dielectric constant: 64) occupying 0.891405 of unit cell:	Completed after 0 iterations at t[s]:    354.89
SCF: Cycle: 34   F: -531.679286152248324   dF: -1.218e-08   |Residual|: 4.221e-05   |deigs|: 4.901e-05  t[s]:    355.02
	Linear fluid (dielectric constant: 64) occupying 0.891405 of unit cell:	Completed after 0 iterations at t[s]:    355.12
	FillingsUpdate:  mu: -0.102238168  nElectrons: 319.000000
	Linear fluid (dielectric constant: 64) occupying 0.891405 of unit cell:	Completed after 0 iterations at t[s]:    358.96
SCF: Cycle: 35   F: -531.679286134457811   dF: +1.779e-08   |Residual|: 4.239e-05   |deigs|: 1.774e-05  t[s]:    359.10
	Linear fluid (dielectric constant: 64) occupying 0.891405 of unit cell:	Completed after 0 iterations at t[s]:    359.20
	FillingsUpdate:  mu: -0.102238888  nElectrons: 319.000000
	Linear fluid (dielectric constant: 64) occupying 0.891405 of unit cell:	Completed after 0 iterations at t[s]:    363.06
SCF: Cycle: 36   F: -531.679286127368869   dF: +7.089e-09   |Residual|: 1.923e-05   |deigs|: 1.238e-05  t[s]:    363.19
	Linear fluid (dielectric constant: 64) occupying 0.891405 of unit cell:	Completed after 0 iterations at t[s]:    363.29
	FillingsUpdate:  mu: -0.102238847  nElectrons: 319.000000
	Linear fluid (dielectric constant: 64) occupying 0.891405 of unit cell:	Completed after 0 iterations at t[s]:    367.00
SCF: Cycle: 37   F: -531.679286131785489   dF: -4.417e-09   |Residual|: 2.479e-05   |deigs|: 2.950e-05  t[s]:    367.13
	Linear fluid (dielectric constant: 64) occupying 0.891405 of unit cell:	Completed after 0 iterations at t[s]:    367.23
	FillingsUpdate:  mu: -0.102238823  nElectrons: 319.000000
	Linear fluid (dielectric constant: 64) occupying 0.891405 of unit cell:	Completed after 0 iterations at t[s]:    371.03
SCF: Cycle: 38   F: -531.679286138422981   dF: -6.637e-09   |Residual|: 3.887e-05   |deigs|: 3.435e-05  t[s]:    371.16
SCF: Converged (|Delta E|<1.000000e-08 for 2 iters).

Setting wave functions to eigenvectors of Hamiltonian
Single-point solvation energy estimate, DeltaF = -0.147588993724526

Computing DFT-D3 correction:
# coordination-number C 3.300 3.300 3.320 3.300 3.300 3.300 3.305 3.300 3.438 3.300 3.300 3.323 3.305 3.300 3.300 3.304 3.302 3.300 3.302 3.367 3.300 3.301 3.632 3.300 3.300 3.300 3.805 3.307 3.300 3.300 3.441 3.321 3.300 3.292 3.302 3.300 3.301 3.300 3.300 3.327 3.300 3.300 3.305 3.302 3.300 3.413 3.300 3.300 3.742 3.300 3.300 3.300 3.374 3.323 3.304 3.300 3.302 3.440 3.301 3.300 3.300 3.951 3.377 3.300 3.302 3.300 3.301 3.328 3.301 3.300 3.327
# coordination-number N 3.414
# coordination-number S 2.925 2.924
# coordination-number Na 3.414 3.725
# diagonal-C6 C 24.28 24.29 24.08 24.28 24.28 24.28 24.24 24.28 22.56 24.29 24.28 24.05 24.24 24.28 24.29 24.24 24.26 24.28 24.26 23.54 24.28 24.28 19.92 24.28 24.28 24.29 18.73 24.21 24.28 24.28 22.52 24.07 24.29 24.35 24.27 24.28 24.27 24.28 24.28 24.01 24.29 24.28 24.23 24.27 24.28 22.93 24.29 24.28 19.03 24.28 24.28 24.29 23.45 24.05 24.24 24.28 24.27 22.54 24.28 24.28 24.29 18.38 23.41 24.29 24.26 24.29 24.27 24.00 24.27 24.28 24.00
# diagonal-C6 N 15.58
# diagonal-C6 S 125.81 125.81
# diagonal-C6 Na 186.11 186.11
EvdW_6 =   -0.061029
EvdW_8 =   -0.051713

# Ionic positions in cartesian coordinates:
ion C -14.002918197300012  24.253758582300001   2.000000000000000 0
ion C  -2.333816550000000   4.042302545699999   2.000000000000000 0
ion C  11.669101647300000  20.211493831199999   2.000000000000000 0
ion C  -9.335266200000008  24.253758582300001   2.000000000000000 0
ion C   9.335303994599993  24.253758582300001   2.000000000000000 0
ion C   2.333816549999999   4.042302545699999   2.000000000000000 0
ion C -11.669120544600000  20.211493831199999   2.000000000000000 0
ion C  -4.667651997299999   8.084605091399998   2.000000000000000 0
ion C   9.335285097299998  16.169191285499998   2.000000000000000 0
ion C  -4.667614202700010  24.253758582300001   2.000000000000000 0
ion C   4.667651997299995  24.253758582300001   2.000000000000000 0
ion C   4.667651997299999   8.084605091399998   2.000000000000000 0
ion C  -9.335303994599998  16.169191285499998   2.000000000000000 0
ion C  -7.001468547300001  12.126907637100000   2.000000000000000 0
ion C   0.000037794599988  24.253758582300001   2.000000000000000 0
ion C   0.000000000000000   8.084605091399998   2.000000000000000 0
ion C   7.001449650000005  20.211493831199999   2.000000000000000 0
ion C  -7.001468547300000  20.211493831199999   2.000000000000000 0
ion C  -2.333816549999999  12.126907637100000   2.000000000000000 0
ion C   4.667633100000000  16.169191285499998   2.000000000000000 0
ion C  -2.333816549999993  20.211493831199999   2.000000000000000 0
ion C   2.333835447300000  20.211493831199999   2.000000000000000 0
ion C   2.333835447299999  12.126907637100000   2.000000000000000 0
ion C  -4.667651997299999  16.169191285499998   2.000000000000000 0
ion C   7.001449650000000   4.042302545699999   2.000000000000000 0
ion C  21.004386744600001   4.042302545699999   2.000000000000000 0
ion C  14.002937094600000  16.169191285499998   2.000000000000000 0
ion C   0.000000000000000  16.169191285499998   2.000000000000000 0
ion C  11.669101647300000   4.042302545699999   2.000000000000000 0
ion C  18.670589091899998   8.084605091399998   2.000000000000000 0
ion C  11.669101647300000  12.126907637100000   2.000000000000000 0
ion C  16.336753644600002  12.126907637100000   2.000000000000000 0
ion C  16.336753644600002   4.042302545699999   2.000000000000000 0
ion C   9.335285097300002   8.084605091399998   2.000000000000000 0
ion C  14.002937094600000   8.084605091399998   2.000000000000000 0
ion C   0.000018897300000   2.694868363800000   2.000000000000000 0
ion C  11.669120544600000  22.906362195000000   2.000000000000000 0
ion C -11.669120544600002  22.906362195000000   2.000000000000000 0
ion C  -2.333816549999999   6.737152012199999   2.000000000000000 0
ion C   9.335285097299998  18.864059649300000   2.000000000000000 0
ion C  -7.001468547300003  22.906362195000000   2.000000000000000 0
ion C   7.001468547300002  22.906362195000000   2.000000000000000 0
ion C   2.333816550000000   6.737152012199999   2.000000000000000 0
ion C  -9.335285097299998  18.864059649300000   2.000000000000000 0
ion C  -4.667633100000000  10.779454557899999   2.000000000000000 0
ion C   7.001468547300002  14.821757103600000   2.000000000000000 0
ion C  -2.333835447300000  22.906362195000000   2.000000000000000 0
ion C   2.333816550000000  22.906362195000000   2.000000000000000 0
ion C   4.667633100000000  10.779454557899999   2.000000000000000 0
ion C  -7.001468547300001  14.821757103600000   2.000000000000000 0
ion C   4.667633100000003   2.694868363800000   2.000000000000000 0
ion C  23.338222191900002   2.694868363800000   2.000000000000000 0
ion C  14.002918197300001  18.864059649300000   2.000000000000000 0
ion C   0.000018897300000  10.779454557899999   2.000000000000000 0
ion C   4.667633100000000  18.864059649300000   2.000000000000000 0
ion C  -4.667633099999995  18.864059649300000   2.000000000000000 0
ion C  -2.333816550000000  14.821757103600000   2.000000000000000 0
ion C   2.333816550000000  14.821757103600000   2.000000000000000 0
ion C  -0.000018897299999  18.864059649300000   2.000000000000000 0
ion C   9.335285097300000   2.694868363800000   2.000000000000000 0
ion C  21.004386744599998   6.737152012199999   2.000000000000000 0
ion C  11.669120544600002  14.821757103600000   2.000000000000000 0
ion C  16.336734747299992  14.821757103600000   2.000000000000000 0
ion C  18.670570194600000   2.694868363800000   2.000000000000000 0
ion C   7.001468547300000   6.737152012199999   2.000000000000000 0
ion C  14.002937094600002   2.694868363800000   2.000000000000000 0
ion C  18.670570194600000  10.779454557899999   2.000000000000000 0
ion C   9.335285097300000  10.779454557899999   2.000000000000000 0
ion C  11.669120544600000   6.737152012199999   2.000000000000000 0
ion C  16.336734747299989   6.737152012199999   2.000000000000000 0
ion C  14.002937094600000  10.779454557899999   2.000000000000000 0
ion N   7.001449650000002  12.126907637100000   2.000000000000000 0
ion S   9.215713061462331  11.778558106036597   8.855651537568102 1
ion S   7.927437043051153  15.478908557706403   9.346778647557716 1
ion Na   4.439872557186393  12.472582720786718   7.224500096693866 1
ion Na  12.514316976506610  15.278456965661908   7.125040148815851 1

# Forces in Cartesian coordinates:
force C   0.001671157040994  -0.000933076236196   0.000038487259436 0
force C   0.000541686165254  -0.000093131237941   0.000019999195857 0
force C   0.001491705283507  -0.001141227441362  -0.000062406693411 0
force C   0.000899709355396   0.001136004610632   0.000028085030709 0
force C   0.000279669282256  -0.000421021765601   0.000045032937076 0
force C   0.001797633086320  -0.000786136640709   0.000049001367780 0
force C  -0.000577842061566  -0.001432888180448   0.000105268712487 0
force C   0.000209900966222   0.000444620686245   0.000021349809507 0
force C  -0.003758771378586  -0.009498074818783  -0.002154361069146 0
force C  -0.000889428199870   0.001145441541538   0.000018328550148 0
force C  -0.000290272833550  -0.000418340515994   0.000024836433049 0
force C   0.007034075489149   0.007371893488807  -0.000237144898418 0
force C  -0.001518996086328   0.000233486375686   0.000104108443930 0
force C   0.000021259473202   0.001914824681369   0.000041518247649 0
force C  -0.001664432554848  -0.000943788166362   0.000023384553240 0
force C   0.000443966990395   0.000260692179759   0.000105382071679 0
force C   0.000041954160841  -0.000575857461713   0.000262411251341 0
force C  -0.000003797148252  -0.000012668272948   0.000036639641462 0
force C   0.000248285361610   0.001922038414460   0.000081305395778 0
force C   0.002996666142620  -0.009135257104664  -0.001785584428041 0
force C   0.000556877774939  -0.001309427876970   0.000027907097917 0
force C  -0.001477720436133  -0.001130573344571   0.000072734445723 0
force C   0.009309226507086   0.002094404261486  -0.003483135395614 0
force C   0.001456142249431   0.000232678686417   0.000039571805622 0
force C   0.000014055169934   0.005547019406765   0.000083533328814 0
force C  -0.000030634470191  -0.000060539050717   0.000018545770531 0
force C  -0.004249898174827  -0.002389591717794  -0.003884110779604 0
force C   0.004922151467933  -0.002804903754639   0.000174146865323 0
force C  -0.001709036158037  -0.000697750983584   0.000045105714877 0
force C  -0.000212468575247   0.000410129780777   0.000034052776929 0
force C  -0.010061790911412   0.001357443348976  -0.002343246792590 0
force C  -0.000169324216997   0.001893148980678  -0.000034522552360 0
force C  -0.000529679734684  -0.000078839903103   0.000023853607887 0
force C  -0.006895483098289   0.007769663268320  -0.000319451274024 0
force C  -0.000487801444792   0.000185875231279   0.000242191006654 0
force C  -0.000657732132953   0.000822815655664   0.000028656110041 0
force C  -0.001035145408534   0.000180505478089   0.000105563801373 0
force C  -0.001904605346730   0.001166774341241   0.000043110146290 0
force C  -0.000222616710449  -0.000096159075591   0.000038515683295 0
force C  -0.004809426965713   0.000677620240896  -0.000303577586494 0
force C   0.000017084004485  -0.000031738599729   0.000016634366282 0
force C  -0.000022026241197   0.000229989414538   0.000055746872942 0
force C  -0.002919074227079   0.003733203957450   0.000139815653988 0
force C   0.000147738121732   0.000081730845143   0.000072129565677 0
force C   0.000371045008193  -0.000954008714922   0.000037352538345 0
force C   0.000742743896701  -0.005323279273395  -0.002335341981731 0
force C   0.001947701797377   0.001115493203691   0.000021270743030 0
force C   0.001002751147816   0.000111369314854   0.000031615853157 0
force C   0.005154929570134   0.002040238133410  -0.004913759523761 0
force C   0.000036164442687  -0.002263664596877   0.000050160879044 0
force C  -0.001997059209078  -0.000835927008763   0.000031211923491 0
force C  -0.000622193262317   0.000360568647513   0.000020386835017 0
force C  -0.000058863641079   0.002412980262261  -0.000732283316559 0
force C   0.001687609070669  -0.004488045280101   0.000025313285513 0
force C   0.004654779308202   0.000718392548181   0.000235449260577 0
force C  -0.000072560835376   0.000033002403617   0.000018964640439 0
force C  -0.001845026419738  -0.001317650970893   0.000081312250808 0
force C  -0.006044498481628   0.003728645125328  -0.002189764474100 0
force C   0.000218452430829   0.002215955451023   0.000085022949252 0
force C   0.001974281711110  -0.000848596726830   0.000031073760814 0
force C  -0.000013804663928  -0.000651639182741   0.000023920982723 0
force C   0.005181222392227   0.002894954730037  -0.005545772636852 0
force C   0.002081800462377  -0.001305318917192  -0.000750240397702 0
force C   0.000619057675494   0.000373322462988   0.000022185502279 0
force C   0.000020741803868  -0.006154373666127   0.000099514573638 0
force C   0.000595065748231   0.000820609445647   0.000026426876530 0
force C  -0.000362208001613  -0.000948975188817   0.000095351009089 0
force C  -0.005241956766180   0.002783269867582  -0.000415007865241 0
force C   0.002880050968338   0.003734613289884   0.000206295977490 0
force C   0.000168952380421  -0.000096370730123   0.000040115484485 0
force C  -0.002044094674149  -0.004406677526076  -0.000373391780509 0
force N   0.000480287493960  -0.000330364735831  -0.001839203078574 0
force S  -0.000304076371120   0.002082581502284   0.009998552173370 1
force S   0.001941987035729  -0.003509759364634   0.009323409585162 1
force Na  -0.019479365672640  -0.006246781364272   0.005966001400567 1
force Na   0.018306322248103   0.007580140816304   0.005546346972636 1

# Energy components:
   A_diel =       -0.2041520404270873
   Eewald =     4771.5905409011329539
       EH =     5187.0698290067502967
     Eloc =   -10523.3071929950656340
      Enl =      -81.6791524234146493
     EvdW =       -0.1127412124424338
      Exc =     -154.4381312429059108
 Exc_core =        6.0150671495764261
       KE =      263.4558599262679763
-------------------------------------
     Etot =     -531.6100729305272807
       TS =        0.0692132078957021
-------------------------------------
        F =     -531.6792861384229809

IonicMinimize: Iter:   0  F: -531.679286138422981  |grad|_K:  9.508e-03  alpha:  1.000e+00

#--- Lowdin population analysis ---
# oxidation-state C +0.028 +0.029 +0.029 +0.028 +0.029 +0.031 +0.026 +0.029 +0.020 +0.028 +0.029 +0.022 +0.026 +0.028 +0.028 +0.028 +0.030 +0.024 +0.030 +0.021 +0.028 +0.030 +0.019 +0.027 +0.026 +0.026 +0.021 +0.025 +0.031 +0.029 +0.021 +0.029 +0.029 +0.023 +0.030 +0.029 +0.028 +0.029 +0.028 +0.030 +0.028 +0.028 +0.030 +0.027 +0.028 +0.135 +0.029 +0.029 +0.136 +0.029 +0.031 +0.028 +0.028 +0.030 +0.031 +0.028 +0.029 +0.036 +0.030 +0.031 +0.028 +0.024 +0.028 +0.028 +0.038 +0.029 +0.028 +0.143 +0.031 +0.028 +0.030
# oxidation-state N +0.003
# oxidation-state S -0.497 -0.500
# oxidation-state Na +0.891 +0.889


Computing DFT-D3 correction:
# coordination-number C 3.300 3.300 3.320 3.300 3.300 3.300 3.305 3.300 3.434 3.300 3.300 3.323 3.305 3.300 3.300 3.304 3.302 3.300 3.302 3.366 3.300 3.301 3.633 3.300 3.300 3.300 3.806 3.307 3.300 3.300 3.438 3.321 3.300 3.292 3.302 3.300 3.301 3.300 3.300 3.326 3.300 3.300 3.305 3.302 3.300 3.409 3.300 3.300 3.739 3.300 3.300 3.300 3.375 3.323 3.304 3.300 3.302 3.440 3.301 3.300 3.300 3.944 3.378 3.300 3.302 3.300 3.301 3.327 3.301 3.300 3.327
# coordination-number N 3.408
# coordination-number S 2.919 2.919
# coordination-number Na 3.393 3.704
# diagonal-C6 C 24.28 24.29 24.08 24.28 24.28 24.28 24.24 24.28 22.62 24.29 24.28 24.05 24.23 24.28 24.29 24.24 24.26 24.28 24.26 23.56 24.28 24.28 19.90 24.28 24.28 24.29 18.73 24.21 24.28 24.28 22.57 24.07 24.29 24.36 24.27 24.28 24.27 24.28 24.28 24.02 24.29 24.28 24.23 24.27 24.28 22.98 24.29 24.28 19.05 24.28 24.28 24.29 23.44 24.05 24.24 24.28 24.27 22.54 24.28 24.28 24.29 18.39 23.40 24.29 24.26 24.29 24.27 24.01 24.27 24.28 24.01
# diagonal-C6 N 15.58
# diagonal-C6 S 125.81 125.81
# diagonal-C6 Na 186.11 186.11
EvdW_6 =   -0.061029
EvdW_8 =   -0.051712

-------- Electronic minimization -----------
Will mix electronic density at each iteration.
	FillingsUpdate:  mu: -0.102238823  nElectrons: 319.000000
	Linear fluid (dielectric constant: 64) occupying 0.891403 of unit cell:	Completed after 20 iterations at t[s]:    377.18
	FillingsUpdate:  mu: -0.101425472  nElectrons: 319.000000
	Linear fluid (dielectric constant: 64) occupying 0.891348 of unit cell:	Completed after 23 iterations at t[s]:    382.48
SCF: Cycle:  0   F: -531.678383844254540   dF: -1.470e-02   |Residual|: 5.768e-02   |deigs|: 2.123e-04  t[s]:    382.65
	Linear fluid (dielectric constant: 64) occupying 0.891443 of unit cell:	Completed after 22 iterations at t[s]:    383.03
	FillingsUpdate:  mu: -0.102005601  nElectrons: 319.000000
	Linear fluid (dielectric constant: 64) occupying 0.891358 of unit cell:	Completed after 22 iterations at t[s]:    387.75
SCF: Cycle:  1   F: -531.679958857905035   dF: -1.575e-03   |Residual|: 2.795e-02   |deigs|: 5.253e-04  t[s]:    387.92
	Linear fluid (dielectric constant: 64) occupying 0.891472 of unit cell:	Completed after 22 iterations at t[s]:    388.28
	FillingsUpdate:  mu: -0.101838380  nElectrons: 319.000000
	Linear fluid (dielectric constant: 64) occupying 0.891366 of unit cell:	Completed after 21 iterations at t[s]:    392.97
SCF: Cycle:  2   F: -531.680101398009128   dF: -1.425e-04   |Residual|: 8.487e-03   |deigs|: 5.092e-04  t[s]:    393.15
	Linear fluid (dielectric constant: 64) occupying 0.891453 of unit cell:	Completed after 20 iterations at t[s]:    393.50
	FillingsUpdate:  mu: -0.102021714  nElectrons: 319.000000
	Linear fluid (dielectric constant: 64) occupying 0.891372 of unit cell:	Completed after 20 iterations at t[s]:    397.62
SCF: Cycle:  3   F: -531.680280350480757   dF: -1.790e-04   |Residual|: 3.805e-03   |deigs|: 3.050e-04  t[s]:    397.79
	Linear fluid (dielectric constant: 64) occupying 0.891406 of unit cell:	Completed after 14 iterations at t[s]:    398.07
	FillingsUpdate:  mu: -0.102068266  nElectrons: 319.000000
	Linear fluid (dielectric constant: 64) occupying 0.891379 of unit cell:	Completed after 15 iterations at t[s]:    402.65
SCF: Cycle:  4   F: -531.680325245347035   dF: -4.489e-05   |Residual|: 1.772e-03   |deigs|: 3.671e-04  t[s]:    402.83
	Linear fluid (dielectric constant: 64) occupying 0.891386 of unit cell:	Completed after 12 iterations at t[s]:    403.09
	FillingsUpdate:  mu: -0.102077464  nElectrons: 319.000000
	Linear fluid (dielectric constant: 64) occupying 0.891380 of unit cell:	Completed after 12 iterations at t[s]:    406.91
SCF: Cycle:  5   F: -531.680341673823364   dF: -1.643e-05   |Residual|: 1.160e-03   |deigs|: 1.361e-04  t[s]:    407.08
	Linear fluid (dielectric constant: 64) occupying 0.891360 of unit cell:	Completed after 10 iterations at t[s]:    407.30
	FillingsUpdate:  mu: -0.102084697  nElectrons: 319.000000
	Linear fluid (dielectric constant: 64) occupying 0.891381 of unit cell:	Completed after 8 iterations at t[s]:    411.28
SCF: Cycle:  6   F: -531.680351937241539   dF: -1.026e-05   |Residual|: 6.763e-04   |deigs|: 1.332e-04  t[s]:    411.45
	Linear fluid (dielectric constant: 64) occupying 0.891355 of unit cell:	Completed after 8 iterations at t[s]:    411.65
	FillingsUpdate:  mu: -0.102108967  nElectrons: 319.000000
	Linear fluid (dielectric constant: 64) occupying 0.891382 of unit cell:	Completed after 8 iterations at t[s]:    415.69
SCF: Cycle:  7   F: -531.680354055313501   dF: -2.118e-06   |Residual|: 5.411e-04   |deigs|: 1.016e-04  t[s]:    415.85
	Linear fluid (dielectric constant: 64) occupying 0.891357 of unit cell:	Completed after 5 iterations at t[s]:    416.02
	FillingsUpdate:  mu: -0.102110263  nElectrons: 319.000000
	Linear fluid (dielectric constant: 64) occupying 0.891382 of unit cell:	Completed after 5 iterations at t[s]:    419.89
SCF: Cycle:  8   F: -531.680355389667284   dF: -1.334e-06   |Residual|: 4.538e-04   |deigs|: 1.377e-04  t[s]:    420.05
	Linear fluid (dielectric constant: 64) occupying 0.891361 of unit cell:	Completed after 4 iterations at t[s]:    420.21
	FillingsUpdate:  mu: -0.102137923  nElectrons: 319.000000
	Linear fluid (dielectric constant: 64) occupying 0.891381 of unit cell:	Completed after 5 iterations at t[s]:    423.96
SCF: Cycle:  9   F: -531.680356030807729   dF: -6.411e-07   |Residual|: 4.134e-04   |deigs|: 2.266e-04  t[s]:    424.13
	Linear fluid (dielectric constant: 64) occupying 0.891364 of unit cell:	Completed after 3 iterations at t[s]:    424.27
	FillingsUpdate:  mu: -0.102126938  nElectrons: 319.000000
	Linear fluid (dielectric constant: 64) occupying 0.891381 of unit cell:	Completed after 3 iterations at t[s]:    428.09
SCF: Cycle: 10   F: -531.680356748948384   dF: -7.181e-07   |Residual|: 3.060e-04   |deigs|: 1.275e-04  t[s]:    428.24
	Linear fluid (dielectric constant: 64) occupying 0.891366 of unit cell:	Completed after 3 iterations at t[s]:    428.38
	FillingsUpdate:  mu: -0.102156112  nElectrons: 319.000000
	Linear fluid (dielectric constant: 64) occupying 0.891382 of unit cell:	Completed after 5 iterations at t[s]:    432.24
SCF: Cycle: 11   F: -531.680356113120865   dF: +6.358e-07   |Residual|: 4.307e-04   |deigs|: 2.408e-04  t[s]:    432.40
	Linear fluid (dielectric constant: 64) occupying 0.891369 of unit cell:	Completed after 3 iterations at t[s]:    432.53
	FillingsUpdate:  mu: -0.102138782  nElectrons: 319.000000
	Linear fluid (dielectric constant: 64) occupying 0.891381 of unit cell:	Completed after 3 iterations at t[s]:    436.40
SCF: Cycle: 12   F: -531.680357144335176   dF: -1.031e-06   |Residual|: 2.081e-04   |deigs|: 2.165e-04  t[s]:    436.55
	Linear fluid (dielectric constant: 64) occupying 0.891370 of unit cell:	Completed after 0 iterations at t[s]:    436.66
	FillingsUpdate:  mu: -0.102167890  nElectrons: 319.000000
	Linear fluid (dielectric constant: 64) occupying 0.891382 of unit cell:	Completed after 4 iterations at t[s]:    440.50
SCF: Cycle: 13   F: -531.680356232508984   dF: +9.118e-07   |Residual|: 4.365e-04   |deigs|: 1.240e-04  t[s]:    440.66
	Linear fluid (dielectric constant: 64) occupying 0.891374 of unit cell:	Completed after 4 iterations at t[s]:    440.81
	FillingsUpdate:  mu: -0.102152385  nElectrons: 319.000000
	Linear fluid (dielectric constant: 64) occupying 0.891382 of unit cell:	Completed after 2 iterations at t[s]:    444.67
SCF: Cycle: 14   F: -531.680357239712748   dF: -1.007e-06   |Residual|: 2.609e-04   |deigs|: 2.586e-04  t[s]:    444.81
	Linear fluid (dielectric constant: 64) occupying 0.891377 of unit cell:	Completed after 1 iterations at t[s]:    444.93
	FillingsUpdate:  mu: -0.102153992  nElectrons: 319.000000
	Linear fluid (dielectric constant: 64) occupying 0.891383 of unit cell:	Completed after 0 iterations at t[s]:    448.62
SCF: Cycle: 15   F: -531.680357269143315   dF: -2.943e-08   |Residual|: 1.657e-04   |deigs|: 8.385e-05  t[s]:    448.76
	Linear fluid (dielectric constant: 64) occupying 0.891379 of unit cell:	Completed after 0 iterations at t[s]:    448.86
	FillingsUpdate:  mu: -0.102153126  nElectrons: 319.000000
	Linear fluid (dielectric constant: 64) occupying 0.891383 of unit cell:	Completed after 0 iterations at t[s]:    452.71
SCF: Cycle: 16   F: -531.680357364903671   dF: -9.576e-08   |Residual|: 1.474e-04   |deigs|: 5.524e-05  t[s]:    452.84
	Linear fluid (dielectric constant: 64) occupying 0.891385 of unit cell:	Completed after 3 iterations at t[s]:    452.98
	FillingsUpdate:  mu: -0.102160996  nElectrons: 319.000000
	Linear fluid (dielectric constant: 64) occupying 0.891384 of unit cell:	Completed after 3 iterations at t[s]:    457.43
SCF: Cycle: 17   F: -531.680357105191661   dF: +2.597e-07   |Residual|: 2.809e-04   |deigs|: 1.978e-04  t[s]:    457.58
	Linear fluid (dielectric constant: 64) occupying 0.891386 of unit cell:	Completed after 3 iterations at t[s]:    457.73
	FillingsUpdate:  mu: -0.102149220  nElectrons: 319.000000
	Linear fluid (dielectric constant: 64) occupying 0.891384 of unit cell:	Completed after 0 iterations at t[s]:    461.53
SCF: Cycle: 18   F: -531.680357378971507   dF: -2.738e-07   |Residual|: 1.510e-04   |deigs|: 4.577e-05  t[s]:    461.67
	Linear fluid (dielectric constant: 64) occupying 0.891386 of unit cell:	Completed after 0 iterations at t[s]:    461.78
	FillingsUpdate:  mu: -0.102152112  nElectrons: 319.000000
	Linear fluid (dielectric constant: 64) occupying 0.891384 of unit cell:	Completed after 0 iterations at t[s]:    465.41
SCF: Cycle: 19   F: -531.680357389595883   dF: -1.062e-08   |Residual|: 1.283e-04   |deigs|: 4.408e-05  t[s]:    465.54
	Linear fluid (dielectric constant: 64) occupying 0.891384 of unit cell:	Completed after 0 iterations at t[s]:    465.63
	FillingsUpdate:  mu: -0.102151822  nElectrons: 319.000000
	Linear fluid (dielectric constant: 64) occupying 0.891383 of unit cell:	Completed after 0 iterations at t[s]:    470.05
SCF: Cycle: 20   F: -531.680357435458291   dF: -4.586e-08   |Residual|: 1.119e-04   |deigs|: 1.421e-04  t[s]:    470.18
	Linear fluid (dielectric constant: 64) occupying 0.891383 of unit cell:	Completed after 0 iterations at t[s]:    470.28
	FillingsUpdate:  mu: -0.102151768  nElectrons: 319.000000
	Linear fluid (dielectric constant: 64) occupying 0.891383 of unit cell:	Completed after 1 iterations at t[s]:    474.08
SCF: Cycle: 21   F: -531.680357385830803   dF: +4.963e-08   |Residual|: 1.051e-04   |deigs|: 7.554e-05  t[s]:    474.23
	Linear fluid (dielectric constant: 64) occupying 0.891381 of unit cell:	Completed after 2 iterations at t[s]:    474.37
	FillingsUpdate:  mu: -0.102175348  nElectrons: 319.000000
	Linear fluid (dielectric constant: 64) occupying 0.891384 of unit cell:	Completed after 4 iterations at t[s]:    478.36
SCF: Cycle: 22   F: -531.680355985644042   dF: +1.400e-06   |Residual|: 5.642e-04   |deigs|: 1.102e-04  t[s]:    478.52
	Linear fluid (dielectric constant: 64) occupying 0.891381 of unit cell:	Completed after 4 iterations at t[s]:    478.67
	FillingsUpdate:  mu: -0.102172023  nElectrons: 319.000000
	Linear fluid (dielectric constant: 64) occupying 0.891384 of unit cell:	Completed after 2 iterations at t[s]:    481.58
SCF: Cycle: 23   F: -531.680356817036682   dF: -8.314e-07   |Residual|: 4.309e-04   |deigs|: 3.025e-05  t[s]:    481.73
	Linear fluid (dielectric constant: 64) occupying 0.891381 of unit cell:	Completed after 4 iterations at t[s]:    481.88
	FillingsUpdate:  mu: -0.102171747  nElectrons: 319.000000
	Linear fluid (dielectric constant: 64) occupying 0.891385 of unit cell:	Completed after 3 iterations at t[s]:    485.60
SCF: Cycle: 24   F: -531.680356687332278   dF: +1.297e-07   |Residual|: 4.543e-04   |deigs|: 8.789e-05  t[s]:    485.75
	Linear fluid (dielectric constant: 64) occupying 0.891381 of unit cell:	Completed after 4 iterations at t[s]:    485.90
	FillingsUpdate:  mu: -0.102169368  nElectrons: 319.000000
	Linear fluid (dielectric constant: 64) occupying 0.891385 of unit cell:	Completed after 2 iterations at t[s]:    489.79
SCF: Cycle: 25   F: -531.680356848588417   dF: -1.613e-07   |Residual|: 4.099e-04   |deigs|: 2.190e-05  t[s]:    489.94
	Linear fluid (dielectric constant: 64) occupying 0.891381 of unit cell:	Completed after 4 iterations at t[s]:    490.08
	FillingsUpdate:  mu: -0.102170676  nElectrons: 319.000000
	Linear fluid (dielectric constant: 64) occupying 0.891384 of unit cell:	Completed after 3 iterations at t[s]:    493.86
SCF: Cycle: 26   F: -531.680356806417535   dF: +4.217e-08   |Residual|: 3.957e-04   |deigs|: 3.307e-05  t[s]:    494.01
	Linear fluid (dielectric constant: 64) occupying 0.891381 of unit cell:	Completed after 4 iterations at t[s]:    494.15
	FillingsUpdate:  mu: -0.102169116  nElectrons: 319.000000
	Linear fluid (dielectric constant: 64) occupying 0.891384 of unit cell:	Completed after 2 iterations at t[s]:    497.93
SCF: Cycle: 27   F: -531.680356814214292   dF: -7.797e-09   |Residual|: 3.980e-04   |deigs|: 1.583e-05  t[s]:    498.08
	Linear fluid (dielectric constant: 64) occupying 0.891382 of unit cell:	Completed after 4 iterations at t[s]:    498.23
	FillingsUpdate:  mu: -0.102167684  nElectrons: 319.000000
	Linear fluid (dielectric constant: 64) occupying 0.891384 of unit cell:	Completed after 2 iterations at t[s]:    502.15
SCF: Cycle: 28   F: -531.680356977844781   dF: -1.636e-07   |Residual|: 3.578e-04   |deigs|: 2.547e-05  t[s]:    502.30
	Linear fluid (dielectric constant: 64) occupying 0.891382 of unit cell:	Completed after 4 iterations at t[s]:    502.44
	FillingsUpdate:  mu: -0.102170661  nElectrons: 319.000000
	Linear fluid (dielectric constant: 64) occupying 0.891384 of unit cell:	Completed after 3 iterations at t[s]:    506.25
SCF: Cycle: 29   F: -531.680356814749871   dF: +1.631e-07   |Residual|: 3.770e-04   |deigs|: 2.649e-05  t[s]:    506.40
	Linear fluid (dielectric constant: 64) occupying 0.891383 of unit cell:	Completed after 4 iterations at t[s]:    506.55
	FillingsUpdate:  mu: -0.102167050  nElectrons: 319.000000
	Linear fluid (dielectric constant: 64) occupying 0.891384 of unit cell:	Completed after 2 iterations at t[s]:    510.28
SCF: Cycle: 30   F: -531.680356908377689   dF: -9.363e-08   |Residual|: 3.552e-04   |deigs|: 2.894e-05  t[s]:    510.43
	Linear fluid (dielectric constant: 64) occupying 0.891383 of unit cell:	Completed after 4 iterations at t[s]:    510.58
	FillingsUpdate:  mu: -0.102166946  nElectrons: 319.000000
	Linear fluid (dielectric constant: 64) occupying 0.891384 of unit cell:	Completed after 2 iterations at t[s]:    514.35
SCF: Cycle: 31   F: -531.680357034363851   dF: -1.260e-07   |Residual|: 3.245e-04   |deigs|: 1.717e-05  t[s]:    514.49
	Linear fluid (dielectric constant: 64) occupying 0.891384 of unit cell:	Completed after 4 iterations at t[s]:    514.64
	FillingsUpdate:  mu: -0.102166507  nElectrons: 319.000000
	Linear fluid (dielectric constant: 64) occupying 0.891384 of unit cell:	Completed after 3 iterations at t[s]:    518.58
SCF: Cycle: 32   F: -531.680357004853477   dF: +2.951e-08   |Residual|: 3.177e-04   |deigs|: 2.654e-05  t[s]:    518.73
	Linear fluid (dielectric constant: 64) occupying 0.891385 of unit cell:	Completed after 3 iterations at t[s]:    518.87
	FillingsUpdate:  mu: -0.102159796  nElectrons: 319.000000
	Linear fluid (dielectric constant: 64) occupying 0.891384 of unit cell:	Completed after 3 iterations at t[s]:    522.64
SCF: Cycle: 33   F: -531.680357233842301   dF: -2.290e-07   |Residual|: 2.476e-04   |deigs|: 2.630e-04  t[s]:    522.79
	Linear fluid (dielectric constant: 64) occupying 0.891385 of unit cell:	Completed after 3 iterations at t[s]:    522.93
	FillingsUpdate:  mu: -0.102161184  nElectrons: 319.000000
	Linear fluid (dielectric constant: 64) occupying 0.891384 of unit cell:	Completed after 3 iterations at t[s]:    526.70
SCF: Cycle: 34   F: -531.680357226994943   dF: +6.847e-09   |Residual|: 2.618e-04   |deigs|: 6.095e-05  t[s]:    526.85
	Linear fluid (dielectric constant: 64) occupying 0.891385 of unit cell:	Completed after 3 iterations at t[s]:    526.99
	FillingsUpdate:  mu: -0.102161070  nElectrons: 319.000000
	Linear fluid (dielectric constant: 64) occupying 0.891384 of unit cell:	Completed after 3 iterations at t[s]:    530.75
SCF: Cycle: 35   F: -531.680357213788170   dF: +1.321e-08   |Residual|: 2.597e-04   |deigs|: 5.887e-05  t[s]:    530.90
	Linear fluid (dielectric constant: 64) occupying 0.891385 of unit cell:	Completed after 3 iterations at t[s]:    531.04
	FillingsUpdate:  mu: -0.102160522  nElectrons: 319.000000
	Linear fluid (dielectric constant: 64) occupying 0.891384 of unit cell:	Completed after 3 iterations at t[s]:    534.92
SCF: Cycle: 36   F: -531.680357195763008   dF: +1.803e-08   |Residual|: 2.651e-04   |deigs|: 7.897e-05  t[s]:    535.07
	Linear fluid (dielectric constant: 64) occupying 0.891385 of unit cell:	Completed after 3 iterations at t[s]:    535.20
	FillingsUpdate:  mu: -0.102159592  nElectrons: 319.000000
	Linear fluid (dielectric constant: 64) occupying 0.891384 of unit cell:	Completed after 2 iterations at t[s]:    539.07
SCF: Cycle: 37   F: -531.680357302094762   dF: -1.063e-07   |Residual|: 2.219e-04   |deigs|: 1.706e-04  t[s]:    539.22
	Linear fluid (dielectric constant: 64) occupying 0.891385 of unit cell:	Completed after 1 iterations at t[s]:    539.34
	FillingsUpdate:  mu: -0.102153792  nElectrons: 319.000000
	Linear fluid (dielectric constant: 64) occupying 0.891383 of unit cell:	Completed after 1 iterations at t[s]:    543.08
SCF: Cycle: 38   F: -531.680357366421731   dF: -6.433e-08   |Residual|: 8.174e-05   |deigs|: 2.933e-05  t[s]:    543.22
	Linear fluid (dielectric constant: 64) occupying 0.891384 of unit cell:	Completed after 0 iterations at t[s]:    543.31
	FillingsUpdate:  mu: -0.102157019  nElectrons: 319.000000
	Linear fluid (dielectric constant: 64) occupying 0.891384 of unit cell:	Completed after 0 iterations at t[s]:    547.03
SCF: Cycle: 39   F: -531.680357406135613   dF: -3.971e-08   |Residual|: 9.030e-05   |deigs|: 1.056e-04  t[s]:    547.16
	Linear fluid (dielectric constant: 64) occupying 0.891384 of unit cell:	Completed after 0 iterations at t[s]:    547.26
	FillingsUpdate:  mu: -0.102156720  nElectrons: 319.000000
	Linear fluid (dielectric constant: 64) occupying 0.891384 of unit cell:	Completed after 0 iterations at t[s]:    550.96
SCF: Cycle: 40   F: -531.680357419079996   dF: -1.294e-08   |Residual|: 9.318e-05   |deigs|: 4.701e-05  t[s]:    551.09
	Linear fluid (dielectric constant: 64) occupying 0.891383 of unit cell:	Completed after 0 iterations at t[s]:    551.19
	FillingsUpdate:  mu: -0.102156610  nElectrons: 319.000000
	Linear fluid (dielectric constant: 64) occupying 0.891384 of unit cell:	Completed after 0 iterations at t[s]:    556.35
SCF: Cycle: 41   F: -531.680357425163720   dF: -6.084e-09   |Residual|: 9.437e-05   |deigs|: 1.129e-05  t[s]:    556.48
	Linear fluid (dielectric constant: 64) occupying 0.891383 of unit cell:	Completed after 0 iterations at t[s]:    556.58
	FillingsUpdate:  mu: -0.102156574  nElectrons: 319.000000
[...]
SCF: Cycle: 19   F: -531.733728506226385   dF: +2.066e-07   |Residual|: 2.667e-04   |deigs|: 1.545e-05  t[s]:  10023.43
	Linear fluid (dielectric constant: 64) occupying 0.889686 of unit cell:	Completed after 2 iterations at t[s]:  10023.57
	FillingsUpdate:  mu: -0.099483520  nElectrons: 319.000000
	Linear fluid (dielectric constant: 64) occupying 0.889686 of unit cell:	Completed after 3 iterations at t[s]:  10026.44
SCF: Cycle: 20   F: -531.733728314877226   dF: +1.913e-07   |Residual|: 3.071e-04   |deigs|: 1.958e-05  t[s]:  10026.58
	Linear fluid (dielectric constant: 64) occupying 0.889686 of unit cell:	Completed after 3 iterations at t[s]:  10026.73
	FillingsUpdate:  mu: -0.099507676  nElectrons: 319.000000
	Linear fluid (dielectric constant: 64) occupying 0.889686 of unit cell:	Completed after 3 iterations at t[s]:  10029.60
SCF: Cycle: 21   F: -531.733728473806536   dF: -1.589e-07   |Residual|: 2.759e-04   |deigs|: 1.922e-05  t[s]:  10029.75
	Linear fluid (dielectric constant: 64) occupying 0.889686 of unit cell:	Completed after 2 iterations at t[s]:  10029.87
	FillingsUpdate:  mu: -0.099480837  nElectrons: 319.000000
	Linear fluid (dielectric constant: 64) occupying 0.889686 of unit cell:	Completed after 3 iterations at t[s]:  10032.65
SCF: Cycle: 22   F: -531.733728478654484   dF: -4.848e-09   |Residual|: 2.654e-04   |deigs|: 1.747e-05  t[s]:  10032.80
	Linear fluid (dielectric constant: 64) occupying 0.889686 of unit cell:	Completed after 2 iterations at t[s]:  10032.93
	FillingsUpdate:  mu: -0.099502898  nElectrons: 319.000000
	Linear fluid (dielectric constant: 64) occupying 0.889686 of unit cell:	Completed after 4 iterations at t[s]:  10037.10
SCF: Cycle: 23   F: -531.733728367747290   dF: +1.109e-07   |Residual|: 2.985e-04   |deigs|: 1.830e-05  t[s]:  10037.26
	Linear fluid (dielectric constant: 64) occupying 0.889686 of unit cell:	Completed after 2 iterations at t[s]:  10037.39
	FillingsUpdate:  mu: -0.099481810  nElectrons: 319.000000
	Linear fluid (dielectric constant: 64) occupying 0.889686 of unit cell:	Completed after 2 iterations at t[s]:  10040.16
SCF: Cycle: 24   F: -531.733728725055926   dF: -3.573e-07   |Residual|: 2.021e-04   |deigs|: 1.608e-05  t[s]:  10040.31
	Linear fluid (dielectric constant: 64) occupying 0.889686 of unit cell:	Completed after 2 iterations at t[s]:  10040.44
	FillingsUpdate:  mu: -0.099507056  nElectrons: 319.000000
	Linear fluid (dielectric constant: 64) occupying 0.889686 of unit cell:	Completed after 4 iterations at t[s]:  10043.26
SCF: Cycle: 25   F: -531.733728104777128   dF: +6.203e-07   |Residual|: 3.503e-04   |deigs|: 1.783e-05  t[s]:  10043.42
	Linear fluid (dielectric constant: 64) occupying 0.889686 of unit cell:	Completed after 3 iterations at t[s]:  10043.55
	FillingsUpdate:  mu: -0.099479301  nElectrons: 319.000000
	Linear fluid (dielectric constant: 64) occupying 0.889686 of unit cell:	Completed after 2 iterations at t[s]:  10046.37
SCF: Cycle: 26   F: -531.733728636902129   dF: -5.321e-07   |Residual|: 2.211e-04   |deigs|: 1.889e-05  t[s]:  10046.52
	Linear fluid (dielectric constant: 64) occupying 0.889686 of unit cell:	Completed after 2 iterations at t[s]:  10046.65
	FillingsUpdate:  mu: -0.099506211  nElectrons: 319.000000
	Linear fluid (dielectric constant: 64) occupying 0.889686 of unit cell:	Completed after 3 iterations at t[s]:  10049.46
SCF: Cycle: 27   F: -531.733728514405357   dF: +1.225e-07   |Residual|: 2.650e-04   |deigs|: 1.638e-05  t[s]:  10049.61
	Linear fluid (dielectric constant: 64) occupying 0.889686 of unit cell:	Completed after 2 iterations at t[s]:  10049.74
	FillingsUpdate:  mu: -0.099480786  nElectrons: 319.000000
	Linear fluid (dielectric constant: 64) occupying 0.889686 of unit cell:	Completed after 3 iterations at t[s]:  10052.56
SCF: Cycle: 28   F: -531.733728228618133   dF: +2.858e-07   |Residual|: 3.259e-04   |deigs|: 1.928e-05  t[s]:  10052.71
	Linear fluid (dielectric constant: 64) occupying 0.889686 of unit cell:	Completed after 3 iterations at t[s]:  10052.85
	FillingsUpdate:  mu: -0.099507197  nElectrons: 319.000000
	Linear fluid (dielectric constant: 64) occupying 0.889686 of unit cell:	Completed after 3 iterations at t[s]:  10055.69
SCF: Cycle: 29   F: -531.733728489497480   dF: -2.609e-07   |Residual|: 2.719e-04   |deigs|: 1.951e-05  t[s]:  10055.84
	Linear fluid (dielectric constant: 64) occupying 0.889686 of unit cell:	Completed after 2 iterations at t[s]:  10055.96
	FillingsUpdate:  mu: -0.099480288  nElectrons: 319.000000
	Linear fluid (dielectric constant: 64) occupying 0.889686 of unit cell:	Completed after 4 iterations at t[s]:  10058.81
SCF: Cycle: 30   F: -531.733728362328520   dF: +1.272e-07   |Residual|: 2.864e-04   |deigs|: 1.804e-05  t[s]:  10058.97
	Linear fluid (dielectric constant: 64) occupying 0.889686 of unit cell:	Completed after 2 iterations at t[s]:  10059.10
	FillingsUpdate:  mu: -0.099502430  nElectrons: 319.000000
	Linear fluid (dielectric constant: 64) occupying 0.889686 of unit cell:	Completed after 3 iterations at t[s]:  10061.91
SCF: Cycle: 31   F: -531.733728513528149   dF: -1.512e-07   |Residual|: 2.696e-04   |deigs|: 1.812e-05  t[s]:  10062.06
	Linear fluid (dielectric constant: 64) occupying 0.889686 of unit cell:	Completed after 3 iterations at t[s]:  10062.21
	FillingsUpdate:  mu: -0.099481858  nElectrons: 319.000000
	Linear fluid (dielectric constant: 64) occupying 0.889686 of unit cell:	Completed after 0 iterations at t[s]:  10065.00
SCF: Cycle: 32   F: -531.733728978048248   dF: -4.645e-07   |Residual|: 1.342e-04   |deigs|: 1.320e-05  t[s]:  10065.14
	Linear fluid (dielectric constant: 64) occupying 0.889686 of unit cell:	Completed after 0 iterations at t[s]:  10065.25
	FillingsUpdate:  mu: -0.099489877  nElectrons: 319.000000
	Linear fluid (dielectric constant: 64) occupying 0.889686 of unit cell:	Completed after 0 iterations at t[s]:  10067.99
SCF: Cycle: 33   F: -531.733728979255375   dF: -1.207e-09   |Residual|: 3.126e-05   |deigs|: 4.223e-06  t[s]:  10068.11
	Linear fluid (dielectric constant: 64) occupying 0.889686 of unit cell:	Completed after 0 iterations at t[s]:  10068.21
	FillingsUpdate:  mu: -0.099489875  nElectrons: 319.000000
	Linear fluid (dielectric constant: 64) occupying 0.889686 of unit cell:	Completed after 0 iterations at t[s]:  10070.87
SCF: Cycle: 34   F: -531.733728979311195   dF: -5.582e-11   |Residual|: 3.066e-05   |deigs|: 9.856e-08  t[s]:  10071.00
SCF: Converged (|Delta E|<1.000000e-08 for 2 iters).

Setting wave functions to eigenvectors of Hamiltonian

Computing DFT-D3 correction:
# coordination-number C 3.300 3.300 3.303 3.300 3.300 3.300 3.307 3.300 3.291 3.300 3.300 3.293 3.312 3.301 3.300 3.309 3.300 3.300 3.307 3.291 3.300 3.300 3.339 3.300 3.300 3.300 3.353 3.303 3.300 3.300 3.292 3.307 3.300 3.288 3.300 3.300 3.300 3.301 3.301 3.302 3.300 3.300 3.304 3.306 3.301 3.303 3.300 3.300 3.318 3.301 3.300 3.300 3.320 3.333 3.300 3.300 3.303 3.311 3.300 3.300 3.300 3.311 3.338 3.300 3.299 3.300 3.301 3.302 3.300 3.300 3.303
# coordination-number N 3.216
# coordination-number S 1.137 1.152
# coordination-number Na 0.315 0.324
# diagonal-C6 C 24.28 24.28 24.25 24.28 24.28 24.28 24.21 24.28 24.36 24.29 24.29 24.34 24.17 24.28 24.29 24.19 24.28 24.28 24.22 24.37 24.28 24.28 23.88 24.28 24.28 24.29 23.71 24.25 24.29 24.28 24.36 24.21 24.29 24.39 24.28 24.28 24.28 24.28 24.27 24.26 24.28 24.28 24.24 24.23 24.27 24.26 24.29 24.29 24.10 24.27 24.28 24.29 24.08 23.94 24.28 24.28 24.26 24.17 24.28 24.29 24.28 24.17 23.89 24.29 24.30 24.29 24.27 24.27 24.28 24.28 24.25
# diagonal-C6 N 15.60
# diagonal-C6 S 130.72 130.69
# diagonal-C6 Na 1174.56 1152.78
EvdW_6 =   -0.064023
EvdW_8 =   -0.055192

# Ionic positions in cartesian coordinates:
ion C -14.002918197300012  24.253758582300001   2.000000000000000 0
ion C  -2.333816550000000   4.042302545699999   2.000000000000000 0
ion C  11.669101647300000  20.211493831199999   2.000000000000000 0
ion C  -9.335266200000008  24.253758582300001   2.000000000000000 0
ion C   9.335303994599993  24.253758582300001   2.000000000000000 0
ion C   2.333816549999999   4.042302545699999   2.000000000000000 0
ion C -11.669120544600000  20.211493831199999   2.000000000000000 0
ion C  -4.667651997299999   8.084605091399998   2.000000000000000 0
ion C   9.335285097299998  16.169191285499998   2.000000000000000 0
ion C  -4.667614202700010  24.253758582300001   2.000000000000000 0
ion C   4.667651997299995  24.253758582300001   2.000000000000000 0
ion C   4.667651997299999   8.084605091399998   2.000000000000000 0
ion C  -9.335303994599998  16.169191285499998   2.000000000000000 0
ion C  -7.001468547300001  12.126907637100000   2.000000000000000 0
ion C   0.000037794599988  24.253758582300001   2.000000000000000 0
ion C   0.000000000000000   8.084605091399998   2.000000000000000 0
ion C   7.001449650000005  20.211493831199999   2.000000000000000 0
ion C  -7.001468547300000  20.211493831199999   2.000000000000000 0
ion C  -2.333816549999999  12.126907637100000   2.000000000000000 0
ion C   4.667633100000000  16.169191285499998   2.000000000000000 0
ion C  -2.333816549999993  20.211493831199999   2.000000000000000 0
ion C   2.333835447300000  20.211493831199999   2.000000000000000 0
ion C   2.333835447299999  12.126907637100000   2.000000000000000 0
ion C  -4.667651997299999  16.169191285499998   2.000000000000000 0
ion C   7.001449650000000   4.042302545699999   2.000000000000000 0
ion C  21.004386744600001   4.042302545699999   2.000000000000000 0
ion C  14.002937094600000  16.169191285499998   2.000000000000000 0
ion C   0.000000000000000  16.169191285499998   2.000000000000000 0
ion C  11.669101647300000   4.042302545699999   2.000000000000000 0
ion C  18.670589091899998   8.084605091399998   2.000000000000000 0
ion C  11.669101647300000  12.126907637100000   2.000000000000000 0
ion C  16.336753644600002  12.126907637100000   2.000000000000000 0
ion C  16.336753644600002   4.042302545699999   2.000000000000000 0
ion C   9.335285097300002   8.084605091399998   2.000000000000000 0
ion C  14.002937094600000   8.084605091399998   2.000000000000000 0
ion C   0.000018897300000   2.694868363800000   2.000000000000000 0
ion C  11.669120544600000  22.906362195000000   2.000000000000000 0
ion C -11.669120544600002  22.906362195000000   2.000000000000000 0
ion C  -2.333816549999999   6.737152012199999   2.000000000000000 0
ion C   9.335285097299998  18.864059649300000   2.000000000000000 0
ion C  -7.001468547300003  22.906362195000000   2.000000000000000 0
ion C   7.001468547300002  22.906362195000000   2.000000000000000 0
ion C   2.333816550000000   6.737152012199999   2.000000000000000 0
ion C  -9.335285097299998  18.864059649300000   2.000000000000000 0
ion C  -4.667633100000000  10.779454557899999   2.000000000000000 0
ion C   7.001468547300002  14.821757103600000   2.000000000000000 0
ion C  -2.333835447300000  22.906362195000000   2.000000000000000 0
ion C   2.333816550000000  22.906362195000000   2.000000000000000 0
ion C   4.667633100000000  10.779454557899999   2.000000000000000 0
ion C  -7.001468547300001  14.821757103600000   2.000000000000000 0
ion C   4.667633100000003   2.694868363800000   2.000000000000000 0
ion C  23.338222191900002   2.694868363800000   2.000000000000000 0
ion C  14.002918197300001  18.864059649300000   2.000000000000000 0
ion C   0.000018897300000  10.779454557899999   2.000000000000000 0
ion C   4.667633100000000  18.864059649300000   2.000000000000000 0
ion C  -4.667633099999995  18.864059649300000   2.000000000000000 0
ion C  -2.333816550000000  14.821757103600000   2.000000000000000 0
ion C   2.333816550000000  14.821757103600000   2.000000000000000 0
ion C  -0.000018897299999  18.864059649300000   2.000000000000000 0
ion C   9.335285097300000   2.694868363800000   2.000000000000000 0
ion C  21.004386744599998   6.737152012199999   2.000000000000000 0
ion C  11.669120544600002  14.821757103600000   2.000000000000000 0
ion C  16.336734747299992  14.821757103600000   2.000000000000000 0
ion C  18.670570194600000   2.694868363800000   2.000000000000000 0
ion C   7.001468547300000   6.737152012199999   2.000000000000000 0
ion C  14.002937094600002   2.694868363800000   2.000000000000000 0
ion C  18.670570194600000  10.779454557899999   2.000000000000000 0
ion C   9.335285097300000  10.779454557899999   2.000000000000000 0
ion C  11.669120544600000   6.737152012199999   2.000000000000000 0
ion C  16.336734747299989   6.737152012199999   2.000000000000000 0
ion C  14.002937094600000  10.779454557899999   2.000000000000000 0
ion N   7.001449650000002  12.126907637100000   2.000000000000000 0
ion S   9.108557924233585  11.848691273142103   9.246539027836061 1
ion S   7.840608483011652  15.498461041059800   9.308527286641526 1
ion Na   1.855278990315284  11.454744160619201   8.570211705728951 1
ion Na  15.012811830540244  16.143914115722030   8.527263780078208 1

# Forces in Cartesian coordinates:
force C   0.001605118077825  -0.000946823511582   0.000058040599704 0
force C   0.000515910795149  -0.000045540789004   0.000043439022364 0
force C   0.001321158396831  -0.001254304349068   0.000132892249293 0
force C   0.000832524795337   0.001156759326168   0.000044121096025 0
force C   0.000299318797907  -0.000453595721686   0.000045961378988 0
force C   0.001712444113041  -0.000680386702837   0.000074151859865 0
force C  -0.000560976366162  -0.001324503253053   0.000108978409031 0
force C   0.000247034069310   0.000464501202062   0.000060368969131 0
force C  -0.002975632679112  -0.009856234124976  -0.000344186435106 0
force C  -0.000891913833085   0.001158091565978   0.000027500198608 0
force C  -0.000251886090829  -0.000410889316525   0.000028305861923 0
force C   0.007025325240012   0.007543484622572   0.000224203706847 0
force C  -0.001423607610780   0.000163149298990   0.000088129431258 0
force C  -0.000006245274924   0.001873543244814   0.000089616036950 0
force C  -0.001614035914895  -0.000919360510241   0.000027395910454 0
force C   0.000469476632633   0.000280526564240   0.000098014849660 0
force C   0.000109013721221  -0.000682055897624   0.000216489969741 0
force C  -0.000004185370370  -0.000016811814971   0.000078406483974 0
force C   0.000267864516277   0.001821069199513   0.000116498439423 0
force C   0.003174840430116  -0.009848562493682  -0.000134161023920 0
force C   0.000564405935176  -0.001347118099497   0.000040058013812 0
force C  -0.001412667388370  -0.001178893753798   0.000050887579507 0
force C   0.010101323142035   0.002358532387279  -0.000534525069449 0
force C   0.001442314299882   0.000154775500831   0.000085347853781 0
force C  -0.000013038713495   0.005598274948779   0.000071843498465 0
force C   0.000018978953173  -0.000011034103125   0.000027956695419 0
force C  -0.005037054837313  -0.002823435257754  -0.000578544998935 0
force C   0.004846558778968  -0.002788122675144   0.000159166444671 0
force C  -0.001696753205481  -0.000676212639098   0.000039963067351 0
force C  -0.000236005594403   0.000478256382670   0.000047291931828 0
force C  -0.010020655344221   0.002333619602831  -0.000185154769146 0
force C  -0.000324880221001   0.001844179184760   0.000144072468075 0
force C  -0.000478823824865  -0.000034482609392   0.000026353888449 0
force C  -0.006950502382740   0.007742114161938  -0.000177494714041 0
force C  -0.000476316132733   0.000334130207303   0.000189100004038 0
force C  -0.000568225777451   0.000833068954297   0.000045542206973 0
force C  -0.001000853939679   0.000065812171394   0.000094945463531 0
force C  -0.001860807522547   0.001066562431525   0.000079208922399 0
force C  -0.000180825773959  -0.000084069746582   0.000089003476455 0
force C  -0.004646680241160   0.000369533591564  -0.000091665159106 0
force C   0.000021050836736  -0.000078068258202   0.000034756735996 0
force C  -0.000020623114082   0.000146057982944   0.000046254921677 0
force C  -0.002933435152008   0.003651581468520   0.000121090003023 0
force C   0.000052812420114   0.000040388791430   0.000102331735715 0
force C   0.000428178231300  -0.000892092200028   0.000098455385156 0
force C   0.000215504431647  -0.006843623069092  -0.000188594850485 0
force C   0.001912097326614   0.001082344926958   0.000027468567009 0
force C   0.000979564614969   0.000047130653248   0.000037790474034 0
force C   0.006066632263840   0.003479590393310  -0.000007274232020 0
force C   0.000009622307229  -0.002181408820337   0.000105289940978 0
force C  -0.001949809207703  -0.000855736767577   0.000046179432038 0
force C  -0.000590720003131   0.000349825708323   0.000029744253729 0
force C  -0.000311377861435   0.002115210174701  -0.000017329031718 0
force C   0.001608837324331  -0.004399560927607  -0.000311365283220 0
force C   0.004684867673918   0.000502004092750   0.000131049501001 0
force C  -0.000066907211708   0.000041392547170   0.000044785973866 0
force C  -0.001749766822973  -0.001254914333381   0.000108728504919 0
force C  -0.005160431876345   0.003208042247205   0.000010364075272 0
force C   0.000270903385671   0.002123883193151   0.000086626188539 0
force C   0.001968576387901  -0.000834596414260   0.000032554002354 0
force C  -0.000008250666848  -0.000649232093976   0.000037410771880 0
force C   0.004939504796109   0.003020432170020  -0.000082077488840 0
force C   0.001753885472949  -0.001360983963911  -0.000385299557531 0
force C   0.000541802717418   0.000329212314518   0.000026213094813 0
force C   0.000105482093216  -0.006091540285294   0.000143135023958 0
force C   0.000536210437032   0.000810342187386   0.000029400403495 0
force C  -0.000420950920896  -0.000900895349598   0.000105811957181 0
force C  -0.005906866255405   0.003505164840784  -0.000126692814509 0
force C   0.002827033714422   0.003773751993917   0.000149852149916 0
force C   0.000140235010323  -0.000085657044278   0.000040396472410 0
force C  -0.001965978257121  -0.004261199934734   0.000002235548626 0
force N   0.000281198450719   0.000269085344320  -0.000080261429605 0
force S  -0.000160777095371   0.000333502021453  -0.000095692915291 1
force S  -0.000025781824970  -0.000332524795637   0.000082994568806 1
force Na   0.000115730278892  -0.000031313081838  -0.000291273958329 1
force Na  -0.000091329311899  -0.000086561156854  -0.000173113574497 1

# Energy components:
   A_diel =       -0.3094106719702378
   Eewald =     4696.6367611008545282
       EH =     5119.2245047199221517
     Eloc =   -10380.4243813605517062
      Enl =      -81.6487244057061616
     EvdW =       -0.1192149514196125
      Exc =     -154.3905404067406266
 Exc_core =        6.0150672078495386
       KE =      263.3525229675884134
-------------------------------------
     Etot =     -531.6634158001743344
       TS =        0.0703131791369141
-------------------------------------
        F =     -531.7337289793111950

IonicMinimize: Iter:  32  F: -531.733728979311195  |grad|_K:  1.847e-04  alpha:  1.745e+00  linmin: -2.983e-03  t[s]:  10074.12
IonicMinimize: Converged (|Delta F|<1.000000e-06 for 2 iters).

#--- Lowdin population analysis ---
# oxidation-state C +0.025 +0.026 +0.027 +0.024 +0.026 +0.027 +0.023 +0.025 +0.023 +0.025 +0.026 +0.018 +0.022 +0.025 +0.026 +0.025 +0.027 +0.021 +0.026 +0.020 +0.025 +0.028 +0.017 +0.024 +0.023 +0.023 +0.021 +0.022 +0.028 +0.026 +0.021 +0.026 +0.026 +0.021 +0.027 +0.025 +0.025 +0.026 +0.024 +0.029 +0.025 +0.026 +0.027 +0.023 +0.025 +0.144 +0.026 +0.026 +0.138 +0.025 +0.027 +0.025 +0.025 +0.026 +0.029 +0.025 +0.026 +0.034 +0.027 +0.028 +0.025 +0.036 +0.025 +0.025 +0.036 +0.026 +0.025 +0.144 +0.029 +0.025 +0.028
# oxidation-state N +0.008
# oxidation-state S -0.493 -0.490
# oxidation-state Na +0.967 +0.968


Dumping 'Na2S2@N_graphene-PC-vdw.fillings' ... done
Dumping 'Na2S2@N_graphene-PC-vdw.wfns' ... done
Dumping 'Na2S2@N_graphene-PC-vdw.fluidState' ... done
Dumping 'Na2S2@N_graphene-PC-vdw.ionpos' ... done
Dumping 'Na2S2@N_graphene-PC-vdw.eigenvals' ... done
End date and time: Wed Sep 11 06:22:23 2024  (Duration: 0-2:47:56.11)
Done!
