
*************** JDFTx 1.7.0  ***************

Start date and time: Wed Sep 11 03:34:27 2024
Executable jdftx_gpu with command-line: -i /home/akim2/JDFTx/Na2S2@N_graphene-glyme-vdw/Na2S2@N_graphene-glyme-vdw.in -o /home/akim2/JDFTx/Na2S2@N_graphene-glyme-vdw/Na2S2@N_graphene-glyme-vdw.out
Running on hosts (process indices):  exp-1-60 (0)
Divided in process groups (process indices):  0 (0)
gpuInit: Found compatible cuda device 0 'Tesla V100-SXM2-32GB'
gpuInit: Selected device 0
Resource initialization completed at t[s]:      0.45
Run totals: 1 processes, 40 threads, 1 GPUs


Input parsed successfully to the following command list (including defaults):

basis kpoint-dependent
coords-type Cartesian
core-overlap-check vector
coulomb-interaction Slab 001
coulomb-truncation-embed 0 0 6
davidson-band-ratio 1.1
dump End State
dump-name Na2S2@N_graphene-glyme-vdw.$VAR
elec-cutoff 20 100
elec-eigen-algo Davidson
elec-ex-corr gga-PBE
elec-smearing Fermi 0.01
electronic-minimize  \
	dirUpdateScheme      FletcherReeves \
	linminMethod         DirUpdateRecommended \
	nIterations          100 \
	history              15 \
	knormThreshold       0 \
	energyDiffThreshold  1e-08 \
	nEnergyDiff          2 \
	alphaTstart          1 \
	alphaTmin            1e-10 \
	updateTestStepSize   yes \
	alphaTreduceFactor   0.1 \
	alphaTincreaseFactor 3 \
	nAlphaAdjustMax      3 \
	wolfeEnergy          0.0001 \
	wolfeGradient        0.9 \
	fdTest               no
electronic-scf  \
	nIterations	100 \
	energyDiffThreshold	1e-08 \
	residualThreshold	1e-07 \
	mixFraction	0.5 \
	qMetric	0.8 \
	history	10 \
	nEigSteps	2 \
	eigDiffThreshold	1e-08 \
	mixedVariable	Density \
	qKerker	0.8 \
	qKappa	-1 \
	verbose	no \
	mixFractionMag	1.5
exchange-regularization WignerSeitzTruncated
fluid LinearPCM 298.000000 1.013250
fluid-ex-corr lda-TF lda-PZ
fluid-gummel-loop 10 1.000000e-05
fluid-minimize  \
	dirUpdateScheme      PolakRibiere \
	linminMethod         DirUpdateRecommended \
	nIterations          400 \
	history              15 \
	knormThreshold       1e-11 \
	energyDiffThreshold  0 \
	nEnergyDiff          2 \
	alphaTstart          1 \
	alphaTmin            1e-10 \
	updateTestStepSize   yes \
	alphaTreduceFactor   0.1 \
	alphaTincreaseFactor 3 \
	nAlphaAdjustMax      6 \
	wolfeEnergy          0.0001 \
	wolfeGradient        0.9 \
	fdTest               no
fluid-solvent Glyme 9.62137 ScalarEOS \
	epsBulk 7.2 \
	pMol 0 \
	epsInf 1.9 \
	Pvap 0 \
	sigmaBulk 0 \
	Rvdw 0 \
	Res 0 \
	tauNuc 343133
forces-output-coords Positions
ion C -14.002918197300012  24.253758582300001   2.000000000000000 0
ion C  -2.333816550000000   4.042302545699999   2.000000000000000 0
ion C  11.669101647300000  20.211493831199999   2.000000000000000 0
ion C  -9.335266200000008  24.253758582300001   2.000000000000000 0
ion C   9.335303994599993  24.253758582300001   2.000000000000000 0
ion C   2.333816549999999   4.042302545699999   2.000000000000000 0
ion C -11.669120544600000  20.211493831199999   2.000000000000000 0
ion C  -4.667651997299999   8.084605091399998   2.000000000000000 0
ion C   9.335285097299998  16.169191285499998   2.000000000000000 0
ion C  -4.667614202700010  24.253758582300001   2.000000000000000 0
ion C   4.667651997299995  24.253758582300001   2.000000000000000 0
ion C   4.667651997299999   8.084605091399998   2.000000000000000 0
ion C  -9.335303994599998  16.169191285499998   2.000000000000000 0
ion C  -7.001468547300001  12.126907637100000   2.000000000000000 0
ion C   0.000037794599988  24.253758582300001   2.000000000000000 0
ion C   0.000000000000000   8.084605091399998   2.000000000000000 0
ion C   7.001449650000005  20.211493831199999   2.000000000000000 0
ion C  -7.001468547300000  20.211493831199999   2.000000000000000 0
ion C  -2.333816549999999  12.126907637100000   2.000000000000000 0
ion C   4.667633100000000  16.169191285499998   2.000000000000000 0
ion C  -2.333816549999993  20.211493831199999   2.000000000000000 0
ion C   2.333835447300000  20.211493831199999   2.000000000000000 0
ion C   2.333835447299999  12.126907637100000   2.000000000000000 0
ion C  -4.667651997299999  16.169191285499998   2.000000000000000 0
ion C   7.001449650000000   4.042302545699999   2.000000000000000 0
ion C  21.004386744600001   4.042302545699999   2.000000000000000 0
ion C  14.002937094600000  16.169191285499998   2.000000000000000 0
ion C   0.000000000000000  16.169191285499998   2.000000000000000 0
ion C  11.669101647300000   4.042302545699999   2.000000000000000 0
ion C  18.670589091899998   8.084605091399998   2.000000000000000 0
ion C  11.669101647300000  12.126907637100000   2.000000000000000 0
ion C  16.336753644600002  12.126907637100000   2.000000000000000 0
ion C  16.336753644600002   4.042302545699999   2.000000000000000 0
ion C   9.335285097300002   8.084605091399998   2.000000000000000 0
ion C  14.002937094600000   8.084605091399998   2.000000000000000 0
ion C   0.000018897300000   2.694868363800000   2.000000000000000 0
ion C  11.669120544600000  22.906362195000000   2.000000000000000 0
ion C -11.669120544600002  22.906362195000000   2.000000000000000 0
ion C  -2.333816549999999   6.737152012199999   2.000000000000000 0
ion C   9.335285097299998  18.864059649300000   2.000000000000000 0
ion C  -7.001468547300003  22.906362195000000   2.000000000000000 0
ion C   7.001468547300002  22.906362195000000   2.000000000000000 0
ion C   2.333816550000000   6.737152012199999   2.000000000000000 0
ion C  -9.335285097299998  18.864059649300000   2.000000000000000 0
ion C  -4.667633100000000  10.779454557899999   2.000000000000000 0
ion C   7.001468547300002  14.821757103600000   2.000000000000000 0
ion C  -2.333835447300000  22.906362195000000   2.000000000000000 0
ion C   2.333816550000000  22.906362195000000   2.000000000000000 0
ion C   4.667633100000000  10.779454557899999   2.000000000000000 0
ion C  -7.001468547300001  14.821757103600000   2.000000000000000 0
ion C   4.667633100000003   2.694868363800000   2.000000000000000 0
ion C  23.338222191900002   2.694868363800000   2.000000000000000 0
ion C  14.002918197300001  18.864059649300000   2.000000000000000 0
ion C   0.000018897300000  10.779454557899999   2.000000000000000 0
ion C   4.667633100000000  18.864059649300000   2.000000000000000 0
ion C  -4.667633099999995  18.864059649300000   2.000000000000000 0
ion C  -2.333816550000000  14.821757103600000   2.000000000000000 0
ion C   2.333816550000000  14.821757103600000   2.000000000000000 0
ion C  -0.000018897299999  18.864059649300000   2.000000000000000 0
ion C   9.335285097300000   2.694868363800000   2.000000000000000 0
ion C  21.004386744599998   6.737152012199999   2.000000000000000 0
ion C  11.669120544600002  14.821757103600000   2.000000000000000 0
ion C  16.336734747299992  14.821757103600000   2.000000000000000 0
ion C  18.670570194600000   2.694868363800000   2.000000000000000 0
ion C   7.001468547300000   6.737152012199999   2.000000000000000 0
ion C  14.002937094600002   2.694868363800000   2.000000000000000 0
ion C  18.670570194600000  10.779454557899999   2.000000000000000 0
ion C   9.335285097300000  10.779454557899999   2.000000000000000 0
ion C  11.669120544600000   6.737152012199999   2.000000000000000 0
ion C  16.336734747299989   6.737152012199999   2.000000000000000 0
ion C  14.002937094600000  10.779454557899999   2.000000000000000 0
ion N   7.001449650000002  12.126907637100000   2.000000000000000 0
ion S   9.215713061462331  11.778558106036597   8.855651537568102 1
ion S   7.927437043051153  15.478908557706403   9.346778647557716 1
ion Na   4.439872557186393  12.472582720786718   7.224500096693866 1
ion Na  12.514316976506610  15.278456965661908   7.125040148815851 1
ion-species GBRV/$ID_pbe.uspp
ion-width Ecut
ionic-minimize  \
	dirUpdateScheme      FletcherReeves \
	linminMethod         DirUpdateRecommended \
	nIterations          200 \
	history              15 \
	knormThreshold       0.0001 \
	energyDiffThreshold  1e-06 \
	nEnergyDiff          2 \
	alphaTstart          1 \
	alphaTmin            1e-10 \
	updateTestStepSize   yes \
	alphaTreduceFactor   0.1 \
	alphaTincreaseFactor 3 \
	nAlphaAdjustMax      3 \
	wolfeEnergy          0.0001 \
	wolfeGradient        0.9 \
	fdTest               no
kpoint   0.000000000000   0.000000000000   0.000000000000  1.00000000000000
kpoint-folding 1 1 1 
latt-move-scale 1 1 1
latt-scale 1 1 1 
lattice Triclinic 28.0058 28.0058 37.7946 90 90 120
lattice-minimize  \
	dirUpdateScheme      L-BFGS \
	linminMethod         DirUpdateRecommended \
	nIterations          0 \
	history              15 \
	knormThreshold       0 \
	energyDiffThreshold  1e-06 \
	nEnergyDiff          2 \
	alphaTstart          1 \
	alphaTmin            1e-10 \
	updateTestStepSize   yes \
	alphaTreduceFactor   0.1 \
	alphaTincreaseFactor 3 \
	nAlphaAdjustMax      3 \
	wolfeEnergy          0.0001 \
	wolfeGradient        0.9 \
	fdTest               no
lcao-params -1 1e-06 0.01
pcm-variant GLSSA13
spintype no-spin
subspace-rotation-factor 1 yes
symmetries automatic
symmetry-threshold 0.0001
van-der-waals D3



---------- Setting up symmetries ----------

Found 24 point-group symmetries of the bravais lattice
Found 1 space-group symmetries with basis
Applied RMS atom displacement 0 bohrs to make symmetries exact.

---------- Initializing the Grid ----------
R = 
[      28.0058     -14.0029            0  ]
[            0      24.2537            0  ]
[            0            0      37.7946  ]
unit cell volume = 25671.8
G =
[   0.224353    0.12953         -0  ]
[          0   0.259061          0  ]
[          0         -0   0.166246  ]
Minimum fftbox size, Smin = [  128  128  172  ]
Chosen fftbox size, S = [  128  128  180  ]

---------- Initializing tighter grid for wavefunction operations ----------
R = 
[      28.0058     -14.0029            0  ]
[            0      24.2537            0  ]
[            0            0      37.7946  ]
unit cell volume = 25671.8
G =
[   0.224353    0.12953         -0  ]
[          0   0.259061          0  ]
[          0         -0   0.166246  ]
Minimum fftbox size, Smin = [  116  116  156  ]
Chosen fftbox size, S = [  120  120  160  ]

---------- Exchange Correlation functional ----------
Initalized PBE GGA exchange.
Initalized PBE GGA correlation.

---------- Setting up pseudopotentials ----------
Width of ionic core gaussian charges (only for fluid interactions / plotting) set to 0.397384

Reading pseudopotential file '/home/akim2/jdftx_install/build/pseudopotentials/GBRV/c_pbe.uspp':
  Title: C.  Created by USPP 7.3.6 on 3-2-2014
  Reference state energy: -5.406344.  4 valence electrons in orbitals:
    |200>  occupation: 2  eigenvalue: -0.504890
    |210>  occupation: 2  eigenvalue: -0.194356
  lMax: 1  lLocal: 2  QijEcut: 5
  4 projectors sampled on a log grid with 503 points:
    l: 0  eig: -0.504890  rCut: 1.3
    l: 0  eig: 0.000000  rCut: 1.3
    l: 1  eig: -0.194357  rCut: 1.3
    l: 1  eig: 0.000000  rCut: 1.3
  Partial core density with radius 1.1
  Transforming core density to a uniform radial grid of dG=0.02 with 1625 points.
  Transforming local potential to a uniform radial grid of dG=0.02 with 1625 points.
  Transforming nonlocal projectors to a uniform radial grid of dG=0.02 with 432 points.
  Transforming density augmentations to a uniform radial grid of dG=0.02 with 1625 points.
  Transforming atomic orbitals to a uniform radial grid of dG=0.02 with 432 points.
  Core radius for overlap checks: 1.30 bohrs.

Reading pseudopotential file '/home/akim2/jdftx_install/build/pseudopotentials/GBRV/n_pbe.uspp':
  Title: N.  Created by USPP 7.3.6 on 3-2-2014
  Reference state energy: -9.763716.  5 valence electrons in orbitals:
    |200>  occupation: 2  eigenvalue: -0.681964
    |210>  occupation: 3  eigenvalue: -0.260726
  lMax: 1  lLocal: 2  QijEcut: 6
  4 projectors sampled on a log grid with 491 points:
    l: 0  eig: -0.681964  rCut: 1.15
    l: 0  eig: 0.000000  rCut: 1.15
    l: 1  eig: -0.260729  rCut: 1.2
    l: 1  eig: 0.500000  rCut: 1.2
  Partial core density with radius 0.8
  Transforming core density to a uniform radial grid of dG=0.02 with 1625 points.
  Transforming local potential to a uniform radial grid of dG=0.02 with 1625 points.
  Transforming nonlocal projectors to a uniform radial grid of dG=0.02 with 432 points.
  Transforming density augmentations to a uniform radial grid of dG=0.02 with 1625 points.
  Transforming atomic orbitals to a uniform radial grid of dG=0.02 with 432 points.
  Core radius for overlap checks: 1.20 bohrs.

Reading pseudopotential file '/home/akim2/jdftx_install/build/pseudopotentials/GBRV/s_pbe.uspp':
  Title: S.  Created by USPP 7.3.6 on 1-4-15
  Reference state energy: -11.898476.  6 valence electrons in orbitals:
    |300>  occupation: 2  eigenvalue: -0.634167
    |310>  occupation: 4  eigenvalue: -0.257568
  lMax: 2  lLocal: 3  QijEcut: 6
  6 projectors sampled on a log grid with 635 points:
    l: 0  eig: -0.634161  rCut: 1.5
    l: 0  eig: 1.500000  rCut: 1.5
    l: 1  eig: -0.257567  rCut: 1.5
    l: 1  eig: 1.500000  rCut: 1.5
    l: 2  eig: -1.000000  rCut: 1.5
    l: 2  eig: 1.500000  rCut: 1.5
  Partial core density with radius 1.15
  Transforming core density to a uniform radial grid of dG=0.02 with 1625 points.
  Transforming local potential to a uniform radial grid of dG=0.02 with 1625 points.
  Transforming nonlocal projectors to a uniform radial grid of dG=0.02 with 432 points.
  Transforming density augmentations to a uniform radial grid of dG=0.02 with 1625 points.
  Transforming atomic orbitals to a uniform radial grid of dG=0.02 with 432 points.
  Core radius for overlap checks: 1.50 bohrs.

Reading pseudopotential file '/home/akim2/jdftx_install/build/pseudopotentials/GBRV/na_pbe.uspp':
  Title: Na.  Created by USPP 7.3.6 on 23-9-15
  Reference state energy: -47.625620.  9 valence electrons in orbitals:
    |200>  occupation: 2  eigenvalue: -2.085638
    |210>  occupation: 6  eigenvalue: -1.053708
    |300>  occupation: 1  eigenvalue: -0.100838
  lMax: 2  lLocal: 0  QijEcut: 6
  5 projectors sampled on a log grid with 657 points:
    l: 0  eig: -2.085640  rCut: 1.37
    l: 0  eig: -0.100839  rCut: 1.37
    l: 1  eig: -1.053708  rCut: 1.47
    l: 1  eig: 0.500000  rCut: 1.47
    l: 2  eig: 0.750000  rCut: 2
  Transforming local potential to a uniform radial grid of dG=0.02 with 1625 points.
  Transforming nonlocal projectors to a uniform radial grid of dG=0.02 with 432 points.
  Transforming density augmentations to a uniform radial grid of dG=0.02 with 1625 points.
  Transforming atomic orbitals to a uniform radial grid of dG=0.02 with 432 points.
  Core radius for overlap checks: 2.00 bohrs.

Initialized 4 species with 76 total atoms.

Folded 1 k-points by 1x1x1 to 1 k-points.

---------- Setting up k-points, bands, fillings ----------
No reducable k-points. 
Computing the number of bands and number of electrons
Calculating initial fillings.
nElectrons: 319.000000   nBands: 306   nStates: 1

----- Setting up reduced wavefunction bases (one per k-point) -----
average nbasis = 109673.000 , ideal nbasis = 109671.883

---------- Setting up coulomb interaction ----------
Fluid mode embedding: using embedded box, but periodic Coulomb kernel.
(Fluid response is responsible for (approximate) separation between periodic images.)
Setting up double-sized grid for truncated Coulomb potentials:
R = 
[      28.0058     -14.0029            0  ]
[            0      24.2537            0  ]
[            0            0      75.5892  ]
unit cell volume = 51343.6
G =
[   0.224353    0.12953         -0  ]
[          0   0.259061          0  ]
[          0         -0  0.0831228  ]
Chosen fftbox size, S = [  128  128  360  ]
Integer grid location selected as the embedding center:
   Grid: [  0  0  29  ]
   Lattice: [  0  0  0.158753  ]
   Cartesian: [  0  0  6  ]
Constructing Wigner-Seitz cell: 8 faces (6 quadrilaterals, 2 hexagons)
Range-separation parameter for embedded mesh potentials due to point charges: 0.590105 bohrs.

Initializing DFT-D3 calculator:
	Parameters set for gga-PBE functional
	s6:  1.000  s_r6:  1.217
	s8:  0.722  s_r8:  1.000
	Per-atom parameters loaded for:
	 C:  sqrtQ[a0]:  3.105  Rcov[a0]:  1.417  CN: [ 0.00 0.99 2.00 3.00 3.98 ]
	 N:  sqrtQ[a0]:  2.712  Rcov[a0]:  1.342  CN: [ 0.00 0.99 2.01 2.99 ]
	 S:  sqrtQ[a0]:  4.041  Rcov[a0]:  1.928  CN: [ 0.00 0.99 1.99 ]
	Na:  sqrtQ[a0]:  6.586  Rcov[a0]:  2.646  CN: [ 0.00 0.97 ]

---------- Setting up ewald sum ----------
Optimum gaussian width for ewald sums = 7.204490 bohr.
Real space sum over 405 unit cells with max indices [  4  4  2  ]
Reciprocal space sum over 7875 terms with max indices [  7  7  17  ]

Computing DFT-D3 correction:
# coordination-number C 3.300 3.300 3.320 3.300 3.300 3.300 3.305 3.300 3.438 3.300 3.300 3.323 3.305 3.300 3.300 3.304 3.302 3.300 3.302 3.367 3.300 3.301 3.632 3.300 3.300 3.300 3.805 3.307 3.300 3.300 3.441 3.321 3.300 3.292 3.302 3.300 3.301 3.300 3.300 3.327 3.300 3.300 3.305 3.302 3.300 3.413 3.300 3.300 3.742 3.300 3.300 3.300 3.374 3.323 3.304 3.300 3.302 3.440 3.301 3.300 3.300 3.951 3.377 3.300 3.302 3.300 3.301 3.328 3.301 3.300 3.327
# coordination-number N 3.414
# coordination-number S 2.925 2.924
# coordination-number Na 3.414 3.725
# diagonal-C6 C 24.28 24.29 24.08 24.28 24.28 24.28 24.24 24.28 22.56 24.29 24.28 24.05 24.24 24.28 24.29 24.24 24.26 24.28 24.26 23.54 24.28 24.28 19.92 24.28 24.28 24.29 18.73 24.21 24.28 24.28 22.52 24.07 24.29 24.35 24.27 24.28 24.27 24.28 24.28 24.01 24.29 24.28 24.23 24.27 24.28 22.93 24.29 24.28 19.03 24.28 24.28 24.29 23.45 24.05 24.24 24.28 24.27 22.54 24.28 24.28 24.29 18.38 23.41 24.29 24.26 24.29 24.27 24.00 24.27 24.28 24.00
# diagonal-C6 N 15.58
# diagonal-C6 S 125.81 125.81
# diagonal-C6 Na 186.11 186.11
EvdW_6 =   -0.061029
EvdW_8 =   -0.051713

---------- Allocating electronic variables ----------
Initializing wave functions:  linear combination of atomic orbitals
C pseudo-atom occupations:   s ( 2 )  p ( 2 )
N pseudo-atom occupations:   s ( 2 )  p ( 3 )
S pseudo-atom occupations:   s ( 2 )  p ( 4 )
Na pseudo-atom occupations:   s ( 2 1 )  p ( 6 )
	FillingsUpdate:  mu: -0.195667379  nElectrons: 319.000000
LCAOMinimize: Iter:   0  F: -526.6459647515878260  |grad|_K:  9.338e-03  alpha:  1.000e+00
	FillingsUpdate:  mu: -0.229241856  nElectrons: 319.000000
LCAOMinimize: Iter:   1  F: -526.8514075255873195  |grad|_K:  3.125e-03  alpha:  2.309e-01  linmin:  5.845e-02  cgtest: -2.578e+00  t[s]:     11.00
LCAOMinimize: 	Bad step direction: g.d > 0.
LCAOMinimize: 	Undoing step.
LCAOMinimize: 	Step failed: resetting search direction.
	FillingsUpdate:  mu: -0.229241856  nElectrons: 319.000000
LCAOMinimize: Iter:   2  F: -526.8514075255873195  |grad|_K:  3.125e-03  alpha:  0.000e+00
	FillingsUpdate:  mu: -0.200191180  nElectrons: 319.000000
LCAOMinimize: Iter:   3  F: -527.0813466700963090  |grad|_K:  5.094e-03  alpha:  1.251e-01  linmin: -3.032e-01  cgtest:  1.569e-01  t[s]:     14.51
	FillingsUpdate:  mu: -0.221907186  nElectrons: 319.000000
LCAOMinimize: Iter:   4  F: -527.1386006829529833  |grad|_K:  4.385e-03  alpha:  2.188e-02  linmin:  3.453e-01  cgtest: -8.118e-01  t[s]:     16.61
LCAOMinimize: 	Bad step direction: g.d > 0.
LCAOMinimize: 	Undoing step.
LCAOMinimize: 	Step failed: resetting search direction.
	FillingsUpdate:  mu: -0.221907186  nElectrons: 319.000000
LCAOMinimize: Iter:   5  F: -527.1386006829529833  |grad|_K:  4.385e-03  alpha:  0.000e+00
LCAOMinimize: 	Predicted alpha/alphaT>3.000000, increasing alphaT to 6.563577e-02.
	FillingsUpdate:  mu: -0.224794841  nElectrons: 319.000000
LCAOMinimize: Iter:   6  F: -527.2007318042708448  |grad|_K:  5.610e-04  alpha:  6.892e-02  linmin:  7.707e-02  cgtest: -4.079e-01  t[s]:     20.79
	FillingsUpdate:  mu: -0.223818123  nElectrons: 319.000000
LCAOMinimize: Iter:   7  F: -527.2030208874652999  |grad|_K:  3.607e-04  alpha:  2.045e-01  linmin:  4.936e-03  cgtest:  4.156e-01  t[s]:     22.93
	FillingsUpdate:  mu: -0.227929520  nElectrons: 319.000000
LCAOMinimize: Iter:   8  F: -527.2035496733843729  |grad|_K:  2.029e-04  alpha:  8.639e-02  linmin: -1.111e-03  cgtest:  2.036e-02  t[s]:     25.05
LCAOMinimize: 	Predicted alpha/alphaT>3.000000, increasing alphaT to 2.591649e-01.
	FillingsUpdate:  mu: -0.227522042  nElectrons: 319.000000
LCAOMinimize: Iter:   9  F: -527.2041569705908159  |grad|_K:  1.238e-04  alpha:  3.114e-01  linmin: -2.770e-04  cgtest: -3.086e-02  t[s]:     27.83
	FillingsUpdate:  mu: -0.226505026  nElectrons: 319.000000
LCAOMinimize: Iter:  10  F: -527.2043641947260539  |grad|_K:  7.852e-05  alpha:  2.860e-01  linmin:  1.373e-04  cgtest:  8.181e-03  t[s]:     29.96
	FillingsUpdate:  mu: -0.227223892  nElectrons: 319.000000
LCAOMinimize: Iter:  11  F: -527.2043859605809075  |grad|_K:  2.384e-05  alpha:  7.473e-02  linmin: -1.073e-03  cgtest:  2.894e-02  t[s]:     32.10
LCAOMinimize: 	Predicted alpha/alphaT>3.000000, increasing alphaT to 2.241788e-01.
	FillingsUpdate:  mu: -0.227291717  nElectrons: 319.000000
LCAOMinimize: Iter:  12  F: -527.2043962563984678  |grad|_K:  1.401e-05  alpha:  3.832e-01  linmin: -6.576e-05  cgtest: -7.973e-03  t[s]:     34.87
	FillingsUpdate:  mu: -0.227147767  nElectrons: 319.000000
LCAOMinimize: Iter:  13  F: -527.2043982957366097  |grad|_K:  1.323e-05  alpha:  2.206e-01  linmin:  7.033e-06  cgtest: -3.916e-04  t[s]:     37.01
	FillingsUpdate:  mu: -0.227264617  nElectrons: 319.000000
LCAOMinimize: Iter:  14  F: -527.2043991649140935  |grad|_K:  4.963e-06  alpha:  1.054e-01  linmin: -2.693e-05  cgtest:  2.649e-03  t[s]:     39.14
LCAOMinimize: 	Predicted alpha/alphaT>3.000000, increasing alphaT to 3.160773e-01.
	FillingsUpdate:  mu: -0.227280833  nElectrons: 319.000000
LCAOMinimize: Iter:  15  F: -527.2043995619648058  |grad|_K:  1.541e-06  alpha:  3.420e-01  linmin: -1.990e-05  cgtest: -1.909e-04  t[s]:     41.91
LCAOMinimize: Converged (|Delta F|<1.000000e-06 for 2 iters).
----- createFluidSolver() ----- (Fluid-side solver setup)
   Initializing fluid molecule 'Glyme'
     Net charge: 0   dipole magnitude: 0
     Initializing spherical shell mfKernel with radius 0 Bohr
     deltaS corrections:

Correction to mu due to finite nuclear width = -0.00616459
   Cavity determined by nc: 8.36e-05 and sigma: 0.6
   Effective cavity tension: -8.03e-06 Eh/bohr^2 to account for cavitation and dispersion.


---- Citations for features of the code used in this run ----

   Software package:
      R. Sundararaman, K. Letchworth-Weaver, K.A. Schwarz, D. Gunceler, Y. Ozhabes and T.A. Arias, 'JDFTx: software for joint density-functional theory', SoftwareX 6, 278 (2017)

   gga-PBE exchange-correlation functional:
      J.P. Perdew, K. Burke and M. Ernzerhof, Phys. Rev. Lett. 77, 3865 (1996)

   Pseudopotentials:
      KF Garrity, JW Bennett, KM Rabe and D Vanderbilt, Comput. Mater. Sci. 81, 446 (2014)

   Truncated Coulomb potentials:
      R. Sundararaman and T.A. Arias, Phys. Rev. B 87, 165122 (2013)

   DFT-D3 dispersion correction:
      S. Grimme, J. Antony, S. Ehrlich and H. Krieg, J. Chem. Phys. 132, 154104 (2010)

   Linear/nonlinear dielectric/ionic fluid model with effective cavity tension:
      D. Gunceler, K. Letchworth-Weaver, R. Sundararaman, K.A. Schwarz and T.A. Arias, Modelling Simul. Mater. Sci. Eng. 21, 074005 (2013)

This list may not be complete. Please suggest additional citations or
report any other bugs at https://github.com/shankar1729/jdftx/issues

Initialization completed successfully at t[s]:     42.27


Computing DFT-D3 correction:
# coordination-number C 3.300 3.300 3.320 3.300 3.300 3.300 3.305 3.300 3.438 3.300 3.300 3.323 3.305 3.300 3.300 3.304 3.302 3.300 3.302 3.367 3.300 3.301 3.632 3.300 3.300 3.300 3.805 3.307 3.300 3.300 3.441 3.321 3.300 3.292 3.302 3.300 3.301 3.300 3.300 3.327 3.300 3.300 3.305 3.302 3.300 3.413 3.300 3.300 3.742 3.300 3.300 3.300 3.374 3.323 3.304 3.300 3.302 3.440 3.301 3.300 3.300 3.951 3.377 3.300 3.302 3.300 3.301 3.328 3.301 3.300 3.327
# coordination-number N 3.414
# coordination-number S 2.925 2.924
# coordination-number Na 3.414 3.725
# diagonal-C6 C 24.28 24.29 24.08 24.28 24.28 24.28 24.24 24.28 22.56 24.29 24.28 24.05 24.24 24.28 24.29 24.24 24.26 24.28 24.26 23.54 24.28 24.28 19.92 24.28 24.28 24.29 18.73 24.21 24.28 24.28 22.52 24.07 24.29 24.35 24.27 24.28 24.27 24.28 24.28 24.01 24.29 24.28 24.23 24.27 24.28 22.93 24.29 24.28 19.03 24.28 24.28 24.29 23.45 24.05 24.24 24.28 24.27 22.54 24.28 24.28 24.29 18.38 23.41 24.29 24.26 24.29 24.27 24.00 24.27 24.28 24.00
# diagonal-C6 N 15.58
# diagonal-C6 S 125.81 125.81
# diagonal-C6 Na 186.11 186.11
EvdW_6 =   -0.061029
EvdW_8 =   -0.051713
Fluid solver invoked on fresh (random / LCAO) wavefunctions
Running a vacuum solve first:

-------- Initial electronic minimization -----------
Will mix electronic density at each iteration.
	FillingsUpdate:  mu: -0.227280833  nElectrons: 319.000000
	FillingsUpdate:  mu: -0.234559120  nElectrons: 319.000000
SCF: Cycle:  0   F: -530.664541442926748   dF: -3.460e+00   |Residual|: 9.491e-01   |deigs|: 1.239e-01  t[s]:     49.82
	FillingsUpdate:  mu: -0.209603965  nElectrons: 319.000000
SCF: Cycle:  1   F: -531.163606854920658   dF: -4.991e-01   |Residual|: 4.877e-01   |deigs|: 3.525e-02  t[s]:     54.22
	FillingsUpdate:  mu: -0.176696104  nElectrons: 319.000000
SCF: Cycle:  2   F: -531.475459744918226   dF: -3.119e-01   |Residual|: 1.281e-01   |deigs|: 3.067e-02  t[s]:     58.63
	FillingsUpdate:  mu: -0.169274253  nElectrons: 319.000000
SCF: Cycle:  3   F: -531.486608854849919   dF: -1.115e-02   |Residual|: 8.118e-02   |deigs|: 8.966e-03  t[s]:     62.99
	FillingsUpdate:  mu: -0.158436845  nElectrons: 319.000000
SCF: Cycle:  4   F: -531.515413322449717   dF: -2.880e-02   |Residual|: 4.290e-02   |deigs|: 9.050e-03  t[s]:     67.33
	FillingsUpdate:  mu: -0.149428862  nElectrons: 319.000000
SCF: Cycle:  5   F: -531.523394227559152   dF: -7.981e-03   |Residual|: 3.110e-02   |deigs|: 8.312e-03  t[s]:     71.73
	FillingsUpdate:  mu: -0.143146658  nElectrons: 319.000000
SCF: Cycle:  6   F: -531.527497736973260   dF: -4.104e-03   |Residual|: 1.867e-02   |deigs|: 5.443e-03  t[s]:     76.01
	FillingsUpdate:  mu: -0.136586387  nElectrons: 319.000000
SCF: Cycle:  7   F: -531.529552636130120   dF: -2.055e-03   |Residual|: 1.534e-02   |deigs|: 6.195e-03  t[s]:     80.23
	FillingsUpdate:  mu: -0.134189814  nElectrons: 319.000000
SCF: Cycle:  8   F: -531.529490116709212   dF: +6.252e-05   |Residual|: 1.414e-02   |deigs|: 2.815e-03  t[s]:     84.52
	FillingsUpdate:  mu: -0.131094198  nElectrons: 319.000000
SCF: Cycle:  9   F: -531.530996307153828   dF: -1.506e-03   |Residual|: 8.692e-03   |deigs|: 2.567e-03  t[s]:     88.54
	FillingsUpdate:  mu: -0.129364945  nElectrons: 319.000000
SCF: Cycle: 10   F: -531.531329357208847   dF: -3.331e-04   |Residual|: 7.191e-03   |deigs|: 1.737e-03  t[s]:     92.53
	FillingsUpdate:  mu: -0.126351518  nElectrons: 319.000000
SCF: Cycle: 11   F: -531.531587092762152   dF: -2.577e-04   |Residual|: 5.451e-03   |deigs|: 2.718e-03  t[s]:     96.52
	FillingsUpdate:  mu: -0.123453447  nElectrons: 319.000000
SCF: Cycle: 12   F: -531.531458282993981   dF: +1.288e-04   |Residual|: 4.437e-03   |deigs|: 2.686e-03  t[s]:    100.44
	FillingsUpdate:  mu: -0.120458164  nElectrons: 319.000000
SCF: Cycle: 13   F: -531.531628177732728   dF: -1.699e-04   |Residual|: 4.149e-03   |deigs|: 2.950e-03  t[s]:    104.33
	FillingsUpdate:  mu: -0.117346721  nElectrons: 319.000000
SCF: Cycle: 14   F: -531.531642501669921   dF: -1.432e-05   |Residual|: 2.924e-03   |deigs|: 3.641e-03  t[s]:    108.13
	FillingsUpdate:  mu: -0.114742529  nElectrons: 319.000000
SCF: Cycle: 15   F: -531.531657532350437   dF: -1.503e-05   |Residual|: 2.597e-03   |deigs|: 2.882e-03  t[s]:    112.02
	FillingsUpdate:  mu: -0.113343037  nElectrons: 319.000000
SCF: Cycle: 16   F: -531.531676940832654   dF: -1.941e-05   |Residual|: 1.712e-03   |deigs|: 1.413e-03  t[s]:    117.28
	FillingsUpdate:  mu: -0.112148315  nElectrons: 319.000000
SCF: Cycle: 17   F: -531.531686883092902   dF: -9.942e-06   |Residual|: 1.191e-03   |deigs|: 1.164e-03  t[s]:    121.75
	FillingsUpdate:  mu: -0.111791764  nElectrons: 319.000000
SCF: Cycle: 18   F: -531.531691287843387   dF: -4.405e-06   |Residual|: 8.992e-04   |deigs|: 3.962e-04  t[s]:    129.81
	FillingsUpdate:  mu: -0.111716286  nElectrons: 319.000000
SCF: Cycle: 19   F: -531.531693860024120   dF: -2.572e-06   |Residual|: 5.566e-04   |deigs|: 3.162e-04  t[s]:    133.80
	FillingsUpdate:  mu: -0.111662573  nElectrons: 319.000000
SCF: Cycle: 20   F: -531.531695373601679   dF: -1.514e-06   |Residual|: 4.084e-04   |deigs|: 3.966e-04  t[s]:    137.75
	FillingsUpdate:  mu: -0.111558570  nElectrons: 319.000000
SCF: Cycle: 21   F: -531.531696531826583   dF: -1.158e-06   |Residual|: 2.496e-04   |deigs|: 4.646e-04  t[s]:    141.68
	FillingsUpdate:  mu: -0.111465622  nElectrons: 319.000000
SCF: Cycle: 22   F: -531.531696681922767   dF: -1.501e-07   |Residual|: 1.780e-04   |deigs|: 4.252e-04  t[s]:    145.65
	FillingsUpdate:  mu: -0.111399539  nElectrons: 319.000000
SCF: Cycle: 23   F: -531.531696707996389   dF: -2.607e-08   |Residual|: 1.434e-04   |deigs|: 3.616e-04  t[s]:    149.63
	FillingsUpdate:  mu: -0.111331697  nElectrons: 319.000000
SCF: Cycle: 24   F: -531.531696797161658   dF: -8.917e-08   |Residual|: 9.452e-05   |deigs|: 3.708e-04  t[s]:    153.53
	FillingsUpdate:  mu: -0.111323633  nElectrons: 319.000000
SCF: Cycle: 25   F: -531.531696815950113   dF: -1.879e-08   |Residual|: 6.938e-05   |deigs|: 1.340e-04  t[s]:    157.46
	FillingsUpdate:  mu: -0.111291104  nElectrons: 319.000000
SCF: Cycle: 26   F: -531.531696897195957   dF: -8.125e-08   |Residual|: 5.320e-05   |deigs|: 3.378e-04  t[s]:    161.34
	FillingsUpdate:  mu: -0.111250405  nElectrons: 319.000000
SCF: Cycle: 27   F: -531.531696961045100   dF: -6.385e-08   |Residual|: 5.011e-05   |deigs|: 2.417e-04  t[s]:    165.29
	FillingsUpdate:  mu: -0.111218089  nElectrons: 319.000000
SCF: Cycle: 28   F: -531.531697063953516   dF: -1.029e-07   |Residual|: 4.284e-05   |deigs|: 2.350e-04  t[s]:    169.17
	FillingsUpdate:  mu: -0.111217959  nElectrons: 319.000000
SCF: Cycle: 29   F: -531.531697113421842   dF: -4.947e-08   |Residual|: 3.128e-05   |deigs|: 1.436e-04  t[s]:    173.07
	FillingsUpdate:  mu: -0.111224792  nElectrons: 319.000000
SCF: Cycle: 30   F: -531.531697132054774   dF: -1.863e-08   |Residual|: 2.616e-05   |deigs|: 1.250e-04  t[s]:    176.88
	FillingsUpdate:  mu: -0.111237828  nElectrons: 319.000000
SCF: Cycle: 31   F: -531.531697140346637   dF: -8.292e-09   |Residual|: 1.930e-05   |deigs|: 8.818e-05  t[s]:    180.85
	FillingsUpdate:  mu: -0.111244999  nElectrons: 319.000000
SCF: Cycle: 32   F: -531.531697144698455   dF: -4.352e-09   |Residual|: 1.506e-05   |deigs|: 3.715e-05  t[s]:    184.75
SCF: Converged (|Delta E|<1.000000e-08 for 2 iters).

Setting wave functions to eigenvectors of Hamiltonian
Vacuum energy after initial minimize, F = -531.531697144698455


-------- Electronic minimization -----------
Will mix electronic density at each iteration.
	FillingsUpdate:  mu: -0.111244999  nElectrons: 319.000000
	Linear fluid (dielectric constant: 7.2) occupying 0.849202 of unit cell:	Completed after 13 iterations at t[s]:    185.75
	FillingsUpdate:  mu: -0.113747998  nElectrons: 319.000000
	Linear fluid (dielectric constant: 7.2) occupying 0.849933 of unit cell:	Completed after 10 iterations at t[s]:    191.13
SCF: Cycle:  0   F: -531.567316061659312   dF: -2.783e-03   |Residual|: 1.945e-02   |deigs|: 6.581e-03  t[s]:    191.30
	Linear fluid (dielectric constant: 7.2) occupying 0.849328 of unit cell:	Completed after 10 iterations at t[s]:    191.53
	FillingsUpdate:  mu: -0.113996761  nElectrons: 319.000000
	Linear fluid (dielectric constant: 7.2) occupying 0.850023 of unit cell:	Completed after 10 iterations at t[s]:    195.56
SCF: Cycle:  1   F: -531.570911473184196   dF: -3.595e-03   |Residual|: 8.701e-03   |deigs|: 6.796e-04  t[s]:    195.72
	Linear fluid (dielectric constant: 7.2) occupying 0.849409 of unit cell:	Completed after 10 iterations at t[s]:    195.94
	FillingsUpdate:  mu: -0.113771439  nElectrons: 319.000000
	Linear fluid (dielectric constant: 7.2) occupying 0.850111 of unit cell:	Completed after 10 iterations at t[s]:    200.62
SCF: Cycle:  2   F: -531.571620040368771   dF: -7.086e-04   |Residual|: 6.033e-03   |deigs|: 5.548e-04  t[s]:    200.79
	Linear fluid (dielectric constant: 7.2) occupying 0.849395 of unit cell:	Completed after 10 iterations at t[s]:    201.02
	FillingsUpdate:  mu: -0.113759722  nElectrons: 319.000000
	Linear fluid (dielectric constant: 7.2) occupying 0.850186 of unit cell:	Completed after 10 iterations at t[s]:    205.63
SCF: Cycle:  3   F: -531.572011912457697   dF: -3.919e-04   |Residual|: 4.301e-03   |deigs|: 2.694e-04  t[s]:    205.81
	Linear fluid (dielectric constant: 7.2) occupying 0.849374 of unit cell:	Completed after 9 iterations at t[s]:    206.02
	FillingsUpdate:  mu: -0.113355505  nElectrons: 319.000000
	Linear fluid (dielectric constant: 7.2) occupying 0.850343 of unit cell:	Completed after 10 iterations at t[s]:    210.61
SCF: Cycle:  4   F: -531.572487651932875   dF: -4.757e-04   |Residual|: 3.119e-03   |deigs|: 5.037e-04  t[s]:    210.77
	Linear fluid (dielectric constant: 7.2) occupying 0.849424 of unit cell:	Completed after 9 iterations at t[s]:    210.99
	FillingsUpdate:  mu: -0.113011359  nElectrons: 319.000000
	Linear fluid (dielectric constant: 7.2) occupying 0.850437 of unit cell:	Completed after 10 iterations at t[s]:    215.59
SCF: Cycle:  5   F: -531.572877985916762   dF: -3.903e-04   |Residual|: 2.814e-03   |deigs|: 4.567e-04  t[s]:    215.77
	Linear fluid (dielectric constant: 7.2) occupying 0.849717 of unit cell:	Completed after 8 iterations at t[s]:    215.96
	FillingsUpdate:  mu: -0.112395981  nElectrons: 319.000000
	Linear fluid (dielectric constant: 7.2) occupying 0.850504 of unit cell:	Completed after 9 iterations at t[s]:    220.58
SCF: Cycle:  6   F: -531.573382599115007   dF: -5.046e-04   |Residual|: 2.049e-03   |deigs|: 8.825e-04  t[s]:    220.75
	Linear fluid (dielectric constant: 7.2) occupying 0.850088 of unit cell:	Completed after 8 iterations at t[s]:    220.94
	FillingsUpdate:  mu: -0.111890903  nElectrons: 319.000000
	Linear fluid (dielectric constant: 7.2) occupying 0.850470 of unit cell:	Completed after 8 iterations at t[s]:    225.49
SCF: Cycle:  7   F: -531.573712066670396   dF: -3.295e-04   |Residual|: 1.326e-03   |deigs|: 8.910e-04  t[s]:    225.66
	Linear fluid (dielectric constant: 7.2) occupying 0.850182 of unit cell:	Completed after 9 iterations at t[s]:    225.87
	FillingsUpdate:  mu: -0.111614091  nElectrons: 319.000000
	Linear fluid (dielectric constant: 7.2) occupying 0.850411 of unit cell:	Completed after 8 iterations at t[s]:    230.44
SCF: Cycle:  8   F: -531.573831606537738   dF: -1.195e-04   |Residual|: 1.187e-03   |deigs|: 6.977e-04  t[s]:    230.62
	Linear fluid (dielectric constant: 7.2) occupying 0.850149 of unit cell:	Completed after 7 iterations at t[s]:    230.80
	FillingsUpdate:  mu: -0.111633466  nElectrons: 319.000000
	Linear fluid (dielectric constant: 7.2) occupying 0.850396 of unit cell:	Completed after 7 iterations at t[s]:    234.61
SCF: Cycle:  9   F: -531.573835047318653   dF: -3.441e-06   |Residual|: 7.155e-04   |deigs|: 2.374e-04  t[s]:    234.78
	Linear fluid (dielectric constant: 7.2) occupying 0.850158 of unit cell:	Completed after 7 iterations at t[s]:    234.97
	FillingsUpdate:  mu: -0.111721564  nElectrons: 319.000000
	Linear fluid (dielectric constant: 7.2) occupying 0.850377 of unit cell:	Completed after 6 iterations at t[s]:    238.96
SCF: Cycle: 10   F: -531.573842758666842   dF: -7.711e-06   |Residual|: 6.307e-04   |deigs|: 4.339e-04  t[s]:    239.13
	Linear fluid (dielectric constant: 7.2) occupying 0.850257 of unit cell:	Completed after 7 iterations at t[s]:    239.32
	FillingsUpdate:  mu: -0.111726218  nElectrons: 319.000000
	Linear fluid (dielectric constant: 7.2) occupying 0.850359 of unit cell:	Completed after 7 iterations at t[s]:    243.32
SCF: Cycle: 11   F: -531.573849373910775   dF: -6.615e-06   |Residual|: 5.124e-04   |deigs|: 4.074e-04  t[s]:    243.49
	Linear fluid (dielectric constant: 7.2) occupying 0.850291 of unit cell:	Completed after 7 iterations at t[s]:    243.68
	FillingsUpdate:  mu: -0.111726971  nElectrons: 319.000000
	Linear fluid (dielectric constant: 7.2) occupying 0.850357 of unit cell:	Completed after 7 iterations at t[s]:    247.54
SCF: Cycle: 12   F: -531.573850194410966   dF: -8.205e-07   |Residual|: 4.325e-04   |deigs|: 1.814e-04  t[s]:    247.70
	Linear fluid (dielectric constant: 7.2) occupying 0.850329 of unit cell:	Completed after 7 iterations at t[s]:    247.90
	FillingsUpdate:  mu: -0.111829781  nElectrons: 319.000000
	Linear fluid (dielectric constant: 7.2) occupying 0.850381 of unit cell:	Completed after 6 iterations at t[s]:    252.46
SCF: Cycle: 13   F: -531.573853332604017   dF: -3.138e-06   |Residual|: 4.304e-04   |deigs|: 2.879e-04  t[s]:    252.63
	Linear fluid (dielectric constant: 7.2) occupying 0.850355 of unit cell:	Completed after 7 iterations at t[s]:    252.81
	FillingsUpdate:  mu: -0.111827575  nElectrons: 319.000000
	Linear fluid (dielectric constant: 7.2) occupying 0.850384 of unit cell:	Completed after 6 iterations at t[s]:    256.62
SCF: Cycle: 14   F: -531.573852547937236   dF: +7.847e-07   |Residual|: 4.380e-04   |deigs|: 1.851e-04  t[s]:    256.78
	Linear fluid (dielectric constant: 7.2) occupying 0.850368 of unit cell:	Completed after 6 iterations at t[s]:    256.96
	FillingsUpdate:  mu: -0.111811778  nElectrons: 319.000000
	Linear fluid (dielectric constant: 7.2) occupying 0.850385 of unit cell:	Completed after 6 iterations at t[s]:    260.89
SCF: Cycle: 15   F: -531.573854763317399   dF: -2.215e-06   |Residual|: 3.002e-04   |deigs|: 2.158e-04  t[s]:    261.06
	Linear fluid (dielectric constant: 7.2) occupying 0.850362 of unit cell:	Completed after 6 iterations at t[s]:    261.23
	FillingsUpdate:  mu: -0.111821202  nElectrons: 319.000000
	Linear fluid (dielectric constant: 7.2) occupying 0.850381 of unit cell:	Completed after 5 iterations at t[s]:    265.03
SCF: Cycle: 16   F: -531.573855762457015   dF: -9.991e-07   |Residual|: 1.956e-04   |deigs|: 2.805e-04  t[s]:    265.19
	Linear fluid (dielectric constant: 7.2) occupying 0.850367 of unit cell:	Completed after 5 iterations at t[s]:    265.36
	FillingsUpdate:  mu: -0.111825967  nElectrons: 319.000000
	Linear fluid (dielectric constant: 7.2) occupying 0.850372 of unit cell:	Completed after 5 iterations at t[s]:    269.26
SCF: Cycle: 17   F: -531.573856237275322   dF: -4.748e-07   |Residual|: 1.355e-04   |deigs|: 4.407e-04  t[s]:    269.42
	Linear fluid (dielectric constant: 7.2) occupying 0.850376 of unit cell:	Completed after 4 iterations at t[s]:    269.57
	FillingsUpdate:  mu: -0.111806743  nElectrons: 319.000000
	Linear fluid (dielectric constant: 7.2) occupying 0.850368 of unit cell:	Completed after 4 iterations at t[s]:    273.47
SCF: Cycle: 18   F: -531.573856871264411   dF: -6.340e-07   |Residual|: 1.008e-04   |deigs|: 1.876e-04  t[s]:    273.62
	Linear fluid (dielectric constant: 7.2) occupying 0.850380 of unit cell:	Completed after 3 iterations at t[s]:    273.76
	FillingsUpdate:  mu: -0.111794982  nElectrons: 319.000000
	Linear fluid (dielectric constant: 7.2) occupying 0.850366 of unit cell:	Completed after 2 iterations at t[s]:    277.67
SCF: Cycle: 19   F: -531.573857188132479   dF: -3.169e-07   |Residual|: 7.607e-05   |deigs|: 2.035e-04  t[s]:    277.81
	Linear fluid (dielectric constant: 7.2) occupying 0.850374 of unit cell:	Completed after 2 iterations at t[s]:    277.94
	FillingsUpdate:  mu: -0.111794275  nElectrons: 319.000000
	Linear fluid (dielectric constant: 7.2) occupying 0.850368 of unit cell:	Completed after 2 iterations at t[s]:    281.75
SCF: Cycle: 20   F: -531.573857281547362   dF: -9.341e-08   |Residual|: 5.995e-05   |deigs|: 8.023e-05  t[s]:    281.89
	Linear fluid (dielectric constant: 7.2) occupying 0.850367 of unit cell:	Completed after 2 iterations at t[s]:    282.02
	FillingsUpdate:  mu: -0.111794776  nElectrons: 319.000000
	Linear fluid (dielectric constant: 7.2) occupying 0.850369 of unit cell:	Completed after 1 iterations at t[s]:    285.84
SCF: Cycle: 21   F: -531.573857312368091   dF: -3.082e-08   |Residual|: 5.269e-05   |deigs|: 1.086e-04  t[s]:    285.98
	Linear fluid (dielectric constant: 7.2) occupying 0.850357 of unit cell:	Completed after 1 iterations at t[s]:    286.10
	FillingsUpdate:  mu: -0.111796813  nElectrons: 319.000000
	Linear fluid (dielectric constant: 7.2) occupying 0.850371 of unit cell:	Completed after 1 iterations at t[s]:    289.97
SCF: Cycle: 22   F: -531.573857334401737   dF: -2.203e-08   |Residual|: 3.473e-05   |deigs|: 1.702e-04  t[s]:    290.11
	Linear fluid (dielectric constant: 7.2) occupying 0.850356 of unit cell:	Completed after 1 iterations at t[s]:    290.23
	FillingsUpdate:  mu: -0.111797007  nElectrons: 319.000000
	Linear fluid (dielectric constant: 7.2) occupying 0.850370 of unit cell:	Completed after 1 iterations at t[s]:    293.93
SCF: Cycle: 23   F: -531.573857352173604   dF: -1.777e-08   |Residual|: 2.924e-05   |deigs|: 1.334e-04  t[s]:    294.07
	Linear fluid (dielectric constant: 7.2) occupying 0.850357 of unit cell:	Completed after 1 iterations at t[s]:    294.20
	FillingsUpdate:  mu: -0.111797021  nElectrons: 319.000000
	Linear fluid (dielectric constant: 7.2) occupying 0.850370 of unit cell:	Completed after 1 iterations at t[s]:    298.04
SCF: Cycle: 24   F: -531.573857362383023   dF: -1.021e-08   |Residual|: 2.270e-05   |deigs|: 1.088e-04  t[s]:    298.19
	Linear fluid (dielectric constant: 7.2) occupying 0.850360 of unit cell:	Completed after 1 iterations at t[s]:    298.31
	FillingsUpdate:  mu: -0.111796270  nElectrons: 319.000000
	Linear fluid (dielectric constant: 7.2) occupying 0.850369 of unit cell:	Completed after 1 iterations at t[s]:    302.06
SCF: Cycle: 25   F: -531.573857364058313   dF: -1.675e-09   |Residual|: 2.036e-05   |deigs|: 6.484e-05  t[s]:    302.20
	Linear fluid (dielectric constant: 7.2) occupying 0.850362 of unit cell:	Completed after 0 iterations at t[s]:    302.30
	FillingsUpdate:  mu: -0.111798103  nElectrons: 319.000000
	Linear fluid (dielectric constant: 7.2) occupying 0.850369 of unit cell:	Completed after 1 iterations at t[s]:    306.70
SCF: Cycle: 26   F: -531.573857339261167   dF: +2.480e-08   |Residual|: 5.675e-05   |deigs|: 4.726e-05  t[s]:    306.83
	Linear fluid (dielectric constant: 7.2) occupying 0.850363 of unit cell:	Completed after 1 iterations at t[s]:    306.95
	FillingsUpdate:  mu: -0.111799441  nElectrons: 319.000000
	Linear fluid (dielectric constant: 7.2) occupying 0.850369 of unit cell:	Completed after 0 iterations at t[s]:    310.72
SCF: Cycle: 27   F: -531.573857373510691   dF: -3.425e-08   |Residual|: 1.560e-05   |deigs|: 3.062e-05  t[s]:    310.85
	Linear fluid (dielectric constant: 7.2) occupying 0.850364 of unit cell:	Completed after 0 iterations at t[s]:    310.96
	FillingsUpdate:  mu: -0.111798864  nElectrons: 319.000000
	Linear fluid (dielectric constant: 7.2) occupying 0.850369 of unit cell:	Completed after 1 iterations at t[s]:    314.83
SCF: Cycle: 28   F: -531.573857355528276   dF: +1.798e-08   |Residual|: 3.849e-05   |deigs|: 2.513e-05  t[s]:    314.97
	Linear fluid (dielectric constant: 7.2) occupying 0.850364 of unit cell:	Completed after 1 iterations at t[s]:    315.09
	FillingsUpdate:  mu: -0.111800670  nElectrons: 319.000000
	Linear fluid (dielectric constant: 7.2) occupying 0.850369 of unit cell:	Completed after 0 iterations at t[s]:    318.98
SCF: Cycle: 29   F: -531.573857374244540   dF: -1.872e-08   |Residual|: 1.593e-05   |deigs|: 1.299e-05  t[s]:    319.12
	Linear fluid (dielectric constant: 7.2) occupying 0.850364 of unit cell:	Completed after 0 iterations at t[s]:    319.22
	FillingsUpdate:  mu: -0.111801346  nElectrons: 319.000000
	Linear fluid (dielectric constant: 7.2) occupying 0.850369 of unit cell:	Completed after 1 iterations at t[s]:    323.05
SCF: Cycle: 30   F: -531.573857359355657   dF: +1.489e-08   |Residual|: 3.412e-05   |deigs|: 1.248e-05  t[s]:    323.19
	Linear fluid (dielectric constant: 7.2) occupying 0.850365 of unit cell:	Completed after 1 iterations at t[s]:    323.31
	FillingsUpdate:  mu: -0.111801507  nElectrons: 319.000000
	Linear fluid (dielectric constant: 7.2) occupying 0.850369 of unit cell:	Completed after 0 iterations at t[s]:    327.17
SCF: Cycle: 31   F: -531.573857375952457   dF: -1.660e-08   |Residual|: 7.102e-06   |deigs|: 2.583e-05  t[s]:    327.30
	Linear fluid (dielectric constant: 7.2) occupying 0.850366 of unit cell:	Completed after 0 iterations at t[s]:    327.40
	FillingsUpdate:  mu: -0.111801456  nElectrons: 319.000000
	Linear fluid (dielectric constant: 7.2) occupying 0.850369 of unit cell:	Completed after 0 iterations at t[s]:    331.31
SCF: Cycle: 32   F: -531.573857373693272   dF: +2.259e-09   |Residual|: 1.857e-05   |deigs|: 2.404e-05  t[s]:    331.44
	Linear fluid (dielectric constant: 7.2) occupying 0.850366 of unit cell:	Completed after 0 iterations at t[s]:    331.55
	FillingsUpdate:  mu: -0.111799668  nElectrons: 319.000000
	Linear fluid (dielectric constant: 7.2) occupying 0.850369 of unit cell:	Completed after 1 iterations at t[s]:    338.66
SCF: Cycle: 33   F: -531.573857364644255   dF: +9.049e-09   |Residual|: 2.920e-05   |deigs|: 1.523e-05  t[s]:    338.80
	Linear fluid (dielectric constant: 7.2) occupying 0.850366 of unit cell:	Completed after 0 iterations at t[s]:    338.91
	FillingsUpdate:  mu: -0.111805245  nElectrons: 319.000000
	Linear fluid (dielectric constant: 7.2) occupying 0.850369 of unit cell:	Completed after 1 iterations at t[s]:    342.87
SCF: Cycle: 34   F: -531.573857273950125   dF: +9.069e-08   |Residual|: 9.277e-05   |deigs|: 1.083e-05  t[s]:    343.01
	Linear fluid (dielectric constant: 7.2) occupying 0.850367 of unit cell:	Completed after 1 iterations at t[s]:    350.15
	FillingsUpdate:  mu: -0.111802912  nElectrons: 319.000000
	Linear fluid (dielectric constant: 7.2) occupying 0.850369 of unit cell:	Completed after 0 iterations at t[s]:    354.89
SCF: Cycle: 35   F: -531.573857378762114   dF: -1.048e-07   |Residual|: 1.211e-05   |deigs|: 1.266e-05  t[s]:    355.03
	Linear fluid (dielectric constant: 7.2) occupying 0.850367 of unit cell:	Completed after 0 iterations at t[s]:    355.13
	FillingsUpdate:  mu: -0.111802894  nElectrons: 319.000000
	Linear fluid (dielectric constant: 7.2) occupying 0.850369 of unit cell:	Completed after 0 iterations at t[s]:    357.78
SCF: Cycle: 36   F: -531.573857376738715   dF: +2.023e-09   |Residual|: 1.092e-05   |deigs|: 7.218e-06  t[s]:    357.92
	Linear fluid (dielectric constant: 7.2) occupying 0.850368 of unit cell:	Completed after 0 iterations at t[s]:    358.02
	FillingsUpdate:  mu: -0.111803272  nElectrons: 319.000000
	Linear fluid (dielectric constant: 7.2) occupying 0.850369 of unit cell:	Completed after 1 iterations at t[s]:    361.90
SCF: Cycle: 37   F: -531.573857336219817   dF: +4.052e-08   |Residual|: 5.082e-05   |deigs|: 2.299e-05  t[s]:    362.04
	Linear fluid (dielectric constant: 7.2) occupying 0.850368 of unit cell:	Completed after 1 iterations at t[s]:    362.16
	FillingsUpdate:  mu: -0.111804391  nElectrons: 319.000000
	Linear fluid (dielectric constant: 7.2) occupying 0.850369 of unit cell:	Completed after 1 iterations at t[s]:    365.04
SCF: Cycle: 38   F: -531.573857349929199   dF: -1.371e-08   |Residual|: 4.942e-05   |deigs|: 6.203e-06  t[s]:    365.18
	Linear fluid (dielectric constant: 7.2) occupying 0.850368 of unit cell:	Completed after 1 iterations at t[s]:    365.30
	FillingsUpdate:  mu: -0.111803821  nElectrons: 319.000000
	Linear fluid (dielectric constant: 7.2) occupying 0.850369 of unit cell:	Completed after 1 iterations at t[s]:    368.03
SCF: Cycle: 39   F: -531.573857369304847   dF: -1.938e-08   |Residual|: 2.924e-05   |deigs|: 4.396e-06  t[s]:    368.17
	Linear fluid (dielectric constant: 7.2) occupying 0.850368 of unit cell:	Completed after 1 iterations at t[s]:    368.30
	FillingsUpdate:  mu: -0.111803737  nElectrons: 319.000000
	Linear fluid (dielectric constant: 7.2) occupying 0.850369 of unit cell:	Completed after 1 iterations at t[s]:    370.82
SCF: Cycle: 40   F: -531.573857369251868   dF: +5.298e-11   |Residual|: 2.853e-05   |deigs|: 2.440e-06  t[s]:    370.96
	Linear fluid (dielectric constant: 7.2) occupying 0.850368 of unit cell:	Completed after 1 iterations at t[s]:    371.08
	FillingsUpdate:  mu: -0.111803922  nElectrons: 319.000000
	Linear fluid (dielectric constant: 7.2) occupying 0.850369 of unit cell:	Completed after 0 iterations at t[s]:    375.02
SCF: Cycle: 41   F: -531.573857373438045   dF: -4.186e-09   |Residual|: 2.233e-05   |deigs|: 2.669e-05  t[s]:    375.16
	Linear fluid (dielectric constant: 7.2) occupying 0.850369 of unit cell:	Completed after 0 iterations at t[s]:    375.26
	FillingsUpdate:  mu: -0.111800571  nElectrons: 319.000000
	Linear fluid (dielectric constant: 7.2) occupying 0.850369 of unit cell:	Completed after 1 iterations at t[s]:    378.96
SCF: Cycle: 42   F: -531.573857353095832   dF: +2.034e-08   |Residual|: 4.196e-05   |deigs|: 1.002e-05  t[s]:    379.10
	Linear fluid (dielectric constant: 7.2) occupying 0.850369 of unit cell:	Completed after 1 iterations at t[s]:    379.22
	FillingsUpdate:  mu: -0.111803276  nElectrons: 319.000000
	Linear fluid (dielectric constant: 7.2) occupying 0.850369 of unit cell:	Completed after 1 iterations at t[s]:    382.12
SCF: Cycle: 43   F: -531.573857362354602   dF: -9.259e-09   |Residual|: 3.506e-05   |deigs|: 4.268e-06  t[s]:    382.26
	Linear fluid (dielectric constant: 7.2) occupying 0.850369 of unit cell:	Completed after 1 iterations at t[s]:    382.38
	FillingsUpdate:  mu: -0.111804106  nElectrons: 319.000000
	Linear fluid (dielectric constant: 7.2) occupying 0.850369 of unit cell:	Completed after 0 iterations at t[s]:    386.12
SCF: Cycle: 44   F: -531.573857373389842   dF: -1.104e-08   |Residual|: 2.228e-05   |deigs|: 1.704e-05  t[s]:    386.26
	Linear fluid (dielectric constant: 7.2) occupying 0.850369 of unit cell:	Completed after 0 iterations at t[s]:    386.37
	FillingsUpdate:  mu: -0.111800518  nElectrons: 319.000000
	Linear fluid (dielectric constant: 7.2) occupying 0.850369 of unit cell:	Completed after 1 iterations at t[s]:    390.22
SCF: Cycle: 45   F: -531.573857353802623   dF: +1.959e-08   |Residual|: 3.954e-05   |deigs|: 1.545e-05  t[s]:    390.35
	Linear fluid (dielectric constant: 7.2) occupying 0.850369 of unit cell:	Completed after 1 iterations at t[s]:    390.47
	FillingsUpdate:  mu: -0.111803843  nElectrons: 319.000000
	Linear fluid (dielectric constant: 7.2) occupying 0.850369 of unit cell:	Completed after 1 iterations at t[s]:    393.34
SCF: Cycle: 46   F: -531.573857358015175   dF: -4.213e-09   |Residual|: 4.089e-05   |deigs|: 9.440e-06  t[s]:    393.48
	Linear fluid (dielectric constant: 7.2) occupying 0.850369 of unit cell:	Completed after 1 iterations at t[s]:    393.60
	FillingsUpdate:  mu: -0.111804647  nElectrons: 319.000000
	Linear fluid (dielectric constant: 7.2) occupying 0.850369 of unit cell:	Completed after 0 iterations at t[s]:    397.34
SCF: Cycle: 47   F: -531.573857372703060   dF: -1.469e-08   |Residual|: 2.497e-05   |deigs|: 2.156e-05  t[s]:    397.47
	Linear fluid (dielectric constant: 7.2) occupying 0.850369 of unit cell:	Completed after 0 iterations at t[s]:    397.59
	FillingsUpdate:  mu: -0.111800795  nElectrons: 319.000000
	Linear fluid (dielectric constant: 7.2) occupying 0.850369 of unit cell:	Completed after 1 iterations at t[s]:    401.28
SCF: Cycle: 48   F: -531.573857346538830   dF: +2.616e-08   |Residual|: 4.533e-05   |deigs|: 3.841e-06  t[s]:    401.42
	Linear fluid (dielectric constant: 7.2) occupying 0.850369 of unit cell:	Completed after 1 iterations at t[s]:    401.53
	FillingsUpdate:  mu: -0.111804426  nElectrons: 319.000000
	Linear fluid (dielectric constant: 7.2) occupying 0.850369 of unit cell:	Completed after 1 iterations at t[s]:    404.36
SCF: Cycle: 49   F: -531.573857359869066   dF: -1.333e-08   |Residual|: 3.910e-05   |deigs|: 7.569e-06  t[s]:    404.50
	Linear fluid (dielectric constant: 7.2) occupying 0.850369 of unit cell:	Completed after 1 iterations at t[s]:    404.62
	FillingsUpdate:  mu: -0.111804863  nElectrons: 319.000000
	Linear fluid (dielectric constant: 7.2) occupying 0.850369 of unit cell:	Completed after 0 iterations at t[s]:    408.22
SCF: Cycle: 50   F: -531.573857374174281   dF: -1.431e-08   |Residual|: 2.091e-05   |deigs|: 4.867e-06  t[s]:    408.36
	Linear fluid (dielectric constant: 7.2) occupying 0.850369 of unit cell:	Completed after 0 iterations at t[s]:    408.51
	FillingsUpdate:  mu: -0.111802017  nElectrons: 319.000000
	Linear fluid (dielectric constant: 7.2) occupying 0.850369 of unit cell:	Completed after 1 iterations at t[s]:    411.40
SCF: Cycle: 51   F: -531.573857356711187   dF: +1.746e-08   |Residual|: 3.685e-05   |deigs|: 6.631e-06  t[s]:    411.54
	Linear fluid (dielectric constant: 7.2) occupying 0.850369 of unit cell:	Completed after 1 iterations at t[s]:    411.67
	FillingsUpdate:  mu: -0.111804915  nElectrons: 319.000000
	Linear fluid (dielectric constant: 7.2) occupying 0.850369 of unit cell:	Completed after 1 iterations at t[s]:    414.63
SCF: Cycle: 52   F: -531.573857364514538   dF: -7.803e-09   |Residual|: 3.382e-05   |deigs|: 5.370e-06  t[s]:    414.77
	Linear fluid (dielectric constant: 7.2) occupying 0.850369 of unit cell:	Completed after 1 iterations at t[s]:    414.88
	FillingsUpdate:  mu: -0.111805046  nElectrons: 319.000000
	Linear fluid (dielectric constant: 7.2) occupying 0.850369 of unit cell:	Completed after 0 iterations at t[s]:    417.46
SCF: Cycle: 53   F: -531.573857374720774   dF: -1.021e-08   |Residual|: 1.911e-05   |deigs|: 5.159e-06  t[s]:    417.59
	Linear fluid (dielectric constant: 7.2) occupying 0.850369 of unit cell:	Completed after 0 iterations at t[s]:    417.70
	FillingsUpdate:  mu: -0.111802384  nElectrons: 319.000000
	Linear fluid (dielectric constant: 7.2) occupying 0.850369 of unit cell:	Completed after 1 iterations at t[s]:    420.53
SCF: Cycle: 54   F: -531.573857360399870   dF: +1.432e-08   |Residual|: 3.345e-05   |deigs|: 4.895e-06  t[s]:    420.67
	Linear fluid (dielectric constant: 7.2) occupying 0.850369 of unit cell:	Completed after 1 iterations at t[s]:    420.79
	FillingsUpdate:  mu: -0.111804825  nElectrons: 319.000000
	Linear fluid (dielectric constant: 7.2) occupying 0.850369 of unit cell:	Completed after 1 iterations at t[s]:    423.60
SCF: Cycle: 55   F: -531.573857366787706   dF: -6.388e-09   |Residual|: 3.084e-05   |deigs|: 4.468e-06  t[s]:    423.74
	Linear fluid (dielectric constant: 7.2) occupying 0.850369 of unit cell:	Completed after 1 iterations at t[s]:    423.86
	FillingsUpdate:  mu: -0.111804933  nElectrons: 319.000000
	Linear fluid (dielectric constant: 7.2) occupying 0.850369 of unit cell:	Completed after 0 iterations at t[s]:    426.33
SCF: Cycle: 56   F: -531.573857375066495   dF: -8.279e-09   |Residual|: 1.806e-05   |deigs|: 2.957e-06  t[s]:    426.46
SCF: Converged (|Delta E|<1.000000e-08 for 2 iters).

Setting wave functions to eigenvectors of Hamiltonian
Single-point solvation energy estimate, DeltaF = -0.042160230368040

Computing DFT-D3 correction:
# coordination-number C 3.300 3.300 3.320 3.300 3.300 3.300 3.305 3.300 3.438 3.300 3.300 3.323 3.305 3.300 3.300 3.304 3.302 3.300 3.302 3.367 3.300 3.301 3.632 3.300 3.300 3.300 3.805 3.307 3.300 3.300 3.441 3.321 3.300 3.292 3.302 3.300 3.301 3.300 3.300 3.327 3.300 3.300 3.305 3.302 3.300 3.413 3.300 3.300 3.742 3.300 3.300 3.300 3.374 3.323 3.304 3.300 3.302 3.440 3.301 3.300 3.300 3.951 3.377 3.300 3.302 3.300 3.301 3.328 3.301 3.300 3.327
# coordination-number N 3.414
# coordination-number S 2.925 2.924
# coordination-number Na 3.414 3.725
# diagonal-C6 C 24.28 24.29 24.08 24.28 24.28 24.28 24.24 24.28 22.56 24.29 24.28 24.05 24.24 24.28 24.29 24.24 24.26 24.28 24.26 23.54 24.28 24.28 19.92 24.28 24.28 24.29 18.73 24.21 24.28 24.28 22.52 24.07 24.29 24.35 24.27 24.28 24.27 24.28 24.28 24.01 24.29 24.28 24.23 24.27 24.28 22.93 24.29 24.28 19.03 24.28 24.28 24.29 23.45 24.05 24.24 24.28 24.27 22.54 24.28 24.28 24.29 18.38 23.41 24.29 24.26 24.29 24.27 24.00 24.27 24.28 24.00
# diagonal-C6 N 15.58
# diagonal-C6 S 125.81 125.81
# diagonal-C6 Na 186.11 186.11
EvdW_6 =   -0.061029
EvdW_8 =   -0.051713

# Ionic positions in cartesian coordinates:
ion C -14.002918197300012  24.253758582300001   2.000000000000000 0
ion C  -2.333816550000000   4.042302545699999   2.000000000000000 0
ion C  11.669101647300000  20.211493831199999   2.000000000000000 0
ion C  -9.335266200000008  24.253758582300001   2.000000000000000 0
ion C   9.335303994599993  24.253758582300001   2.000000000000000 0
ion C   2.333816549999999   4.042302545699999   2.000000000000000 0
ion C -11.669120544600000  20.211493831199999   2.000000000000000 0
ion C  -4.667651997299999   8.084605091399998   2.000000000000000 0
ion C   9.335285097299998  16.169191285499998   2.000000000000000 0
ion C  -4.667614202700010  24.253758582300001   2.000000000000000 0
ion C   4.667651997299995  24.253758582300001   2.000000000000000 0
ion C   4.667651997299999   8.084605091399998   2.000000000000000 0
ion C  -9.335303994599998  16.169191285499998   2.000000000000000 0
ion C  -7.001468547300001  12.126907637100000   2.000000000000000 0
ion C   0.000037794599988  24.253758582300001   2.000000000000000 0
ion C   0.000000000000000   8.084605091399998   2.000000000000000 0
ion C   7.001449650000005  20.211493831199999   2.000000000000000 0
ion C  -7.001468547300000  20.211493831199999   2.000000000000000 0
ion C  -2.333816549999999  12.126907637100000   2.000000000000000 0
ion C   4.667633100000000  16.169191285499998   2.000000000000000 0
ion C  -2.333816549999993  20.211493831199999   2.000000000000000 0
ion C   2.333835447300000  20.211493831199999   2.000000000000000 0
ion C   2.333835447299999  12.126907637100000   2.000000000000000 0
ion C  -4.667651997299999  16.169191285499998   2.000000000000000 0
ion C   7.001449650000000   4.042302545699999   2.000000000000000 0
ion C  21.004386744600001   4.042302545699999   2.000000000000000 0
ion C  14.002937094600000  16.169191285499998   2.000000000000000 0
ion C   0.000000000000000  16.169191285499998   2.000000000000000 0
ion C  11.669101647300000   4.042302545699999   2.000000000000000 0
ion C  18.670589091899998   8.084605091399998   2.000000000000000 0
ion C  11.669101647300000  12.126907637100000   2.000000000000000 0
ion C  16.336753644600002  12.126907637100000   2.000000000000000 0
ion C  16.336753644600002   4.042302545699999   2.000000000000000 0
ion C   9.335285097300002   8.084605091399998   2.000000000000000 0
ion C  14.002937094600000   8.084605091399998   2.000000000000000 0
ion C   0.000018897300000   2.694868363800000   2.000000000000000 0
ion C  11.669120544600000  22.906362195000000   2.000000000000000 0
ion C -11.669120544600002  22.906362195000000   2.000000000000000 0
ion C  -2.333816549999999   6.737152012199999   2.000000000000000 0
ion C   9.335285097299998  18.864059649300000   2.000000000000000 0
ion C  -7.001468547300003  22.906362195000000   2.000000000000000 0
ion C   7.001468547300002  22.906362195000000   2.000000000000000 0
ion C   2.333816550000000   6.737152012199999   2.000000000000000 0
ion C  -9.335285097299998  18.864059649300000   2.000000000000000 0
ion C  -4.667633100000000  10.779454557899999   2.000000000000000 0
ion C   7.001468547300002  14.821757103600000   2.000000000000000 0
ion C  -2.333835447300000  22.906362195000000   2.000000000000000 0
ion C   2.333816550000000  22.906362195000000   2.000000000000000 0
ion C   4.667633100000000  10.779454557899999   2.000000000000000 0
ion C  -7.001468547300001  14.821757103600000   2.000000000000000 0
ion C   4.667633100000003   2.694868363800000   2.000000000000000 0
ion C  23.338222191900002   2.694868363800000   2.000000000000000 0
ion C  14.002918197300001  18.864059649300000   2.000000000000000 0
ion C   0.000018897300000  10.779454557899999   2.000000000000000 0
ion C   4.667633100000000  18.864059649300000   2.000000000000000 0
ion C  -4.667633099999995  18.864059649300000   2.000000000000000 0
ion C  -2.333816550000000  14.821757103600000   2.000000000000000 0
ion C   2.333816550000000  14.821757103600000   2.000000000000000 0
ion C  -0.000018897299999  18.864059649300000   2.000000000000000 0
ion C   9.335285097300000   2.694868363800000   2.000000000000000 0
ion C  21.004386744599998   6.737152012199999   2.000000000000000 0
ion C  11.669120544600002  14.821757103600000   2.000000000000000 0
ion C  16.336734747299992  14.821757103600000   2.000000000000000 0
ion C  18.670570194600000   2.694868363800000   2.000000000000000 0
ion C   7.001468547300000   6.737152012199999   2.000000000000000 0
ion C  14.002937094600002   2.694868363800000   2.000000000000000 0
ion C  18.670570194600000  10.779454557899999   2.000000000000000 0
ion C   9.335285097300000  10.779454557899999   2.000000000000000 0
ion C  11.669120544600000   6.737152012199999   2.000000000000000 0
ion C  16.336734747299989   6.737152012199999   2.000000000000000 0
ion C  14.002937094600000  10.779454557899999   2.000000000000000 0
ion N   7.001449650000002  12.126907637100000   2.000000000000000 0
ion S   9.215713061462331  11.778558106036597   8.855651537568102 1
ion S   7.927437043051153  15.478908557706403   9.346778647557716 1
ion Na   4.439872557186393  12.472582720786718   7.224500096693866 1
ion Na  12.514316976506610  15.278456965661908   7.125040148815851 1

# Forces in Cartesian coordinates:
force C   0.001974735614411  -0.001036461182513  -0.000137868232055 0
force C   0.000664016781778  -0.000317473971592  -0.000139541173571 0
force C   0.001392640129414  -0.000673522854907   0.000193787174580 0
force C   0.001093052752225   0.001125904531934  -0.000131252562245 0
force C   0.000395003102825  -0.000576018127977  -0.000114160347561 0
force C   0.002122230131167  -0.000986130082254  -0.000080254967889 0
force C  -0.000314326051600  -0.001346777643701  -0.000133250333160 0
force C   0.000070641547957   0.000512271230744  -0.000139256923357 0
force C  -0.005482193970792  -0.008463307038712  -0.001037062215030 0
force C  -0.001045436604734   0.001043300426551  -0.000145926712710 0
force C  -0.000297483468919  -0.000498386423164  -0.000133859626455 0
force C   0.007120006728526   0.005648282147045   0.000406672473567 0
force C  -0.001270898206633   0.000586847750556  -0.000131789342965 0
force C   0.000030711955656   0.002360722548083  -0.000134835466231 0
force C  -0.001992016544098  -0.001094493980065  -0.000151363784469 0
force C   0.000110228421301   0.000124732456150  -0.000329944404026 0
force C  -0.000039497097744  -0.000522219143017   0.000565706519614 0
force C  -0.000106971747587  -0.000141179713525  -0.000099263017953 0
force C   0.000001400069419   0.002259903214138  -0.000168888382934 0
force C   0.004115788650211  -0.008167204911331  -0.000667855654563 0
force C   0.000478449757221  -0.001400475033426  -0.000145369261578 0
force C  -0.001385170808616  -0.001019692867352  -0.000052412338042 0
force C   0.008348271363963   0.002171383802258  -0.000734015691413 0
force C   0.001659706534799   0.000483893147839  -0.000120185664693 0
force C  -0.000003317603065   0.005812741181460  -0.000084719259222 0
force C  -0.000114897194101  -0.000214802774555  -0.000138091156284 0
force C  -0.003783511030883  -0.001919976258373  -0.000433182500852 0
force C   0.004642706287474  -0.002415889499811  -0.000010257421605 0
force C  -0.001766464339051  -0.000805038185334  -0.000124351272558 0
force C  -0.000252854040323   0.000511197301409  -0.000154052472049 0
force C  -0.010184171596660  -0.000608165159698  -0.001212443288552 0
force C   0.000356668439109   0.001800867964867  -0.000331033258232 0
force C  -0.000664842431159  -0.000118250673940  -0.000157618871000 0
force C  -0.006215988645032   0.008036404150302  -0.000547030853334 0
force C  -0.000435690830533   0.000085624617758   0.000768291848628 0
force C  -0.001002094755426   0.000893821910882  -0.000139054592111 0
force C  -0.001284203482720   0.000435261070288  -0.000003200723198 0
force C  -0.002203893238265   0.001390468041413  -0.000141622049405 0
force C  -0.000296784909233  -0.000036435962470  -0.000081367894281 0
force C  -0.005316832953446   0.001191553486525  -0.000452859304592 0
force C   0.000047406410607   0.000236203946774  -0.000132042152593 0
force C  -0.000090499195762   0.000186540503588  -0.000107826939726 0
force C  -0.003196367668208   0.003263352147971  -0.000190725532265 0
force C   0.000406384236415   0.000156849880922  -0.000182875016775 0
force C   0.000353267320918  -0.001306056859970  -0.000125366437254 0
force C   0.001194217702729  -0.003127066166400  -0.001449148017268 0
force C   0.002218095079504   0.001284698744944  -0.000151147003639 0
force C   0.001194089226110   0.000084398662015  -0.000126416032956 0
force C   0.004817892906003   0.000232581063320  -0.001037566195779 0
force C   0.000030208352919  -0.002762614610933  -0.000135921079054 0
force C  -0.002229049292347  -0.000961920202328  -0.000118421068414 0
force C  -0.000691093676835   0.000486126117989  -0.000142024422740 0
force C   0.000178972357486   0.004764440305700  -0.000521375509849 0
force C   0.000061780030374  -0.005525472235100  -0.000246117162969 0
force C   0.004711871409896   0.001336116397866   0.000455299157336 0
force C   0.000005710020935  -0.000053077828554  -0.000136999429401 0
force C  -0.002325561375759  -0.001403767582085  -0.000189571384856 0
force C  -0.007340545229172   0.005417114709701  -0.000508200152719 0
force C   0.000110287111967   0.002371284174611  -0.000131655513357 0
force C   0.002129477573346  -0.000847986462314  -0.000130370479427 0
force C   0.000058729945726  -0.000660844124700  -0.000141828394028 0
force C   0.004546014336065   0.002535547530644  -0.001626207856501 0
force C   0.004287299768493  -0.002495088084040  -0.000781963521734 0
force C   0.000804089006195   0.000486451662630  -0.000140530004254 0
force C   0.000234162129567  -0.007082260952207   0.000400125280590 0
force C   0.000770323873480   0.000949637264029  -0.000151992845809 0
force C  -0.000258311818184  -0.001286320748082  -0.000030117012536 0
force C  -0.003772300874041   0.001179882233033  -0.000490402899672 0
force C   0.002797362239716   0.003822971772549   0.000600377417933 0
force C   0.000157543721408  -0.000123253825414  -0.000145719034220 0
force C  -0.001958280001033  -0.005262565600022  -0.000337462262108 0
force N   0.002662941309743  -0.000062854546341  -0.002009471148147 0
force S  -0.001092202978329   0.002426279260162   0.001247453237417 1
force S   0.001203326414286  -0.002656325598247   0.000789296125008 1
force Na  -0.006411000769844  -0.001941794995273   0.003719002397976 1
force Na   0.005320634754661   0.002128133842986   0.003399958551142 1

# Energy components:
   A_diel =       -0.0529983657291862
   Eewald =     4771.5905409011329539
       EH =     5189.7793777193428468
     Eloc =   -10526.3005028709212638
      Enl =      -81.4209748204834227
     EvdW =       -0.1127412124424339
      Exc =     -154.4090481694939854
 Exc_core =        6.0150671495764261
       KE =      263.4066155861887637
-------------------------------------
     Etot =     -531.5046640828289810
       TS =        0.0691932922374945
-------------------------------------
        F =     -531.5738573750664955

IonicMinimize: Iter:   0  F: -531.573857375066495  |grad|_K:  3.174e-03  alpha:  1.000e+00

#--- Lowdin population analysis ---
# oxidation-state C +0.034 +0.035 +0.029 +0.033 +0.035 +0.035 +0.029 +0.035 +0.012 +0.033 +0.036 +0.015 +0.029 +0.034 +0.035 +0.031 +0.037 +0.029 +0.033 +0.010 +0.033 +0.036 -0.012 +0.032 +0.031 +0.032 -0.011 +0.027 +0.037 +0.035 +0.011 +0.028 +0.035 +0.026 +0.035 +0.034 +0.033 +0.034 +0.032 +0.031 +0.035 +0.035 +0.031 +0.032 +0.033 +0.120 +0.035 +0.035 +0.090 +0.033 +0.035 +0.033 +0.021 +0.026 +0.036 +0.034 +0.033 +0.015 +0.035 +0.037 +0.033 -0.009 +0.021 +0.034 +0.038 +0.035 +0.032 +0.137 +0.037 +0.034 +0.029
# oxidation-state N -0.015
# oxidation-state S -0.461 -0.462
# oxidation-state Na +0.870 +0.870


Computing DFT-D3 correction:
# coordination-number C 3.300 3.300 3.320 3.300 3.300 3.300 3.305 3.300 3.436 3.300 3.300 3.323 3.305 3.300 3.300 3.304 3.302 3.300 3.302 3.366 3.300 3.301 3.631 3.300 3.300 3.300 3.804 3.307 3.300 3.300 3.439 3.321 3.300 3.292 3.302 3.300 3.301 3.300 3.300 3.326 3.300 3.300 3.305 3.302 3.300 3.411 3.300 3.300 3.740 3.300 3.300 3.300 3.374 3.323 3.304 3.300 3.302 3.439 3.301 3.300 3.300 3.948 3.377 3.300 3.302 3.300 3.301 3.327 3.301 3.300 3.327
# coordination-number N 3.411
# coordination-number S 2.924 2.923
# coordination-number Na 3.404 3.715
# diagonal-C6 C 24.28 24.29 24.09 24.28 24.28 24.28 24.24 24.28 22.59 24.29 24.28 24.06 24.24 24.28 24.29 24.24 24.26 24.28 24.26 23.55 24.28 24.28 19.92 24.28 24.28 24.29 18.74 24.21 24.28 24.28 22.54 24.07 24.29 24.35 24.27 24.28 24.27 24.28 24.28 24.01 24.29 24.28 24.23 24.27 24.28 22.95 24.29 24.28 19.05 24.28 24.28 24.29 23.45 24.05 24.24 24.28 24.27 22.54 24.28 24.28 24.29 18.38 23.41 24.29 24.26 24.29 24.27 24.00 24.27 24.28 24.01
# diagonal-C6 N 15.58
# diagonal-C6 S 125.81 125.81
# diagonal-C6 Na 186.11 186.11
EvdW_6 =   -0.061033
EvdW_8 =   -0.051715

-------- Electronic minimization -----------
Will mix electronic density at each iteration.
	FillingsUpdate:  mu: -0.111804933  nElectrons: 319.000000
	Linear fluid (dielectric constant: 7.2) occupying 0.850367 of unit cell:	Completed after 5 iterations at t[s]:    434.32
	FillingsUpdate:  mu: -0.111644389  nElectrons: 319.000000
	Linear fluid (dielectric constant: 7.2) occupying 0.850369 of unit cell:	Completed after 7 iterations at t[s]:    437.94
SCF: Cycle:  0   F: -531.573931835052008   dF: +3.936e-05   |Residual|: 2.100e-03   |deigs|: 1.744e-07  t[s]:    438.11
	Linear fluid (dielectric constant: 7.2) occupying 0.850360 of unit cell:	Completed after 7 iterations at t[s]:    438.29
	FillingsUpdate:  mu: -0.111750934  nElectrons: 319.000000
	Linear fluid (dielectric constant: 7.2) occupying 0.850372 of unit cell:	Completed after 4 iterations at t[s]:    441.17
SCF: Cycle:  1   F: -531.573968491455844   dF: -3.666e-05   |Residual|: 1.191e-03   |deigs|: 9.004e-05  t[s]:    441.32
	Linear fluid (dielectric constant: 7.2) occupying 0.850366 of unit cell:	Completed after 4 iterations at t[s]:    441.47
	FillingsUpdate:  mu: -0.111715037  nElectrons: 319.000000
	Linear fluid (dielectric constant: 7.2) occupying 0.850371 of unit cell:	Completed after 4 iterations at t[s]:    444.36
SCF: Cycle:  2   F: -531.573974791326805   dF: -6.300e-06   |Residual|: 2.681e-04   |deigs|: 3.342e-05  t[s]:    444.51
	Linear fluid (dielectric constant: 7.2) occupying 0.850369 of unit cell:	Completed after 4 iterations at t[s]:    444.66
	FillingsUpdate:  mu: -0.111720114  nElectrons: 319.000000
	Linear fluid (dielectric constant: 7.2) occupying 0.850369 of unit cell:	Completed after 3 iterations at t[s]:    447.56
SCF: Cycle:  3   F: -531.573975478350917   dF: -6.870e-07   |Residual|: 1.144e-04   |deigs|: 2.446e-05  t[s]:    447.70
	Linear fluid (dielectric constant: 7.2) occupying 0.850370 of unit cell:	Completed after 3 iterations at t[s]:    447.83
	FillingsUpdate:  mu: -0.111720640  nElectrons: 319.000000
	Linear fluid (dielectric constant: 7.2) occupying 0.850369 of unit cell:	Completed after 3 iterations at t[s]:    450.72
SCF: Cycle:  4   F: -531.573975548595286   dF: -7.024e-08   |Residual|: 7.106e-05   |deigs|: 2.134e-05  t[s]:    450.88
	Linear fluid (dielectric constant: 7.2) occupying 0.850370 of unit cell:	Completed after 3 iterations at t[s]:    451.01
	FillingsUpdate:  mu: -0.111724427  nElectrons: 319.000000
	Linear fluid (dielectric constant: 7.2) occupying 0.850369 of unit cell:	Completed after 2 iterations at t[s]:    454.90
SCF: Cycle:  5   F: -531.573975618539635   dF: -6.994e-08   |Residual|: 4.459e-05   |deigs|: 3.244e-05  t[s]:    455.05
	Linear fluid (dielectric constant: 7.2) occupying 0.850367 of unit cell:	Completed after 2 iterations at t[s]:    455.17
	FillingsUpdate:  mu: -0.111728002  nElectrons: 319.000000
	Linear fluid (dielectric constant: 7.2) occupying 0.850369 of unit cell:	Completed after 2 iterations at t[s]:    458.92
SCF: Cycle:  6   F: -531.573975650105922   dF: -3.157e-08   |Residual|: 3.242e-05   |deigs|: 2.956e-05  t[s]:    459.06
	Linear fluid (dielectric constant: 7.2) occupying 0.850366 of unit cell:	Completed after 2 iterations at t[s]:    459.19
	FillingsUpdate:  mu: -0.111724882  nElectrons: 319.000000
	Linear fluid (dielectric constant: 7.2) occupying 0.850369 of unit cell:	Completed after 2 iterations at t[s]:    463.07
SCF: Cycle:  7   F: -531.573975645730343   dF: +4.376e-09   |Residual|: 5.239e-05   |deigs|: 2.694e-05  t[s]:    463.22
	Linear fluid (dielectric constant: 7.2) occupying 0.850364 of unit cell:	Completed after 2 iterations at t[s]:    463.35
	FillingsUpdate:  mu: -0.111724064  nElectrons: 319.000000
	Linear fluid (dielectric constant: 7.2) occupying 0.850369 of unit cell:	Completed after 2 iterations at t[s]:    467.35
SCF: Cycle:  8   F: -531.573975673974473   dF: -2.824e-08   |Residual|: 4.033e-05   |deigs|: 3.405e-05  t[s]:    467.50
	Linear fluid (dielectric constant: 7.2) occupying 0.850365 of unit cell:	Completed after 1 iterations at t[s]:    467.61
	FillingsUpdate:  mu: -0.111721473  nElectrons: 319.000000
	Linear fluid (dielectric constant: 7.2) occupying 0.850369 of unit cell:	Completed after 1 iterations at t[s]:    471.46
SCF: Cycle:  9   F: -531.573975697225251   dF: -2.325e-08   |Residual|: 3.849e-05   |deigs|: 4.142e-05  t[s]:    471.60
	Linear fluid (dielectric constant: 7.2) occupying 0.850366 of unit cell:	Completed after 1 iterations at t[s]:    471.72
	FillingsUpdate:  mu: -0.111719683  nElectrons: 319.000000
	Linear fluid (dielectric constant: 7.2) occupying 0.850369 of unit cell:	Completed after 1 iterations at t[s]:    475.42
SCF: Cycle: 10   F: -531.573975708400326   dF: -1.118e-08   |Residual|: 1.690e-05   |deigs|: 2.436e-05  t[s]:    475.58
	Linear fluid (dielectric constant: 7.2) occupying 0.850369 of unit cell:	Completed after 0 iterations at t[s]:    475.69
	FillingsUpdate:  mu: -0.111720802  nElectrons: 319.000000
	Linear fluid (dielectric constant: 7.2) occupying 0.850369 of unit cell:	Completed after 1 iterations at t[s]:    479.32
SCF: Cycle: 11   F: -531.573975689384156   dF: +1.902e-08   |Residual|: 4.817e-05   |deigs|: 2.460e-05  t[s]:    479.46
	Linear fluid (dielectric constant: 7.2) occupying 0.850371 of unit cell:	Completed after 1 iterations at t[s]:    479.58
	FillingsUpdate:  mu: -0.111717588  nElectrons: 319.000000
	Linear fluid (dielectric constant: 7.2) occupying 0.850369 of unit cell:	Completed after 1 iterations at t[s]:    483.48
SCF: Cycle: 12   F: -531.573975696613729   dF: -7.230e-09   |Residual|: 4.112e-05   |deigs|: 1.759e-05  t[s]:    483.62
	Linear fluid (dielectric constant: 7.2) occupying 0.850372 of unit cell:	Completed after 1 iterations at t[s]:    483.74
	FillingsUpdate:  mu: -0.111718306  nElectrons: 319.000000
	Linear fluid (dielectric constant: 7.2) occupying 0.850369 of unit cell:	Completed after 0 iterations at t[s]:    487.63
SCF: Cycle: 13   F: -531.573975712740889   dF: -1.613e-08   |Residual|: 2.338e-05   |deigs|: 7.499e-06  t[s]:    487.76
	Linear fluid (dielectric constant: 7.2) occupying 0.850374 of unit cell:	Completed after 0 iterations at t[s]:    487.87
	FillingsUpdate:  mu: -0.111715207  nElectrons: 319.000000
	Linear fluid (dielectric constant: 7.2) occupying 0.850369 of unit cell:	Completed after 1 iterations at t[s]:    491.75
SCF: Cycle: 14   F: -531.573975677458179   dF: +3.528e-08   |Residual|: 5.533e-05   |deigs|: 2.414e-05  t[s]:    491.89
	Linear fluid (dielectric constant: 7.2) occupying 0.850375 of unit cell:	Completed after 1 iterations at t[s]:    492.01
	FillingsUpdate:  mu: -0.111716451  nElectrons: 319.000000
	Linear fluid (dielectric constant: 7.2) occupying 0.850369 of unit cell:	Completed after 0 iterations at t[s]:    495.89
SCF: Cycle: 15   F: -531.573975716739028   dF: -3.928e-08   |Residual|: 1.546e-05   |deigs|: 2.118e-05  t[s]:    496.03
	Linear fluid (dielectric constant: 7.2) occupying 0.850376 of unit cell:	Completed after 0 iterations at t[s]:    496.13
	FillingsUpdate:  mu: -0.111714893  nElectrons: 319.000000
	Linear fluid (dielectric constant: 7.2) occupying 0.850369 of unit cell:	Completed after 1 iterations at t[s]:    499.97
SCF: Cycle: 16   F: -531.573975708509693   dF: +8.229e-09   |Residual|: 2.345e-05   |deigs|: 3.631e-05  t[s]:    500.11
	Linear fluid (dielectric constant: 7.2) occupying 0.850375 of unit cell:	Completed after 0 iterations at t[s]:    500.22
	FillingsUpdate:  mu: -0.111719419  nElectrons: 319.000000
	Linear fluid (dielectric constant: 7.2) occupying 0.850370 of unit cell:	Completed after 1 iterations at t[s]:    504.01
SCF: Cycle: 17   F: -531.573975581330274   dF: +1.272e-07   |Residual|: 1.075e-04   |deigs|: 3.468e-05  t[s]:    504.15
	Linear fluid (dielectric constant: 7.2) occupying 0.850374 of unit cell:	Completed after 1 iterations at t[s]:    504.27
	FillingsUpdate:  mu: -0.111715154  nElectrons: 319.000000
	Linear fluid (dielectric constant: 7.2) occupying 0.850370 of unit cell:	Completed after 1 iterations at t[s]:    507.13
SCF: Cycle: 18   F: -531.573975699980338   dF: -1.187e-07   |Residual|: 3.837e-05   |deigs|: 1.978e-05  t[s]:    507.27
	Linear fluid (dielectric constant: 7.2) occupying 0.850372 of unit cell:	Completed after 1 iterations at t[s]:    507.39
	FillingsUpdate:  mu: -0.111717013  nElectrons: 319.000000
	Linear fluid (dielectric constant: 7.2) occupying 0.850369 of unit cell:	Completed after 1 iterations at t[s]:    511.25
SCF: Cycle: 19   F: -531.573975706571332   dF: -6.591e-09   |Residual|: 2.973e-05   |deigs|: 2.868e-05  t[s]:    511.39
	Linear fluid (dielectric constant: 7.2) occupying 0.850371 of unit cell:	Completed after 1 iterations at t[s]:    511.50
	FillingsUpdate:  mu: -0.111714863  nElectrons: 319.000000
	Linear fluid (dielectric constant: 7.2) occupying 0.850369 of unit cell:	Completed after 1 iterations at t[s]:    515.42
SCF: Cycle: 20   F: -531.573975698766503   dF: +7.805e-09   |Residual|: 4.302e-05   |deigs|: 3.157e-05  t[s]:    515.56
	Linear fluid (dielectric constant: 7.2) occupying 0.850370 of unit cell:	Completed after 1 iterations at t[s]:    515.67
	FillingsUpdate:  mu: -0.111716082  nElectrons: 319.000000
	Linear fluid (dielectric constant: 7.2) occupying 0.850369 of unit cell:	Completed after 0 iterations at t[s]:    519.51
SCF: Cycle: 21   F: -531.573975720781959   dF: -2.202e-08   |Residual|: 5.741e-06   |deigs|: 1.819e-05  t[s]:    519.65
	Linear fluid (dielectric constant: 7.2) occupying 0.850369 of unit cell:	Completed after 0 iterations at t[s]:    519.74
	FillingsUpdate:  mu: -0.111716127  nElectrons: 319.000000
	Linear fluid (dielectric constant: 7.2) occupying 0.850369 of unit cell:	Completed after 0 iterations at t[s]:    523.54
SCF: Cycle: 22   F: -531.573975719470013   dF: +1.312e-09   |Residual|: 5.954e-06   |deigs|: 1.650e-05  t[s]:    523.68
	Linear fluid (dielectric constant: 7.2) occupying 0.850369 of unit cell:	Completed after 0 iterations at t[s]:    523.77
	FillingsUpdate:  mu: -0.111716934  nElectrons: 319.000000
	Linear fluid (dielectric constant: 7.2) occupying 0.850369 of unit cell:	Completed after 0 iterations at t[s]:    527.50
SCF: Cycle: 23   F: -531.573975717198209   dF: +2.272e-09   |Residual|: 1.404e-05   |deigs|: 6.268e-06  t[s]:    527.64
[...]

Computing DFT-D3 correction:
# coordination-number C 3.300 3.300 3.306 3.300 3.300 3.300 3.302 3.300 3.314 3.300 3.300 3.290 3.302 3.300 3.300 3.301 3.301 3.300 3.301 3.292 3.300 3.300 3.297 3.300 3.300 3.300 3.381 3.301 3.300 3.300 3.317 3.307 3.300 3.289 3.301 3.300 3.300 3.300 3.300 3.307 3.300 3.300 3.301 3.301 3.300 3.309 3.300 3.300 3.308 3.300 3.300 3.300 3.316 3.303 3.301 3.300 3.300 3.303 3.300 3.300 3.300 3.406 3.318 3.300 3.299 3.300 3.300 3.307 3.300 3.300 3.308
# coordination-number N 3.219
# coordination-number S 2.857 2.859
# coordination-number Na 1.913 2.188
# diagonal-C6 C 24.28 24.29 24.23 24.29 24.28 24.28 24.27 24.28 24.14 24.29 24.29 24.38 24.26 24.28 24.29 24.27 24.27 24.28 24.28 24.36 24.29 24.28 24.31 24.28 24.28 24.29 23.36 24.27 24.29 24.28 24.11 24.22 24.29 24.39 24.28 24.29 24.28 24.28 24.28 24.21 24.29 24.28 24.28 24.28 24.28 24.20 24.29 24.29 24.21 24.28 24.29 24.29 24.12 24.25 24.27 24.29 24.28 24.25 24.28 24.29 24.29 23.03 24.10 24.29 24.30 24.29 24.28 24.21 24.28 24.28 24.20
# diagonal-C6 N 15.60
# diagonal-C6 S 125.81 125.81
# diagonal-C6 Na 186.12 186.11
EvdW_6 =   -0.062189
EvdW_8 =   -0.050110

-------- Electronic minimization -----------
Will mix electronic density at each iteration.
	FillingsUpdate:  mu: -0.101141670  nElectrons: 319.000000
	Linear fluid (dielectric constant: 7.2) occupying 0.849329 of unit cell:	Completed after 1 iterations at t[s]:  13790.57
	FillingsUpdate:  mu: -0.101138194  nElectrons: 319.000000
	Linear fluid (dielectric constant: 7.2) occupying 0.849329 of unit cell:	Completed after 2 iterations at t[s]:  13793.92
SCF: Cycle:  0   F: -531.582698561033226   dF: +1.333e-07   |Residual|: 1.107e-04   |deigs|: 1.856e-07  t[s]:  13794.06
	Linear fluid (dielectric constant: 7.2) occupying 0.849329 of unit cell:	Completed after 1 iterations at t[s]:  13794.17
	FillingsUpdate:  mu: -0.101141735  nElectrons: 319.000000
	Linear fluid (dielectric constant: 7.2) occupying 0.849329 of unit cell:	Completed after 1 iterations at t[s]:  13796.89
SCF: Cycle:  1   F: -531.582698650679163   dF: -8.965e-08   |Residual|: 9.571e-05   |deigs|: 6.973e-06  t[s]:  13797.03
	Linear fluid (dielectric constant: 7.2) occupying 0.849329 of unit cell:	Completed after 1 iterations at t[s]:  13797.14
	FillingsUpdate:  mu: -0.101140295  nElectrons: 319.000000
	Linear fluid (dielectric constant: 7.2) occupying 0.849329 of unit cell:	Completed after 1 iterations at t[s]:  13799.82
SCF: Cycle:  2   F: -531.582698686807134   dF: -3.613e-08   |Residual|: 3.066e-05   |deigs|: 4.551e-06  t[s]:  13799.96
	Linear fluid (dielectric constant: 7.2) occupying 0.849329 of unit cell:	Completed after 1 iterations at t[s]:  13800.07
	FillingsUpdate:  mu: -0.101142440  nElectrons: 319.000000
	Linear fluid (dielectric constant: 7.2) occupying 0.849329 of unit cell:	Completed after 1 iterations at t[s]:  13802.78
SCF: Cycle:  3   F: -531.582698696102625   dF: -9.295e-09   |Residual|: 3.704e-05   |deigs|: 2.961e-06  t[s]:  13802.92
	Linear fluid (dielectric constant: 7.2) occupying 0.849329 of unit cell:	Completed after 0 iterations at t[s]:  13803.02
	FillingsUpdate:  mu: -0.101138988  nElectrons: 319.000000
	Linear fluid (dielectric constant: 7.2) occupying 0.849329 of unit cell:	Completed after 1 iterations at t[s]:  13805.70
SCF: Cycle:  4   F: -531.582698610984721   dF: +8.512e-08   |Residual|: 8.883e-05   |deigs|: 4.258e-06  t[s]:  13805.84
	Linear fluid (dielectric constant: 7.2) occupying 0.849329 of unit cell:	Completed after 1 iterations at t[s]:  13805.96
	FillingsUpdate:  mu: -0.101142059  nElectrons: 319.000000
	Linear fluid (dielectric constant: 7.2) occupying 0.849329 of unit cell:	Completed after 1 iterations at t[s]:  13808.53
SCF: Cycle:  5   F: -531.582698700108494   dF: -8.912e-08   |Residual|: 2.358e-05   |deigs|: 4.113e-06  t[s]:  13808.67
	Linear fluid (dielectric constant: 7.2) occupying 0.849329 of unit cell:	Completed after 0 iterations at t[s]:  13808.78
	FillingsUpdate:  mu: -0.101139710  nElectrons: 319.000000
	Linear fluid (dielectric constant: 7.2) occupying 0.849329 of unit cell:	Completed after 1 iterations at t[s]:  13811.49
SCF: Cycle:  6   F: -531.582698643035769   dF: +5.707e-08   |Residual|: 7.116e-05   |deigs|: 3.612e-06  t[s]:  13811.63
	Linear fluid (dielectric constant: 7.2) occupying 0.849329 of unit cell:	Completed after 1 iterations at t[s]:  13811.74
	FillingsUpdate:  mu: -0.101141968  nElectrons: 319.000000
	Linear fluid (dielectric constant: 7.2) occupying 0.849329 of unit cell:	Completed after 0 iterations at t[s]:  13814.45
SCF: Cycle:  7   F: -531.582698704678251   dF: -6.164e-08   |Residual|: 1.331e-05   |deigs|: 3.259e-06  t[s]:  13814.59
	Linear fluid (dielectric constant: 7.2) occupying 0.849329 of unit cell:	Completed after 0 iterations at t[s]:  13814.68
	FillingsUpdate:  mu: -0.101141227  nElectrons: 319.000000
	Linear fluid (dielectric constant: 7.2) occupying 0.849329 of unit cell:	Completed after 1 iterations at t[s]:  13817.36
SCF: Cycle:  8   F: -531.582698673634923   dF: +3.104e-08   |Residual|: 4.913e-05   |deigs|: 3.243e-06  t[s]:  13817.50
	Linear fluid (dielectric constant: 7.2) occupying 0.849329 of unit cell:	Completed after 1 iterations at t[s]:  13817.62
	FillingsUpdate:  mu: -0.101142143  nElectrons: 319.000000
	Linear fluid (dielectric constant: 7.2) occupying 0.849329 of unit cell:	Completed after 0 iterations at t[s]:  13820.30
SCF: Cycle:  9   F: -531.582698706534416   dF: -3.290e-08   |Residual|: 9.527e-06   |deigs|: 2.838e-06  t[s]:  13820.43
	Linear fluid (dielectric constant: 7.2) occupying 0.849329 of unit cell:	Completed after 0 iterations at t[s]:  13820.52
	FillingsUpdate:  mu: -0.101142147  nElectrons: 319.000000
	Linear fluid (dielectric constant: 7.2) occupying 0.849329 of unit cell:	Completed after 0 iterations at t[s]:  13822.70
SCF: Cycle: 10   F: -531.582698706546239   dF: -1.182e-11   |Residual|: 9.639e-06   |deigs|: 3.261e-07  t[s]:  13822.83
	Linear fluid (dielectric constant: 7.2) occupying 0.849329 of unit cell:	Completed after 0 iterations at t[s]:  13822.92
	FillingsUpdate:  mu: -0.101142137  nElectrons: 319.000000
	Linear fluid (dielectric constant: 7.2) occupying 0.849329 of unit cell:	Completed after 0 iterations at t[s]:  13826.05
SCF: Cycle: 11   F: -531.582698706553515   dF: -7.276e-12   |Residual|: 9.467e-06   |deigs|: 8.160e-07  t[s]:  13826.18
SCF: Converged (|Delta E|<1.000000e-08 for 2 iters).

Setting wave functions to eigenvectors of Hamiltonian

Computing DFT-D3 correction:
# coordination-number C 3.300 3.300 3.306 3.300 3.300 3.300 3.302 3.300 3.314 3.300 3.300 3.290 3.302 3.300 3.300 3.301 3.301 3.300 3.301 3.292 3.300 3.300 3.297 3.300 3.300 3.300 3.381 3.301 3.300 3.300 3.317 3.307 3.300 3.289 3.301 3.300 3.300 3.300 3.300 3.307 3.300 3.300 3.301 3.301 3.300 3.309 3.300 3.300 3.308 3.300 3.300 3.300 3.316 3.303 3.301 3.300 3.300 3.303 3.300 3.300 3.300 3.406 3.318 3.300 3.299 3.300 3.300 3.307 3.300 3.300 3.308
# coordination-number N 3.219
# coordination-number S 2.857 2.859
# coordination-number Na 1.913 2.188
# diagonal-C6 C 24.28 24.29 24.23 24.29 24.28 24.28 24.27 24.28 24.14 24.29 24.29 24.38 24.26 24.28 24.29 24.27 24.27 24.28 24.28 24.36 24.29 24.28 24.31 24.28 24.28 24.29 23.36 24.27 24.29 24.28 24.11 24.22 24.29 24.39 24.28 24.29 24.28 24.28 24.28 24.21 24.29 24.28 24.28 24.28 24.28 24.20 24.29 24.29 24.21 24.28 24.29 24.29 24.12 24.25 24.27 24.29 24.28 24.25 24.28 24.29 24.29 23.03 24.10 24.29 24.30 24.29 24.28 24.21 24.28 24.28 24.20
# diagonal-C6 N 15.60
# diagonal-C6 S 125.81 125.81
# diagonal-C6 Na 186.12 186.11
EvdW_6 =   -0.062189
EvdW_8 =   -0.050110

# Ionic positions in cartesian coordinates:
ion C -14.002918197300012  24.253758582300001   2.000000000000000 0
ion C  -2.333816550000000   4.042302545699999   2.000000000000000 0
ion C  11.669101647300000  20.211493831199999   2.000000000000000 0
ion C  -9.335266200000008  24.253758582300001   2.000000000000000 0
ion C   9.335303994599993  24.253758582300001   2.000000000000000 0
ion C   2.333816549999999   4.042302545699999   2.000000000000000 0
ion C -11.669120544600000  20.211493831199999   2.000000000000000 0
ion C  -4.667651997299999   8.084605091399998   2.000000000000000 0
ion C   9.335285097299998  16.169191285499998   2.000000000000000 0
ion C  -4.667614202700010  24.253758582300001   2.000000000000000 0
ion C   4.667651997299995  24.253758582300001   2.000000000000000 0
ion C   4.667651997299999   8.084605091399998   2.000000000000000 0
ion C  -9.335303994599998  16.169191285499998   2.000000000000000 0
ion C  -7.001468547300001  12.126907637100000   2.000000000000000 0
ion C   0.000037794599988  24.253758582300001   2.000000000000000 0
ion C   0.000000000000000   8.084605091399998   2.000000000000000 0
ion C   7.001449650000005  20.211493831199999   2.000000000000000 0
ion C  -7.001468547300000  20.211493831199999   2.000000000000000 0
ion C  -2.333816549999999  12.126907637100000   2.000000000000000 0
ion C   4.667633100000000  16.169191285499998   2.000000000000000 0
ion C  -2.333816549999993  20.211493831199999   2.000000000000000 0
ion C   2.333835447300000  20.211493831199999   2.000000000000000 0
ion C   2.333835447299999  12.126907637100000   2.000000000000000 0
ion C  -4.667651997299999  16.169191285499998   2.000000000000000 0
ion C   7.001449650000000   4.042302545699999   2.000000000000000 0
ion C  21.004386744600001   4.042302545699999   2.000000000000000 0
ion C  14.002937094600000  16.169191285499998   2.000000000000000 0
ion C   0.000000000000000  16.169191285499998   2.000000000000000 0
ion C  11.669101647300000   4.042302545699999   2.000000000000000 0
ion C  18.670589091899998   8.084605091399998   2.000000000000000 0
ion C  11.669101647300000  12.126907637100000   2.000000000000000 0
ion C  16.336753644600002  12.126907637100000   2.000000000000000 0
ion C  16.336753644600002   4.042302545699999   2.000000000000000 0
ion C   9.335285097300002   8.084605091399998   2.000000000000000 0
ion C  14.002937094600000   8.084605091399998   2.000000000000000 0
ion C   0.000018897300000   2.694868363800000   2.000000000000000 0
ion C  11.669120544600000  22.906362195000000   2.000000000000000 0
ion C -11.669120544600002  22.906362195000000   2.000000000000000 0
ion C  -2.333816549999999   6.737152012199999   2.000000000000000 0
ion C   9.335285097299998  18.864059649300000   2.000000000000000 0
ion C  -7.001468547300003  22.906362195000000   2.000000000000000 0
ion C   7.001468547300002  22.906362195000000   2.000000000000000 0
ion C   2.333816550000000   6.737152012199999   2.000000000000000 0
ion C  -9.335285097299998  18.864059649300000   2.000000000000000 0
ion C  -4.667633100000000  10.779454557899999   2.000000000000000 0
ion C   7.001468547300002  14.821757103600000   2.000000000000000 0
ion C  -2.333835447300000  22.906362195000000   2.000000000000000 0
ion C   2.333816550000000  22.906362195000000   2.000000000000000 0
ion C   4.667633100000000  10.779454557899999   2.000000000000000 0
ion C  -7.001468547300001  14.821757103600000   2.000000000000000 0
ion C   4.667633100000003   2.694868363800000   2.000000000000000 0
ion C  23.338222191900002   2.694868363800000   2.000000000000000 0
ion C  14.002918197300001  18.864059649300000   2.000000000000000 0
ion C   0.000018897300000  10.779454557899999   2.000000000000000 0
ion C   4.667633100000000  18.864059649300000   2.000000000000000 0
ion C  -4.667633099999995  18.864059649300000   2.000000000000000 0
ion C  -2.333816550000000  14.821757103600000   2.000000000000000 0
ion C   2.333816550000000  14.821757103600000   2.000000000000000 0
ion C  -0.000018897299999  18.864059649300000   2.000000000000000 0
ion C   9.335285097300000   2.694868363800000   2.000000000000000 0
ion C  21.004386744599998   6.737152012199999   2.000000000000000 0
ion C  11.669120544600002  14.821757103600000   2.000000000000000 0
ion C  16.336734747299992  14.821757103600000   2.000000000000000 0
ion C  18.670570194600000   2.694868363800000   2.000000000000000 0
ion C   7.001468547300000   6.737152012199999   2.000000000000000 0
ion C  14.002937094600002   2.694868363800000   2.000000000000000 0
ion C  18.670570194600000  10.779454557899999   2.000000000000000 0
ion C   9.335285097300000  10.779454557899999   2.000000000000000 0
ion C  11.669120544600000   6.737152012199999   2.000000000000000 0
ion C  16.336734747299989   6.737152012199999   2.000000000000000 0
ion C  14.002937094600000  10.779454557899999   2.000000000000000 0
ion N   7.001449650000002  12.126907637100000   2.000000000000000 0
ion S   8.628933401603099  11.832016988395701   8.760639435622737 1
ion S   7.397424527067450  15.549804637753709   8.868053533453690 1
ion Na   3.408347570339407  12.184642042727308   9.517236972625074 1
ion Na  12.625979599515089  15.218708803115154   8.160161321166983 1

# Forces in Cartesian coordinates:
force C   0.001683731711425  -0.000934391764015  -0.000125957993551 0
force C   0.000451023483224  -0.000165281797336  -0.000133759213379 0
force C   0.001148028425961  -0.000999207811083   0.000247030974403 0
force C   0.000976326994335   0.001088195865723  -0.000127499908779 0
force C   0.000221181749237  -0.000480756630568  -0.000107375951540 0
force C   0.001828085680682  -0.000919608456040  -0.000104545012712 0
force C  -0.000402599860697  -0.001235605161222  -0.000148785969167 0
force C   0.000083508828956   0.000428911706993  -0.000136715295269 0
force C  -0.004220087272396  -0.009037255014964  -0.000763494104194 0
force C  -0.000915631895381   0.001070456024561  -0.000142580049392 0
force C  -0.000260083213551  -0.000460598736576  -0.000129769261691 0
force C   0.007214412009305   0.007102229868027   0.000399547229833 0
force C  -0.001216366198470   0.000329722242371  -0.000133531307176 0
force C   0.000021238722406   0.002003276218430  -0.000124648372788 0
force C  -0.001677721017091  -0.000931315907165  -0.000143670826955 0
force C   0.000277748533172   0.000148970580652  -0.000161449674319 0
force C   0.000036090130296  -0.000751486063473   0.000538180019526 0
force C  -0.000066642385683  -0.000053338206267  -0.000102969704425 0
force C   0.000058879071790   0.002041463919098  -0.000142728173364 0
force C   0.003294646720267  -0.009305835724793  -0.000596063249358 0
force C   0.000474695123186  -0.001279910267129  -0.000147431712857 0
force C  -0.001219261431133  -0.001206160937850   0.000087483621485 0
force C   0.009916575866338   0.002522570401019  -0.000240852674389 0
force C   0.001412048603719   0.000360369106873  -0.000117714934743 0
force C   0.000101824937177   0.005527034223706  -0.000092609809911 0
force C  -0.000100092941775  -0.000109417546505  -0.000131942826879 0
force C  -0.004248005128146  -0.002280039047059   0.000052965103684 0
force C   0.004816141533534  -0.002477439864602   0.000002214369772 0
force C  -0.001633316781016  -0.000657166348585  -0.000126574570495 0
force C  -0.000223975619783   0.000408905953763  -0.000144687093785 0
force C  -0.010112613720910   0.000845016118982  -0.000621278889580 0
force C   0.000018254143338   0.001672117509941  -0.000353633388881 0
force C  -0.000521287848059  -0.000079570005429  -0.000154794663987 0
force C  -0.006678426949681   0.007812788683628  -0.000470256986911 0
force C  -0.000469097920778   0.000193267228956   0.000599785223902 0
force C  -0.000686824645418   0.000798443415479  -0.000129699589116 0
force C  -0.001080104081753   0.000236981667127  -0.000032096699665 0
force C  -0.001954004857096   0.001262201172172  -0.000127202629073 0
force C  -0.000260418617820  -0.000175469948813  -0.000090596939654 0
force C  -0.005142672116067   0.000635281835304  -0.000422920424023 0
force C   0.000033540898710   0.000074997800422  -0.000131240556258 0
force C  -0.000018124355992   0.000059342028564  -0.000083266198222 0
force C  -0.002979612792608   0.003504813379139  -0.000154468719818 0
force C   0.000338546638296   0.000223518767093  -0.000133638726363 0
force C   0.000293977767875  -0.001082103288281  -0.000119896089442 0
force C  -0.000088877211633  -0.006078550933105  -0.000114332022987 0
force C   0.001980431368979   0.001148086300880  -0.000149800553987 0
force C   0.001014805813944   0.000080597460387  -0.000130762955878 0
force C   0.006033799921655   0.003072733535016   0.000234380764011 0
force C   0.000081417166278  -0.002364594846464  -0.000113846609444 0
force C  -0.002015427889320  -0.000874671503398  -0.000115094556558 0
force C  -0.000604219425553   0.000389916864757  -0.000138120500824 0
force C  -0.000146421216853   0.003459552562918  -0.000210697162705 0
force C   0.001326740893356  -0.004720750259980  -0.000206529628584 0
force C   0.004737693347301   0.000447469717624   0.000029703086518 0
force C   0.000002943863108   0.000044325108970  -0.000139680958144 0
force C  -0.001903829124867  -0.001281208332850  -0.000137575177373 0
force C  -0.005088407821831   0.003858324506171  -0.000114284611545 0
force C   0.000280058770950   0.002158377107613  -0.000041097845192 0
force C   0.001915389468401  -0.000836525977138  -0.000131020350390 0
force C   0.000011690803197  -0.000698416482133  -0.000137870892843 0
force C   0.004190068263719   0.002805367872538   0.000070586374372 0
force C   0.003005722800078  -0.001842424392521  -0.000403430738523 0
force C   0.000668083852460   0.000415082347097  -0.000141988754153 0
force C   0.000213367448850  -0.006280822933938   0.000467427184938 0
force C   0.000606155310985   0.000798811587667  -0.000143064148537 0
force C  -0.000277334424632  -0.001099720637830  -0.000059033705733 0
force C  -0.005556250640550   0.002548045782457   0.000084424625714 0
force C   0.002775968038415   0.003735099110815   0.000461939278828 0
force C   0.000133947773986  -0.000151835672330  -0.000153289117900 0
force C  -0.001983147250835  -0.004841730458686   0.000099692316924 0
force N   0.000377908777271   0.000489508974775  -0.001984929222693 0
force S   0.000169245867938  -0.000188522482520  -0.000119571041679 1
force S   0.000359403307294   0.000350109233920  -0.000247628097299 1
force Na  -0.000100332463695  -0.000113266576823  -0.000239492436116 1
force Na  -0.000688921865122  -0.000001049601774   0.000325812633360 1

# Energy components:
   A_diel =       -0.0840114009092113
   Eewald =     4709.5592221866736509
       EH =     5133.8852254890261975
     Eloc =   -10408.2968202225965797
      Enl =      -81.4576722043744041
     EvdW =       -0.1122989902753747
      Exc =     -154.3974547864128795
 Exc_core =        6.0150670680030753
       KE =      263.3743434585028922
-------------------------------------
     Etot =     -531.5143994023630967
       TS =        0.0682993041903713
-------------------------------------
        F =     -531.5826987065535150

IonicMinimize: Iter:  52  F: -531.582698706553515  |grad|_K:  2.962e-04  alpha:  8.355e-01  linmin: -7.822e-04  t[s]:  13829.36
IonicMinimize: Converged (|Delta F|<1.000000e-06 for 2 iters).

#--- Lowdin population analysis ---
# oxidation-state C +0.029 +0.030 +0.028 +0.029 +0.031 +0.030 +0.026 +0.029 +0.020 +0.029 +0.031 +0.018 +0.025 +0.028 +0.030 +0.027 +0.034 +0.025 +0.028 +0.025 +0.029 +0.033 +0.010 +0.027 +0.027 +0.028 +0.003 +0.024 +0.032 +0.030 +0.015 +0.026 +0.031 +0.025 +0.031 +0.029 +0.029 +0.029 +0.027 +0.033 +0.030 +0.031 +0.028 +0.027 +0.028 +0.141 +0.031 +0.031 +0.127 +0.029 +0.031 +0.029 +0.023 +0.025 +0.036 +0.030 +0.028 +0.032 +0.031 +0.032 +0.029 +0.014 +0.021 +0.030 +0.037 +0.031 +0.028 +0.141 +0.033 +0.030 +0.027
# oxidation-state N +0.003
# oxidation-state S -0.481 -0.475
# oxidation-state Na +0.906 +0.895


Dumping 'Na2S2@N_graphene-glyme-vdw.fillings' ... done
Dumping 'Na2S2@N_graphene-glyme-vdw.wfns' ... done
Dumping 'Na2S2@N_graphene-glyme-vdw.fluidState' ... done
Dumping 'Na2S2@N_graphene-glyme-vdw.ionpos' ... done
Dumping 'Na2S2@N_graphene-glyme-vdw.eigenvals' ... done
End date and time: Wed Sep 11 07:24:58 2024  (Duration: 0-3:50:31.23)
Done!
