
*************** JDFTx 1.7.0  ***************

Start date and time: Sat Sep  7 15:25:04 2024
Executable jdftx_gpu with command-line: -i /home/akim2/JDFTx/Na2S4@N_graphene-PC-vdw/Na2S4@N_graphene-PC-vdw.in -o /home/akim2/JDFTx/Na2S4@N_graphene-PC-vdw/Na2S4@N_graphene-PC-vdw.out
Running on hosts (process indices):  exp-6-60 (0)
Divided in process groups (process indices):  0 (0)
gpuInit: Found compatible cuda device 0 'Tesla V100-SXM2-32GB'
gpuInit: Selected device 0
Resource initialization completed at t[s]:      0.38
Run totals: 1 processes, 40 threads, 1 GPUs


Input parsed successfully to the following command list (including defaults):

basis kpoint-dependent
coords-type Cartesian
core-overlap-check vector
coulomb-interaction Slab 001
coulomb-truncation-embed 0 0 6
davidson-band-ratio 1.1
dump End State
dump-name Na2S4@N_graphene-PC-vdw.$VAR
elec-cutoff 20 100
elec-eigen-algo Davidson
elec-ex-corr gga-PBE
elec-smearing Fermi 0.01
electronic-minimize  \
	dirUpdateScheme      FletcherReeves \
	linminMethod         DirUpdateRecommended \
	nIterations          100 \
	history              15 \
	knormThreshold       0 \
	energyDiffThreshold  1e-08 \
	nEnergyDiff          2 \
	alphaTstart          1 \
	alphaTmin            1e-10 \
	updateTestStepSize   yes \
	alphaTreduceFactor   0.1 \
	alphaTincreaseFactor 3 \
	nAlphaAdjustMax      3 \
	wolfeEnergy          0.0001 \
	wolfeGradient        0.9 \
	fdTest               no
electronic-scf  \
	nIterations	50 \
	energyDiffThreshold	1e-08 \
	residualThreshold	1e-07 \
	mixFraction	0.5 \
	qMetric	0.8 \
	history	10 \
	nEigSteps	2 \
	eigDiffThreshold	1e-08 \
	mixedVariable	Density \
	qKerker	0.8 \
	qKappa	-1 \
	verbose	no \
	mixFractionMag	1.5
exchange-regularization WignerSeitzTruncated
fluid LinearPCM 298.000000 1.013250
fluid-ex-corr lda-TF lda-PZ
fluid-gummel-loop 10 1.000000e-05
fluid-minimize  \
	dirUpdateScheme      PolakRibiere \
	linminMethod         DirUpdateRecommended \
	nIterations          400 \
	history              15 \
	knormThreshold       1e-11 \
	energyDiffThreshold  0 \
	nEnergyDiff          2 \
	alphaTstart          1 \
	alphaTmin            1e-10 \
	updateTestStepSize   yes \
	alphaTreduceFactor   0.1 \
	alphaTincreaseFactor 3 \
	nAlphaAdjustMax      6 \
	wolfeEnergy          0.0001 \
	wolfeGradient        0.9 \
	fdTest               no
fluid-solvent PC 11.6429 ScalarEOS \
	epsBulk 64 \
	pMol 2.95 \
	epsInf 2.02 \
	Pvap 1.53277e-13 \
	sigmaBulk 2.88e-05 \
	Rvdw 0 \
	Res 0 \
	tauNuc 343133
forces-output-coords Positions
ion C -14.002918197300012  24.253758582300001   2.000000000000000 0
ion C  -2.333816550000000   4.042302545699999   2.000000000000000 0
ion C  11.669101647300000  20.211493831199999   2.000000000000000 0
ion C  -9.335266200000008  24.253758582300001   2.000000000000000 0
ion C   9.335303994599993  24.253758582300001   2.000000000000000 0
ion C   2.333816549999999   4.042302545699999   2.000000000000000 0
ion C -11.669120544600000  20.211493831199999   2.000000000000000 0
ion C  -4.667651997299999   8.084605091399998   2.000000000000000 0
ion C   9.335285097299998  16.169191285499998   2.000000000000000 0
ion C  -4.667614202700010  24.253758582300001   2.000000000000000 0
ion C   4.667651997299995  24.253758582300001   2.000000000000000 0
ion C   4.667651997299999   8.084605091399998   2.000000000000000 0
ion C  -9.335303994599998  16.169191285499998   2.000000000000000 0
ion C  -7.001468547300001  12.126907637100000   2.000000000000000 0
ion C   0.000037794599988  24.253758582300001   2.000000000000000 0
ion C   0.000000000000000   8.084605091399998   2.000000000000000 0
ion C   7.001449650000005  20.211493831199999   2.000000000000000 0
ion C  -7.001468547300000  20.211493831199999   2.000000000000000 0
ion C  -2.333816549999999  12.126907637100000   2.000000000000000 0
ion C   4.667633100000000  16.169191285499998   2.000000000000000 0
ion C  -2.333816549999993  20.211493831199999   2.000000000000000 0
ion C   2.333835447300000  20.211493831199999   2.000000000000000 0
ion C   2.333835447299999  12.126907637100000   2.000000000000000 0
ion C  -4.667651997299999  16.169191285499998   2.000000000000000 0
ion C   7.001449650000000   4.042302545699999   2.000000000000000 0
ion C  21.004386744600001   4.042302545699999   2.000000000000000 0
ion C  14.002937094600000  16.169191285499998   2.000000000000000 0
ion C   0.000000000000000  16.169191285499998   2.000000000000000 0
ion C  11.669101647300000   4.042302545699999   2.000000000000000 0
ion C  18.670589091899998   8.084605091399998   2.000000000000000 0
ion C  11.669101647300000  12.126907637100000   2.000000000000000 0
ion C  16.336753644600002  12.126907637100000   2.000000000000000 0
ion C  16.336753644600002   4.042302545699999   2.000000000000000 0
ion C   9.335285097300002   8.084605091399998   2.000000000000000 0
ion C  14.002937094600000   8.084605091399998   2.000000000000000 0
ion C   0.000018897300000   2.694868363800000   2.000000000000000 0
ion C  11.669120544600000  22.906362195000000   2.000000000000000 0
ion C -11.669120544600002  22.906362195000000   2.000000000000000 0
ion C  -2.333816549999999   6.737152012199999   2.000000000000000 0
ion C   9.335285097299998  18.864059649300000   2.000000000000000 0
ion C  -7.001468547300003  22.906362195000000   2.000000000000000 0
ion C   7.001468547300002  22.906362195000000   2.000000000000000 0
ion C   2.333816550000000   6.737152012199999   2.000000000000000 0
ion C  -9.335285097299998  18.864059649300000   2.000000000000000 0
ion C  -4.667633100000000  10.779454557899999   2.000000000000000 0
ion C   7.001468547300002  14.821757103600000   2.000000000000000 0
ion C  -2.333835447300000  22.906362195000000   2.000000000000000 0
ion C   2.333816550000000  22.906362195000000   2.000000000000000 0
ion C   4.667633100000000  10.779454557899999   2.000000000000000 0
ion C  -7.001468547300001  14.821757103600000   2.000000000000000 0
ion C   4.667633100000003   2.694868363800000   2.000000000000000 0
ion C  23.338222191900002   2.694868363800000   2.000000000000000 0
ion C  14.002918197300001  18.864059649300000   2.000000000000000 0
ion C   0.000018897300000  10.779454557899999   2.000000000000000 0
ion C   4.667633100000000  18.864059649300000   2.000000000000000 0
ion C  -4.667633099999995  18.864059649300000   2.000000000000000 0
ion C  -2.333816550000000  14.821757103600000   2.000000000000000 0
ion C   2.333816550000000  14.821757103600000   2.000000000000000 0
ion C  -0.000018897299999  18.864059649300000   2.000000000000000 0
ion C   9.335285097300000   2.694868363800000   2.000000000000000 0
ion C  21.004386744599998   6.737152012199999   2.000000000000000 0
ion C  11.669120544600002  14.821757103600000   2.000000000000000 0
ion C  16.336734747299992  14.821757103600000   2.000000000000000 0
ion C  18.670570194600000   2.694868363800000   2.000000000000000 0
ion C   7.001468547300000   6.737152012199999   2.000000000000000 0
ion C  14.002937094600002   2.694868363800000   2.000000000000000 0
ion C  18.670570194600000  10.779454557899999   2.000000000000000 0
ion C   9.335285097300000  10.779454557899999   2.000000000000000 0
ion C  11.669120544600000   6.737152012199999   2.000000000000000 0
ion C  16.336734747299989   6.737152012199999   2.000000000000000 0
ion C  14.002937094600000  10.779454557899999   2.000000000000000 0
ion N   7.001449650000002  12.126907637100000   2.000000000000000 0
ion S   6.174936078686164  14.158273753493756   8.435162547173919 1
ion S   4.299376190579984  14.128976221550239  11.844917646593295 1
ion S   1.962487620754862  17.370522428336109  12.085625345598377 1
ion S  -0.280463044931450  17.577631338407290   8.914025920905317 1
ion Na   4.498273710148059  19.025105375745152   7.415170109618058 1
ion Na   1.183859805568671  12.781829323736760   7.519584204589894 1
ion-species GBRV/$ID_pbe.uspp
ion-width Ecut
ionic-minimize  \
	dirUpdateScheme      FletcherReeves \
	linminMethod         DirUpdateRecommended \
	nIterations          200 \
	history              15 \
	knormThreshold       0.0001 \
	energyDiffThreshold  1e-06 \
	nEnergyDiff          2 \
	alphaTstart          1 \
	alphaTmin            1e-10 \
	updateTestStepSize   yes \
	alphaTreduceFactor   0.1 \
	alphaTincreaseFactor 3 \
	nAlphaAdjustMax      3 \
	wolfeEnergy          0.0001 \
	wolfeGradient        0.9 \
	fdTest               no
kpoint   0.000000000000   0.000000000000   0.000000000000  1.00000000000000
kpoint-folding 1 1 1 
latt-move-scale 1 1 1
latt-scale 1 1 1 
lattice Triclinic 28.0058 28.0058 37.7946 90 90 120
lattice-minimize  \
	dirUpdateScheme      L-BFGS \
	linminMethod         DirUpdateRecommended \
	nIterations          0 \
	history              15 \
	knormThreshold       0 \
	energyDiffThreshold  1e-06 \
	nEnergyDiff          2 \
	alphaTstart          1 \
	alphaTmin            1e-10 \
	updateTestStepSize   yes \
	alphaTreduceFactor   0.1 \
	alphaTincreaseFactor 3 \
	nAlphaAdjustMax      3 \
	wolfeEnergy          0.0001 \
	wolfeGradient        0.9 \
	fdTest               no
lcao-params -1 1e-06 0.01
pcm-variant GLSSA13
spintype no-spin
subspace-rotation-factor 1 yes
symmetries automatic
symmetry-threshold 0.0001
van-der-waals D3



---------- Setting up symmetries ----------

Found 24 point-group symmetries of the bravais lattice
Found 1 space-group symmetries with basis
Applied RMS atom displacement 0 bohrs to make symmetries exact.

---------- Initializing the Grid ----------
R = 
[      28.0058     -14.0029            0  ]
[            0      24.2537            0  ]
[            0            0      37.7946  ]
unit cell volume = 25671.8
G =
[   0.224353    0.12953         -0  ]
[          0   0.259061          0  ]
[          0         -0   0.166246  ]
Minimum fftbox size, Smin = [  128  128  172  ]
Chosen fftbox size, S = [  128  128  180  ]

---------- Initializing tighter grid for wavefunction operations ----------
R = 
[      28.0058     -14.0029            0  ]
[            0      24.2537            0  ]
[            0            0      37.7946  ]
unit cell volume = 25671.8
G =
[   0.224353    0.12953         -0  ]
[          0   0.259061          0  ]
[          0         -0   0.166246  ]
Minimum fftbox size, Smin = [  116  116  156  ]
Chosen fftbox size, S = [  120  120  160  ]

---------- Exchange Correlation functional ----------
Initalized PBE GGA exchange.
Initalized PBE GGA correlation.

---------- Setting up pseudopotentials ----------
Width of ionic core gaussian charges (only for fluid interactions / plotting) set to 0.397384

Reading pseudopotential file '/home/akim2/jdftx_install/build/pseudopotentials/GBRV/c_pbe.uspp':
  Title: C.  Created by USPP 7.3.6 on 3-2-2014
  Reference state energy: -5.406344.  4 valence electrons in orbitals:
    |200>  occupation: 2  eigenvalue: -0.504890
    |210>  occupation: 2  eigenvalue: -0.194356
  lMax: 1  lLocal: 2  QijEcut: 5
  4 projectors sampled on a log grid with 503 points:
    l: 0  eig: -0.504890  rCut: 1.3
    l: 0  eig: 0.000000  rCut: 1.3
    l: 1  eig: -0.194357  rCut: 1.3
    l: 1  eig: 0.000000  rCut: 1.3
  Partial core density with radius 1.1
  Transforming core density to a uniform radial grid of dG=0.02 with 1625 points.
  Transforming local potential to a uniform radial grid of dG=0.02 with 1625 points.
  Transforming nonlocal projectors to a uniform radial grid of dG=0.02 with 432 points.
  Transforming density augmentations to a uniform radial grid of dG=0.02 with 1625 points.
  Transforming atomic orbitals to a uniform radial grid of dG=0.02 with 432 points.
  Core radius for overlap checks: 1.30 bohrs.

Reading pseudopotential file '/home/akim2/jdftx_install/build/pseudopotentials/GBRV/n_pbe.uspp':
  Title: N.  Created by USPP 7.3.6 on 3-2-2014
  Reference state energy: -9.763716.  5 valence electrons in orbitals:
    |200>  occupation: 2  eigenvalue: -0.681964
    |210>  occupation: 3  eigenvalue: -0.260726
  lMax: 1  lLocal: 2  QijEcut: 6
  4 projectors sampled on a log grid with 491 points:
    l: 0  eig: -0.681964  rCut: 1.15
    l: 0  eig: 0.000000  rCut: 1.15
    l: 1  eig: -0.260729  rCut: 1.2
    l: 1  eig: 0.500000  rCut: 1.2
  Partial core density with radius 0.8
  Transforming core density to a uniform radial grid of dG=0.02 with 1625 points.
  Transforming local potential to a uniform radial grid of dG=0.02 with 1625 points.
  Transforming nonlocal projectors to a uniform radial grid of dG=0.02 with 432 points.
  Transforming density augmentations to a uniform radial grid of dG=0.02 with 1625 points.
  Transforming atomic orbitals to a uniform radial grid of dG=0.02 with 432 points.
  Core radius for overlap checks: 1.20 bohrs.

Reading pseudopotential file '/home/akim2/jdftx_install/build/pseudopotentials/GBRV/s_pbe.uspp':
  Title: S.  Created by USPP 7.3.6 on 1-4-15
  Reference state energy: -11.898476.  6 valence electrons in orbitals:
    |300>  occupation: 2  eigenvalue: -0.634167
    |310>  occupation: 4  eigenvalue: -0.257568
  lMax: 2  lLocal: 3  QijEcut: 6
  6 projectors sampled on a log grid with 635 points:
    l: 0  eig: -0.634161  rCut: 1.5
    l: 0  eig: 1.500000  rCut: 1.5
    l: 1  eig: -0.257567  rCut: 1.5
    l: 1  eig: 1.500000  rCut: 1.5
    l: 2  eig: -1.000000  rCut: 1.5
    l: 2  eig: 1.500000  rCut: 1.5
  Partial core density with radius 1.15
  Transforming core density to a uniform radial grid of dG=0.02 with 1625 points.
  Transforming local potential to a uniform radial grid of dG=0.02 with 1625 points.
  Transforming nonlocal projectors to a uniform radial grid of dG=0.02 with 432 points.
  Transforming density augmentations to a uniform radial grid of dG=0.02 with 1625 points.
  Transforming atomic orbitals to a uniform radial grid of dG=0.02 with 432 points.
  Core radius for overlap checks: 1.50 bohrs.

Reading pseudopotential file '/home/akim2/jdftx_install/build/pseudopotentials/GBRV/na_pbe.uspp':
  Title: Na.  Created by USPP 7.3.6 on 23-9-15
  Reference state energy: -47.625620.  9 valence electrons in orbitals:
    |200>  occupation: 2  eigenvalue: -2.085638
    |210>  occupation: 6  eigenvalue: -1.053708
    |300>  occupation: 1  eigenvalue: -0.100838
  lMax: 2  lLocal: 0  QijEcut: 6
  5 projectors sampled on a log grid with 657 points:
    l: 0  eig: -2.085640  rCut: 1.37
    l: 0  eig: -0.100839  rCut: 1.37
    l: 1  eig: -1.053708  rCut: 1.47
    l: 1  eig: 0.500000  rCut: 1.47
    l: 2  eig: 0.750000  rCut: 2
  Transforming local potential to a uniform radial grid of dG=0.02 with 1625 points.
  Transforming nonlocal projectors to a uniform radial grid of dG=0.02 with 432 points.
  Transforming density augmentations to a uniform radial grid of dG=0.02 with 1625 points.
  Transforming atomic orbitals to a uniform radial grid of dG=0.02 with 432 points.
  Core radius for overlap checks: 2.00 bohrs.

Initialized 4 species with 78 total atoms.

Folded 1 k-points by 1x1x1 to 1 k-points.

---------- Setting up k-points, bands, fillings ----------
No reducable k-points. 
Computing the number of bands and number of electrons
Calculating initial fillings.
nElectrons: 331.000000   nBands: 314   nStates: 1

----- Setting up reduced wavefunction bases (one per k-point) -----
average nbasis = 109673.000 , ideal nbasis = 109671.883

---------- Setting up coulomb interaction ----------
Fluid mode embedding: using embedded box, but periodic Coulomb kernel.
(Fluid response is responsible for (approximate) separation between periodic images.)
Setting up double-sized grid for truncated Coulomb potentials:
R = 
[      28.0058     -14.0029            0  ]
[            0      24.2537            0  ]
[            0            0      75.5892  ]
unit cell volume = 51343.6
G =
[   0.224353    0.12953         -0  ]
[          0   0.259061          0  ]
[          0         -0  0.0831228  ]
Chosen fftbox size, S = [  128  128  360  ]
Integer grid location selected as the embedding center:
   Grid: [  0  0  29  ]
   Lattice: [  0  0  0.158753  ]
   Cartesian: [  0  0  6  ]
Constructing Wigner-Seitz cell: 8 faces (6 quadrilaterals, 2 hexagons)
Range-separation parameter for embedded mesh potentials due to point charges: 0.590105 bohrs.

Initializing DFT-D3 calculator:
	Parameters set for gga-PBE functional
	s6:  1.000  s_r6:  1.217
	s8:  0.722  s_r8:  1.000
	Per-atom parameters loaded for:
	 C:  sqrtQ[a0]:  3.105  Rcov[a0]:  1.417  CN: [ 0.00 0.99 2.00 3.00 3.98 ]
	 N:  sqrtQ[a0]:  2.712  Rcov[a0]:  1.342  CN: [ 0.00 0.99 2.01 2.99 ]
	 S:  sqrtQ[a0]:  4.041  Rcov[a0]:  1.928  CN: [ 0.00 0.99 1.99 ]
	Na:  sqrtQ[a0]:  6.586  Rcov[a0]:  2.646  CN: [ 0.00 0.97 ]

---------- Setting up ewald sum ----------
Optimum gaussian width for ewald sums = 7.173367 bohr.
Real space sum over 405 unit cells with max indices [  4  4  2  ]
Reciprocal space sum over 7875 terms with max indices [  7  7  17  ]

Computing DFT-D3 correction:
# coordination-number C 3.300 3.300 3.301 3.300 3.301 3.300 3.300 3.301 3.296 3.300 3.311 3.293 3.300 3.300 3.302 3.315 3.448 3.300 3.356 3.441 3.304 3.494 3.615 3.303 3.300 3.300 3.300 3.368 3.300 3.300 3.288 3.300 3.300 3.287 3.300 3.300 3.300 3.300 3.302 3.317 3.300 3.321 3.304 3.300 3.304 3.325 3.301 3.326 3.336 3.300 3.300 3.300 3.300 3.478 3.800 3.301 3.335 3.495 3.331 3.300 3.300 3.299 3.300 3.301 3.298 3.300 3.300 3.300 3.300 3.300 3.300
# coordination-number N 3.220
# coordination-number S 2.926 3.102 3.109 2.935
# coordination-number Na 4.558 4.407
# diagonal-C6 C 24.28 24.28 24.27 24.29 24.27 24.28 24.29 24.27 24.32 24.28 24.18 24.35 24.28 24.28 24.26 24.14 22.41 24.28 23.67 22.51 24.25 21.73 20.10 24.26 24.28 24.28 24.28 23.53 24.29 24.29 24.40 24.29 24.28 24.40 24.29 24.28 24.28 24.29 24.27 24.11 24.28 24.07 24.25 24.29 24.25 24.03 24.27 24.02 23.91 24.28 24.28 24.28 24.28 21.97 18.75 24.27 23.92 21.72 23.97 24.29 24.28 24.29 24.29 24.28 24.30 24.28 24.28 24.28 24.29 24.29 24.29
# diagonal-C6 N 15.60
# diagonal-C6 S 125.81 125.81 125.81 125.81
# diagonal-C6 Na 186.11 186.11
EvdW_6 =   -0.063707
EvdW_8 =   -0.056461

---------- Allocating electronic variables ----------
Initializing wave functions:  linear combination of atomic orbitals
C pseudo-atom occupations:   s ( 2 )  p ( 2 )
N pseudo-atom occupations:   s ( 2 )  p ( 3 )
S pseudo-atom occupations:   s ( 2 )  p ( 4 )
Na pseudo-atom occupations:   s ( 2 1 )  p ( 6 )
	FillingsUpdate:  mu: -0.166246780  nElectrons: 331.000000
LCAOMinimize: Iter:   0  F: -546.8508521817675501  |grad|_K:  9.862e-03  alpha:  1.000e+00
	FillingsUpdate:  mu: -0.213835030  nElectrons: 331.000000
LCAOMinimize: Iter:   1  F: -547.4573948826656533  |grad|_K:  2.226e-03  alpha:  1.904e-01  linmin:  8.987e-02  cgtest: -1.872e+00  t[s]:     10.74
	FillingsUpdate:  mu: -0.214028258  nElectrons: 331.000000
LCAOMinimize: Iter:   2  F: -547.4589131499205905  |grad|_K:  2.434e-03  alpha:  4.983e-02  linmin: -2.089e-04  cgtest:  9.148e-01  t[s]:     12.78
LCAOMinimize: 	Wrong curvature in test step, increasing alphaT to 1.494796e-01.
	FillingsUpdate:  mu: -0.210610531  nElectrons: 331.000000
LCAOMinimize: Iter:   3  F: -547.4998878227943351  |grad|_K:  3.078e-03  alpha: -6.247e-02  linmin: -2.442e-01  cgtest:  6.508e-01  t[s]:     14.61
	FillingsUpdate:  mu: -0.206891459  nElectrons: 331.000000
LCAOMinimize: Iter:   4  F: -547.5429984251543374  |grad|_K:  3.206e-03  alpha:  1.951e-02  linmin: -2.677e-01  cgtest:  7.570e-01  t[s]:     16.68
LCAOMinimize: 	Wrong curvature in test step, increasing alphaT to 5.852399e-02.
	FillingsUpdate:  mu: -0.204455770  nElectrons: 331.000000
LCAOMinimize: Iter:   5  F: -547.5780958444453290  |grad|_K:  2.742e-03  alpha: -5.317e-01  linmin: -2.722e-01  cgtest:  8.598e-01  t[s]:     18.55
LCAOMinimize: Encountered beta<0, resetting CG.
	FillingsUpdate:  mu: -0.229665210  nElectrons: 331.000000
LCAOMinimize: Iter:   6  F: -547.6201922418173353  |grad|_K:  6.423e-04  alpha:  8.092e-02  linmin: -2.327e-01  cgtest:  7.190e-01  t[s]:     20.69
LCAOMinimize: Encountered beta<0, resetting CG.
	FillingsUpdate:  mu: -0.233340587  nElectrons: 331.000000
LCAOMinimize: Iter:   7  F: -547.6228137807763687  |grad|_K:  3.976e-04  alpha:  1.312e-01  linmin:  1.682e-02  cgtest: -7.892e-02  t[s]:     22.81
	FillingsUpdate:  mu: -0.230821820  nElectrons: 331.000000
LCAOMinimize: Iter:   8  F: -547.6250246742324634  |grad|_K:  2.729e-04  alpha:  2.976e-01  linmin: -2.451e-03  cgtest:  3.242e-01  t[s]:     24.95
	FillingsUpdate:  mu: -0.230278763  nElectrons: 331.000000
LCAOMinimize: Iter:   9  F: -547.6257046364262351  |grad|_K:  1.787e-04  alpha:  1.841e-01  linmin:  2.515e-04  cgtest: -5.042e-02  t[s]:     27.10
	FillingsUpdate:  mu: -0.231571106  nElectrons: 331.000000
LCAOMinimize: Iter:  10  F: -547.6259595211870419  |grad|_K:  7.819e-05  alpha:  1.608e-01  linmin:  1.376e-03  cgtest:  3.987e-02  t[s]:     29.25
	FillingsUpdate:  mu: -0.231430664  nElectrons: 331.000000
LCAOMinimize: Iter:  11  F: -547.6260073711193854  |grad|_K:  4.557e-05  alpha:  1.586e-01  linmin: -5.973e-04  cgtest:  2.224e-02  t[s]:     31.40
	FillingsUpdate:  mu: -0.231174468  nElectrons: 331.000000
LCAOMinimize: Iter:  12  F: -547.6260326367356583  |grad|_K:  2.170e-05  alpha:  2.443e-01  linmin: -3.817e-04  cgtest: -1.204e-02  t[s]:     33.54
	FillingsUpdate:  mu: -0.231295761  nElectrons: 331.000000
LCAOMinimize: Iter:  13  F: -547.6260368289537155  |grad|_K:  1.726e-05  alpha:  1.790e-01  linmin:  1.013e-05  cgtest:  7.280e-04  t[s]:     35.69
	FillingsUpdate:  mu: -0.231294720  nElectrons: 331.000000
LCAOMinimize: Iter:  14  F: -547.6260397053126781  |grad|_K:  6.735e-06  alpha:  1.945e-01  linmin: -4.215e-05  cgtest:  5.316e-03  t[s]:     37.85
	FillingsUpdate:  mu: -0.231271168  nElectrons: 331.000000
LCAOMinimize: Iter:  15  F: -547.6260403357722453  |grad|_K:  4.283e-06  alpha:  2.801e-01  linmin:  1.449e-05  cgtest: -4.791e-04  t[s]:     40.00
	FillingsUpdate:  mu: -0.231291264  nElectrons: 331.000000
LCAOMinimize: Iter:  16  F: -547.6260404464828753  |grad|_K:  2.092e-06  alpha:  1.217e-01  linmin: -3.594e-05  cgtest:  1.042e-03  t[s]:     42.16
LCAOMinimize: Converged (|Delta F|<1.000000e-06 for 2 iters).
----- createFluidSolver() ----- (Fluid-side solver setup)
   Initializing fluid molecule 'PC'
     Net charge: 0   dipole magnitude: 0
     Initializing spherical shell mfKernel with radius 0 Bohr
     deltaS corrections:

Correction to mu due to finite nuclear width = -0.00639648
   Cavity determined by nc: 0.00098 and sigma: 0.6
   Effective cavity tension: 9.53e-06 Eh/bohr^2 to account for cavitation and dispersion.


---- Citations for features of the code used in this run ----

   Software package:
      R. Sundararaman, K. Letchworth-Weaver, K.A. Schwarz, D. Gunceler, Y. Ozhabes and T.A. Arias, 'JDFTx: software for joint density-functional theory', SoftwareX 6, 278 (2017)

   gga-PBE exchange-correlation functional:
      J.P. Perdew, K. Burke and M. Ernzerhof, Phys. Rev. Lett. 77, 3865 (1996)

   Pseudopotentials:
      KF Garrity, JW Bennett, KM Rabe and D Vanderbilt, Comput. Mater. Sci. 81, 446 (2014)

   Truncated Coulomb potentials:
      R. Sundararaman and T.A. Arias, Phys. Rev. B 87, 165122 (2013)

   DFT-D3 dispersion correction:
      S. Grimme, J. Antony, S. Ehrlich and H. Krieg, J. Chem. Phys. 132, 154104 (2010)

   Linear/nonlinear dielectric/ionic fluid model with effective cavity tension:
      D. Gunceler, K. Letchworth-Weaver, R. Sundararaman, K.A. Schwarz and T.A. Arias, Modelling Simul. Mater. Sci. Eng. 21, 074005 (2013)

This list may not be complete. Please suggest additional citations or
report any other bugs at https://github.com/shankar1729/jdftx/issues

Initialization completed successfully at t[s]:     42.54


Computing DFT-D3 correction:
# coordination-number C 3.300 3.300 3.301 3.300 3.301 3.300 3.300 3.301 3.296 3.300 3.311 3.293 3.300 3.300 3.302 3.315 3.448 3.300 3.356 3.441 3.304 3.494 3.615 3.303 3.300 3.300 3.300 3.368 3.300 3.300 3.288 3.300 3.300 3.287 3.300 3.300 3.300 3.300 3.302 3.317 3.300 3.321 3.304 3.300 3.304 3.325 3.301 3.326 3.336 3.300 3.300 3.300 3.300 3.478 3.800 3.301 3.335 3.495 3.331 3.300 3.300 3.299 3.300 3.301 3.298 3.300 3.300 3.300 3.300 3.300 3.300
# coordination-number N 3.220
# coordination-number S 2.926 3.102 3.109 2.935
# coordination-number Na 4.558 4.407
# diagonal-C6 C 24.28 24.28 24.27 24.29 24.27 24.28 24.29 24.27 24.32 24.28 24.18 24.35 24.28 24.28 24.26 24.14 22.41 24.28 23.67 22.51 24.25 21.73 20.10 24.26 24.28 24.28 24.28 23.53 24.29 24.29 24.40 24.29 24.28 24.40 24.29 24.28 24.28 24.29 24.27 24.11 24.28 24.07 24.25 24.29 24.25 24.03 24.27 24.02 23.91 24.28 24.28 24.28 24.28 21.97 18.75 24.27 23.92 21.72 23.97 24.29 24.28 24.29 24.29 24.28 24.30 24.28 24.28 24.28 24.29 24.29 24.29
# diagonal-C6 N 15.60
# diagonal-C6 S 125.81 125.81 125.81 125.81
# diagonal-C6 Na 186.11 186.11
EvdW_6 =   -0.063707
EvdW_8 =   -0.056461
Fluid solver invoked on fresh (random / LCAO) wavefunctions
Running a vacuum solve first:

-------- Initial electronic minimization -----------
Will mix electronic density at each iteration.
	FillingsUpdate:  mu: -0.231291264  nElectrons: 331.000000
	FillingsUpdate:  mu: -0.240976295  nElectrons: 331.000000
SCF: Cycle:  0   F: -551.203848026253240   dF: -3.578e+00   |Residual|: 9.652e-01   |deigs|: 1.242e-01  t[s]:     50.18
	FillingsUpdate:  mu: -0.212516162  nElectrons: 331.000000
SCF: Cycle:  1   F: -551.791854722448534   dF: -5.880e-01   |Residual|: 4.911e-01   |deigs|: 3.429e-02  t[s]:     54.61
	FillingsUpdate:  mu: -0.178409394  nElectrons: 331.000000
SCF: Cycle:  2   F: -552.068394576480841   dF: -2.765e-01   |Residual|: 1.116e-01   |deigs|: 3.437e-02  t[s]:     58.99
	FillingsUpdate:  mu: -0.172476890  nElectrons: 331.000000
SCF: Cycle:  3   F: -552.087405884044074   dF: -1.901e-02   |Residual|: 6.955e-02   |deigs|: 6.242e-03  t[s]:     63.41
	FillingsUpdate:  mu: -0.160987196  nElectrons: 331.000000
SCF: Cycle:  4   F: -552.110249508729794   dF: -2.284e-02   |Residual|: 3.619e-02   |deigs|: 1.073e-02  t[s]:     67.81
	FillingsUpdate:  mu: -0.151014792  nElectrons: 331.000000
SCF: Cycle:  5   F: -552.121883229908917   dF: -1.163e-02   |Residual|: 2.609e-02   |deigs|: 9.140e-03  t[s]:     72.15
	FillingsUpdate:  mu: -0.147310892  nElectrons: 331.000000
SCF: Cycle:  6   F: -552.124464895193455   dF: -2.582e-03   |Residual|: 1.910e-02   |deigs|: 3.644e-03  t[s]:     76.45
	FillingsUpdate:  mu: -0.142064269  nElectrons: 331.000000
SCF: Cycle:  7   F: -552.126041196372512   dF: -1.576e-03   |Residual|: 1.273e-02   |deigs|: 5.586e-03  t[s]:     80.56
	FillingsUpdate:  mu: -0.137339125  nElectrons: 331.000000
SCF: Cycle:  8   F: -552.127195378001716   dF: -1.154e-03   |Residual|: 1.532e-02   |deigs|: 4.482e-03  t[s]:     84.51
	FillingsUpdate:  mu: -0.136141318  nElectrons: 331.000000
SCF: Cycle:  9   F: -552.127600868838044   dF: -4.055e-04   |Residual|: 7.853e-03   |deigs|: 1.418e-03  t[s]:     88.59
	FillingsUpdate:  mu: -0.132452334  nElectrons: 331.000000
SCF: Cycle: 10   F: -552.127906586709059   dF: -3.057e-04   |Residual|: 6.325e-03   |deigs|: 3.283e-03  t[s]:     92.49
	FillingsUpdate:  mu: -0.130800180  nElectrons: 331.000000
SCF: Cycle: 11   F: -552.127906390943849   dF: +1.958e-07   |Residual|: 5.315e-03   |deigs|: 1.451e-03  t[s]:     96.34
	FillingsUpdate:  mu: -0.126731470  nElectrons: 331.000000
SCF: Cycle: 12   F: -552.127902081714183   dF: +4.309e-06   |Residual|: 4.151e-03   |deigs|: 3.789e-03  t[s]:    100.71
	FillingsUpdate:  mu: -0.124067919  nElectrons: 331.000000
SCF: Cycle: 13   F: -552.128073375638451   dF: -1.713e-04   |Residual|: 3.895e-03   |deigs|: 2.823e-03  t[s]:    104.57
	FillingsUpdate:  mu: -0.122498488  nElectrons: 331.000000
SCF: Cycle: 14   F: -552.128091808261843   dF: -1.843e-05   |Residual|: 3.144e-03   |deigs|: 2.247e-03  t[s]:    108.40
	FillingsUpdate:  mu: -0.118924546  nElectrons: 331.000000
SCF: Cycle: 15   F: -552.128150422130489   dF: -5.861e-05   |Residual|: 2.499e-03   |deigs|: 3.709e-03  t[s]:    112.08
	FillingsUpdate:  mu: -0.117910259  nElectrons: 331.000000
SCF: Cycle: 16   F: -552.128170049997152   dF: -1.963e-05   |Residual|: 1.682e-03   |deigs|: 9.478e-04  t[s]:    115.78
	FillingsUpdate:  mu: -0.116754741  nElectrons: 331.000000
SCF: Cycle: 17   F: -552.128182537748216   dF: -1.249e-05   |Residual|: 1.262e-03   |deigs|: 1.024e-03  t[s]:    119.66
	FillingsUpdate:  mu: -0.116468279  nElectrons: 331.000000
SCF: Cycle: 18   F: -552.128186560719882   dF: -4.023e-06   |Residual|: 8.991e-04   |deigs|: 5.645e-04  t[s]:    123.40
	FillingsUpdate:  mu: -0.116386671  nElectrons: 331.000000
SCF: Cycle: 19   F: -552.128189579762420   dF: -3.019e-06   |Residual|: 4.915e-04   |deigs|: 9.756e-04  t[s]:    127.21
	FillingsUpdate:  mu: -0.116386015  nElectrons: 331.000000
SCF: Cycle: 20   F: -552.128191463810481   dF: -1.884e-06   |Residual|: 3.190e-04   |deigs|: 5.057e-04  t[s]:    131.08
	FillingsUpdate:  mu: -0.116402143  nElectrons: 331.000000
SCF: Cycle: 21   F: -552.128192166189592   dF: -7.024e-07   |Residual|: 1.847e-04   |deigs|: 3.807e-04  t[s]:    134.89
	FillingsUpdate:  mu: -0.116390025  nElectrons: 331.000000
SCF: Cycle: 22   F: -552.128192339518591   dF: -1.733e-07   |Residual|: 1.180e-04   |deigs|: 1.745e-04  t[s]:    138.69
	FillingsUpdate:  mu: -0.116365614  nElectrons: 331.000000
SCF: Cycle: 23   F: -552.128192464001131   dF: -1.245e-07   |Residual|: 7.503e-05   |deigs|: 2.883e-04  t[s]:    142.56
	FillingsUpdate:  mu: -0.116338222  nElectrons: 331.000000
SCF: Cycle: 24   F: -552.128192497537839   dF: -3.354e-08   |Residual|: 4.490e-05   |deigs|: 2.062e-04  t[s]:    146.40
	FillingsUpdate:  mu: -0.116317374  nElectrons: 331.000000
SCF: Cycle: 25   F: -552.128192514725697   dF: -1.719e-08   |Residual|: 2.759e-05   |deigs|: 2.076e-04  t[s]:    150.24
	FillingsUpdate:  mu: -0.116311872  nElectrons: 331.000000
SCF: Cycle: 26   F: -552.128192530006686   dF: -1.528e-08   |Residual|: 2.069e-05   |deigs|: 8.087e-05  t[s]:    154.44
	FillingsUpdate:  mu: -0.116311437  nElectrons: 331.000000
SCF: Cycle: 27   F: -552.128192543975274   dF: -1.397e-08   |Residual|: 1.410e-05   |deigs|: 1.194e-04  t[s]:    158.29
	FillingsUpdate:  mu: -0.116310642  nElectrons: 331.000000
SCF: Cycle: 28   F: -552.128192551032043   dF: -7.057e-09   |Residual|: 1.079e-05   |deigs|: 1.048e-04  t[s]:    162.03
	FillingsUpdate:  mu: -0.116312126  nElectrons: 331.000000
SCF: Cycle: 29   F: -552.128192556021190   dF: -4.989e-09   |Residual|: 8.894e-06   |deigs|: 4.715e-05  t[s]:    165.88
SCF: Converged (|Delta E|<1.000000e-08 for 2 iters).

Setting wave functions to eigenvectors of Hamiltonian
Vacuum energy after initial minimize, F = -552.128192556021190


-------- Electronic minimization -----------
Will mix electronic density at each iteration.
	FillingsUpdate:  mu: -0.116312126  nElectrons: 331.000000
	Linear fluid (dielectric constant: 64) occupying 0.884529 of unit cell:	Completed after 43 iterations at t[s]:    167.14
	FillingsUpdate:  mu: -0.103895381  nElectrons: 331.000000
	Linear fluid (dielectric constant: 64) occupying 0.884118 of unit cell:	Completed after 32 iterations at t[s]:    172.61
SCF: Cycle:  0   F: -552.243096674686512   dF: -2.670e-02   |Residual|: 5.912e-02   |deigs|: 2.400e-03  t[s]:    172.78
	Linear fluid (dielectric constant: 64) occupying 0.884584 of unit cell:	Completed after 31 iterations at t[s]:    173.24
	FillingsUpdate:  mu: -0.103881344  nElectrons: 331.000000
	Linear fluid (dielectric constant: 64) occupying 0.884117 of unit cell:	Completed after 31 iterations at t[s]:    178.05
SCF: Cycle:  1   F: -552.251851422127061   dF: -8.755e-03   |Residual|: 3.241e-02   |deigs|: 1.752e-03  t[s]:    178.22
	Linear fluid (dielectric constant: 64) occupying 0.884498 of unit cell:	Completed after 29 iterations at t[s]:    178.64
	FillingsUpdate:  mu: -0.103856595  nElectrons: 331.000000
	Linear fluid (dielectric constant: 64) occupying 0.884145 of unit cell:	Completed after 28 iterations at t[s]:    183.41
SCF: Cycle:  2   F: -552.255465496842362   dF: -3.614e-03   |Residual|: 1.888e-02   |deigs|: 1.376e-03  t[s]:    183.57
	Linear fluid (dielectric constant: 64) occupying 0.884290 of unit cell:	Completed after 25 iterations at t[s]:    183.96
	FillingsUpdate:  mu: -0.103797619  nElectrons: 331.000000
	Linear fluid (dielectric constant: 64) occupying 0.884140 of unit cell:	Completed after 26 iterations at t[s]:    188.74
SCF: Cycle:  3   F: -552.256349019569711   dF: -8.835e-04   |Residual|: 1.179e-02   |deigs|: 1.002e-03  t[s]:    188.91
	Linear fluid (dielectric constant: 64) occupying 0.884092 of unit cell:	Completed after 21 iterations at t[s]:    189.25
	FillingsUpdate:  mu: -0.103726046  nElectrons: 331.000000
	Linear fluid (dielectric constant: 64) occupying 0.884109 of unit cell:	Completed after 21 iterations at t[s]:    193.92
SCF: Cycle:  4   F: -552.256839884213605   dF: -4.909e-04   |Residual|: 9.054e-03   |deigs|: 1.060e-03  t[s]:    194.09
	Linear fluid (dielectric constant: 64) occupying 0.883917 of unit cell:	Completed after 21 iterations at t[s]:    194.43
	FillingsUpdate:  mu: -0.103781766  nElectrons: 331.000000
	Linear fluid (dielectric constant: 64) occupying 0.884068 of unit cell:	Completed after 20 iterations at t[s]:    199.10
SCF: Cycle:  5   F: -552.257133915437976   dF: -2.940e-04   |Residual|: 6.048e-03   |deigs|: 7.594e-04  t[s]:    199.27
	Linear fluid (dielectric constant: 64) occupying 0.883795 of unit cell:	Completed after 19 iterations at t[s]:    199.59
	FillingsUpdate:  mu: -0.103926613  nElectrons: 331.000000
	Linear fluid (dielectric constant: 64) occupying 0.884047 of unit cell:	Completed after 18 iterations at t[s]:    204.25
SCF: Cycle:  6   F: -552.257222840136706   dF: -8.892e-05   |Residual|: 3.965e-03   |deigs|: 5.209e-04  t[s]:    204.41
	Linear fluid (dielectric constant: 64) occupying 0.883731 of unit cell:	Completed after 16 iterations at t[s]:    204.71
	FillingsUpdate:  mu: -0.104115041  nElectrons: 331.000000
	Linear fluid (dielectric constant: 64) occupying 0.884045 of unit cell:	Completed after 15 iterations at t[s]:    208.77
SCF: Cycle:  7   F: -552.257269384398001   dF: -4.654e-05   |Residual|: 2.936e-03   |deigs|: 6.518e-04  t[s]:    208.93
	Linear fluid (dielectric constant: 64) occupying 0.883803 of unit cell:	Completed after 12 iterations at t[s]:    209.19
	FillingsUpdate:  mu: -0.104297233  nElectrons: 331.000000
	Linear fluid (dielectric constant: 64) occupying 0.884060 of unit cell:	Completed after 12 iterations at t[s]:    213.25
SCF: Cycle:  8   F: -552.257295712503606   dF: -2.633e-05   |Residual|: 1.998e-03   |deigs|: 7.035e-04  t[s]:    213.42
	Linear fluid (dielectric constant: 64) occupying 0.883897 of unit cell:	Completed after 10 iterations at t[s]:    213.65
	FillingsUpdate:  mu: -0.104341513  nElectrons: 331.000000
	Linear fluid (dielectric constant: 64) occupying 0.884068 of unit cell:	Completed after 10 iterations at t[s]:    217.68
SCF: Cycle:  9   F: -552.257302619983307   dF: -6.907e-06   |Residual|: 1.577e-03   |deigs|: 4.452e-04  t[s]:    217.85
	Linear fluid (dielectric constant: 64) occupying 0.883988 of unit cell:	Completed after 8 iterations at t[s]:    218.05
	FillingsUpdate:  mu: -0.104364033  nElectrons: 331.000000
	Linear fluid (dielectric constant: 64) occupying 0.884075 of unit cell:	Completed after 8 iterations at t[s]:    222.06
SCF: Cycle: 10   F: -552.257304900441227   dF: -2.280e-06   |Residual|: 1.229e-03   |deigs|: 6.170e-04  t[s]:    222.23
	Linear fluid (dielectric constant: 64) occupying 0.884031 of unit cell:	Completed after 8 iterations at t[s]:    222.42
	FillingsUpdate:  mu: -0.104353410  nElectrons: 331.000000
	Linear fluid (dielectric constant: 64) occupying 0.884078 of unit cell:	Completed after 5 iterations at t[s]:    226.38
SCF: Cycle: 11   F: -552.257306430836820   dF: -1.530e-06   |Residual|: 9.426e-04   |deigs|: 3.338e-04  t[s]:    226.54
	Linear fluid (dielectric constant: 64) occupying 0.884049 of unit cell:	Completed after 6 iterations at t[s]:    226.71
	FillingsUpdate:  mu: -0.104368451  nElectrons: 331.000000
	Linear fluid (dielectric constant: 64) occupying 0.884084 of unit cell:	Completed after 6 iterations at t[s]:    230.69
SCF: Cycle: 12   F: -552.257305684324024   dF: +7.465e-07   |Residual|: 8.921e-04   |deigs|: 3.280e-04  t[s]:    230.85
	Linear fluid (dielectric constant: 64) occupying 0.884047 of unit cell:	Completed after 5 iterations at t[s]:    231.01
	FillingsUpdate:  mu: -0.104381418  nElectrons: 331.000000
	Linear fluid (dielectric constant: 64) occupying 0.884086 of unit cell:	Completed after 5 iterations at t[s]:    234.98
SCF: Cycle: 13   F: -552.257304850804417   dF: +8.335e-07   |Residual|: 8.066e-04   |deigs|: 2.568e-04  t[s]:    235.14
	Linear fluid (dielectric constant: 64) occupying 0.884052 of unit cell:	Completed after 5 iterations at t[s]:    235.30
	FillingsUpdate:  mu: -0.104395788  nElectrons: 331.000000
	Linear fluid (dielectric constant: 64) occupying 0.884088 of unit cell:	Completed after 4 iterations at t[s]:    239.22
SCF: Cycle: 14   F: -552.257305312972790   dF: -4.622e-07   |Residual|: 6.850e-04   |deigs|: 3.037e-04  t[s]:    239.38
	Linear fluid (dielectric constant: 64) occupying 0.884063 of unit cell:	Completed after 5 iterations at t[s]:    239.55
	FillingsUpdate:  mu: -0.104404969  nElectrons: 331.000000
	Linear fluid (dielectric constant: 64) occupying 0.884089 of unit cell:	Completed after 4 iterations at t[s]:    243.52
SCF: Cycle: 15   F: -552.257306266863111   dF: -9.539e-07   |Residual|: 5.929e-04   |deigs|: 1.924e-04  t[s]:    243.67
	Linear fluid (dielectric constant: 64) occupying 0.884081 of unit cell:	Completed after 4 iterations at t[s]:    243.82
	FillingsUpdate:  mu: -0.104423091  nElectrons: 331.000000
	Linear fluid (dielectric constant: 64) occupying 0.884090 of unit cell:	Completed after 3 iterations at t[s]:    247.76
SCF: Cycle: 16   F: -552.257307464645010   dF: -1.198e-06   |Residual|: 4.227e-04   |deigs|: 2.867e-04  t[s]:    247.91
	Linear fluid (dielectric constant: 64) occupying 0.884089 of unit cell:	Completed after 3 iterations at t[s]:    248.05
	FillingsUpdate:  mu: -0.104428199  nElectrons: 331.000000
	Linear fluid (dielectric constant: 64) occupying 0.884091 of unit cell:	Completed after 1 iterations at t[s]:    251.98
SCF: Cycle: 17   F: -552.257308203136176   dF: -7.385e-07   |Residual|: 3.081e-04   |deigs|: 3.483e-04  t[s]:    252.12
	Linear fluid (dielectric constant: 64) occupying 0.884087 of unit cell:	Completed after 1 iterations at t[s]:    252.24
	FillingsUpdate:  mu: -0.104439182  nElectrons: 331.000000
	Linear fluid (dielectric constant: 64) occupying 0.884092 of unit cell:	Completed after 1 iterations at t[s]:    256.14
SCF: Cycle: 18   F: -552.257308785135592   dF: -5.820e-07   |Residual|: 2.583e-04   |deigs|: 1.952e-04  t[s]:    256.28
	Linear fluid (dielectric constant: 64) occupying 0.884083 of unit cell:	Completed after 3 iterations at t[s]:    256.42
	FillingsUpdate:  mu: -0.104437317  nElectrons: 331.000000
	Linear fluid (dielectric constant: 64) occupying 0.884092 of unit cell:	Completed after 1 iterations at t[s]:    260.31
SCF: Cycle: 19   F: -552.257309097323059   dF: -3.122e-07   |Residual|: 3.123e-04   |deigs|: 2.039e-04  t[s]:    260.45
	Linear fluid (dielectric constant: 64) occupying 0.884086 of unit cell:	Completed after 0 iterations at t[s]:    260.56
	FillingsUpdate:  mu: -0.104438086  nElectrons: 331.000000
	Linear fluid (dielectric constant: 64) occupying 0.884092 of unit cell:	Completed after 0 iterations at t[s]:    264.39
SCF: Cycle: 20   F: -552.257309146170996   dF: -4.885e-08   |Residual|: 2.166e-04   |deigs|: 6.797e-05  t[s]:    264.53
	Linear fluid (dielectric constant: 64) occupying 0.884088 of unit cell:	Completed after 0 iterations at t[s]:    264.62
	FillingsUpdate:  mu: -0.104447945  nElectrons: 331.000000
	Linear fluid (dielectric constant: 64) occupying 0.884092 of unit cell:	Completed after 0 iterations at t[s]:    268.50
SCF: Cycle: 21   F: -552.257309272080647   dF: -1.259e-07   |Residual|: 1.507e-04   |deigs|: 8.993e-05  t[s]:    268.63
	Linear fluid (dielectric constant: 64) occupying 0.884093 of unit cell:	Completed after 0 iterations at t[s]:    268.72
	FillingsUpdate:  mu: -0.104447777  nElectrons: 331.000000
	Linear fluid (dielectric constant: 64) occupying 0.884092 of unit cell:	Completed after 1 iterations at t[s]:    272.57
SCF: Cycle: 22   F: -552.257309341752944   dF: -6.967e-08   |Residual|: 1.126e-04   |deigs|: 1.796e-04  t[s]:    272.71
	Linear fluid (dielectric constant: 64) occupying 0.884095 of unit cell:	Completed after 0 iterations at t[s]:    272.81
	FillingsUpdate:  mu: -0.104449590  nElectrons: 331.000000
	Linear fluid (dielectric constant: 64) occupying 0.884092 of unit cell:	Completed after 0 iterations at t[s]:    276.68
SCF: Cycle: 23   F: -552.257309434056765   dF: -9.230e-08   |Residual|: 1.339e-04   |deigs|: 1.052e-04  t[s]:    276.81
	Linear fluid (dielectric constant: 64) occupying 0.884095 of unit cell:	Completed after 0 iterations at t[s]:    276.90
	FillingsUpdate:  mu: -0.104449726  nElectrons: 331.000000
	Linear fluid (dielectric constant: 64) occupying 0.884092 of unit cell:	Completed after 0 iterations at t[s]:    280.56
SCF: Cycle: 24   F: -552.257309450409934   dF: -1.635e-08   |Residual|: 9.498e-05   |deigs|: 2.323e-05  t[s]:    280.69
	Linear fluid (dielectric constant: 64) occupying 0.884093 of unit cell:	Completed after 0 iterations at t[s]:    280.78
	FillingsUpdate:  mu: -0.104450059  nElectrons: 331.000000
	Linear fluid (dielectric constant: 64) occupying 0.884092 of unit cell:	Completed after 0 iterations at t[s]:    285.21
SCF: Cycle: 25   F: -552.257309496410926   dF: -4.600e-08   |Residual|: 3.956e-05   |deigs|: 1.932e-04  t[s]:    285.33
	Linear fluid (dielectric constant: 64) occupying 0.884093 of unit cell:	Completed after 0 iterations at t[s]:    285.43
	FillingsUpdate:  mu: -0.104449958  nElectrons: 331.000000
	Linear fluid (dielectric constant: 64) occupying 0.884092 of unit cell:	Completed after 1 iterations at t[s]:    289.30
SCF: Cycle: 26   F: -552.257309452040772   dF: +4.437e-08   |Residual|: 3.930e-05   |deigs|: 1.089e-04  t[s]:    289.44
	Linear fluid (dielectric constant: 64) occupying 0.884092 of unit cell:	Completed after 0 iterations at t[s]:    289.53
	FillingsUpdate:  mu: -0.104447184  nElectrons: 331.000000
	Linear fluid (dielectric constant: 64) occupying 0.884092 of unit cell:	Completed after 0 iterations at t[s]:    293.41
SCF: Cycle: 27   F: -552.257309502034332   dF: -4.999e-08   |Residual|: 1.085e-04   |deigs|: 8.962e-05  t[s]:    293.53
	Linear fluid (dielectric constant: 64) occupying 0.884092 of unit cell:	Completed after 0 iterations at t[s]:    293.63
	FillingsUpdate:  mu: -0.104447190  nElectrons: 331.000000
	Linear fluid (dielectric constant: 64) occupying 0.884092 of unit cell:	Completed after 0 iterations at t[s]:    297.47
SCF: Cycle: 28   F: -552.257309502463386   dF: -4.291e-10   |Residual|: 9.724e-05   |deigs|: 5.006e-06  t[s]:    297.59
	Linear fluid (dielectric constant: 64) occupying 0.884092 of unit cell:	Completed after 0 iterations at t[s]:    297.69
	FillingsUpdate:  mu: -0.104447181  nElectrons: 331.000000
	Linear fluid (dielectric constant: 64) occupying 0.884092 of unit cell:	Completed after 0 iterations at t[s]:    301.54
SCF: Cycle: 29   F: -552.257309504423120   dF: -1.960e-09   |Residual|: 9.797e-05   |deigs|: 1.961e-05  t[s]:    301.67
SCF: Converged (|Delta E|<1.000000e-08 for 2 iters).

Setting wave functions to eigenvectors of Hamiltonian
Single-point solvation energy estimate, DeltaF = -0.129116948401929

Computing DFT-D3 correction:
# coordination-number C 3.300 3.300 3.301 3.300 3.301 3.300 3.300 3.301 3.296 3.300 3.311 3.293 3.300 3.300 3.302 3.315 3.448 3.300 3.356 3.441 3.304 3.494 3.615 3.303 3.300 3.300 3.300 3.368 3.300 3.300 3.288 3.300 3.300 3.287 3.300 3.300 3.300 3.300 3.302 3.317 3.300 3.321 3.304 3.300 3.304 3.325 3.301 3.326 3.336 3.300 3.300 3.300 3.300 3.478 3.800 3.301 3.335 3.495 3.331 3.300 3.300 3.299 3.300 3.301 3.298 3.300 3.300 3.300 3.300 3.300 3.300
# coordination-number N 3.220
# coordination-number S 2.926 3.102 3.109 2.935
# coordination-number Na 4.558 4.407
# diagonal-C6 C 24.28 24.28 24.27 24.29 24.27 24.28 24.29 24.27 24.32 24.28 24.18 24.35 24.28 24.28 24.26 24.14 22.41 24.28 23.67 22.51 24.25 21.73 20.10 24.26 24.28 24.28 24.28 23.53 24.29 24.29 24.40 24.29 24.28 24.40 24.29 24.28 24.28 24.29 24.27 24.11 24.28 24.07 24.25 24.29 24.25 24.03 24.27 24.02 23.91 24.28 24.28 24.28 24.28 21.97 18.75 24.27 23.92 21.72 23.97 24.29 24.28 24.29 24.29 24.28 24.30 24.28 24.28 24.28 24.29 24.29 24.29
# diagonal-C6 N 15.60
# diagonal-C6 S 125.81 125.81 125.81 125.81
# diagonal-C6 Na 186.11 186.11
EvdW_6 =   -0.063707
EvdW_8 =   -0.056461

# Ionic positions in cartesian coordinates:
ion C -14.002918197300012  24.253758582300001   2.000000000000000 0
ion C  -2.333816550000000   4.042302545699999   2.000000000000000 0
ion C  11.669101647300000  20.211493831199999   2.000000000000000 0
ion C  -9.335266200000008  24.253758582300001   2.000000000000000 0
ion C   9.335303994599993  24.253758582300001   2.000000000000000 0
ion C   2.333816549999999   4.042302545699999   2.000000000000000 0
ion C -11.669120544600000  20.211493831199999   2.000000000000000 0
ion C  -4.667651997299999   8.084605091399998   2.000000000000000 0
ion C   9.335285097299998  16.169191285499998   2.000000000000000 0
ion C  -4.667614202700010  24.253758582300001   2.000000000000000 0
ion C   4.667651997299995  24.253758582300001   2.000000000000000 0
ion C   4.667651997299999   8.084605091399998   2.000000000000000 0
ion C  -9.335303994599998  16.169191285499998   2.000000000000000 0
ion C  -7.001468547300001  12.126907637100000   2.000000000000000 0
ion C   0.000037794599988  24.253758582300001   2.000000000000000 0
ion C   0.000000000000000   8.084605091399998   2.000000000000000 0
ion C   7.001449650000005  20.211493831199999   2.000000000000000 0
ion C  -7.001468547300000  20.211493831199999   2.000000000000000 0
ion C  -2.333816549999999  12.126907637100000   2.000000000000000 0
ion C   4.667633100000000  16.169191285499998   2.000000000000000 0
ion C  -2.333816549999993  20.211493831199999   2.000000000000000 0
ion C   2.333835447300000  20.211493831199999   2.000000000000000 0
ion C   2.333835447299999  12.126907637100000   2.000000000000000 0
ion C  -4.667651997299999  16.169191285499998   2.000000000000000 0
ion C   7.001449650000000   4.042302545699999   2.000000000000000 0
ion C  21.004386744600001   4.042302545699999   2.000000000000000 0
ion C  14.002937094600000  16.169191285499998   2.000000000000000 0
ion C   0.000000000000000  16.169191285499998   2.000000000000000 0
ion C  11.669101647300000   4.042302545699999   2.000000000000000 0
ion C  18.670589091899998   8.084605091399998   2.000000000000000 0
ion C  11.669101647300000  12.126907637100000   2.000000000000000 0
ion C  16.336753644600002  12.126907637100000   2.000000000000000 0
ion C  16.336753644600002   4.042302545699999   2.000000000000000 0
ion C   9.335285097300002   8.084605091399998   2.000000000000000 0
ion C  14.002937094600000   8.084605091399998   2.000000000000000 0
ion C   0.000018897300000   2.694868363800000   2.000000000000000 0
ion C  11.669120544600000  22.906362195000000   2.000000000000000 0
ion C -11.669120544600002  22.906362195000000   2.000000000000000 0
ion C  -2.333816549999999   6.737152012199999   2.000000000000000 0
ion C   9.335285097299998  18.864059649300000   2.000000000000000 0
ion C  -7.001468547300003  22.906362195000000   2.000000000000000 0
ion C   7.001468547300002  22.906362195000000   2.000000000000000 0
ion C   2.333816550000000   6.737152012199999   2.000000000000000 0
ion C  -9.335285097299998  18.864059649300000   2.000000000000000 0
ion C  -4.667633100000000  10.779454557899999   2.000000000000000 0
ion C   7.001468547300002  14.821757103600000   2.000000000000000 0
ion C  -2.333835447300000  22.906362195000000   2.000000000000000 0
ion C   2.333816550000000  22.906362195000000   2.000000000000000 0
ion C   4.667633100000000  10.779454557899999   2.000000000000000 0
ion C  -7.001468547300001  14.821757103600000   2.000000000000000 0
ion C   4.667633100000003   2.694868363800000   2.000000000000000 0
ion C  23.338222191900002   2.694868363800000   2.000000000000000 0
ion C  14.002918197300001  18.864059649300000   2.000000000000000 0
ion C   0.000018897300000  10.779454557899999   2.000000000000000 0
ion C   4.667633100000000  18.864059649300000   2.000000000000000 0
ion C  -4.667633099999995  18.864059649300000   2.000000000000000 0
ion C  -2.333816550000000  14.821757103600000   2.000000000000000 0
ion C   2.333816550000000  14.821757103600000   2.000000000000000 0
ion C  -0.000018897299999  18.864059649300000   2.000000000000000 0
ion C   9.335285097300000   2.694868363800000   2.000000000000000 0
ion C  21.004386744599998   6.737152012199999   2.000000000000000 0
ion C  11.669120544600002  14.821757103600000   2.000000000000000 0
ion C  16.336734747299992  14.821757103600000   2.000000000000000 0
ion C  18.670570194600000   2.694868363800000   2.000000000000000 0
ion C   7.001468547300000   6.737152012199999   2.000000000000000 0
ion C  14.002937094600002   2.694868363800000   2.000000000000000 0
ion C  18.670570194600000  10.779454557899999   2.000000000000000 0
ion C   9.335285097300000  10.779454557899999   2.000000000000000 0
ion C  11.669120544600000   6.737152012199999   2.000000000000000 0
ion C  16.336734747299989   6.737152012199999   2.000000000000000 0
ion C  14.002937094600000  10.779454557899999   2.000000000000000 0
ion N   7.001449650000002  12.126907637100000   2.000000000000000 0
ion S   6.174936078686164  14.158273753493756   8.435162547173919 1
ion S   4.299376190579984  14.128976221550239  11.844917646593295 1
ion S   1.962487620754862  17.370522428336109  12.085625345598377 1
ion S  -0.280463044931450  17.577631338407290   8.914025920905317 1
ion Na   4.498273710148059  19.025105375745152   7.415170109618058 1
ion Na   1.183859805568671  12.781829323736760   7.519584204589894 1

# Forces in Cartesian coordinates:
force C   0.001590907799276  -0.000873977422565   0.000032930699964 0
force C   0.000563376790252  -0.000067211081463   0.000038275705488 0
force C   0.001420632775704  -0.001153842571753   0.000105802030111 0
force C   0.000802835217480   0.001102458119871   0.000023194367082 0
force C   0.000395228330763  -0.000386365087764   0.000083357374545 0
force C   0.001713630854565  -0.000661497769468   0.000053168011201 0
force C  -0.000533815926611  -0.001243088598434   0.000024820530872 0
force C   0.000240196246034   0.000323644103709   0.000071478754966 0
force C  -0.002846654396535  -0.009956844221384   0.000049826807205 0
force C  -0.000897683161879   0.001052557502185   0.000054125711785 0
force C  -0.000279169242530  -0.000262596721615   0.000110191031582 0
force C   0.007078385979038   0.007568979509514   0.000132966451609 0
force C  -0.001355153542126   0.000280967573025   0.000043154949162 0
force C  -0.000030274989902   0.001804607629391   0.000084574256314 0
force C  -0.001660161305394  -0.000881959068600   0.000183772328835 0
force C   0.000560972438314   0.000254533218873   0.000081561078459 0
force C   0.000747445791637  -0.000263795477750  -0.001797662423944 0
force C   0.000064866616538  -0.000028001723439   0.000054444233773 0
force C  -0.000135644871307   0.001667607618636  -0.000904120258988 0
force C   0.003033588584120  -0.010080971936963  -0.002477662498548 0
force C   0.000600500380830  -0.001286225766828   0.000108518459425 0
force C  -0.002268369471266  -0.000705826778702  -0.003030148537573 0
force C   0.010335615839711   0.001704938558969  -0.004178479830923 0
force C   0.001300144965738   0.000224467898815   0.000142634102241 0
force C  -0.000022692353997   0.005288116644583   0.000035349464676 0
force C   0.000071307225153  -0.000025850481814   0.000032189982463 0
force C  -0.004644933795942  -0.002628293960118   0.000059655092543 0
force C   0.004240884898368  -0.002275806699835  -0.001336651764366 0
force C  -0.001771617472821  -0.000669236829667   0.000028790663740 0
force C  -0.000260441167911   0.000424000160266   0.000023213669894 0
force C  -0.009865957559611   0.002479448728126   0.000122659390304 0
force C  -0.000314383839867   0.001838902346386   0.000023323988978 0
force C  -0.000530229789965  -0.000013098279912   0.000033474146092 0
force C  -0.007097191772368   0.007322896369854   0.000117017922942 0
force C  -0.000537635938237   0.000268617562930   0.000027428439721 0
force C  -0.000600272310002   0.000726033603803   0.000026970705085 0
force C  -0.000928751043513   0.000124834733880   0.000059829581524 0
force C  -0.001794382578827   0.001028819023100   0.000021460674471 0
force C  -0.000316089013852  -0.000115051190000   0.000085728602529 0
force C  -0.004697713829437   0.000979707342112  -0.000042535927548 0
force C   0.000069183410074  -0.000123866680037   0.000037855416319 0
force C   0.000024616421970   0.000079420261332  -0.000025411139397 0
force C  -0.003040842657687   0.003526445647364   0.000135509182202 0
force C   0.000114571427916  -0.000012662697713   0.000029403368856 0
force C   0.000295359338046  -0.000805351942648   0.000131969986605 0
force C   0.000467262695287  -0.007052944427351  -0.000332938162794 0
force C   0.001859084351708   0.000972302735637   0.000145646947638 0
force C   0.000812073621880  -0.000000227321491  -0.000104360190230 0
force C   0.006364518217892   0.003174883410275  -0.000514563614597 0
force C   0.000046424511142  -0.002098481693424   0.000070648761556 0
force C  -0.001801239427693  -0.000808518421467   0.000026051008834 0
force C  -0.000696664961783   0.000403635612270   0.000040672662644 0
force C  -0.000176831778427   0.001942592098789   0.000063856265801 0
force C   0.001418467494458  -0.004994052431488  -0.002374340454161 0
force C   0.004680915071201   0.000762728769799  -0.005076864521597 0
force C  -0.000165143425019   0.000105347054500   0.000167351047548 0
force C  -0.002048465722426  -0.001031189896248  -0.000655831048180 0
force C  -0.005041292050077   0.003545951897184  -0.003148666608859 0
force C   0.000058784520297   0.002442710435313  -0.000592008895143 0
force C   0.001911567423887  -0.000736803525018   0.000027171310100 0
force C  -0.000047032358315  -0.000657014957339   0.000034058773163 0
force C   0.005271109618786   0.002889487847743   0.000071875895813 0
force C   0.001589467789843  -0.001283020821591   0.000030939409652 0
force C   0.000565369820098   0.000385143507548   0.000074013350604 0
force C   0.000144710650623  -0.005985175836100   0.000107785854504 0
force C   0.000591318492865   0.000761863543953   0.000046398789128 0
force C  -0.000372545225411  -0.000872842214979   0.000031695432967 0
force C  -0.006165625394619   0.003577375752910   0.000027092277730 0
force C   0.003053041605492   0.003683561932387   0.000037040059684 0
force C   0.000205144952763  -0.000076398069891   0.000025783318752 0
force C  -0.001677158906375  -0.004416738722634   0.000041811442997 0
force N   0.000227036231371  -0.000233091542688  -0.000328719250138 0
force S   0.008310728968258  -0.005939415194743   0.008840128780126 1
force S   0.004747954435614   0.000978130073218   0.001041203674305 1
force S  -0.004270450191205  -0.000720529440250   0.001593449678447 1
force S  -0.007889951526776   0.005716308426686   0.009895927331875 1
force Na   0.009865304777555   0.016871093045900   0.001544380543191 1
force Na  -0.010584311895470  -0.016888951021850   0.001268741183400 1

# Energy components:
   A_diel =       -0.1873319346542345
   Eewald =     4953.6439585596499455
       EH =     5384.2123045045982508
     Eloc =   -10929.3230864039578591
      Enl =      -78.1605789638909414
     EvdW =       -0.1201678887155219
      Exc =     -162.8147599647715538
 Exc_core =        9.5505266921321361
       KE =      271.0070625415291374
-------------------------------------
     Etot =     -552.1920728580805644
       TS =        0.0652366463425153
-------------------------------------
        F =     -552.2573095044231195

IonicMinimize: Iter:   0  F: -552.257309504423120  |grad|_K:  8.180e-03  alpha:  1.000e+00

#--- Lowdin population analysis ---
# oxidation-state C +0.032 +0.033 +0.034 +0.032 +0.032 +0.035 +0.032 +0.032 +0.026 +0.032 +0.031 +0.026 +0.032 +0.032 +0.032 +0.032 +0.031 +0.028 +0.032 +0.019 +0.032 +0.031 +0.020 +0.032 +0.030 +0.029 +0.030 +0.024 +0.035 +0.033 +0.028 +0.035 +0.033 +0.028 +0.034 +0.033 +0.032 +0.034 +0.032 +0.034 +0.033 +0.030 +0.034 +0.033 +0.032 +0.143 +0.034 +0.031 +0.146 +0.034 +0.035 +0.031 +0.035 +0.033 +0.025 +0.033 +0.032 +0.030 +0.033 +0.035 +0.032 +0.044 +0.036 +0.031 +0.044 +0.033 +0.033 +0.149 +0.036 +0.033 +0.036
# oxidation-state N +0.011
# oxidation-state S -0.538 +0.020 +0.020 -0.533
# oxidation-state Na +0.858 +0.858


Computing DFT-D3 correction:
# coordination-number C 3.300 3.300 3.301 3.300 3.301 3.300 3.300 3.301 3.296 3.300 3.311 3.293 3.300 3.300 3.302 3.315 3.450 3.300 3.357 3.439 3.304 3.494 3.614 3.303 3.300 3.300 3.300 3.367 3.300 3.300 3.288 3.300 3.300 3.287 3.300 3.300 3.300 3.300 3.302 3.317 3.300 3.322 3.304 3.300 3.304 3.324 3.301 3.326 3.336 3.300 3.300 3.300 3.300 3.481 3.799 3.301 3.335 3.491 3.330 3.300 3.300 3.299 3.300 3.301 3.298 3.300 3.300 3.300 3.300 3.300 3.300
# coordination-number N 3.220
# coordination-number S 2.915 3.092 3.097 2.925
# coordination-number Na 4.513 4.362
# diagonal-C6 C 24.28 24.28 24.27 24.29 24.27 24.28 24.29 24.27 24.32 24.28 24.17 24.35 24.28 24.28 24.26 24.14 22.39 24.28 23.66 22.56 24.25 21.74 20.11 24.26 24.28 24.28 24.28 23.54 24.29 24.29 24.40 24.29 24.28 24.40 24.29 24.28 24.28 24.29 24.27 24.11 24.28 24.06 24.25 24.29 24.25 24.04 24.27 24.02 23.91 24.28 24.28 24.28 24.28 21.93 18.75 24.27 23.92 21.77 23.97 24.29 24.28 24.29 24.29 24.28 24.30 24.28 24.28 24.28 24.29 24.29 24.29
# diagonal-C6 N 15.60
# diagonal-C6 S 125.81 125.81 125.81 125.81
# diagonal-C6 Na 186.11 186.11
EvdW_6 =   -0.063709
EvdW_8 =   -0.056506

-------- Electronic minimization -----------
Will mix electronic density at each iteration.
	FillingsUpdate:  mu: -0.104447181  nElectrons: 331.000000
	Linear fluid (dielectric constant: 64) occupying 0.884058 of unit cell:	Completed after 18 iterations at t[s]:    309.92
	FillingsUpdate:  mu: -0.104342304  nElectrons: 331.000000
	Linear fluid (dielectric constant: 64) occupying 0.884051 of unit cell:	Completed after 12 iterations at t[s]:    314.72
SCF: Cycle:  0   F: -552.258472702067706   dF: -2.565e-05   |Residual|: 2.544e-03   |deigs|: 4.046e-06  t[s]:    314.89
	Linear fluid (dielectric constant: 64) occupying 0.884058 of unit cell:	Completed after 11 iterations at t[s]:    315.13
	FillingsUpdate:  mu: -0.104371122  nElectrons: 331.000000
	Linear fluid (dielectric constant: 64) occupying 0.884056 of unit cell:	Completed after 5 iterations at t[s]:    318.05
SCF: Cycle:  1   F: -552.258488214816907   dF: -1.551e-05   |Residual|: 1.047e-03   |deigs|: 6.136e-05  t[s]:    318.21
	Linear fluid (dielectric constant: 64) occupying 0.884057 of unit cell:	Completed after 3 iterations at t[s]:    318.34
	FillingsUpdate:  mu: -0.104376081  nElectrons: 331.000000
	Linear fluid (dielectric constant: 64) occupying 0.884056 of unit cell:	Completed after 4 iterations at t[s]:    321.23
SCF: Cycle:  2   F: -552.258489494495052   dF: -1.280e-06   |Residual|: 4.059e-04   |deigs|: 1.870e-05  t[s]:    321.39
	Linear fluid (dielectric constant: 64) occupying 0.884056 of unit cell:	Completed after 2 iterations at t[s]:    321.50
	FillingsUpdate:  mu: -0.104377097  nElectrons: 331.000000
	Linear fluid (dielectric constant: 64) occupying 0.884057 of unit cell:	Completed after 2 iterations at t[s]:    324.34
SCF: Cycle:  3   F: -552.258489708676507   dF: -2.142e-07   |Residual|: 2.366e-04   |deigs|: 1.682e-05  t[s]:    324.48
	Linear fluid (dielectric constant: 64) occupying 0.884055 of unit cell:	Completed after 1 iterations at t[s]:    324.59
	FillingsUpdate:  mu: -0.104377683  nElectrons: 331.000000
	Linear fluid (dielectric constant: 64) occupying 0.884056 of unit cell:	Completed after 0 iterations at t[s]:    327.41
SCF: Cycle:  4   F: -552.258489782883771   dF: -7.421e-08   |Residual|: 1.475e-04   |deigs|: 1.673e-05  t[s]:    327.54
	Linear fluid (dielectric constant: 64) occupying 0.884054 of unit cell:	Completed after 0 iterations at t[s]:    327.64
	FillingsUpdate:  mu: -0.104381085  nElectrons: 331.000000
	Linear fluid (dielectric constant: 64) occupying 0.884056 of unit cell:	Completed after 0 iterations at t[s]:    331.44
SCF: Cycle:  5   F: -552.258489876339922   dF: -9.346e-08   |Residual|: 1.125e-04   |deigs|: 1.915e-05  t[s]:    331.58
	Linear fluid (dielectric constant: 64) occupying 0.884054 of unit cell:	Completed after 0 iterations at t[s]:    331.68
	FillingsUpdate:  mu: -0.104382360  nElectrons: 331.000000
	Linear fluid (dielectric constant: 64) occupying 0.884056 of unit cell:	Completed after 2 iterations at t[s]:    335.51
SCF: Cycle:  6   F: -552.258489794221305   dF: +8.212e-08   |Residual|: 1.027e-04   |deigs|: 1.768e-05  t[s]:    335.66
	Linear fluid (dielectric constant: 64) occupying 0.884055 of unit cell:	Completed after 0 iterations at t[s]:    335.76
	FillingsUpdate:  mu: -0.104379836  nElectrons: 331.000000
	Linear fluid (dielectric constant: 64) occupying 0.884056 of unit cell:	Completed after 0 iterations at t[s]:    339.49
SCF: Cycle:  7   F: -552.258489810183164   dF: -1.596e-08   |Residual|: 1.015e-04   |deigs|: 2.813e-05  t[s]:    339.62
	Linear fluid (dielectric constant: 64) occupying 0.884055 of unit cell:	Completed after 0 iterations at t[s]:    339.72
	FillingsUpdate:  mu: -0.104375956  nElectrons: 331.000000
	Linear fluid (dielectric constant: 64) occupying 0.884056 of unit cell:	Completed after 0 iterations at t[s]:    343.54
SCF: Cycle:  8   F: -552.258489821947705   dF: -1.176e-08   |Residual|: 6.909e-05   |deigs|: 1.458e-05  t[s]:    343.67
	Linear fluid (dielectric constant: 64) occupying 0.884056 of unit cell:	Completed after 0 iterations at t[s]:    343.76
	FillingsUpdate:  mu: -0.104375597  nElectrons: 331.000000
	Linear fluid (dielectric constant: 64) occupying 0.884056 of unit cell:	Completed after 0 iterations at t[s]:    348.19
SCF: Cycle:  9   F: -552.258489867463595   dF: -4.552e-08   |Residual|: 5.689e-05   |deigs|: 6.833e-05  t[s]:    348.31
	Linear fluid (dielectric constant: 64) occupying 0.884056 of unit cell:	Completed after 0 iterations at t[s]:    348.41
	FillingsUpdate:  mu: -0.104375484  nElectrons: 331.000000
	Linear fluid (dielectric constant: 64) occupying 0.884057 of unit cell:	Completed after 0 iterations at t[s]:    352.24
SCF: Cycle: 10   F: -552.258489848944123   dF: +1.852e-08   |Residual|: 7.535e-05   |deigs|: 2.883e-05  t[s]:    352.37
	Linear fluid (dielectric constant: 64) occupying 0.884056 of unit cell:	Completed after 0 iterations at t[s]:    352.47
	FillingsUpdate:  mu: -0.104379150  nElectrons: 331.000000
	Linear fluid (dielectric constant: 64) occupying 0.884056 of unit cell:	Completed after 0 iterations at t[s]:    355.26
SCF: Cycle: 11   F: -552.258489848027580   dF: +9.165e-10   |Residual|: 5.505e-05   |deigs|: 9.993e-06  t[s]:    355.39
	Linear fluid (dielectric constant: 64) occupying 0.884056 of unit cell:	Completed after 0 iterations at t[s]:    355.48
	FillingsUpdate:  mu: -0.104378765  nElectrons: 331.000000
	Linear fluid (dielectric constant: 64) occupying 0.884057 of unit cell:	Completed after 0 iterations at t[s]:    359.82
SCF: Cycle: 12   F: -552.258489858779740   dF: -1.075e-08   |Residual|: 7.025e-05   |deigs|: 5.566e-05  t[s]:    359.95
	Linear fluid (dielectric constant: 64) occupying 0.884056 of unit cell:	Completed after 1 iterations at t[s]:    360.07
	FillingsUpdate:  mu: -0.104380112  nElectrons: 331.000000
	Linear fluid (dielectric constant: 64) occupying 0.884057 of unit cell:	Completed after 3 iterations at t[s]:    363.98
SCF: Cycle: 13   F: -552.258489672006590   dF: +1.868e-07   |Residual|: 2.996e-04   |deigs|: 3.427e-05  t[s]:    364.13
	Linear fluid (dielectric constant: 64) occupying 0.884056 of unit cell:	Completed after 3 iterations at t[s]:    364.27
	FillingsUpdate:  mu: -0.104379506  nElectrons: 331.000000
	Linear fluid (dielectric constant: 64) occupying 0.884057 of unit cell:	Completed after 3 iterations at t[s]:    367.14
SCF: Cycle: 14   F: -552.258489575204635   dF: +9.680e-08   |Residual|: 3.907e-04   |deigs|: 1.064e-05  t[s]:    367.29
	Linear fluid (dielectric constant: 64) occupying 0.884056 of unit cell:	Completed after 3 iterations at t[s]:    367.43
	FillingsUpdate:  mu: -0.104380209  nElectrons: 331.000000
	Linear fluid (dielectric constant: 64) occupying 0.884057 of unit cell:	Completed after 2 iterations at t[s]:    370.28
SCF: Cycle: 15   F: -552.258489690860756   dF: -1.157e-07   |Residual|: 3.494e-04   |deigs|: 9.244e-06  t[s]:    370.43
	Linear fluid (dielectric constant: 64) occupying 0.884056 of unit cell:	Completed after 1 iterations at t[s]:    370.54
	FillingsUpdate:  mu: -0.104379480  nElectrons: 331.000000
	Linear fluid (dielectric constant: 64) occupying 0.884056 of unit cell:	Completed after 0 iterations at t[s]:    373.35
SCF: Cycle: 16   F: -552.258489832142800   dF: -1.413e-07   |Residual|: 1.535e-04   |deigs|: 1.651e-05  t[s]:    373.49
	Linear fluid (dielectric constant: 64) occupying 0.884056 of unit cell:	Completed after 0 iterations at t[s]:    373.59
	FillingsUpdate:  mu: -0.104379235  nElectrons: 331.000000
	Linear fluid (dielectric constant: 64) occupying 0.884057 of unit cell:	Completed after 0 iterations at t[s]:    376.40
SCF: Cycle: 17   F: -552.258489818423413   dF: +1.372e-08   |Residual|: 1.401e-04   |deigs|: 1.377e-05  t[s]:    376.53
	Linear fluid (dielectric constant: 64) occupying 0.884057 of unit cell:	Completed after 0 iterations at t[s]:    376.62
	FillingsUpdate:  mu: -0.104379172  nElectrons: 331.000000
	Linear fluid (dielectric constant: 64) occupying 0.884057 of unit cell:	Completed after 0 iterations at t[s]:    380.29
SCF: Cycle: 18   F: -552.258489804197666   dF: +1.423e-08   |Residual|: 1.380e-04   |deigs|: 1.812e-05  t[s]:    380.42
	Linear fluid (dielectric constant: 64) occupying 0.884057 of unit cell:	Completed after 0 iterations at t[s]:    380.51
	FillingsUpdate:  mu: -0.104379077  nElectrons: 331.000000
	Linear fluid (dielectric constant: 64) occupying 0.884057 of unit cell:	Completed after 0 iterations at t[s]:    384.18
SCF: Cycle: 19   F: -552.258489776162492   dF: +2.804e-08   |Residual|: 1.257e-04   |deigs|: 4.100e-05  t[s]:    384.30
	Linear fluid (dielectric constant: 64) occupying 0.884058 of unit cell:	Completed after 1 iterations at t[s]:    384.42
	FillingsUpdate:  mu: -0.104379108  nElectrons: 331.000000
	Linear fluid (dielectric constant: 64) occupying 0.884057 of unit cell:	Completed after 0 iterations at t[s]:    388.15
SCF: Cycle: 20   F: -552.258489853818787   dF: -7.766e-08   |Residual|: 2.785e-04   |deigs|: 1.873e-05  t[s]:    388.29
	Linear fluid (dielectric constant: 64) occupying 0.884058 of unit cell:	Completed after 0 iterations at t[s]:    388.39
	FillingsUpdate:  mu: -0.104376113  nElectrons: 331.000000
	Linear fluid (dielectric constant: 64) occupying 0.884057 of unit cell:	Completed after 0 iterations at t[s]:    392.22
SCF: Cycle: 21   F: -552.258489795058495   dF: +5.876e-08   |Residual|: 2.583e-04   |deigs|: 2.177e-05  t[s]:    392.35
	Linear fluid (dielectric constant: 64) occupying 0.884058 of unit cell:	Completed after 0 iterations at t[s]:    392.44
	FillingsUpdate:  mu: -0.104379254  nElectrons: 331.000000
	Linear fluid (dielectric constant: 64) occupying 0.884057 of unit cell:	Completed after 0 iterations at t[s]:    396.14
SCF: Cycle: 22   F: -552.258489851922491   dF: -5.686e-08   |Residual|: 2.261e-04   |deigs|: 3.867e-05  t[s]:    396.27
	Linear fluid (dielectric constant: 64) occupying 0.884058 of unit cell:	Completed after 0 iterations at t[s]:    396.36
	FillingsUpdate:  mu: -0.104379395  nElectrons: 331.000000
	Linear fluid (dielectric constant: 64) occupying 0.884057 of unit cell:	Completed after 0 iterations at t[s]:    399.17
SCF: Cycle: 23   F: -552.258489873644294   dF: -2.172e-08   |Residual|: 2.219e-04   |deigs|: 1.168e-05  t[s]:    399.31
	Linear fluid (dielectric constant: 64) occupying 0.884058 of unit cell:	Completed after 0 iterations at t[s]:    399.40
	FillingsUpdate:  mu: -0.104378541  nElectrons: 331.000000
	Linear fluid (dielectric constant: 64) occupying 0.884057 of unit cell:	Completed after 0 iterations at t[s]:    403.20
SCF: Cycle: 24   F: -552.258489798423739   dF: +7.522e-08   |Residual|: 2.430e-04   |deigs|: 4.577e-05  t[s]:    403.33
	Linear fluid (dielectric constant: 64) occupying 0.884058 of unit cell:	Completed after 2 iterations at t[s]:    403.46
	FillingsUpdate:  mu: -0.104384251  nElectrons: 331.000000
	Linear fluid (dielectric constant: 64) occupying 0.884058 of unit cell:	Completed after 4 iterations at t[s]:    406.34
SCF: Cycle: 25   F: -552.258488731185366   dF: +1.067e-06   |Residual|: 6.755e-04   |deigs|: 2.581e-05  t[s]:    406.50
	Linear fluid (dielectric constant: 64) occupying 0.884058 of unit cell:	Completed after 4 iterations at t[s]:    406.65
	FillingsUpdate:  mu: -0.104379987  nElectrons: 331.000000
	Linear fluid (dielectric constant: 64) occupying 0.884058 of unit cell:	Completed after 3 iterations at t[s]:    409.53
SCF: Cycle: 26   F: -552.258489106418097   dF: -3.752e-07   |Residual|: 5.927e-04   |deigs|: 1.035e-05  t[s]:    409.69
	Linear fluid (dielectric constant: 64) occupying 0.884059 of unit cell:	Completed after 4 iterations at t[s]:    409.83
	FillingsUpdate:  mu: -0.104377220  nElectrons: 331.000000
	Linear fluid (dielectric constant: 64) occupying 0.884057 of unit cell:	Completed after 3 iterations at t[s]:    412.71
SCF: Cycle: 27   F: -552.258489299663324   dF: -1.932e-07   |Residual|: 5.069e-04   |deigs|: 1.597e-05  t[s]:    412.86
	Linear fluid (dielectric constant: 64) occupying 0.884058 of unit cell:	Completed after 3 iterations at t[s]:    413.00
	FillingsUpdate:  mu: -0.104375929  nElectrons: 331.000000
	Linear fluid (dielectric constant: 64) occupying 0.884057 of unit cell:	Completed after 3 iterations at t[s]:    415.88
SCF: Cycle: 28   F: -552.258489629289784   dF: -3.296e-07   |Residual|: 3.800e-04   |deigs|: 2.503e-05  t[s]:    416.03
	Linear fluid (dielectric constant: 64) occupying 0.884058 of unit cell:	Completed after 3 iterations at t[s]:    416.16
	FillingsUpdate:  mu: -0.104376984  nElectrons: 331.000000
	Linear fluid (dielectric constant: 64) occupying 0.884057 of unit cell:	Completed after 3 iterations at t[s]:    419.02
SCF: Cycle: 29   F: -552.258489473586451   dF: +1.557e-07   |Residual|: 4.559e-04   |deigs|: 6.369e-06  t[s]:    419.17
	Linear fluid (dielectric constant: 64) occupying 0.884058 of unit cell:	Completed after 3 iterations at t[s]:    419.31
	FillingsUpdate:  mu: -0.104374747  nElectrons: 331.000000
	Linear fluid (dielectric constant: 64) occupying 0.884057 of unit cell:	Completed after 2 iterations at t[s]:    422.16
SCF: Cycle: 30   F: -552.258489683270682   dF: -2.097e-07   |Residual|: 3.604e-04   |deigs|: 2.015e-05  t[s]:    422.30
	Linear fluid (dielectric constant: 64) occupying 0.884058 of unit cell:	Completed after 3 iterations at t[s]:    422.44
	FillingsUpdate:  mu: -0.104378258  nElectrons: 331.000000
	Linear fluid (dielectric constant: 64) occupying 0.884057 of unit cell:	Completed after 3 iterations at t[s]:    425.30
SCF: Cycle: 31   F: -552.258489622433103   dF: +6.084e-08   |Residual|: 3.597e-04   |deigs|: 3.830e-06  t[s]:    425.46
	Linear fluid (dielectric constant: 64) occupying 0.884057 of unit cell:	Completed after 2 iterations at t[s]:    425.58
	FillingsUpdate:  mu: -0.104378218  nElectrons: 331.000000
	Linear fluid (dielectric constant: 64) occupying 0.884056 of unit cell:	Completed after 1 iterations at t[s]:    429.31
SCF: Cycle: 32   F: -552.258489826146160   dF: -2.037e-07   |Residual|: 2.110e-04   |deigs|: 3.235e-05  t[s]:    429.46
	Linear fluid (dielectric constant: 64) occupying 0.884057 of unit cell:	Completed after 0 iterations at t[s]:    429.56
	FillingsUpdate:  mu: -0.104377155  nElectrons: 331.000000
	Linear fluid (dielectric constant: 64) occupying 0.884057 of unit cell:	Completed after 0 iterations at t[s]:    433.37
SCF: Cycle: 33   F: -552.258489847025999   dF: -2.088e-08   |Residual|: 1.231e-04   |deigs|: 3.294e-05  t[s]:    433.49
	Linear fluid (dielectric constant: 64) occupying 0.884057 of unit cell:	Completed after 0 iterations at t[s]:    433.59
	FillingsUpdate:  mu: -0.104377133  nElectrons: 331.000000
	Linear fluid (dielectric constant: 64) occupying 0.884057 of unit cell:	Completed after 0 iterations at t[s]:    436.40
SCF: Cycle: 34   F: -552.258489845247823   dF: +1.778e-09   |Residual|: 1.228e-04   |deigs|: 3.657e-06  t[s]:    436.53
	Linear fluid (dielectric constant: 64) occupying 0.884057 of unit cell:	Completed after 0 iterations at t[s]:    436.63
	FillingsUpdate:  mu: -0.104377421  nElectrons: 331.000000
	Linear fluid (dielectric constant: 64) occupying 0.884056 of unit cell:	Completed after 0 iterations at t[s]:    441.01
SCF: Cycle: 35   F: -552.258489864232160   dF: -1.898e-08   |Residual|: 1.180e-04   |deigs|: 3.054e-05  t[s]:    441.14
	Linear fluid (dielectric constant: 64) occupying 0.884056 of unit cell:	Completed after 0 iterations at t[s]:    441.24
	FillingsUpdate:  mu: -0.104377629  nElectrons: 331.000000
	Linear fluid (dielectric constant: 64) occupying 0.884056 of unit cell:	Completed after 0 iterations at t[s]:    445.06
SCF: Cycle: 36   F: -552.258489878348655   dF: -1.412e-08   |Residual|: 1.207e-04   |deigs|: 2.347e-05  t[s]:    445.19
	Linear fluid (dielectric constant: 64) occupying 0.884056 of unit cell:	Completed after 0 iterations at t[s]:    445.29
	FillingsUpdate:  mu: -0.104377689  nElectrons: 331.000000
	Linear fluid (dielectric constant: 64) occupying 0.884056 of unit cell:	Completed after 0 iterations at t[s]:    449.10
SCF: Cycle: 37   F: -552.258489860059854   dF: +1.829e-08   |Residual|: 1.119e-04   |deigs|: 1.097e-05  t[s]:    449.24
	Linear fluid (dielectric constant: 64) occupying 0.884056 of unit cell:	Completed after 0 iterations at t[s]:    449.35
	FillingsUpdate:  mu: -0.104379030  nElectrons: 331.000000
	Linear fluid (dielectric constant: 64) occupying 0.884056 of unit cell:	Completed after 0 iterations at t[s]:    453.16
SCF: Cycle: 38   F: -552.258489835622640   dF: +2.444e-08   |Residual|: 1.130e-04   |deigs|: 3.192e-05  t[s]:    453.29
	Linear fluid (dielectric constant: 64) occupying 0.884056 of unit cell:	Completed after 0 iterations at t[s]:    453.38
	FillingsUpdate:  mu: -0.104376951  nElectrons: 331.000000
	Linear fluid (dielectric constant: 64) occupying 0.884056 of unit cell:	Completed after 0 iterations at t[s]:    457.07
SCF: Cycle: 39   F: -552.258489840341554   dF: -4.719e-09   |Residual|: 8.223e-05   |deigs|: 2.192e-05  t[s]:    457.20
	Linear fluid (dielectric constant: 64) occupying 0.884056 of unit cell:	Completed after 0 iterations at t[s]:    457.30
	FillingsUpdate:  mu: -0.104376599  nElectrons: 331.000000
	Linear fluid (dielectric constant: 64) occupying 0.884057 of unit cell:	Completed after 0 iterations at t[s]:    461.67
SCF: Cycle: 40   F: -552.258489844027849   dF: -3.686e-09   |Residual|: 5.734e-05   |deigs|: 4.697e-05  t[s]:    461.80
SCF: Converged (|Delta E|<1.000000e-08 for 2 iters).

Setting wave functions to eigenvectors of Hamiltonian
IonicMinimize: 	Predicted alpha/alphaT>3.000000, increasing alphaT to 3.000000e+00.

Computing DFT-D3 correction:
# coordination-number C 3.300 3.300 3.301 3.300 3.302 3.300 3.300 3.301 3.296 3.300 3.311 3.293 3.300 3.300 3.302 3.315 3.454 3.300 3.358 3.433 3.304 3.492 3.612 3.303 3.300 3.300 3.300 3.365 3.300 3.300 3.287 3.300 3.300 3.287 3.300 3.300 3.300 3.300 3.302 3.317 3.300 3.322 3.304 3.300 3.304 3.324 3.301 3.327 3.336 3.300 3.300 3.300 3.300 3.485 3.796 3.301 3.335 3.484 3.330 3.300 3.300 3.299 3.300 3.301 3.298 3.300 3.300 3.300 3.300 3.300 3.300
# coordination-number N 3.220
# coordination-number S 2.890 3.071 3.074 2.903
# coordination-number Na 4.423 4.272
# diagonal-C6 C 24.28 24.28 24.27 24.29 24.27 24.28 24.29 24.27 24.32 24.28 24.17 24.35 24.28 24.28 24.26 24.13 22.33 24.28 23.65 22.64 24.25 21.76 20.13 24.26 24.28 24.28 24.28 23.56 24.29 24.29 24.40 24.29 24.28 24.40 24.29 24.28 24.28 24.29 24.27 24.11 24.28 24.06 24.25 24.29 24.25 24.04 24.27 24.01 23.91 24.28 24.28 24.28 24.28 21.86 18.77 24.27 23.92 21.87 23.98 24.29 24.28 24.29 24.29 24.28 24.30 24.28 24.28 24.28 24.29 24.29 24.29
# diagonal-C6 N 15.60
# diagonal-C6 S 125.81 125.81 125.81 125.81
# diagonal-C6 Na 186.11 186.11
EvdW_6 =   -0.063714
EvdW_8 =   -0.056595

-------- Electronic minimization -----------
Will mix electronic density at each iteration.
	FillingsUpdate:  mu: -0.104376599  nElectrons: 331.000000
	Linear fluid (dielectric constant: 64) occupying 0.884052 of unit cell:	Completed after 24 iterations at t[s]:    465.15
	FillingsUpdate:  mu: -0.102848325  nElectrons: 331.000000
	Linear fluid (dielectric constant: 64) occupying 0.883813 of unit cell:	Completed after 29 iterations at t[s]:    470.44
SCF: Cycle:  0   F: -552.249498264691738   dF: -5.166e-02   |Residual|: 1.156e-01   |deigs|: 7.782e-04  t[s]:    470.61
	Linear fluid (dielectric constant: 64) occupying 0.884221 of unit cell:	Completed after 29 iterations at t[s]:    471.05
	FillingsUpdate:  mu: -0.103366273  nElectrons: 331.000000
	Linear fluid (dielectric constant: 64) occupying 0.883884 of unit cell:	Completed after 28 iterations at t[s]:    475.79
SCF: Cycle:  1   F: -552.258068862503023   dF: -8.571e-03   |Residual|: 5.476e-02   |deigs|: 1.073e-03  t[s]:    475.96
	Linear fluid (dielectric constant: 64) occupying 0.884299 of unit cell:	Completed after 28 iterations at t[s]:    476.38
	FillingsUpdate:  mu: -0.103713010  nElectrons: 331.000000
	Linear fluid (dielectric constant: 64) occupying 0.883939 of unit cell:	Completed after 25 iterations at t[s]:    481.10
SCF: Cycle:  2   F: -552.260338670488181   dF: -2.270e-03   |Residual|: 1.229e-02   |deigs|: 1.153e-03  t[s]:    481.27
	Linear fluid (dielectric constant: 64) occupying 0.884211 of unit cell:	Completed after 24 iterations at t[s]:    481.65
	FillingsUpdate:  mu: -0.103849244  nElectrons: 331.000000
	Linear fluid (dielectric constant: 64) occupying 0.883955 of unit cell:	Completed after 23 iterations at t[s]:    486.35
SCF: Cycle:  3   F: -552.260507305136002   dF: -1.686e-04   |Residual|: 6.650e-03   |deigs|: 7.026e-04  t[s]:    486.52
	Linear fluid (dielectric constant: 64) occupying 0.884076 of unit cell:	Completed after 17 iterations at t[s]:    486.82
	FillingsUpdate:  mu: -0.104020676  nElectrons: 331.000000
	Linear fluid (dielectric constant: 64) occupying 0.883975 of unit cell:	Completed after 18 iterations at t[s]:    491.45
SCF: Cycle:  4   F: -552.260648637096324   dF: -1.413e-04   |Residual|: 3.092e-03   |deigs|: 5.615e-04  t[s]:    491.62
	Linear fluid (dielectric constant: 64) occupying 0.883979 of unit cell:	Completed after 13 iterations at t[s]:    491.88
	FillingsUpdate:  mu: -0.104101658  nElectrons: 331.000000
	Linear fluid (dielectric constant: 64) occupying 0.883981 of unit cell:	Completed after 13 iterations at t[s]:    496.46
SCF: Cycle:  5   F: -552.260710589558357   dF: -6.195e-05   |Residual|: 1.569e-03   |deigs|: 1.387e-04  t[s]:    496.63
	Linear fluid (dielectric constant: 64) occupying 0.883926 of unit cell:	Completed after 11 iterations at t[s]:    496.87
	FillingsUpdate:  mu: -0.104132041  nElectrons: 331.000000
	Linear fluid (dielectric constant: 64) occupying 0.883981 of unit cell:	Completed after 11 iterations at t[s]:    502.65
SCF: Cycle:  6   F: -552.260726045730394   dF: -1.546e-05   |Residual|: 1.095e-03   |deigs|: 1.584e-04  t[s]:    502.82
[...]
	Linear fluid (dielectric constant: 64) occupying 0.881698 of unit cell:	Completed after 0 iterations at t[s]:   9390.17
	FillingsUpdate:  mu: -0.102767952  nElectrons: 331.000000
	Linear fluid (dielectric constant: 64) occupying 0.881697 of unit cell:	Completed after 3 iterations at t[s]:   9392.94
SCF: Cycle:  1   F: -552.315987795620686   dF: +2.141e-07   |Residual|: 1.961e-04   |deigs|: 9.307e-06  t[s]:   9393.10
	Linear fluid (dielectric constant: 64) occupying 0.881698 of unit cell:	Completed after 1 iterations at t[s]:   9393.20
	FillingsUpdate:  mu: -0.102774307  nElectrons: 331.000000
	Linear fluid (dielectric constant: 64) occupying 0.881699 of unit cell:	Completed after 3 iterations at t[s]:   9396.02
SCF: Cycle:  2   F: -552.315987572487074   dF: +2.231e-07   |Residual|: 3.062e-04   |deigs|: 1.571e-05  t[s]:   9396.17
	Linear fluid (dielectric constant: 64) occupying 0.881698 of unit cell:	Completed after 2 iterations at t[s]:   9396.29
	FillingsUpdate:  mu: -0.102769233  nElectrons: 331.000000
	Linear fluid (dielectric constant: 64) occupying 0.881698 of unit cell:	Completed after 0 iterations at t[s]:   9399.07
SCF: Cycle:  3   F: -552.315988104875260   dF: -5.324e-07   |Residual|: 1.205e-04   |deigs|: 1.378e-05  t[s]:   9399.21
	Linear fluid (dielectric constant: 64) occupying 0.881698 of unit cell:	Completed after 0 iterations at t[s]:   9399.30
	FillingsUpdate:  mu: -0.102772214  nElectrons: 331.000000
	Linear fluid (dielectric constant: 64) occupying 0.881698 of unit cell:	Completed after 0 iterations at t[s]:   9402.05
SCF: Cycle:  4   F: -552.315988089751500   dF: +1.512e-08   |Residual|: 7.235e-05   |deigs|: 5.153e-06  t[s]:   9402.18
	Linear fluid (dielectric constant: 64) occupying 0.881698 of unit cell:	Completed after 0 iterations at t[s]:   9402.27
	FillingsUpdate:  mu: -0.102771213  nElectrons: 331.000000
	Linear fluid (dielectric constant: 64) occupying 0.881698 of unit cell:	Completed after 0 iterations at t[s]:   9405.03
SCF: Cycle:  5   F: -552.315988092858333   dF: -3.107e-09   |Residual|: 6.916e-05   |deigs|: 2.757e-06  t[s]:   9405.16
	Linear fluid (dielectric constant: 64) occupying 0.881698 of unit cell:	Completed after 0 iterations at t[s]:   9405.25
	FillingsUpdate:  mu: -0.102771197  nElectrons: 331.000000
	Linear fluid (dielectric constant: 64) occupying 0.881698 of unit cell:	Completed after 0 iterations at t[s]:   9407.97
SCF: Cycle:  6   F: -552.315988093425631   dF: -5.673e-10   |Residual|: 6.214e-05   |deigs|: 4.230e-07  t[s]:   9408.09
SCF: Converged (|Delta E|<1.000000e-08 for 2 iters).

Setting wave functions to eigenvectors of Hamiltonian

Computing DFT-D3 correction:
# coordination-number C 3.300 3.301 3.302 3.300 3.307 3.301 3.300 3.306 3.289 3.300 3.321 3.289 3.300 3.301 3.301 3.330 3.338 3.300 3.325 3.292 3.301 3.311 3.299 3.301 3.300 3.301 3.300 3.304 3.300 3.300 3.287 3.300 3.300 3.287 3.300 3.300 3.302 3.300 3.310 3.306 3.300 3.341 3.305 3.300 3.309 3.303 3.300 3.311 3.302 3.300 3.300 3.301 3.300 3.351 3.319 3.300 3.305 3.302 3.303 3.300 3.301 3.298 3.300 3.303 3.298 3.300 3.300 3.299 3.300 3.300 3.300
# coordination-number N 3.213
# coordination-number S 1.110 2.126 2.139 1.139
# coordination-number Na 0.385 0.357
# diagonal-C6 C 24.28 24.27 24.27 24.29 24.21 24.28 24.28 24.23 24.38 24.28 24.07 24.38 24.28 24.27 24.27 23.98 23.88 24.28 24.03 24.36 24.27 24.17 24.29 24.27 24.28 24.27 24.28 24.24 24.29 24.28 24.40 24.29 24.28 24.40 24.29 24.28 24.27 24.28 24.18 24.22 24.29 23.85 24.23 24.29 24.20 24.25 24.28 24.18 24.26 24.28 24.28 24.27 24.28 23.73 24.09 24.28 24.23 24.26 24.25 24.29 24.28 24.30 24.29 24.26 24.30 24.28 24.28 24.29 24.29 24.28 24.29
# diagonal-C6 N 15.60
# diagonal-C6 S 130.78 125.84 125.84 130.72
# diagonal-C6 Na 987.41 1067.83
EvdW_6 =   -0.067502
EvdW_8 =   -0.059265

-------- Electronic minimization -----------
Will mix electronic density at each iteration.
	FillingsUpdate:  mu: -0.102771197  nElectrons: 331.000000
	Linear fluid (dielectric constant: 64) occupying 0.881697 of unit cell:	Completed after 3 iterations at t[s]:   9413.26
	FillingsUpdate:  mu: -0.102769398  nElectrons: 331.000000
	Linear fluid (dielectric constant: 64) occupying 0.881699 of unit cell:	Completed after 3 iterations at t[s]:   9416.74
SCF: Cycle:  0   F: -552.315988320877750   dF: -2.110e-07   |Residual|: 3.370e-04   |deigs|: 1.342e-08  t[s]:   9416.89
	Linear fluid (dielectric constant: 64) occupying 0.881698 of unit cell:	Completed after 3 iterations at t[s]:   9417.03
	FillingsUpdate:  mu: -0.102765819  nElectrons: 331.000000
	Linear fluid (dielectric constant: 64) occupying 0.881698 of unit cell:	Completed after 0 iterations at t[s]:   9419.78
SCF: Cycle:  1   F: -552.315988588018399   dF: -2.671e-07   |Residual|: 1.095e-04   |deigs|: 6.420e-06  t[s]:   9419.90
	Linear fluid (dielectric constant: 64) occupying 0.881698 of unit cell:	Completed after 0 iterations at t[s]:   9419.99
	FillingsUpdate:  mu: -0.102765815  nElectrons: 331.000000
	Linear fluid (dielectric constant: 64) occupying 0.881698 of unit cell:	Completed after 0 iterations at t[s]:   9422.75
SCF: Cycle:  2   F: -552.315988599868319   dF: -1.185e-08   |Residual|: 7.893e-05   |deigs|: 7.500e-07  t[s]:   9422.89
	Linear fluid (dielectric constant: 64) occupying 0.881698 of unit cell:	Completed after 0 iterations at t[s]:   9422.97
	FillingsUpdate:  mu: -0.102765781  nElectrons: 331.000000
	Linear fluid (dielectric constant: 64) occupying 0.881698 of unit cell:	Completed after 0 iterations at t[s]:   9425.73
SCF: Cycle:  3   F: -552.315988605723078   dF: -5.855e-09   |Residual|: 2.210e-05   |deigs|: 2.691e-06  t[s]:   9425.87
	Linear fluid (dielectric constant: 64) occupying 0.881698 of unit cell:	Completed after 0 iterations at t[s]:   9425.95
	FillingsUpdate:  mu: -0.102765758  nElectrons: 331.000000
	Linear fluid (dielectric constant: 64) occupying 0.881698 of unit cell:	Completed after 0 iterations at t[s]:   9428.69
SCF: Cycle:  4   F: -552.315988606874043   dF: -1.151e-09   |Residual|: 1.656e-05   |deigs|: 1.090e-06  t[s]:   9428.82
SCF: Converged (|Delta E|<1.000000e-08 for 2 iters).

Setting wave functions to eigenvectors of Hamiltonian

Computing DFT-D3 correction:
# coordination-number C 3.300 3.301 3.302 3.300 3.307 3.301 3.300 3.306 3.289 3.300 3.321 3.289 3.300 3.301 3.301 3.330 3.338 3.300 3.325 3.292 3.301 3.311 3.299 3.301 3.300 3.301 3.300 3.304 3.300 3.300 3.287 3.300 3.300 3.287 3.300 3.300 3.302 3.300 3.310 3.306 3.300 3.341 3.305 3.300 3.309 3.303 3.300 3.311 3.302 3.300 3.300 3.301 3.300 3.351 3.319 3.300 3.305 3.302 3.303 3.300 3.301 3.298 3.300 3.303 3.298 3.300 3.300 3.299 3.300 3.300 3.300
# coordination-number N 3.213
# coordination-number S 1.110 2.126 2.139 1.139
# coordination-number Na 0.385 0.357
# diagonal-C6 C 24.28 24.27 24.27 24.29 24.21 24.28 24.28 24.23 24.38 24.28 24.07 24.38 24.28 24.27 24.27 23.98 23.88 24.28 24.03 24.36 24.27 24.17 24.29 24.27 24.28 24.27 24.28 24.24 24.29 24.28 24.40 24.29 24.28 24.40 24.29 24.28 24.27 24.28 24.18 24.22 24.29 23.85 24.23 24.29 24.20 24.25 24.28 24.18 24.26 24.28 24.28 24.27 24.28 23.73 24.09 24.28 24.23 24.26 24.25 24.29 24.28 24.30 24.29 24.26 24.30 24.28 24.28 24.29 24.29 24.28 24.29
# diagonal-C6 N 15.60
# diagonal-C6 S 130.78 125.84 125.84 130.72
# diagonal-C6 Na 987.41 1067.83
EvdW_6 =   -0.067502
EvdW_8 =   -0.059265

# Ionic positions in cartesian coordinates:
ion C -14.002918197300012  24.253758582300001   2.000000000000000 0
ion C  -2.333816550000000   4.042302545699999   2.000000000000000 0
ion C  11.669101647300000  20.211493831199999   2.000000000000000 0
ion C  -9.335266200000008  24.253758582300001   2.000000000000000 0
ion C   9.335303994599993  24.253758582300001   2.000000000000000 0
ion C   2.333816549999999   4.042302545699999   2.000000000000000 0
ion C -11.669120544600000  20.211493831199999   2.000000000000000 0
ion C  -4.667651997299999   8.084605091399998   2.000000000000000 0
ion C   9.335285097299998  16.169191285499998   2.000000000000000 0
ion C  -4.667614202700010  24.253758582300001   2.000000000000000 0
ion C   4.667651997299995  24.253758582300001   2.000000000000000 0
ion C   4.667651997299999   8.084605091399998   2.000000000000000 0
ion C  -9.335303994599998  16.169191285499998   2.000000000000000 0
ion C  -7.001468547300001  12.126907637100000   2.000000000000000 0
ion C   0.000037794599988  24.253758582300001   2.000000000000000 0
ion C   0.000000000000000   8.084605091399998   2.000000000000000 0
ion C   7.001449650000005  20.211493831199999   2.000000000000000 0
ion C  -7.001468547300000  20.211493831199999   2.000000000000000 0
ion C  -2.333816549999999  12.126907637100000   2.000000000000000 0
ion C   4.667633100000000  16.169191285499998   2.000000000000000 0
ion C  -2.333816549999993  20.211493831199999   2.000000000000000 0
ion C   2.333835447300000  20.211493831199999   2.000000000000000 0
ion C   2.333835447299999  12.126907637100000   2.000000000000000 0
ion C  -4.667651997299999  16.169191285499998   2.000000000000000 0
ion C   7.001449650000000   4.042302545699999   2.000000000000000 0
ion C  21.004386744600001   4.042302545699999   2.000000000000000 0
ion C  14.002937094600000  16.169191285499998   2.000000000000000 0
ion C   0.000000000000000  16.169191285499998   2.000000000000000 0
ion C  11.669101647300000   4.042302545699999   2.000000000000000 0
ion C  18.670589091899998   8.084605091399998   2.000000000000000 0
ion C  11.669101647300000  12.126907637100000   2.000000000000000 0
ion C  16.336753644600002  12.126907637100000   2.000000000000000 0
ion C  16.336753644600002   4.042302545699999   2.000000000000000 0
ion C   9.335285097300002   8.084605091399998   2.000000000000000 0
ion C  14.002937094600000   8.084605091399998   2.000000000000000 0
ion C   0.000018897300000   2.694868363800000   2.000000000000000 0
ion C  11.669120544600000  22.906362195000000   2.000000000000000 0
ion C -11.669120544600002  22.906362195000000   2.000000000000000 0
ion C  -2.333816549999999   6.737152012199999   2.000000000000000 0
ion C   9.335285097299998  18.864059649300000   2.000000000000000 0
ion C  -7.001468547300003  22.906362195000000   2.000000000000000 0
ion C   7.001468547300002  22.906362195000000   2.000000000000000 0
ion C   2.333816550000000   6.737152012199999   2.000000000000000 0
ion C  -9.335285097299998  18.864059649300000   2.000000000000000 0
ion C  -4.667633100000000  10.779454557899999   2.000000000000000 0
ion C   7.001468547300002  14.821757103600000   2.000000000000000 0
ion C  -2.333835447300000  22.906362195000000   2.000000000000000 0
ion C   2.333816550000000  22.906362195000000   2.000000000000000 0
ion C   4.667633100000000  10.779454557899999   2.000000000000000 0
ion C  -7.001468547300001  14.821757103600000   2.000000000000000 0
ion C   4.667633100000003   2.694868363800000   2.000000000000000 0
ion C  23.338222191900002   2.694868363800000   2.000000000000000 0
ion C  14.002918197300001  18.864059649300000   2.000000000000000 0
ion C   0.000018897300000  10.779454557899999   2.000000000000000 0
ion C   4.667633100000000  18.864059649300000   2.000000000000000 0
ion C  -4.667633099999995  18.864059649300000   2.000000000000000 0
ion C  -2.333816550000000  14.821757103600000   2.000000000000000 0
ion C   2.333816550000000  14.821757103600000   2.000000000000000 0
ion C  -0.000018897299999  18.864059649300000   2.000000000000000 0
ion C   9.335285097300000   2.694868363800000   2.000000000000000 0
ion C  21.004386744599998   6.737152012199999   2.000000000000000 0
ion C  11.669120544600002  14.821757103600000   2.000000000000000 0
ion C  16.336734747299992  14.821757103600000   2.000000000000000 0
ion C  18.670570194600000   2.694868363800000   2.000000000000000 0
ion C   7.001468547300000   6.737152012199999   2.000000000000000 0
ion C  14.002937094600002   2.694868363800000   2.000000000000000 0
ion C  18.670570194600000  10.779454557899999   2.000000000000000 0
ion C   9.335285097300000  10.779454557899999   2.000000000000000 0
ion C  11.669120544600000   6.737152012199999   2.000000000000000 0
ion C  16.336734747299989   6.737152012199999   2.000000000000000 0
ion C  14.002937094600000  10.779454557899999   2.000000000000000 0
ion N   7.001449650000002  12.126907637100000   2.000000000000000 0
ion S   6.646584053194504  14.259018146946973   8.923425623393328 1
ion S   4.208421245199160  14.034962426984212  11.914364787188166 1
ion S   1.831481428941423  17.224090301036217  12.185298409752633 1
ion S  -0.548886528422608  17.534033346341261   9.157373753498941 1
ion Na   5.883774823689979  21.672343469094031   8.528844068836143 1
ion Na  -0.717800871560629  10.173583122242833   8.557588508234605 1

# Forces in Cartesian coordinates:
force C   0.001532415221475  -0.000863261673632   0.000055779430795 0
force C   0.000496462584699  -0.000030963255388   0.000108473245844 0
force C   0.001371620527638  -0.001190146361615   0.000100999386476 0
force C   0.000812619799809   0.001113001353484   0.000027609100575 0
force C   0.000267303325170  -0.000392246813259   0.000103766335727 0
force C   0.001704720767622  -0.000639032357802   0.000079603243376 0
force C  -0.000533274510799  -0.001286400200196   0.000032319671714 0
force C   0.000227791647096   0.000428355368617   0.000109297436602 0
force C  -0.002979483510898  -0.009891227348043   0.000116353882095 0
force C  -0.000816476228451   0.001112984336932   0.000057878949607 0
force C  -0.000291449525962  -0.000322007077141  -0.000120152764944 0
force C   0.007078746358664   0.007426987273934   0.000141604621788 0
force C  -0.001352181608770   0.000156261077786   0.000051712154269 0
force C   0.000023483909031   0.001768084251144   0.000111290596319 0
force C  -0.001557117209691  -0.000902381591585   0.000187037008155 0
force C   0.000563865241416   0.000215735234721  -0.000334526223475 0
force C   0.000092659199802  -0.000774898173656  -0.000459034741942 0
force C   0.000019082839265  -0.000021811468067   0.000058589457461 0
force C   0.000308425215260   0.001954234373401  -0.000194506543869 0
force C   0.002570966905645  -0.009798747237396  -0.000233543922181 0
force C   0.000803688353192  -0.001405542607263   0.000030074027320 0
force C  -0.001644118661417  -0.001380407991812  -0.000104369641435 0
force C   0.009961618699038   0.002707668137538   0.000141267016511 0
force C   0.001437853891995   0.000131350390602   0.000156115852702 0
force C   0.000019441130034   0.005361312125230   0.000038395644028 0
force C  -0.000003106100354   0.000001028580646   0.000094804331082 0
force C  -0.004654438527673  -0.002698044785961   0.000068025643980 0
force C   0.004760276636769  -0.002614787107880  -0.000293971815666 0
force C  -0.001685986513127  -0.000629021443799   0.000034425231970 0
force C  -0.000251058679035   0.000422621968084   0.000043217210829 0
force C  -0.009955365567293   0.002425959762405   0.000127012979453 0
force C  -0.000322381588767   0.001773547755556   0.000035530368498 0
force C  -0.000485580542468  -0.000018510971420   0.000066234664441 0
force C  -0.007039435881258   0.007421674460639   0.000104288457741 0
force C  -0.000532876341543   0.000315623281918   0.000032798934345 0
force C  -0.000564384666715   0.000749646022910   0.000064926729835 0
force C  -0.000929595895003   0.000086029611369   0.000097561791801 0
force C  -0.001793755168169   0.001039324999001   0.000029284044587 0
force C  -0.000192775331586  -0.000111739149087   0.000083800359215 0
force C  -0.004699845962484   0.000773962288122   0.000180461471778 0
force C   0.000037113014049  -0.000180336946540   0.000042227596000 0
force C   0.000091536726244   0.000255813976837  -0.000608340265256 0
force C  -0.003002427382544   0.003647142853162   0.000121104479680 0
force C   0.000141248301151   0.000079629341705   0.000036737131170 0
force C   0.000361476827806  -0.000804226110892   0.000117297055689 0
force C  -0.000242237247385  -0.007046147527660  -0.000060602259035 0
force C   0.001871559891445   0.000903783608178   0.000133617566889 0
force C   0.000843704340560  -0.000077334237754   0.000113558225904 0
force C   0.006222090020167   0.003709482784386   0.000208630184650 0
force C   0.000089247467135  -0.002055922993774   0.000087646513488 0
force C  -0.001868419839606  -0.000793079989889   0.000037410133543 0
force C  -0.000604877877083   0.000347790328136   0.000113299490285 0
force C  -0.000259472735794   0.002009001452953   0.000065084022139 0
force C   0.001723263473553  -0.004260196716601  -0.000737902939782 0
force C   0.004437933020733   0.000361018734387  -0.000099329820208 0
force C  -0.000007208076124   0.000046791722077   0.000174396626417 0
force C  -0.001321424998988  -0.001009933509625   0.000031145454107 0
force C  -0.005154600585778   0.003344718366237  -0.000150642685914 0
force C   0.000319826713422   0.001830524779688  -0.000211563648430 0
force C   0.001848170642077  -0.000818104640609   0.000031303761284 0
force C  -0.000001329820320  -0.000687556327914   0.000090370825737 0
force C   0.005132861073420   0.003031515184084   0.000108022610844 0
force C   0.001617350076386  -0.001193787233271   0.000036563717474 0
force C   0.000587744368938   0.000355051353432   0.000106704918031 0
force C  -0.000034523492539  -0.005984554940381   0.000083381682729 0
force C   0.000551495958899   0.000690548674448   0.000059598515372 0
force C  -0.000340627478958  -0.000835618004431   0.000050880386540 0
force C  -0.006211439928963   0.003587207537999   0.000051334376403 0
force C   0.002996338168919   0.003629655468968   0.000040319458769 0
force C   0.000228951166662  -0.000115851213779   0.000036699684131 0
force C  -0.001628595994907  -0.004414371007701   0.000046460305394 0
force N  -0.000039132268268   0.000120030644739  -0.000405664973069 0
force S   0.000131253107790  -0.000014645244303  -0.000211359644586 1
force S   0.000242106867849   0.000040414672569   0.000235074195090 1
force S   0.000001564997023  -0.000546684143231   0.000103877640110 1
force S  -0.000398847712195   0.000257566412785  -0.000539978309922 1
force Na  -0.000014473896203   0.000032159179292  -0.000036367665054 1
force Na  -0.000039237232528   0.000054310644080   0.000006250809910 1

# Energy components:
   A_diel =       -0.3073555959131085
   Eewald =     4874.9685936806317841
       EH =     5310.4496529199659562
     Eloc =   -10776.7484938108791539
      Enl =      -78.1543340183890507
     EvdW =       -0.1267666049328868
      Exc =     -162.7539064904553356
 Exc_core =        9.5505267144138752
       KE =      270.8730029258837817
-------------------------------------
     Etot =     -552.2490802796728531
       TS =        0.0669083272011745
-------------------------------------
        F =     -552.3159886068740434

IonicMinimize: Iter:  57  F: -552.315988606874043  |grad|_K:  2.370e-04  alpha:  1.836e+00  linmin: -4.482e-03  t[s]:   9432.12
IonicMinimize: Converged (|Delta F|<1.000000e-06 for 2 iters).

#--- Lowdin population analysis ---
# oxidation-state C +0.030 +0.030 +0.032 +0.030 +0.029 +0.032 +0.030 +0.029 +0.025 +0.030 +0.029 +0.025 +0.030 +0.030 +0.030 +0.029 +0.029 +0.027 +0.031 +0.028 +0.030 +0.032 +0.024 +0.030 +0.028 +0.026 +0.028 +0.030 +0.033 +0.031 +0.026 +0.033 +0.031 +0.026 +0.032 +0.030 +0.030 +0.032 +0.028 +0.032 +0.031 +0.028 +0.032 +0.031 +0.029 +0.147 +0.032 +0.029 +0.146 +0.032 +0.033 +0.029 +0.033 +0.031 +0.033 +0.031 +0.032 +0.043 +0.036 +0.033 +0.029 +0.042 +0.033 +0.029 +0.042 +0.031 +0.031 +0.147 +0.034 +0.031 +0.034
# oxidation-state N +0.012
# oxidation-state S -0.579 +0.018 +0.017 -0.574
# oxidation-state Na +0.951 +0.953


Dumping 'Na2S4@N_graphene-PC-vdw.fillings' ... done
Dumping 'Na2S4@N_graphene-PC-vdw.wfns' ... done
Dumping 'Na2S4@N_graphene-PC-vdw.fluidState' ... done
Dumping 'Na2S4@N_graphene-PC-vdw.ionpos' ... done
Dumping 'Na2S4@N_graphene-PC-vdw.eigenvals' ... done
End date and time: Sat Sep  7 18:02:18 2024  (Duration: 0-2:37:13.96)
Done!
