
*************** JDFTx 1.7.0  ***************

Start date and time: Thu Sep 19 09:55:42 2024
Executable jdftx_gpu with command-line: -i /home/akim2/JDFTx/Na2S6@N_graphene-vdw/Na2S6@N_graphene-vdw.in -o /home/akim2/JDFTx/Na2S6@N_graphene-vdw/Na2S6@N_graphene-vdw.out
Running on hosts (process indices):  exp-8-57 (0)
Divided in process groups (process indices):  0 (0)
gpuInit: Found compatible cuda device 0 'Tesla V100-SXM2-32GB'
gpuInit: Selected device 0
Resource initialization completed at t[s]:      0.79
Run totals: 1 processes, 40 threads, 1 GPUs


Input parsed successfully to the following command list (including defaults):

basis kpoint-dependent
coords-type Cartesian
core-overlap-check vector
coulomb-interaction Slab 001
coulomb-truncation-embed 0 0 5
davidson-band-ratio 1.1
dump End State
dump-name Na2S6@N_graphene-vdw.$VAR
elec-cutoff 20 100
elec-eigen-algo Davidson
elec-ex-corr gga-PBE
elec-smearing Fermi 0.01
electronic-minimize  \
	dirUpdateScheme      FletcherReeves \
	linminMethod         DirUpdateRecommended \
	nIterations          100 \
	history              15 \
	knormThreshold       0 \
	energyDiffThreshold  1e-08 \
	nEnergyDiff          2 \
	alphaTstart          1 \
	alphaTmin            1e-10 \
	updateTestStepSize   yes \
	alphaTreduceFactor   0.1 \
	alphaTincreaseFactor 3 \
	nAlphaAdjustMax      3 \
	wolfeEnergy          0.0001 \
	wolfeGradient        0.9 \
	fdTest               no
exchange-regularization WignerSeitzTruncated
fluid None
fluid-ex-corr lda-TF lda-PZ
fluid-gummel-loop 10 1.000000e-05
fluid-minimize  \
	dirUpdateScheme      PolakRibiere \
	linminMethod         DirUpdateRecommended \
	nIterations          100 \
	history              15 \
	knormThreshold       0 \
	energyDiffThreshold  0 \
	nEnergyDiff          2 \
	alphaTstart          1 \
	alphaTmin            1e-10 \
	updateTestStepSize   yes \
	alphaTreduceFactor   0.1 \
	alphaTincreaseFactor 3 \
	nAlphaAdjustMax      3 \
	wolfeEnergy          0.0001 \
	wolfeGradient        0.9 \
	fdTest               no
fluid-solvent H2O 55.338 ScalarEOS \
	epsBulk 78.4 \
	pMol 0.92466 \
	epsInf 1.77 \
	Pvap 1.06736e-10 \
	sigmaBulk 4.62e-05 \
	Rvdw 2.61727 \
	Res 1.42 \
	tauNuc 343133 \
	poleEl 15 7 1
forces-output-coords Positions
ion C  28.010542013705631   0.002014969601156   0.635465203747167 0
ion C  16.341968157882292  20.214705522223607   0.636370795694031 0
ion C   2.338532027351695   4.042411505399060   0.630361847754816 0
ion C  23.343313188735969   0.002278716019722   0.640022467239564 0
ion C   4.672620934470559   0.001554156700161   0.632050616002296 0
ion C  11.674116326115334  20.215100669694028   0.619847495055023 0
ion C  25.676530282256284   4.042904097616445   0.653564930084009 0
ion C  18.675851376129700  16.172910511284943   0.662695583431347 0
ion C   4.671777948336020   8.082036709586005   0.612564386226399 0
ion C  18.676336142016080   0.002101964498535   0.651180333522277 0
ion C   9.339850970925752   0.001738039847832   0.641511836963307 0
ion C   9.341212652353351  16.175613291750459   0.599279306155555 0
ion C  23.342941439729607   8.084920466015539   0.683240254571249 0
ion C  21.009110272076708  12.128959849493356   0.688453340004557 0
ion C   7.009085367604252  12.128528685817338   0.597262204671189 0
ion C  14.008105470077210   0.001988816408382   0.654008834012114 0
ion C  14.009120976896664  16.174984627607692   0.629938477890011 0
ion C   7.005550759074101   4.041176716120078   0.616350899393808 0
ion C  21.010101094155836   4.043302536041172   0.668670850704729 0
ion C  16.344445762465487  12.130683361169906   0.668518806438794 0
ion C   9.337643998902927   8.081728763982859   0.614931622729934 0
ion C  16.343783017314891   4.042062713362387   0.668836182024798 0
ion C  11.674085450205249   4.041278849785761   0.642196060576936 0
ion C  11.675597583834264  12.133622242506720   0.630068253549407 0
ion C  18.678074956154809   8.085220585829878   0.685769374381508 0
ion C   7.007175797728255  20.216155157604103   0.619709324068161 0
ion C  -6.996748017889800  20.214440105700564   0.653094683289385 0
ion C   0.002354623270169   8.082966457809835   0.657418822396948 0
ion C  14.012576459862725   8.083203697825988   0.669712893069494 0
ion C   2.339067441062872  20.216465077180068   0.646220757178249 0
ion C  -4.663670527593792  16.172490992184059   0.678596642017759 0
ion C   2.336125814129785  12.127745765919109   0.656417500003109 0
ion C  -2.332224039758668  12.128030282589300   0.685859862245795 0
ion C  -2.329659352792410  20.215194179952768   0.659830322184195 0
ion C   4.673933801454849  16.177740252210711   0.625359734501050 0
ion C   0.002990588629148  16.174656174657997   0.666554428718456 0
ion C  14.008266720144102  21.561374576259517   0.629777200837147 0
ion C   2.338930816614256   1.348570645432834   0.632009758527847 0
ion C  25.677100562977380   1.348988124751942   0.641986895200073 0
ion C  16.342686998612663  17.520648868856785   0.642302048336074 0
ion C   4.672307145938162   5.388219921962990   0.616057256550324 0
ion C  21.010123495302889   1.349044430338556   0.652394834146865 0
ion C   7.005937845436384   1.348033936218268   0.628031389286509 0
ion C  11.674692189550257  17.521226022139913   0.612057705166649 0
ion C  23.343784883173043   5.390651685198355   0.669612389866280 0
ion C  18.676972543384359  13.478483594758318   0.675595907033575 0
ion C   7.004963348139576   9.432115986525980   0.597538283264729 0
ion C  16.342472076605748   1.348066366442404   0.659130179870282 0
ion C  11.673522256343780   1.347802312891912   0.646547034509048 0
ion C   9.340696631175403  13.481256291567631   0.599303874261302 0
ion C  21.010487586627971   9.434228317035956   0.689549670827176 0
ion C   9.340862584041272  21.562275316056120   0.623251203387415 0
ion C  -9.330262385564788  21.561165527783945   0.640491424243255 0
ion C   0.004476893676090   5.389148113018151   0.645932445799481 0
ion C  14.011432130181314  13.480719160062115   0.643556882023976 0
ion C   9.339051356617166   5.386992451363917   0.621078239496768 0
ion C  18.677007069088155   5.390558998944344   0.676741055188348 0
ion C  16.345725884609092   9.434637493571932   0.679131999516677 0
ion C  14.009428395823310   5.387478001177438   0.662736904438848 0
ion C   4.673293824799767  21.561882602550448   0.637519226383223 0
ion C  -6.996841473985327  17.520066852095106   0.666346621047357 0
ion C   2.337134667876788   9.428913976861832   0.643387178107247 0
ion C  -2.330217064543965   9.432650452790400   0.678563548363968 0
ion C  -4.663349535264295  21.561481505082671   0.652392573786173 0
ion C   7.008365318233412  17.523060541264897   0.607450639135720 0
ion C   0.004487123343837  21.561671103490092   0.654109318198199 0
ion C  -4.664147187494722  13.477588422800194   0.688047082736968 0
ion C   4.674619807111762  13.479414560663223   0.625188064189185 0
ion C   2.338448909138405  17.522455183042435   0.645633689115609 0
ion C  -2.330712054942804  17.520790606615741   0.670058696770369 0
ion C   0.000363098194401  13.478789474313889   0.675559226948007 0
ion N  11.674484029805171   9.432912355349794   0.644194404697448 0
ion S   7.609161882573908  16.628764868286840  11.243646256152291 1
ion S   5.474709653827793  13.575160359851573  10.721655070960836 1
ion S   5.569965826942969  12.430921129462835   7.084418395579767 1
ion S   0.560046439926181  17.139426707660075   7.098442736872922 1
ion S   0.456779002999930  15.824220363667999  10.672584899250213 1
ion S  -1.720592806934114  12.755952196211549  10.936608825942150 1
ion Na   5.783762670901913  17.719086908273656   6.421710651861408 1
ion Na   0.293369819312878  11.838166389228306   6.237095217483287 1
ion-species GBRV/$ID_pbe.uspp
ion-width 0
ionic-minimize  \
	dirUpdateScheme      FletcherReeves \
	linminMethod         DirUpdateRecommended \
	nIterations          200 \
	history              15 \
	knormThreshold       0.0001 \
	energyDiffThreshold  1e-06 \
	nEnergyDiff          2 \
	alphaTstart          1 \
	alphaTmin            1e-10 \
	updateTestStepSize   yes \
	alphaTreduceFactor   0.1 \
	alphaTincreaseFactor 3 \
	nAlphaAdjustMax      3 \
	wolfeEnergy          0.0001 \
	wolfeGradient        0.9 \
	fdTest               no
kpoint   0.000000000000   0.000000000000   0.000000000000  1.00000000000000
kpoint-folding 1 1 1 
latt-move-scale 1 1 1
latt-scale 1 1 1 
lattice Triclinic 28.0058 28.0058 37.7946 90 90 120
lattice-minimize  \
	dirUpdateScheme      L-BFGS \
	linminMethod         DirUpdateRecommended \
	nIterations          0 \
	history              15 \
	knormThreshold       0 \
	energyDiffThreshold  1e-06 \
	nEnergyDiff          2 \
	alphaTstart          1 \
	alphaTmin            1e-10 \
	updateTestStepSize   yes \
	alphaTreduceFactor   0.1 \
	alphaTincreaseFactor 3 \
	nAlphaAdjustMax      3 \
	wolfeEnergy          0.0001 \
	wolfeGradient        0.9 \
	fdTest               no
lcao-params -1 1e-06 0.01
pcm-variant GLSSA13
spintype no-spin
subspace-rotation-factor 1 yes
symmetries automatic
symmetry-threshold 0.0001
van-der-waals D3



---------- Setting up symmetries ----------

Found 24 point-group symmetries of the bravais lattice
Found 1 space-group symmetries with basis
Applied RMS atom displacement 0 bohrs to make symmetries exact.

---------- Initializing the Grid ----------
R = 
[      28.0058     -14.0029            0  ]
[            0      24.2537            0  ]
[            0            0      37.7946  ]
unit cell volume = 25671.8
G =
[   0.224353    0.12953         -0  ]
[          0   0.259061          0  ]
[          0         -0   0.166246  ]
Minimum fftbox size, Smin = [  128  128  172  ]
Chosen fftbox size, S = [  128  128  180  ]

---------- Initializing tighter grid for wavefunction operations ----------
R = 
[      28.0058     -14.0029            0  ]
[            0      24.2537            0  ]
[            0            0      37.7946  ]
unit cell volume = 25671.8
G =
[   0.224353    0.12953         -0  ]
[          0   0.259061          0  ]
[          0         -0   0.166246  ]
Minimum fftbox size, Smin = [  116  116  156  ]
Chosen fftbox size, S = [  120  120  160  ]

---------- Exchange Correlation functional ----------
Initalized PBE GGA exchange.
Initalized PBE GGA correlation.

---------- Setting up pseudopotentials ----------
Width of ionic core gaussian charges (only for fluid interactions / plotting) set to 0

Reading pseudopotential file '/home/akim2/jdftx_install/build/pseudopotentials/GBRV/c_pbe.uspp':
  Title: C.  Created by USPP 7.3.6 on 3-2-2014
  Reference state energy: -5.406344.  4 valence electrons in orbitals:
    |200>  occupation: 2  eigenvalue: -0.504890
    |210>  occupation: 2  eigenvalue: -0.194356
  lMax: 1  lLocal: 2  QijEcut: 5
  4 projectors sampled on a log grid with 503 points:
    l: 0  eig: -0.504890  rCut: 1.3
    l: 0  eig: 0.000000  rCut: 1.3
    l: 1  eig: -0.194357  rCut: 1.3
    l: 1  eig: 0.000000  rCut: 1.3
  Partial core density with radius 1.1
  Transforming core density to a uniform radial grid of dG=0.02 with 1625 points.
  Transforming local potential to a uniform radial grid of dG=0.02 with 1625 points.
  Transforming nonlocal projectors to a uniform radial grid of dG=0.02 with 432 points.
  Transforming density augmentations to a uniform radial grid of dG=0.02 with 1625 points.
  Transforming atomic orbitals to a uniform radial grid of dG=0.02 with 432 points.
  Core radius for overlap checks: 1.30 bohrs.

Reading pseudopotential file '/home/akim2/jdftx_install/build/pseudopotentials/GBRV/n_pbe.uspp':
  Title: N.  Created by USPP 7.3.6 on 3-2-2014
  Reference state energy: -9.763716.  5 valence electrons in orbitals:
    |200>  occupation: 2  eigenvalue: -0.681964
    |210>  occupation: 3  eigenvalue: -0.260726
  lMax: 1  lLocal: 2  QijEcut: 6
  4 projectors sampled on a log grid with 491 points:
    l: 0  eig: -0.681964  rCut: 1.15
    l: 0  eig: 0.000000  rCut: 1.15
    l: 1  eig: -0.260729  rCut: 1.2
    l: 1  eig: 0.500000  rCut: 1.2
  Partial core density with radius 0.8
  Transforming core density to a uniform radial grid of dG=0.02 with 1625 points.
  Transforming local potential to a uniform radial grid of dG=0.02 with 1625 points.
  Transforming nonlocal projectors to a uniform radial grid of dG=0.02 with 432 points.
  Transforming density augmentations to a uniform radial grid of dG=0.02 with 1625 points.
  Transforming atomic orbitals to a uniform radial grid of dG=0.02 with 432 points.
  Core radius for overlap checks: 1.20 bohrs.

Reading pseudopotential file '/home/akim2/jdftx_install/build/pseudopotentials/GBRV/s_pbe.uspp':
  Title: S.  Created by USPP 7.3.6 on 1-4-15
  Reference state energy: -11.898476.  6 valence electrons in orbitals:
    |300>  occupation: 2  eigenvalue: -0.634167
    |310>  occupation: 4  eigenvalue: -0.257568
  lMax: 2  lLocal: 3  QijEcut: 6
  6 projectors sampled on a log grid with 635 points:
    l: 0  eig: -0.634161  rCut: 1.5
    l: 0  eig: 1.500000  rCut: 1.5
    l: 1  eig: -0.257567  rCut: 1.5
    l: 1  eig: 1.500000  rCut: 1.5
    l: 2  eig: -1.000000  rCut: 1.5
    l: 2  eig: 1.500000  rCut: 1.5
  Partial core density with radius 1.15
  Transforming core density to a uniform radial grid of dG=0.02 with 1625 points.
  Transforming local potential to a uniform radial grid of dG=0.02 with 1625 points.
  Transforming nonlocal projectors to a uniform radial grid of dG=0.02 with 432 points.
  Transforming density augmentations to a uniform radial grid of dG=0.02 with 1625 points.
  Transforming atomic orbitals to a uniform radial grid of dG=0.02 with 432 points.
  Core radius for overlap checks: 1.50 bohrs.

Reading pseudopotential file '/home/akim2/jdftx_install/build/pseudopotentials/GBRV/na_pbe.uspp':
  Title: Na.  Created by USPP 7.3.6 on 23-9-15
  Reference state energy: -47.625620.  9 valence electrons in orbitals:
    |200>  occupation: 2  eigenvalue: -2.085638
    |210>  occupation: 6  eigenvalue: -1.053708
    |300>  occupation: 1  eigenvalue: -0.100838
  lMax: 2  lLocal: 0  QijEcut: 6
  5 projectors sampled on a log grid with 657 points:
    l: 0  eig: -2.085640  rCut: 1.37
    l: 0  eig: -0.100839  rCut: 1.37
    l: 1  eig: -1.053708  rCut: 1.47
    l: 1  eig: 0.500000  rCut: 1.47
    l: 2  eig: 0.750000  rCut: 2
  Transforming local potential to a uniform radial grid of dG=0.02 with 1625 points.
  Transforming nonlocal projectors to a uniform radial grid of dG=0.02 with 432 points.
  Transforming density augmentations to a uniform radial grid of dG=0.02 with 1625 points.
  Transforming atomic orbitals to a uniform radial grid of dG=0.02 with 432 points.
  Core radius for overlap checks: 2.00 bohrs.

Initialized 4 species with 80 total atoms.

Folded 1 k-points by 1x1x1 to 1 k-points.

---------- Setting up k-points, bands, fillings ----------
No reducable k-points. 
Computing the number of bands and number of electrons
Calculating initial fillings.
nElectrons: 343.000000   nBands: 322   nStates: 1

----- Setting up reduced wavefunction bases (one per k-point) -----
average nbasis = 109673.000 , ideal nbasis = 109671.883

---------- Setting up coulomb interaction ----------
Setting up double-sized grid for truncated Coulomb potentials:
R = 
[      28.0058     -14.0029            0  ]
[            0      24.2537            0  ]
[            0            0      75.5892  ]
unit cell volume = 51343.6
G =
[   0.224353    0.12953         -0  ]
[          0   0.259061          0  ]
[          0         -0  0.0831228  ]
Chosen fftbox size, S = [  128  128  360  ]
Integer grid location selected as the embedding center:
   Grid: [  0  0  24  ]
   Lattice: [  0  0  0.132294  ]
   Cartesian: [  0  0  5  ]
Constructing Wigner-Seitz cell: 8 faces (6 quadrilaterals, 2 hexagons)
Range-separation parameter for embedded mesh potentials due to point charges: 0.590105 bohrs.
Initialized slab truncation along lattice direction 001

Initializing DFT-D3 calculator:
	Parameters set for gga-PBE functional
	s6:  1.000  s_r6:  1.217
	s8:  0.722  s_r8:  1.000
	Per-atom parameters loaded for:
	 C:  sqrtQ[a0]:  3.105  Rcov[a0]:  1.417  CN: [ 0.00 0.99 2.00 3.00 3.98 ]
	 N:  sqrtQ[a0]:  2.712  Rcov[a0]:  1.342  CN: [ 0.00 0.99 2.01 2.99 ]
	 S:  sqrtQ[a0]:  4.041  Rcov[a0]:  1.928  CN: [ 0.00 0.99 1.99 ]
	Na:  sqrtQ[a0]:  6.586  Rcov[a0]:  2.646  CN: [ 0.00 0.97 ]

---------- Setting up 2D ewald sum ----------
Optimum gaussian width for ewald sums = 15.547689 bohr.
Real space sums over 289 unit cells with max indices [  8  8  0  ]
Reciprocal space sums over 81 terms with max indices [  4  4  0  ]

Computing DFT-D3 correction:
# coordination-number C 3.301 3.301 3.301 3.302 3.301 3.303 3.301 3.300 3.305 3.303 3.301 3.327 3.304 3.302 3.307 3.301 3.301 3.301 3.301 3.297 3.297 3.300 3.298 3.297 3.300 3.375 3.301 3.342 3.296 3.322 3.303 3.494 3.430 3.302 3.448 3.332 3.301 3.301 3.301 3.301 3.301 3.301 3.301 3.305 3.301 3.300 3.289 3.301 3.301 3.293 3.301 3.308 3.301 3.303 3.286 3.287 3.300 3.286 3.286 3.326 3.301 3.375 3.353 3.301 3.496 3.303 3.310 3.335 3.351 3.307 3.556
# coordination-number N 3.209
# coordination-number S 1.994 2.957 2.912 2.923 2.965 2.010
# coordination-number Na 4.141 4.384
# diagonal-C6 C 24.28 24.28 24.27 24.27 24.28 24.25 24.27 24.28 24.23 24.25 24.27 24.01 24.24 24.27 24.22 24.27 24.28 24.27 24.28 24.31 24.31 24.28 24.31 24.31 24.28 23.44 24.28 23.84 24.32 24.06 24.25 21.73 22.68 24.26 22.42 23.95 24.28 24.28 24.27 24.28 24.27 24.27 24.27 24.24 24.27 24.28 24.39 24.27 24.28 24.35 24.27 24.20 24.28 24.25 24.41 24.41 24.28 24.41 24.41 24.02 24.27 23.44 23.71 24.27 21.70 24.25 24.18 23.91 23.74 24.21 20.83
# diagonal-C6 N 15.60
# diagonal-C6 S 125.90 125.81 125.81 125.81 125.81 125.89
# diagonal-C6 Na 186.11 186.11
EvdW_6 =   -0.066813
EvdW_8 =   -0.060743

---------- Allocating electronic variables ----------
Initializing wave functions:  linear combination of atomic orbitals
C pseudo-atom occupations:   s ( 2 )  p ( 2 )
N pseudo-atom occupations:   s ( 2 )  p ( 3 )
S pseudo-atom occupations:   s ( 2 )  p ( 4 )
Na pseudo-atom occupations:   s ( 2 1 )  p ( 6 )
	FillingsUpdate:  mu: -0.194365339  nElectrons: 343.000000
LCAOMinimize: Iter:   0  F: -567.1808826154679082  |grad|_K:  9.879e-03  alpha:  1.000e+00
	FillingsUpdate:  mu: -0.300124387  nElectrons: 343.000000
LCAOMinimize: Iter:   1  F: -567.7732105731272441  |grad|_K:  6.375e-03  alpha:  1.610e-01  linmin:  9.329e-02  cgtest: -7.347e-01  t[s]:     12.23
LCAOMinimize: 	Bad step direction: g.d > 0.
LCAOMinimize: 	Undoing step.
LCAOMinimize: 	Step failed: resetting search direction.
	FillingsUpdate:  mu: -0.300124387  nElectrons: 343.000000
LCAOMinimize: Iter:   2  F: -567.7732105731272441  |grad|_K:  6.375e-03  alpha:  0.000e+00
	FillingsUpdate:  mu: -0.282900999  nElectrons: 343.000000
LCAOMinimize: Iter:   3  F: -568.0144110810274469  |grad|_K:  1.212e-03  alpha:  9.251e-02  linmin: -2.322e-01  cgtest:  3.176e-01  t[s]:     15.87
LCAOMinimize: Encountered beta<0, resetting CG.
	FillingsUpdate:  mu: -0.286232149  nElectrons: 343.000000
LCAOMinimize: Iter:   4  F: -568.0263579693214524  |grad|_K:  1.040e-03  alpha:  1.757e-01  linmin:  5.753e-02  cgtest: -1.649e-01  t[s]:     18.05
	FillingsUpdate:  mu: -0.286918744  nElectrons: 343.000000
LCAOMinimize: Iter:   5  F: -568.0313738225613633  |grad|_K:  7.072e-04  alpha:  1.244e-01  linmin: -2.352e-04  cgtest:  7.447e-01  t[s]:     23.73
LCAOMinimize: Encountered beta<0, resetting CG.
	FillingsUpdate:  mu: -0.289090438  nElectrons: 343.000000
LCAOMinimize: Iter:   6  F: -568.0337544018135532  |grad|_K:  3.069e-04  alpha:  9.283e-02  linmin: -4.951e-03  cgtest:  1.348e-02  t[s]:     28.02
	FillingsUpdate:  mu: -0.289406821  nElectrons: 343.000000
LCAOMinimize: Iter:   7  F: -568.0349767584610845  |grad|_K:  2.106e-04  alpha:  2.506e-01  linmin:  6.593e-03  cgtest: -9.530e-02  t[s]:     34.96
	FillingsUpdate:  mu: -0.288204610  nElectrons: 343.000000
LCAOMinimize: Iter:   8  F: -568.0356635417055031  |grad|_K:  1.238e-04  alpha:  3.064e-01  linmin: -2.995e-04  cgtest:  1.424e-01  t[s]:     37.14
	FillingsUpdate:  mu: -0.288131125  nElectrons: 343.000000
LCAOMinimize: Iter:   9  F: -568.0358188224853393  |grad|_K:  7.638e-05  alpha:  1.926e-01  linmin: -2.120e-04  cgtest:  1.142e-02  t[s]:     39.29
	FillingsUpdate:  mu: -0.288231400  nElectrons: 343.000000
LCAOMinimize: Iter:  10  F: -568.0358542329864804  |grad|_K:  2.428e-05  alpha:  1.163e-01  linmin:  7.510e-05  cgtest: -1.396e-02  t[s]:     41.59
	FillingsUpdate:  mu: -0.288312382  nElectrons: 343.000000
LCAOMinimize: Iter:  11  F: -568.0358601593691219  |grad|_K:  1.200e-05  alpha:  1.929e-01  linmin:  7.126e-04  cgtest: -1.584e-03  t[s]:     43.77
	FillingsUpdate:  mu: -0.288325520  nElectrons: 343.000000
LCAOMinimize: Iter:  12  F: -568.0358622520009249  |grad|_K:  9.733e-06  alpha:  2.791e-01  linmin: -1.306e-04  cgtest:  2.930e-03  t[s]:     45.95
	FillingsUpdate:  mu: -0.288330399  nElectrons: 343.000000
LCAOMinimize: Iter:  13  F: -568.0358632685622524  |grad|_K:  7.183e-06  alpha:  2.055e-01  linmin:  7.981e-06  cgtest: -2.442e-03  t[s]:     48.11
	FillingsUpdate:  mu: -0.288339762  nElectrons: 343.000000
LCAOMinimize: Iter:  14  F: -568.0358636338528413  |grad|_K:  1.879e-06  alpha:  1.358e-01  linmin:  1.695e-05  cgtest:  8.746e-04  t[s]:     50.25
	FillingsUpdate:  mu: -0.288344965  nElectrons: 343.000000
LCAOMinimize: Iter:  15  F: -568.0358636685369902  |grad|_K:  8.898e-07  alpha:  1.884e-01  linmin: -2.465e-04  cgtest:  1.427e-03  t[s]:     52.42
LCAOMinimize: Converged (|Delta F|<1.000000e-06 for 2 iters).


---- Citations for features of the code used in this run ----

   Software package:
      R. Sundararaman, K. Letchworth-Weaver, K.A. Schwarz, D. Gunceler, Y. Ozhabes and T.A. Arias, 'JDFTx: software for joint density-functional theory', SoftwareX 6, 278 (2017)

   gga-PBE exchange-correlation functional:
      J.P. Perdew, K. Burke and M. Ernzerhof, Phys. Rev. Lett. 77, 3865 (1996)

   Pseudopotentials:
      KF Garrity, JW Bennett, KM Rabe and D Vanderbilt, Comput. Mater. Sci. 81, 446 (2014)

   Truncated Coulomb potentials:
      R. Sundararaman and T.A. Arias, Phys. Rev. B 87, 165122 (2013)

   DFT-D3 dispersion correction:
      S. Grimme, J. Antony, S. Ehrlich and H. Krieg, J. Chem. Phys. 132, 154104 (2010)

   Total energy minimization with Auxiliary Hamiltonian:
      C. Freysoldt, S. Boeck, and J. Neugebauer, Phys. Rev. B 79, 241103(R) (2009)

This list may not be complete. Please suggest additional citations or
report any other bugs at https://github.com/shankar1729/jdftx/issues

Initialization completed successfully at t[s]:     52.78


Computing DFT-D3 correction:
# coordination-number C 3.301 3.301 3.301 3.302 3.301 3.303 3.301 3.300 3.305 3.303 3.301 3.327 3.304 3.302 3.307 3.301 3.301 3.301 3.301 3.297 3.297 3.300 3.298 3.297 3.300 3.375 3.301 3.342 3.296 3.322 3.303 3.494 3.430 3.302 3.448 3.332 3.301 3.301 3.301 3.301 3.301 3.301 3.301 3.305 3.301 3.300 3.289 3.301 3.301 3.293 3.301 3.308 3.301 3.303 3.286 3.287 3.300 3.286 3.286 3.326 3.301 3.375 3.353 3.301 3.496 3.303 3.310 3.335 3.351 3.307 3.556
# coordination-number N 3.209
# coordination-number S 1.994 2.957 2.912 2.923 2.965 2.010
# coordination-number Na 4.141 4.384
# diagonal-C6 C 24.28 24.28 24.27 24.27 24.28 24.25 24.27 24.28 24.23 24.25 24.27 24.01 24.24 24.27 24.22 24.27 24.28 24.27 24.28 24.31 24.31 24.28 24.31 24.31 24.28 23.44 24.28 23.84 24.32 24.06 24.25 21.73 22.68 24.26 22.42 23.95 24.28 24.28 24.27 24.28 24.27 24.27 24.27 24.24 24.27 24.28 24.39 24.27 24.28 24.35 24.27 24.20 24.28 24.25 24.41 24.41 24.28 24.41 24.41 24.02 24.27 23.44 23.71 24.27 21.70 24.25 24.18 23.91 23.74 24.21 20.83
# diagonal-C6 N 15.60
# diagonal-C6 S 125.90 125.81 125.81 125.81 125.81 125.89
# diagonal-C6 Na 186.11 186.11
EvdW_6 =   -0.066813
EvdW_8 =   -0.060743

-------- Electronic minimization -----------
	FillingsUpdate:  mu: -0.288344965  nElectrons: 343.000000
ElecMinimize: Iter:   0  F: -568.035863668544721  |grad|_K:  4.071e-04  alpha:  1.000e+00
	FillingsUpdate:  mu: -0.149964086  nElectrons: 343.000000
	SubspaceRotationAdjust: set factor to 1
ElecMinimize: Iter:   1  F: -572.233648634656674  |grad|_K:  1.413e-04  alpha:  7.250e-01  linmin: -6.998e-05  t[s]:     64.45
	FillingsUpdate:  mu: -0.147345396  nElectrons: 343.000000
	SubspaceRotationAdjust: set factor to 0.622
ElecMinimize: Iter:   2  F: -572.380444635083904  |grad|_K:  1.760e-04  alpha:  2.970e-01  linmin:  3.324e-04  t[s]:     71.65
	FillingsUpdate:  mu: -0.165950079  nElectrons: 343.000000
	SubspaceRotationAdjust: set factor to 0.825
ElecMinimize: Iter:   3  F: -572.604872101278829  |grad|_K:  5.136e-05  alpha:  2.354e-01  linmin: -1.615e-05  t[s]:     78.88
	FillingsUpdate:  mu: -0.160413657  nElectrons: 343.000000
	SubspaceRotationAdjust: set factor to 0.501
ElecMinimize: Iter:   4  F: -572.661140059788863  |grad|_K:  5.755e-05  alpha:  6.475e-01  linmin:  7.155e-04  t[s]:     86.11
	FillingsUpdate:  mu: -0.171035249  nElectrons: 343.000000
	SubspaceRotationAdjust: set factor to 0.456
ElecMinimize: Iter:   5  F: -572.676802370677592  |grad|_K:  2.661e-05  alpha:  1.757e-01  linmin:  3.442e-04  t[s]:     93.14
ElecMinimize: 	Predicted alpha/alphaT>3.000000, increasing alphaT to 5.269737e-01.
	FillingsUpdate:  mu: -0.169364236  nElectrons: 343.000000
	SubspaceRotationAdjust: set factor to 0.436
ElecMinimize: Iter:   6  F: -572.690145228318556  |grad|_K:  2.081e-05  alpha:  5.734e-01  linmin: -6.481e-05  t[s]:    103.81
	FillingsUpdate:  mu: -0.166808295  nElectrons: 343.000000
	SubspaceRotationAdjust: set factor to 0.331
ElecMinimize: Iter:   7  F: -572.694935801056999  |grad|_K:  1.087e-05  alpha:  3.047e-01  linmin: -2.576e-05  t[s]:    110.82
	FillingsUpdate:  mu: -0.167754654  nElectrons: 343.000000
	SubspaceRotationAdjust: set factor to 0.395
ElecMinimize: Iter:   8  F: -572.697006687000567  |grad|_K:  7.352e-06  alpha:  4.926e-01  linmin:  7.023e-06  t[s]:    117.92
	FillingsUpdate:  mu: -0.168803364  nElectrons: 343.000000
	SubspaceRotationAdjust: set factor to 0.407
ElecMinimize: Iter:   9  F: -572.697801687072683  |grad|_K:  4.986e-06  alpha:  4.175e-01  linmin:  3.678e-06  t[s]:    125.32
	FillingsUpdate:  mu: -0.168222283  nElectrons: 343.000000
	SubspaceRotationAdjust: set factor to 0.411
ElecMinimize: Iter:  10  F: -572.698284752783934  |grad|_K:  3.409e-06  alpha:  5.513e-01  linmin:  6.106e-06  t[s]:    132.62
	FillingsUpdate:  mu: -0.167924584  nElectrons: 343.000000
	SubspaceRotationAdjust: set factor to 0.455
ElecMinimize: Iter:  11  F: -572.698470787416113  |grad|_K:  2.686e-06  alpha:  4.560e-01  linmin:  2.392e-06  t[s]:    139.63
	FillingsUpdate:  mu: -0.168411518  nElectrons: 343.000000
	SubspaceRotationAdjust: set factor to 0.455
ElecMinimize: Iter:  12  F: -572.698595059199874  |grad|_K:  1.710e-06  alpha:  4.897e-01  linmin:  2.394e-06  t[s]:    146.89
	FillingsUpdate:  mu: -0.168550092  nElectrons: 343.000000
	SubspaceRotationAdjust: set factor to 0.516
ElecMinimize: Iter:  13  F: -572.698642021913543  |grad|_K:  1.297e-06  alpha:  4.579e-01  linmin:  1.433e-06  t[s]:    153.93
	FillingsUpdate:  mu: -0.168446746  nElectrons: 343.000000
	SubspaceRotationAdjust: set factor to 0.546
ElecMinimize: Iter:  14  F: -572.698671414527098  |grad|_K:  9.541e-07  alpha:  4.988e-01  linmin:  1.581e-06  t[s]:    160.88
	FillingsUpdate:  mu: -0.168479491  nElectrons: 343.000000
	SubspaceRotationAdjust: set factor to 0.568
ElecMinimize: Iter:  15  F: -572.698684381775024  |grad|_K:  6.577e-07  alpha:  4.091e-01  linmin:  7.937e-07  t[s]:    167.98
	FillingsUpdate:  mu: -0.168442787  nElectrons: 343.000000
	SubspaceRotationAdjust: set factor to 0.659
ElecMinimize: Iter:  16  F: -572.698691996402886  |grad|_K:  5.201e-07  alpha:  5.067e-01  linmin:  1.196e-06  t[s]:    175.36
	FillingsUpdate:  mu: -0.168448005  nElectrons: 343.000000
	SubspaceRotationAdjust: set factor to 0.739
ElecMinimize: Iter:  17  F: -572.698695599927419  |grad|_K:  3.496e-07  alpha:  3.840e-01  linmin:  4.209e-07  t[s]:    182.50
	FillingsUpdate:  mu: -0.168491446  nElectrons: 343.000000
	SubspaceRotationAdjust: set factor to 0.821
ElecMinimize: Iter:  18  F: -572.698697346898825  |grad|_K:  3.000e-07  alpha:  4.103e-01  linmin:  6.745e-07  t[s]:    189.53
	FillingsUpdate:  mu: -0.168473613  nElectrons: 343.000000
	SubspaceRotationAdjust: set factor to 0.998
ElecMinimize: Iter:  19  F: -572.698698303169408  |grad|_K:  2.208e-07  alpha:  3.019e-01  linmin:  1.436e-07  t[s]:    197.09
	FillingsUpdate:  mu: -0.168477503  nElectrons: 343.000000
	SubspaceRotationAdjust: set factor to 1.12
ElecMinimize: Iter:  20  F: -572.698698888504850  |grad|_K:  2.079e-07  alpha:  3.454e-01  linmin:  6.053e-07  t[s]:    204.02
	FillingsUpdate:  mu: -0.168481102  nElectrons: 343.000000
	SubspaceRotationAdjust: set factor to 1.07
ElecMinimize: Iter:  21  F: -572.698699274845467  |grad|_K:  1.904e-07  alpha:  2.544e-01  linmin:  6.189e-08  t[s]:    211.53
	FillingsUpdate:  mu: -0.168464178  nElectrons: 343.000000
	SubspaceRotationAdjust: set factor to 0.913
ElecMinimize: Iter:  22  F: -572.698699511332848  |grad|_K:  1.555e-07  alpha:  1.789e-01  linmin: -1.458e-08  t[s]:    218.61
	FillingsUpdate:  mu: -0.168453220  nElectrons: 343.000000
	SubspaceRotationAdjust: set factor to 0.834
ElecMinimize: Iter:  23  F: -572.698699676614524  |grad|_K:  1.397e-07  alpha:  1.935e-01  linmin:  1.330e-07  t[s]:    226.22
	FillingsUpdate:  mu: -0.168455277  nElectrons: 343.000000
	SubspaceRotationAdjust: set factor to 0.785
ElecMinimize: Iter:  24  F: -572.698699807414869  |grad|_K:  1.242e-07  alpha:  1.932e-01  linmin:  5.837e-08  t[s]:    233.54
	FillingsUpdate:  mu: -0.168459551  nElectrons: 343.000000
	SubspaceRotationAdjust: set factor to 0.641
ElecMinimize: Iter:  25  F: -572.698699904574710  |grad|_K:  1.046e-07  alpha:  1.793e-01  linmin:  7.025e-08  t[s]:    240.74
	FillingsUpdate:  mu: -0.168460808  nElectrons: 343.000000
	SubspaceRotationAdjust: set factor to 0.63
ElecMinimize: Iter:  26  F: -572.698699971903125  |grad|_K:  8.926e-08  alpha:  1.756e-01  linmin: -8.540e-09  t[s]:    247.92
	FillingsUpdate:  mu: -0.168462726  nElectrons: 343.000000
	SubspaceRotationAdjust: set factor to 0.629
ElecMinimize: Iter:  27  F: -572.698700035972365  |grad|_K:  8.611e-08  alpha:  2.260e-01  linmin: -9.308e-08  t[s]:    255.18
	FillingsUpdate:  mu: -0.168467116  nElectrons: 343.000000
	SubspaceRotationAdjust: set factor to 0.557
ElecMinimize: Iter:  28  F: -572.698700094059632  |grad|_K:  7.219e-08  alpha:  2.176e-01  linmin: -6.726e-08  t[s]:    262.37
	FillingsUpdate:  mu: -0.168469732  nElectrons: 343.000000
	SubspaceRotationAdjust: set factor to 0.592
ElecMinimize: Iter:  29  F: -572.698700134342630  |grad|_K:  6.270e-08  alpha:  2.162e-01  linmin: -4.285e-08  t[s]:    269.61
	FillingsUpdate:  mu: -0.168467622  nElectrons: 343.000000
	SubspaceRotationAdjust: set factor to 0.68
ElecMinimize: Iter:  30  F: -572.698700171720020  |grad|_K:  6.050e-08  alpha:  2.664e-01  linmin: -2.286e-08  t[s]:    276.60
	FillingsUpdate:  mu: -0.168463449  nElectrons: 343.000000
	SubspaceRotationAdjust: set factor to 0.622
ElecMinimize: Iter:  31  F: -572.698700200499616  |grad|_K:  5.215e-08  alpha:  2.197e-01  linmin:  8.373e-09  t[s]:    283.71
	FillingsUpdate:  mu: -0.168462480  nElectrons: 343.000000
	SubspaceRotationAdjust: set factor to 0.609
ElecMinimize: Iter:  32  F: -572.698700220118440  |grad|_K:  4.638e-08  alpha:  2.037e-01  linmin:  2.480e-08  t[s]:    291.01
	FillingsUpdate:  mu: -0.168464844  nElectrons: 343.000000
	SubspaceRotationAdjust: set factor to 0.692
ElecMinimize: Iter:  33  F: -572.698700237640423  |grad|_K:  4.593e-08  alpha:  2.325e-01  linmin:  3.890e-08  t[s]:    299.84
	FillingsUpdate:  mu: -0.168467121  nElectrons: 343.000000
	SubspaceRotationAdjust: set factor to 0.62
ElecMinimize: Iter:  34  F: -572.698700252631852  |grad|_K:  4.346e-08  alpha:  2.026e-01  linmin:  3.047e-08  t[s]:    307.10
	FillingsUpdate:  mu: -0.168466867  nElectrons: 343.000000
	SubspaceRotationAdjust: set factor to 0.547
ElecMinimize: Iter:  35  F: -572.698700263203705  |grad|_K:  3.671e-08  alpha:  1.587e-01  linmin:  1.311e-08  t[s]:    314.33
	FillingsUpdate:  mu: -0.168465397  nElectrons: 343.000000
	SubspaceRotationAdjust: set factor to 0.531
ElecMinimize: Iter:  36  F: -572.698700271307189  |grad|_K:  3.397e-08  alpha:  1.713e-01  linmin:  1.929e-08  t[s]:    321.50
	FillingsUpdate:  mu: -0.168464331  nElectrons: 343.000000
	SubspaceRotationAdjust: set factor to 0.481
ElecMinimize: Iter:  37  F: -572.698700278925799  |grad|_K:  3.328e-08  alpha:  1.885e-01  linmin:  2.326e-08  t[s]:    328.61
ElecMinimize: Converged (|Delta F|<1.000000e-08 for 2 iters).
Setting wave functions to eigenvectors of Hamiltonian

Computing DFT-D3 correction:
# coordination-number C 3.301 3.301 3.301 3.302 3.301 3.303 3.301 3.300 3.305 3.303 3.301 3.327 3.304 3.302 3.307 3.301 3.301 3.301 3.301 3.297 3.297 3.300 3.298 3.297 3.300 3.375 3.301 3.342 3.296 3.322 3.303 3.494 3.430 3.302 3.448 3.332 3.301 3.301 3.301 3.301 3.301 3.301 3.301 3.305 3.301 3.300 3.289 3.301 3.301 3.293 3.301 3.308 3.301 3.303 3.286 3.287 3.300 3.286 3.286 3.326 3.301 3.375 3.353 3.301 3.496 3.303 3.310 3.335 3.351 3.307 3.556
# coordination-number N 3.209
# coordination-number S 1.994 2.957 2.912 2.923 2.965 2.010
# coordination-number Na 4.141 4.384
# diagonal-C6 C 24.28 24.28 24.27 24.27 24.28 24.25 24.27 24.28 24.23 24.25 24.27 24.01 24.24 24.27 24.22 24.27 24.28 24.27 24.28 24.31 24.31 24.28 24.31 24.31 24.28 23.44 24.28 23.84 24.32 24.06 24.25 21.73 22.68 24.26 22.42 23.95 24.28 24.28 24.27 24.28 24.27 24.27 24.27 24.24 24.27 24.28 24.39 24.27 24.28 24.35 24.27 24.20 24.28 24.25 24.41 24.41 24.28 24.41 24.41 24.02 24.27 23.44 23.71 24.27 21.70 24.25 24.18 23.91 23.74 24.21 20.83
# diagonal-C6 N 15.60
# diagonal-C6 S 125.90 125.81 125.81 125.81 125.81 125.89
# diagonal-C6 Na 186.11 186.11
EvdW_6 =   -0.066813
EvdW_8 =   -0.060743

# Ionic positions in cartesian coordinates:
ion C  28.010542013705631   0.002014969601156   0.635465203747167 0
ion C  16.341968157882292  20.214705522223607   0.636370795694031 0
ion C   2.338532027351695   4.042411505399060   0.630361847754816 0
ion C  23.343313188735969   0.002278716019722   0.640022467239564 0
ion C   4.672620934470559   0.001554156700161   0.632050616002296 0
ion C  11.674116326115334  20.215100669694028   0.619847495055023 0
ion C  25.676530282256284   4.042904097616445   0.653564930084009 0
ion C  18.675851376129700  16.172910511284943   0.662695583431347 0
ion C   4.671777948336020   8.082036709586005   0.612564386226399 0
ion C  18.676336142016080   0.002101964498535   0.651180333522277 0
ion C   9.339850970925752   0.001738039847832   0.641511836963307 0
ion C   9.341212652353351  16.175613291750459   0.599279306155555 0
ion C  23.342941439729607   8.084920466015539   0.683240254571249 0
ion C  21.009110272076708  12.128959849493356   0.688453340004557 0
ion C   7.009085367604252  12.128528685817338   0.597262204671189 0
ion C  14.008105470077210   0.001988816408382   0.654008834012114 0
ion C  14.009120976896664  16.174984627607692   0.629938477890011 0
ion C   7.005550759074101   4.041176716120078   0.616350899393808 0
ion C  21.010101094155836   4.043302536041172   0.668670850704729 0
ion C  16.344445762465487  12.130683361169906   0.668518806438794 0
ion C   9.337643998902927   8.081728763982859   0.614931622729934 0
ion C  16.343783017314891   4.042062713362387   0.668836182024798 0
ion C  11.674085450205249   4.041278849785761   0.642196060576936 0
ion C  11.675597583834264  12.133622242506720   0.630068253549407 0
ion C  18.678074956154809   8.085220585829878   0.685769374381508 0
ion C   7.007175797728255  20.216155157604103   0.619709324068161 0
ion C  -6.996748017889800  20.214440105700564   0.653094683289385 0
ion C   0.002354623270169   8.082966457809835   0.657418822396948 0
ion C  14.012576459862725   8.083203697825988   0.669712893069494 0
ion C   2.339067441062872  20.216465077180068   0.646220757178249 0
ion C  -4.663670527593792  16.172490992184059   0.678596642017759 0
ion C   2.336125814129785  12.127745765919109   0.656417500003109 0
ion C  -2.332224039758668  12.128030282589300   0.685859862245795 0
ion C  -2.329659352792410  20.215194179952768   0.659830322184195 0
ion C   4.673933801454849  16.177740252210711   0.625359734501050 0
ion C   0.002990588629148  16.174656174657997   0.666554428718456 0
ion C  14.008266720144102  21.561374576259517   0.629777200837147 0
ion C   2.338930816614256   1.348570645432834   0.632009758527847 0
ion C  25.677100562977380   1.348988124751942   0.641986895200073 0
ion C  16.342686998612663  17.520648868856785   0.642302048336074 0
ion C   4.672307145938162   5.388219921962990   0.616057256550324 0
ion C  21.010123495302889   1.349044430338556   0.652394834146865 0
ion C   7.005937845436384   1.348033936218268   0.628031389286509 0
ion C  11.674692189550257  17.521226022139913   0.612057705166649 0
ion C  23.343784883173043   5.390651685198355   0.669612389866280 0
ion C  18.676972543384359  13.478483594758318   0.675595907033575 0
ion C   7.004963348139576   9.432115986525980   0.597538283264729 0
ion C  16.342472076605748   1.348066366442404   0.659130179870282 0
ion C  11.673522256343780   1.347802312891912   0.646547034509048 0
ion C   9.340696631175403  13.481256291567631   0.599303874261302 0
ion C  21.010487586627971   9.434228317035956   0.689549670827176 0
ion C   9.340862584041272  21.562275316056120   0.623251203387415 0
ion C  -9.330262385564788  21.561165527783945   0.640491424243255 0
ion C   0.004476893676090   5.389148113018151   0.645932445799481 0
ion C  14.011432130181314  13.480719160062115   0.643556882023976 0
ion C   9.339051356617166   5.386992451363917   0.621078239496768 0
ion C  18.677007069088155   5.390558998944344   0.676741055188348 0
ion C  16.345725884609092   9.434637493571932   0.679131999516677 0
ion C  14.009428395823310   5.387478001177438   0.662736904438848 0
ion C   4.673293824799767  21.561882602550448   0.637519226383223 0
ion C  -6.996841473985327  17.520066852095106   0.666346621047357 0
ion C   2.337134667876788   9.428913976861832   0.643387178107247 0
ion C  -2.330217064543965   9.432650452790400   0.678563548363968 0
ion C  -4.663349535264295  21.561481505082671   0.652392573786173 0
ion C   7.008365318233412  17.523060541264897   0.607450639135720 0
ion C   0.004487123343837  21.561671103490092   0.654109318198199 0
ion C  -4.664147187494722  13.477588422800194   0.688047082736968 0
ion C   4.674619807111762  13.479414560663223   0.625188064189185 0
ion C   2.338448909138405  17.522455183042435   0.645633689115609 0
ion C  -2.330712054942804  17.520790606615741   0.670058696770369 0
ion C   0.000363098194401  13.478789474313889   0.675559226948007 0
ion N  11.674484029805171   9.432912355349794   0.644194404697448 0
ion S   7.609161882573908  16.628764868286840  11.243646256152291 1
ion S   5.474709653827793  13.575160359851573  10.721655070960836 1
ion S   5.569965826942969  12.430921129462835   7.084418395579767 1
ion S   0.560046439926181  17.139426707660075   7.098442736872922 1
ion S   0.456779002999930  15.824220363667999  10.672584899250213 1
ion S  -1.720592806934114  12.755952196211549  10.936608825942150 1
ion Na   5.783762670901913  17.719086908273656   6.421710651861408 1
ion Na   0.293369819312878  11.838166389228306   6.237095217483287 1

# Forces in Cartesian coordinates:
force C  -0.000477554905547   0.000384845535632  -0.000153562068990 0
force C  -0.000729262881622   0.000066107753433  -0.000002030147514 0
force C  -0.000441535391015  -0.000224559642031  -0.000004815096711 0
force C   0.000780465738452   0.000753906464121  -0.000082233135581 0
force C  -0.000616638001777   0.000605190531471  -0.000053984577742 0
force C   0.000656221098597   0.000547131436425  -0.000057630741358 0
force C   0.000069720213692  -0.000802570286887  -0.000023899978360 0
force C  -0.000031904006861   0.001832417604098  -0.000016798511585 0
force C   0.002193504226572  -0.004118861675504   0.000419022998522 0
force C   0.000603852579714   0.001428871403966   0.000048912025789 0
force C  -0.001786608114858  -0.001078643876983  -0.000086383437715 0
force C   0.006340305697334  -0.000777196279084   0.000691094646147 0
force C  -0.001272149676140  -0.001074524367418   0.000048209721424 0
force C   0.001742867293668  -0.000958574138521  -0.000041213740958 0
force C  -0.006852513538735   0.003810265756083   0.000259221759660 0
force C   0.001796754051158  -0.001086741135689   0.000067002177639 0
force C  -0.004428586029278   0.000482656766018   0.000093889040025 0
force C  -0.003109444043195   0.003538612688602   0.000037591513842 0
force C   0.000226461856515   0.000032498514860  -0.000028396263800 0
force C   0.005327500874272   0.002856706675713   0.000123175720019 0
force C   0.005804434002767   0.004003074762366   0.000474261967899 0
force C   0.003221089151339   0.003646814038174  -0.000004500513281 0
force C   0.000336139162677  -0.006100091864044   0.000193219227626 0
force C   0.000086846341630  -0.006798868999847  -0.000233499512351 0
force C  -0.001484091094115  -0.004217037206222  -0.000041684587693 0
force C   0.001340184169691   0.001964410673987   0.000658173033130 0
force C  -0.001699761821224   0.000856242971669  -0.000006173327305 0
force C   0.000947759905528  -0.001390893724198   0.000225463590465 0
force C  -0.005904322577166   0.003696294313934  -0.000678902706288 0
force C   0.000626961470770   0.001020788243405  -0.000141838398681 0
force C   0.000222783140746   0.000038919939924  -0.000042549540948 0
force C   0.000877072663680  -0.000139361615033  -0.001560542924044 0
force C  -0.000630382361045  -0.001169557730554   0.000173393392725 0
force C   0.000131224128666  -0.000388982831219   0.000002957981896 0
force C  -0.001309725985991  -0.001474009929547  -0.000891681560616 0
force C  -0.000657772623066   0.000988897705716  -0.000772018524443 0
force C   0.000191266494355  -0.000180884385350   0.000060584603772 0
force C   0.000270678267193  -0.000206361253336   0.000015999797621 0
force C   0.000198279059315  -0.000168497147462   0.000101365822250 0
force C   0.001402153281963  -0.000907493226397   0.000088030984374 0
force C   0.000503826641097   0.000753997647187   0.000069219478639 0
force C  -0.000615496839846   0.000092027153628   0.000107246264950 0
force C   0.001646280142159  -0.000921025034933   0.000142693829036 0
force C   0.000483430952315  -0.000586072451050   0.000100380896825 0
force C  -0.000433860363641   0.000275495221903   0.000056608817390 0
force C  -0.004633121044851  -0.002645871758027  -0.000014389851344 0
force C   0.010024559297380   0.002535510431662   0.000776507926099 0
force C  -0.001882838701339  -0.000647946099050   0.000002443570205 0
force C   0.000129077291254   0.005095549417726  -0.000034841795166 0
force C   0.003131942529807  -0.011213485736865   0.000411014560940 0
force C  -0.000521139431714   0.001581588607588  -0.000023033997611 0
force C   0.000871113953256   0.000395476082919   0.000270595139419 0
force C   0.001495696087557  -0.000787149675547   0.000063069350388 0
force C   0.000188650481516  -0.000608595236444   0.000273314341707 0
force C  -0.003649160380155  -0.010464704166908   0.000090460990636 0
force C   0.007171247803429   0.007873980766484   0.000304418426570 0
force C  -0.000617239864493   0.000225248118678   0.000130249825652 0
force C  -0.010479636113048   0.002301395445689  -0.000045312088938 0
force C  -0.007243553152443   0.007871923576527  -0.000040341092182 0
force C  -0.002485625923107   0.000190933297156   0.000290886582723 0
force C  -0.000370254175011  -0.001246055571201   0.000160592555771 0
force C   0.001391301831575   0.002644934162883  -0.000288726163258 0
force C  -0.000724982129150   0.000840945599340   0.000376149457611 0
force C   0.001009641941312   0.001013812849083   0.000105216049082 0
force C  -0.001612416577313  -0.002299103451640   0.000577842155823 0
force C  -0.001361019391668   0.001400376418915   0.000218218073224 0
force C  -0.002660512098437   0.001010159762449   0.000410422105286 0
force C   0.004360481280329  -0.003842293299843  -0.000745608745617 0
force C  -0.000816704734083  -0.001748790776545  -0.000354019376421 0
force C   0.000598013685484  -0.000005652859847  -0.000249532356614 0
force C   0.002923815005149   0.000949979933988  -0.001216452111416 0
force N   0.000059898231356   0.000438358697075  -0.000471790135356 0
force S  -0.000264764141965   0.000336008037059  -0.000650864730031 1
force S   0.000118994367832   0.000086907654479   0.000166541980075 1
force S  -0.000903105215374  -0.000380450308704  -0.000253573641869 1
force S  -0.000249995862478   0.000146671319058   0.000022489536792 1
force S  -0.000021651601067  -0.001134750202197  -0.000022250506861 1
force S   0.000577166389070   0.000792419110178   0.000180743030413 1
force Na   0.000237811482086   0.000026013506656   0.000259609715342 1
force Na   0.000738143855096   0.000300552532622   0.000087264535358 1

# Energy components:
   Eewald =    -1861.6510345872138714
       EH =    -1427.0939387281748623
     Eloc =     2670.1508183008372725
      Enl =      -74.3308280071203598
     EvdW =       -0.1275562291182477
      Exc =     -171.1026053348127505
 Exc_core =       13.0859887710334633
       KE =      278.4415192729587147
-------------------------------------
     Etot =     -572.6276365416108547
       TS =        0.0710637373149380
-------------------------------------
        F =     -572.6987002789257986

IonicMinimize: Iter:   0  F: -572.698700278925799  |grad|_K:  4.479e-04  alpha:  1.000e+00

#--- Lowdin population analysis ---
# oxidation-state C +0.041 +0.042 +0.039 +0.037 +0.042 +0.036 +0.039 +0.044 +0.038 +0.037 +0.044 +0.030 +0.036 +0.041 +0.045 +0.043 +0.041 +0.042 +0.039 +0.046 +0.141 +0.041 +0.046 +0.140 +0.041 +0.014 +0.044 +0.021 +0.139 +0.031 +0.043 +0.014 +0.014 +0.044 +0.018 +0.038 +0.040 +0.041 +0.037 +0.043 +0.040 +0.039 +0.043 +0.035 +0.040 +0.037 +0.027 +0.042 +0.037 +0.027 +0.040 +0.032 +0.041 +0.037 +0.029 +0.029 +0.040 +0.028 +0.028 +0.024 +0.042 +0.020 +0.018 +0.043 +0.005 +0.040 +0.035 +0.029 +0.027 +0.039 +0.008
# oxidation-state N -0.001
# oxidation-state S -0.327 +0.382 -0.412 -0.403 +0.382 -0.333
# oxidation-state Na +0.727 +0.728


Computing DFT-D3 correction:
# coordination-number C 3.301 3.301 3.301 3.302 3.301 3.303 3.301 3.300 3.305 3.303 3.301 3.327 3.304 3.302 3.307 3.301 3.301 3.301 3.301 3.297 3.297 3.300 3.298 3.297 3.300 3.375 3.301 3.342 3.296 3.322 3.303 3.494 3.430 3.302 3.447 3.332 3.301 3.301 3.301 3.301 3.301 3.301 3.301 3.305 3.301 3.300 3.289 3.301 3.301 3.293 3.301 3.308 3.301 3.303 3.286 3.287 3.300 3.286 3.286 3.326 3.301 3.375 3.353 3.301 3.496 3.303 3.310 3.335 3.351 3.307 3.556
# coordination-number N 3.209
# coordination-number S 1.995 2.957 2.913 2.923 2.966 2.010
# coordination-number Na 4.141 4.386
# diagonal-C6 C 24.28 24.28 24.27 24.27 24.28 24.25 24.27 24.28 24.23 24.25 24.27 24.01 24.24 24.27 24.22 24.27 24.28 24.27 24.28 24.31 24.31 24.28 24.31 24.31 24.28 23.44 24.28 23.84 24.32 24.06 24.25 21.73 22.69 24.26 22.43 23.95 24.28 24.28 24.27 24.28 24.27 24.27 24.27 24.24 24.27 24.28 24.39 24.27 24.28 24.35 24.27 24.20 24.28 24.25 24.41 24.41 24.28 24.41 24.41 24.02 24.27 23.44 23.71 24.27 21.70 24.25 24.18 23.91 23.74 24.21 20.83
# diagonal-C6 N 15.60
# diagonal-C6 S 125.90 125.81 125.81 125.81 125.81 125.89
# diagonal-C6 Na 186.11 186.11
EvdW_6 =   -0.066813
EvdW_8 =   -0.060743

-------- Electronic minimization -----------
	FillingsUpdate:  mu: -0.168465884  nElectrons: 343.000000
ElecMinimize: Iter:   0  F: -572.698703945117813  |grad|_K:  1.550e-07  alpha:  1.000e+00
	FillingsUpdate:  mu: -0.168439135  nElectrons: 343.000000
	SubspaceRotationAdjust: set factor to 0.345
ElecMinimize: Iter:   1  F: -572.698704487935288  |grad|_K:  1.070e-07  alpha:  6.386e-01  linmin:  7.703e-07  t[s]:    345.98
	FillingsUpdate:  mu: -0.168458787  nElectrons: 343.000000
	SubspaceRotationAdjust: set factor to 0.261
ElecMinimize: Iter:   2  F: -572.698704639197899  |grad|_K:  4.963e-08  alpha:  3.737e-01  linmin:  1.158e-08  t[s]:    353.16
	FillingsUpdate:  mu: -0.168452340  nElectrons: 343.000000
	SubspaceRotationAdjust: set factor to 0.206
ElecMinimize: Iter:   3  F: -572.698704692484512  |grad|_K:  2.979e-08  alpha:  6.115e-01  linmin:  6.402e-08  t[s]:    360.19
	FillingsUpdate:  mu: -0.168452390  nElectrons: 343.000000
	SubspaceRotationAdjust: set factor to 0.291
ElecMinimize: Iter:   4  F: -572.698704717806095  |grad|_K:  1.850e-08  alpha:  8.073e-01  linmin:  4.542e-08  t[s]:    367.30
	FillingsUpdate:  mu: -0.168453896  nElectrons: 343.000000
	SubspaceRotationAdjust: set factor to 0.309
ElecMinimize: Iter:   5  F: -572.698704724360482  |grad|_K:  1.317e-08  alpha:  5.435e-01  linmin:  4.367e-09  t[s]:    374.42
	FillingsUpdate:  mu: -0.168454054  nElectrons: 343.000000
	SubspaceRotationAdjust: set factor to 0.384
ElecMinimize: Iter:   6  F: -572.698704728646362  |grad|_K:  8.691e-09  alpha:  6.974e-01  linmin:  2.799e-08  t[s]:    381.93
ElecMinimize: Converged (|Delta F|<1.000000e-08 for 2 iters).
Setting wave functions to eigenvectors of Hamiltonian
IonicMinimize: 	Predicted alpha/alphaT>3.000000, increasing alphaT to 3.000000e+00.

Computing DFT-D3 correction:
# coordination-number C 3.301 3.301 3.301 3.302 3.301 3.303 3.301 3.300 3.305 3.303 3.301 3.327 3.304 3.302 3.307 3.301 3.301 3.301 3.301 3.297 3.297 3.300 3.298 3.297 3.300 3.375 3.301 3.342 3.296 3.322 3.303 3.494 3.430 3.302 3.447 3.332 3.301 3.301 3.301 3.301 3.301 3.301 3.301 3.305 3.301 3.300 3.289 3.301 3.301 3.293 3.301 3.308 3.301 3.303 3.286 3.287 3.300 3.286 3.286 3.326 3.301 3.375 3.353 3.301 3.496 3.303 3.310 3.335 3.351 3.307 3.556
# coordination-number N 3.209
# coordination-number S 1.995 2.958 2.914 2.923 2.967 2.010
# coordination-number Na 4.141 4.388
# diagonal-C6 C 24.28 24.28 24.27 24.27 24.28 24.25 24.27 24.28 24.23 24.25 24.27 24.01 24.24 24.27 24.22 24.27 24.28 24.27 24.28 24.31 24.31 24.28 24.31 24.31 24.28 23.44 24.28 23.84 24.32 24.06 24.25 21.72 22.69 24.26 22.43 23.95 24.28 24.28 24.27 24.28 24.27 24.27 24.27 24.24 24.27 24.28 24.39 24.27 24.28 24.35 24.27 24.20 24.28 24.25 24.41 24.41 24.28 24.41 24.41 24.02 24.27 23.44 23.71 24.27 21.70 24.25 24.18 23.91 23.74 24.21 20.83
# diagonal-C6 N 15.60
# diagonal-C6 S 125.90 125.81 125.81 125.81 125.81 125.89
# diagonal-C6 Na 186.11 186.11
EvdW_6 =   -0.066813
EvdW_8 =   -0.060742

-------- Electronic minimization -----------
	FillingsUpdate:  mu: -0.168422435  nElectrons: 343.000000
ElecMinimize: Iter:   0  F: -572.698708339956738  |grad|_K:  2.839e-07  alpha:  1.000e+00
	FillingsUpdate:  mu: -0.168460456  nElectrons: 343.000000
	SubspaceRotationAdjust: set factor to 0.261
ElecMinimize: Iter:   1  F: -572.698710552951866  |grad|_K:  1.665e-07  alpha:  7.762e-01  linmin:  2.434e-06  t[s]:    395.70
	FillingsUpdate:  mu: -0.168419873  nElectrons: 343.000000
	SubspaceRotationAdjust: set factor to 0.174
ElecMinimize: Iter:   2  F: -572.698710930142170  |grad|_K:  7.981e-08  alpha:  3.848e-01  linmin: -2.222e-08  t[s]:    402.71
	FillingsUpdate:  mu: -0.168422949  nElectrons: 343.000000
	SubspaceRotationAdjust: set factor to 0.269
ElecMinimize: Iter:   3  F: -572.698711143635478  |grad|_K:  4.796e-08  alpha:  9.476e-01  linmin:  1.138e-07  t[s]:    409.82
	FillingsUpdate:  mu: -0.168432051  nElectrons: 343.000000
	SubspaceRotationAdjust: set factor to 0.303
ElecMinimize: Iter:   4  F: -572.698711207984161  |grad|_K:  3.195e-08  alpha:  7.919e-01  linmin:  5.078e-08  t[s]:    416.66

*************** JDFTx 1.7.0  ***************

Start date and time: Thu Sep 19 10:48:31 2024
Executable jdftx_gpu with command-line: -i /home/akim2/JDFTx/Na2S6@N_graphene-vdw/Na2S6@N_graphene-vdw.in -o /home/akim2/JDFTx/Na2S6@N_graphene-vdw/Na2S6@N_graphene-vdw.out
Running on hosts (process indices):  exp-6-57 (0)
Divided in process groups (process indices):  0 (0)
gpuInit: Found compatible cuda device 0 'Tesla V100-SXM2-32GB'
gpuInit: Selected device 0
Resource initialization completed at t[s]:      0.71
Run totals: 1 processes, 3 threads, 1 GPUs


Input parsed successfully to the following command list (including defaults):

basis kpoint-dependent
coords-type Cartesian
core-overlap-check vector
coulomb-interaction Slab 001
coulomb-truncation-embed 0 0 5
davidson-band-ratio 1.1
dump End State
dump-name Na2S6@N_graphene-vdw.$VAR
elec-cutoff 20 100
elec-eigen-algo Davidson
elec-ex-corr gga-PBE
elec-smearing Fermi 0.01
electronic-minimize  \
	dirUpdateScheme      FletcherReeves \
	linminMethod         DirUpdateRecommended \
	nIterations          100 \
	history              15 \
	knormThreshold       0 \
	energyDiffThreshold  1e-08 \
	nEnergyDiff          2 \
	alphaTstart          1 \
	alphaTmin            1e-10 \
	updateTestStepSize   yes \
	alphaTreduceFactor   0.1 \
	alphaTincreaseFactor 3 \
	nAlphaAdjustMax      3 \
	wolfeEnergy          0.0001 \
	wolfeGradient        0.9 \
	fdTest               no
exchange-regularization WignerSeitzTruncated
fluid None
fluid-ex-corr lda-TF lda-PZ
fluid-gummel-loop 10 1.000000e-05
fluid-minimize  \
	dirUpdateScheme      PolakRibiere \
	linminMethod         DirUpdateRecommended \
	nIterations          100 \
	history              15 \
	knormThreshold       0 \
	energyDiffThreshold  0 \
	nEnergyDiff          2 \
	alphaTstart          1 \
	alphaTmin            1e-10 \
	updateTestStepSize   yes \
	alphaTreduceFactor   0.1 \
	alphaTincreaseFactor 3 \
	nAlphaAdjustMax      3 \
	wolfeEnergy          0.0001 \
	wolfeGradient        0.9 \
	fdTest               no
fluid-solvent H2O 55.338 ScalarEOS \
	epsBulk 78.4 \
	pMol 0.92466 \
	epsInf 1.77 \
	Pvap 1.06736e-10 \
	sigmaBulk 4.62e-05 \
	Rvdw 2.61727 \
	Res 1.42 \
	tauNuc 343133 \
	poleEl 15 7 1
forces-output-coords Positions
ion C  28.010542013705631   0.002014969601156   0.635465203747167 0
ion C  16.341968157882292  20.214705522223607   0.636370795694031 0
ion C   2.338532027351695   4.042411505399060   0.630361847754816 0
ion C  23.343313188735969   0.002278716019722   0.640022467239564 0
ion C   4.672620934470559   0.001554156700161   0.632050616002296 0
ion C  11.674116326115334  20.215100669694028   0.619847495055023 0
ion C  25.676530282256284   4.042904097616445   0.653564930084009 0
ion C  18.675851376129700  16.172910511284943   0.662695583431347 0
ion C   4.671777948336020   8.082036709586005   0.612564386226399 0
ion C  18.676336142016080   0.002101964498535   0.651180333522277 0
ion C   9.339850970925752   0.001738039847832   0.641511836963307 0
ion C   9.341212652353351  16.175613291750459   0.599279306155555 0
ion C  23.342941439729607   8.084920466015539   0.683240254571249 0
ion C  21.009110272076708  12.128959849493356   0.688453340004557 0
ion C   7.009085367604252  12.128528685817338   0.597262204671189 0
ion C  14.008105470077210   0.001988816408382   0.654008834012114 0
ion C  14.009120976896664  16.174984627607692   0.629938477890011 0
ion C   7.005550759074101   4.041176716120078   0.616350899393808 0
ion C  21.010101094155836   4.043302536041172   0.668670850704729 0
ion C  16.344445762465487  12.130683361169906   0.668518806438794 0
ion C   9.337643998902927   8.081728763982859   0.614931622729934 0
ion C  16.343783017314891   4.042062713362387   0.668836182024798 0
ion C  11.674085450205249   4.041278849785761   0.642196060576936 0
ion C  11.675597583834264  12.133622242506720   0.630068253549407 0
ion C  18.678074956154809   8.085220585829878   0.685769374381508 0
ion C   7.007175797728255  20.216155157604103   0.619709324068161 0
ion C  -6.996748017889800  20.214440105700564   0.653094683289385 0
ion C   0.002354623270169   8.082966457809835   0.657418822396948 0
ion C  14.012576459862725   8.083203697825988   0.669712893069494 0
ion C   2.339067441062872  20.216465077180068   0.646220757178249 0
ion C  -4.663670527593792  16.172490992184059   0.678596642017759 0
ion C   2.336125814129785  12.127745765919109   0.656417500003109 0
ion C  -2.332224039758668  12.128030282589300   0.685859862245795 0
ion C  -2.329659352792410  20.215194179952768   0.659830322184195 0
ion C   4.673933801454849  16.177740252210711   0.625359734501050 0
ion C   0.002990588629148  16.174656174657997   0.666554428718456 0
ion C  14.008266720144102  21.561374576259517   0.629777200837147 0
ion C   2.338930816614256   1.348570645432834   0.632009758527847 0
ion C  25.677100562977380   1.348988124751942   0.641986895200073 0
ion C  16.342686998612663  17.520648868856785   0.642302048336074 0
ion C   4.672307145938162   5.388219921962990   0.616057256550324 0
ion C  21.010123495302889   1.349044430338556   0.652394834146865 0
ion C   7.005937845436384   1.348033936218268   0.628031389286509 0
ion C  11.674692189550257  17.521226022139913   0.612057705166649 0
ion C  23.343784883173043   5.390651685198355   0.669612389866280 0
ion C  18.676972543384359  13.478483594758318   0.675595907033575 0
ion C   7.004963348139576   9.432115986525980   0.597538283264729 0
ion C  16.342472076605748   1.348066366442404   0.659130179870282 0
ion C  11.673522256343780   1.347802312891912   0.646547034509048 0
ion C   9.340696631175403  13.481256291567631   0.599303874261302 0
ion C  21.010487586627971   9.434228317035956   0.689549670827176 0
ion C   9.340862584041272  21.562275316056120   0.623251203387415 0
ion C  -9.330262385564788  21.561165527783945   0.640491424243255 0
ion C   0.004476893676090   5.389148113018151   0.645932445799481 0
ion C  14.011432130181314  13.480719160062115   0.643556882023976 0
ion C   9.339051356617166   5.386992451363917   0.621078239496768 0
ion C  18.677007069088155   5.390558998944344   0.676741055188348 0
ion C  16.345725884609092   9.434637493571932   0.679131999516677 0
ion C  14.009428395823310   5.387478001177438   0.662736904438848 0
ion C   4.673293824799767  21.561882602550448   0.637519226383223 0
ion C  -6.996841473985327  17.520066852095106   0.666346621047357 0
ion C   2.337134667876788   9.428913976861832   0.643387178107247 0
ion C  -2.330217064543965   9.432650452790400   0.678563548363968 0
ion C  -4.663349535264295  21.561481505082671   0.652392573786173 0
ion C   7.008365318233412  17.523060541264897   0.607450639135720 0
ion C   0.004487123343837  21.561671103490092   0.654109318198199 0
ion C  -4.664147187494722  13.477588422800194   0.688047082736968 0
ion C   4.674619807111762  13.479414560663223   0.625188064189185 0
ion C   2.338448909138405  17.522455183042435   0.645633689115609 0
ion C  -2.330712054942804  17.520790606615741   0.670058696770369 0
ion C   0.000363098194401  13.478789474313889   0.675559226948007 0
ion N  11.674484029805171   9.432912355349794   0.644194404697448 0
ion S   7.609161882573908  16.628764868286840  11.243646256152291 1
ion S   5.474709653827793  13.575160359851573  10.721655070960836 1
ion S   5.569965826942969  12.430921129462835   7.084418395579767 1
ion S   0.560046439926181  17.139426707660075   7.098442736872922 1
ion S   0.456779002999930  15.824220363667999  10.672584899250213 1
ion S  -1.720592806934114  12.755952196211549  10.936608825942150 1
ion Na   5.783762670901913  17.719086908273656   6.421710651861408 1
ion Na   0.293369819312878  11.838166389228306   6.237095217483287 1
ion-species GBRV/$ID_pbe.uspp
ion-width 0
ionic-minimize  \
	dirUpdateScheme      FletcherReeves \
	linminMethod         DirUpdateRecommended \
	nIterations          200 \
	history              15 \
	knormThreshold       0.0001 \
	energyDiffThreshold  1e-06 \
	nEnergyDiff          2 \
	alphaTstart          1 \
	alphaTmin            1e-10 \
	updateTestStepSize   yes \
	alphaTreduceFactor   0.1 \
	alphaTincreaseFactor 3 \
	nAlphaAdjustMax      3 \
	wolfeEnergy          0.0001 \
	wolfeGradient        0.9 \
	fdTest               no
kpoint   0.000000000000   0.000000000000   0.000000000000  1.00000000000000
kpoint-folding 1 1 1 
latt-move-scale 1 1 1
latt-scale 1 1 1 
lattice Triclinic 28.0058 28.0058 37.7946 90 90 120
lattice-minimize  \
	dirUpdateScheme      L-BFGS \
	linminMethod         DirUpdateRecommended \
	nIterations          0 \
	history              15 \
	knormThreshold       0 \
	energyDiffThreshold  1e-06 \
	nEnergyDiff          2 \
	alphaTstart          1 \
	alphaTmin            1e-10 \
	updateTestStepSize   yes \
	alphaTreduceFactor   0.1 \
	alphaTincreaseFactor 3 \
	nAlphaAdjustMax      3 \
	wolfeEnergy          0.0001 \
	wolfeGradient        0.9 \
	fdTest               no
lcao-params -1 1e-06 0.01
pcm-variant GLSSA13
spintype no-spin
subspace-rotation-factor 1 yes
symmetries automatic
symmetry-threshold 0.0001
van-der-waals D3



---------- Setting up symmetries ----------

Found 24 point-group symmetries of the bravais lattice
Found 1 space-group symmetries with basis
Applied RMS atom displacement 0 bohrs to make symmetries exact.

---------- Initializing the Grid ----------
R = 
[      28.0058     -14.0029            0  ]
[            0      24.2537            0  ]
[            0            0      37.7946  ]
unit cell volume = 25671.8
G =
[   0.224353    0.12953         -0  ]
[          0   0.259061          0  ]
[          0         -0   0.166246  ]
Minimum fftbox size, Smin = [  128  128  172  ]
Chosen fftbox size, S = [  128  128  180  ]

---------- Initializing tighter grid for wavefunction operations ----------
R = 
[      28.0058     -14.0029            0  ]
[            0      24.2537            0  ]
[            0            0      37.7946  ]
unit cell volume = 25671.8
G =
[   0.224353    0.12953         -0  ]
[          0   0.259061          0  ]
[          0         -0   0.166246  ]
Minimum fftbox size, Smin = [  116  116  156  ]
Chosen fftbox size, S = [  120  120  160  ]

---------- Exchange Correlation functional ----------
Initalized PBE GGA exchange.
Initalized PBE GGA correlation.

---------- Setting up pseudopotentials ----------
Width of ionic core gaussian charges (only for fluid interactions / plotting) set to 0

Reading pseudopotential file '/home/akim2/jdftx_install/build/pseudopotentials/GBRV/c_pbe.uspp':
  Title: C.  Created by USPP 7.3.6 on 3-2-2014
  Reference state energy: -5.406344.  4 valence electrons in orbitals:
    |200>  occupation: 2  eigenvalue: -0.504890
    |210>  occupation: 2  eigenvalue: -0.194356
  lMax: 1  lLocal: 2  QijEcut: 5
  4 projectors sampled on a log grid with 503 points:
    l: 0  eig: -0.504890  rCut: 1.3
    l: 0  eig: 0.000000  rCut: 1.3
    l: 1  eig: -0.194357  rCut: 1.3
    l: 1  eig: 0.000000  rCut: 1.3
  Partial core density with radius 1.1
  Transforming core density to a uniform radial grid of dG=0.02 with 1625 points.
  Transforming local potential to a uniform radial grid of dG=0.02 with 1625 points.
  Transforming nonlocal projectors to a uniform radial grid of dG=0.02 with 432 points.
  Transforming density augmentations to a uniform radial grid of dG=0.02 with 1625 points.
  Transforming atomic orbitals to a uniform radial grid of dG=0.02 with 432 points.
  Core radius for overlap checks: 1.30 bohrs.

Reading pseudopotential file '/home/akim2/jdftx_install/build/pseudopotentials/GBRV/n_pbe.uspp':
  Title: N.  Created by USPP 7.3.6 on 3-2-2014
  Reference state energy: -9.763716.  5 valence electrons in orbitals:
    |200>  occupation: 2  eigenvalue: -0.681964
    |210>  occupation: 3  eigenvalue: -0.260726
  lMax: 1  lLocal: 2  QijEcut: 6
  4 projectors sampled on a log grid with 491 points:
    l: 0  eig: -0.681964  rCut: 1.15
    l: 0  eig: 0.000000  rCut: 1.15
    l: 1  eig: -0.260729  rCut: 1.2
    l: 1  eig: 0.500000  rCut: 1.2
  Partial core density with radius 0.8
  Transforming core density to a uniform radial grid of dG=0.02 with 1625 points.
  Transforming local potential to a uniform radial grid of dG=0.02 with 1625 points.
  Transforming nonlocal projectors to a uniform radial grid of dG=0.02 with 432 points.
  Transforming density augmentations to a uniform radial grid of dG=0.02 with 1625 points.
  Transforming atomic orbitals to a uniform radial grid of dG=0.02 with 432 points.
  Core radius for overlap checks: 1.20 bohrs.

Reading pseudopotential file '/home/akim2/jdftx_install/build/pseudopotentials/GBRV/s_pbe.uspp':
  Title: S.  Created by USPP 7.3.6 on 1-4-15
  Reference state energy: -11.898476.  6 valence electrons in orbitals:
    |300>  occupation: 2  eigenvalue: -0.634167
    |310>  occupation: 4  eigenvalue: -0.257568
  lMax: 2  lLocal: 3  QijEcut: 6
  6 projectors sampled on a log grid with 635 points:
    l: 0  eig: -0.634161  rCut: 1.5
    l: 0  eig: 1.500000  rCut: 1.5
    l: 1  eig: -0.257567  rCut: 1.5
    l: 1  eig: 1.500000  rCut: 1.5
    l: 2  eig: -1.000000  rCut: 1.5
    l: 2  eig: 1.500000  rCut: 1.5
  Partial core density with radius 1.15
  Transforming core density to a uniform radial grid of dG=0.02 with 1625 points.
  Transforming local potential to a uniform radial grid of dG=0.02 with 1625 points.
  Transforming nonlocal projectors to a uniform radial grid of dG=0.02 with 432 points.
  Transforming density augmentations to a uniform radial grid of dG=0.02 with 1625 points.
  Transforming atomic orbitals to a uniform radial grid of dG=0.02 with 432 points.
  Core radius for overlap checks: 1.50 bohrs.

Reading pseudopotential file '/home/akim2/jdftx_install/build/pseudopotentials/GBRV/na_pbe.uspp':
  Title: Na.  Created by USPP 7.3.6 on 23-9-15
  Reference state energy: -47.625620.  9 valence electrons in orbitals:
    |200>  occupation: 2  eigenvalue: -2.085638
    |210>  occupation: 6  eigenvalue: -1.053708
    |300>  occupation: 1  eigenvalue: -0.100838
  lMax: 2  lLocal: 0  QijEcut: 6
  5 projectors sampled on a log grid with 657 points:
    l: 0  eig: -2.085640  rCut: 1.37
    l: 0  eig: -0.100839  rCut: 1.37
    l: 1  eig: -1.053708  rCut: 1.47
    l: 1  eig: 0.500000  rCut: 1.47
    l: 2  eig: 0.750000  rCut: 2
  Transforming local potential to a uniform radial grid of dG=0.02 with 1625 points.
  Transforming nonlocal projectors to a uniform radial grid of dG=0.02 with 432 points.
  Transforming density augmentations to a uniform radial grid of dG=0.02 with 1625 points.
  Transforming atomic orbitals to a uniform radial grid of dG=0.02 with 432 points.
  Core radius for overlap checks: 2.00 bohrs.

Initialized 4 species with 80 total atoms.

Folded 1 k-points by 1x1x1 to 1 k-points.

---------- Setting up k-points, bands, fillings ----------
No reducable k-points. 
Computing the number of bands and number of electrons
Calculating initial fillings.
nElectrons: 343.000000   nBands: 322   nStates: 1

----- Setting up reduced wavefunction bases (one per k-point) -----
average nbasis = 109673.000 , ideal nbasis = 109671.883

---------- Setting up coulomb interaction ----------
Setting up double-sized grid for truncated Coulomb potentials:
R = 
[      28.0058     -14.0029            0  ]
[            0      24.2537            0  ]
[            0            0      75.5892  ]
unit cell volume = 51343.6
G =
[   0.224353    0.12953         -0  ]
[          0   0.259061          0  ]
[          0         -0  0.0831228  ]
Chosen fftbox size, S = [  128  128  360  ]
Integer grid location selected as the embedding center:
   Grid: [  0  0  24  ]
   Lattice: [  0  0  0.132294  ]
   Cartesian: [  0  0  5  ]
Constructing Wigner-Seitz cell: 8 faces (6 quadrilaterals, 2 hexagons)
Range-separation parameter for embedded mesh potentials due to point charges: 0.590105 bohrs.
Initialized slab truncation along lattice direction 001

Initializing DFT-D3 calculator:
	Parameters set for gga-PBE functional
	s6:  1.000  s_r6:  1.217
	s8:  0.722  s_r8:  1.000
	Per-atom parameters loaded for:
	 C:  sqrtQ[a0]:  3.105  Rcov[a0]:  1.417  CN: [ 0.00 0.99 2.00 3.00 3.98 ]
	 N:  sqrtQ[a0]:  2.712  Rcov[a0]:  1.342  CN: [ 0.00 0.99 2.01 2.99 ]
	 S:  sqrtQ[a0]:  4.041  Rcov[a0]:  1.928  CN: [ 0.00 0.99 1.99 ]
	Na:  sqrtQ[a0]:  6.586  Rcov[a0]:  2.646  CN: [ 0.00 0.97 ]

---------- Setting up 2D ewald sum ----------
Optimum gaussian width for ewald sums = 15.547689 bohr.
Real space sums over 289 unit cells with max indices [  8  8  0  ]
Reciprocal space sums over 81 terms with max indices [  4  4  0  ]

Computing DFT-D3 correction:
# coordination-number C 3.301 3.301 3.301 3.302 3.301 3.303 3.301 3.300 3.305 3.303 3.301 3.327 3.304 3.302 3.307 3.301 3.301 3.301 3.301 3.297 3.297 3.300 3.298 3.297 3.300 3.375 3.301 3.342 3.296 3.322 3.303 3.494 3.430 3.302 3.448 3.332 3.301 3.301 3.301 3.301 3.301 3.301 3.301 3.305 3.301 3.300 3.289 3.301 3.301 3.293 3.301 3.308 3.301 3.303 3.286 3.287 3.300 3.286 3.286 3.326 3.301 3.375 3.353 3.301 3.496 3.303 3.310 3.335 3.351 3.307 3.556
# coordination-number N 3.209
# coordination-number S 1.994 2.957 2.912 2.923 2.965 2.010
# coordination-number Na 4.141 4.384
# diagonal-C6 C 24.28 24.28 24.27 24.27 24.28 24.25 24.27 24.28 24.23 24.25 24.27 24.01 24.24 24.27 24.22 24.27 24.28 24.27 24.28 24.31 24.31 24.28 24.31 24.31 24.28 23.44 24.28 23.84 24.32 24.06 24.25 21.73 22.68 24.26 22.42 23.95 24.28 24.28 24.27 24.28 24.27 24.27 24.27 24.24 24.27 24.28 24.39 24.27 24.28 24.35 24.27 24.20 24.28 24.25 24.41 24.41 24.28 24.41 24.41 24.02 24.27 23.44 23.71 24.27 21.70 24.25 24.18 23.91 23.74 24.21 20.83
# diagonal-C6 N 15.60
# diagonal-C6 S 125.90 125.81 125.81 125.81 125.81 125.89
# diagonal-C6 Na 186.11 186.11
EvdW_6 =   -0.066813
EvdW_8 =   -0.060743

---------- Allocating electronic variables ----------
Initializing wave functions:  linear combination of atomic orbitals
C pseudo-atom occupations:   s ( 2 )  p ( 2 )
N pseudo-atom occupations:   s ( 2 )  p ( 3 )
S pseudo-atom occupations:   s ( 2 )  p ( 4 )
Na pseudo-atom occupations:   s ( 2 1 )  p ( 6 )
	FillingsUpdate:  mu: -0.194365339  nElectrons: 343.000000
LCAOMinimize: Iter:   0  F: -567.1808826154692724  |grad|_K:  9.879e-03  alpha:  1.000e+00
	FillingsUpdate:  mu: -0.300124387  nElectrons: 343.000000
LCAOMinimize: Iter:   1  F: -567.7732105731366801  |grad|_K:  6.375e-03  alpha:  1.610e-01  linmin:  9.329e-02  cgtest: -7.347e-01  t[s]:      8.81
LCAOMinimize: 	Bad step direction: g.d > 0.
LCAOMinimize: 	Undoing step.
LCAOMinimize: 	Step failed: resetting search direction.
	FillingsUpdate:  mu: -0.300124387  nElectrons: 343.000000
LCAOMinimize: Iter:   2  F: -567.7732105731366801  |grad|_K:  6.375e-03  alpha:  0.000e+00
	FillingsUpdate:  mu: -0.282900999  nElectrons: 343.000000
LCAOMinimize: Iter:   3  F: -568.0144110810236953  |grad|_K:  1.212e-03  alpha:  9.251e-02  linmin: -2.322e-01  cgtest:  3.176e-01  t[s]:     11.62
LCAOMinimize: Encountered beta<0, resetting CG.
	FillingsUpdate:  mu: -0.286232149  nElectrons: 343.000000
LCAOMinimize: Iter:   4  F: -568.0263579693082647  |grad|_K:  1.040e-03  alpha:  1.757e-01  linmin:  5.753e-02  cgtest: -1.649e-01  t[s]:     13.28
	FillingsUpdate:  mu: -0.286918744  nElectrons: 343.000000
LCAOMinimize: Iter:   5  F: -568.0313738224803046  |grad|_K:  7.072e-04  alpha:  1.244e-01  linmin: -2.352e-04  cgtest:  7.447e-01  t[s]:     14.90
LCAOMinimize: Encountered beta<0, resetting CG.
	FillingsUpdate:  mu: -0.289090438  nElectrons: 343.000000
LCAOMinimize: Iter:   6  F: -568.0337544017887694  |grad|_K:  3.069e-04  alpha:  9.283e-02  linmin: -4.951e-03  cgtest:  1.348e-02  t[s]:     16.54
	FillingsUpdate:  mu: -0.289406821  nElectrons: 343.000000
LCAOMinimize: Iter:   7  F: -568.0349767584666552  |grad|_K:  2.106e-04  alpha:  2.506e-01  linmin:  6.593e-03  cgtest: -9.530e-02  t[s]:     18.17
	FillingsUpdate:  mu: -0.288204610  nElectrons: 343.000000
LCAOMinimize: Iter:   8  F: -568.0356635416559357  |grad|_K:  1.238e-04  alpha:  3.064e-01  linmin: -2.995e-04  cgtest:  1.424e-01  t[s]:     19.80
	FillingsUpdate:  mu: -0.288131125  nElectrons: 343.000000
LCAOMinimize: Iter:   9  F: -568.0358188224789728  |grad|_K:  7.638e-05  alpha:  1.926e-01  linmin: -2.120e-04  cgtest:  1.142e-02  t[s]:     21.44
	FillingsUpdate:  mu: -0.288231400  nElectrons: 343.000000
LCAOMinimize: Iter:  10  F: -568.0358542329706779  |grad|_K:  2.428e-05  alpha:  1.163e-01  linmin:  7.504e-05  cgtest: -1.396e-02  t[s]:     23.08
	FillingsUpdate:  mu: -0.288312381  nElectrons: 343.000000
LCAOMinimize: Iter:  11  F: -568.0358601593785579  |grad|_K:  1.200e-05  alpha:  1.929e-01  linmin:  7.102e-04  cgtest: -1.572e-03  t[s]:     24.72
	FillingsUpdate:  mu: -0.288325520  nElectrons: 343.000000
LCAOMinimize: Iter:  12  F: -568.0358622520122935  |grad|_K:  9.734e-06  alpha:  2.791e-01  linmin: -1.267e-04  cgtest:  2.892e-03  t[s]:     26.38
	FillingsUpdate:  mu: -0.288330400  nElectrons: 343.000000
LCAOMinimize: Iter:  13  F: -568.0358632685515659  |grad|_K:  7.183e-06  alpha:  2.055e-01  linmin:  7.500e-06  cgtest: -2.390e-03  t[s]:     28.02
	FillingsUpdate:  mu: -0.288339763  nElectrons: 343.000000
LCAOMinimize: Iter:  14  F: -568.0358636338021370  |grad|_K:  1.879e-06  alpha:  1.358e-01  linmin:  8.488e-06  cgtest:  8.935e-04  t[s]:     29.65
	FillingsUpdate:  mu: -0.288344980  nElectrons: 343.000000
LCAOMinimize: Iter:  15  F: -568.0358636685334659  |grad|_K:  8.925e-07  alpha:  1.890e-01  linmin:  1.014e-03  cgtest: -4.806e-03  t[s]:     31.28
LCAOMinimize: Converged (|Delta F|<1.000000e-06 for 2 iters).


---- Citations for features of the code used in this run ----

   Software package:
      R. Sundararaman, K. Letchworth-Weaver, K.A. Schwarz, D. Gunceler, Y. Ozhabes and T.A. Arias, 'JDFTx: software for joint density-functional theory', SoftwareX 6, 278 (2017)

   gga-PBE exchange-correlation functional:
      J.P. Perdew, K. Burke and M. Ernzerhof, Phys. Rev. Lett. 77, 3865 (1996)

   Pseudopotentials:
      KF Garrity, JW Bennett, KM Rabe and D Vanderbilt, Comput. Mater. Sci. 81, 446 (2014)

   Truncated Coulomb potentials:
      R. Sundararaman and T.A. Arias, Phys. Rev. B 87, 165122 (2013)

   DFT-D3 dispersion correction:
      S. Grimme, J. Antony, S. Ehrlich and H. Krieg, J. Chem. Phys. 132, 154104 (2010)

   Total energy minimization with Auxiliary Hamiltonian:
      C. Freysoldt, S. Boeck, and J. Neugebauer, Phys. Rev. B 79, 241103(R) (2009)

This list may not be complete. Please suggest additional citations or
report any other bugs at https://github.com/shankar1729/jdftx/issues

Initialization completed successfully at t[s]:     31.47


Computing DFT-D3 correction:
# coordination-number C 3.301 3.301 3.301 3.302 3.301 3.303 3.301 3.300 3.305 3.303 3.301 3.327 3.304 3.302 3.307 3.301 3.301 3.301 3.301 3.297 3.297 3.300 3.298 3.297 3.300 3.375 3.301 3.342 3.296 3.322 3.303 3.494 3.430 3.302 3.448 3.332 3.301 3.301 3.301 3.301 3.301 3.301 3.301 3.305 3.301 3.300 3.289 3.301 3.301 3.293 3.301 3.308 3.301 3.303 3.286 3.287 3.300 3.286 3.286 3.326 3.301 3.375 3.353 3.301 3.496 3.303 3.310 3.335 3.351 3.307 3.556
# coordination-number N 3.209
# coordination-number S 1.994 2.957 2.912 2.923 2.965 2.010
# coordination-number Na 4.141 4.384
# diagonal-C6 C 24.28 24.28 24.27 24.27 24.28 24.25 24.27 24.28 24.23 24.25 24.27 24.01 24.24 24.27 24.22 24.27 24.28 24.27 24.28 24.31 24.31 24.28 24.31 24.31 24.28 23.44 24.28 23.84 24.32 24.06 24.25 21.73 22.68 24.26 22.42 23.95 24.28 24.28 24.27 24.28 24.27 24.27 24.27 24.24 24.27 24.28 24.39 24.27 24.28 24.35 24.27 24.20 24.28 24.25 24.41 24.41 24.28 24.41 24.41 24.02 24.27 23.44 23.71 24.27 21.70 24.25 24.18 23.91 23.74 24.21 20.83
# diagonal-C6 N 15.60
# diagonal-C6 S 125.90 125.81 125.81 125.81 125.81 125.89
# diagonal-C6 Na 186.11 186.11
EvdW_6 =   -0.066813
EvdW_8 =   -0.060743

-------- Electronic minimization -----------
	FillingsUpdate:  mu: -0.288344980  nElectrons: 343.000000
ElecMinimize: Iter:   0  F: -568.035863668530055  |grad|_K:  4.071e-04  alpha:  1.000e+00
	FillingsUpdate:  mu: -0.149964373  nElectrons: 343.000000
	SubspaceRotationAdjust: set factor to 1
ElecMinimize: Iter:   1  F: -572.233649195002045  |grad|_K:  1.413e-04  alpha:  7.250e-01  linmin: -6.998e-05  t[s]:     37.37
	FillingsUpdate:  mu: -0.147345350  nElectrons: 343.000000
	SubspaceRotationAdjust: set factor to 0.622
ElecMinimize: Iter:   2  F: -572.380446732300015  |grad|_K:  1.760e-04  alpha:  2.970e-01  linmin:  3.323e-04  t[s]:     39.62
	FillingsUpdate:  mu: -0.165950338  nElectrons: 343.000000
	SubspaceRotationAdjust: set factor to 0.825
ElecMinimize: Iter:   3  F: -572.604872495154041  |grad|_K:  5.136e-05  alpha:  2.354e-01  linmin: -1.615e-05  t[s]:     41.92
	FillingsUpdate:  mu: -0.160414403  nElectrons: 343.000000
	SubspaceRotationAdjust: set factor to 0.501
ElecMinimize: Iter:   4  F: -572.661141427014400  |grad|_K:  5.755e-05  alpha:  6.475e-01  linmin:  7.155e-04  t[s]:     44.19
	FillingsUpdate:  mu: -0.171035344  nElectrons: 343.000000
	SubspaceRotationAdjust: set factor to 0.456
ElecMinimize: Iter:   5  F: -572.676802933515319  |grad|_K:  2.661e-05  alpha:  1.757e-01  linmin:  3.442e-04  t[s]:     46.47
ElecMinimize: 	Predicted alpha/alphaT>3.000000, increasing alphaT to 5.270092e-01.
	FillingsUpdate:  mu: -0.169364122  nElectrons: 343.000000
	SubspaceRotationAdjust: set factor to 0.436
ElecMinimize: Iter:   6  F: -572.690146001374615  |grad|_K:  2.081e-05  alpha:  5.734e-01  linmin: -6.479e-05  t[s]:     49.39
	FillingsUpdate:  mu: -0.166808372  nElectrons: 343.000000
	SubspaceRotationAdjust: set factor to 0.331
ElecMinimize: Iter:   7  F: -572.694936192215209  |grad|_K:  1.087e-05  alpha:  3.047e-01  linmin: -2.575e-05  t[s]:     51.66
	FillingsUpdate:  mu: -0.167755087  nElectrons: 343.000000
	SubspaceRotationAdjust: set factor to 0.395
ElecMinimize: Iter:   8  F: -572.697006939645235  |grad|_K:  7.351e-06  alpha:  4.926e-01  linmin:  7.024e-06  t[s]:     53.94
	FillingsUpdate:  mu: -0.168803401  nElectrons: 343.000000
	SubspaceRotationAdjust: set factor to 0.407
ElecMinimize: Iter:   9  F: -572.697801792134669  |grad|_K:  4.986e-06  alpha:  4.175e-01  linmin:  3.678e-06  t[s]:     56.21
	FillingsUpdate:  mu: -0.168222171  nElectrons: 343.000000
	SubspaceRotationAdjust: set factor to 0.411
ElecMinimize: Iter:  10  F: -572.698284815305556  |grad|_K:  3.409e-06  alpha:  5.513e-01  linmin:  6.107e-06  t[s]:     58.46
	FillingsUpdate:  mu: -0.167924664  nElectrons: 343.000000
	SubspaceRotationAdjust: set factor to 0.455
ElecMinimize: Iter:  11  F: -572.698470833623219  |grad|_K:  2.685e-06  alpha:  4.561e-01  linmin:  2.392e-06  t[s]:     60.72
	FillingsUpdate:  mu: -0.168411573  nElectrons: 343.000000
	SubspaceRotationAdjust: set factor to 0.455
ElecMinimize: Iter:  12  F: -572.698595078542212  |grad|_K:  1.710e-06  alpha:  4.897e-01  linmin:  2.394e-06  t[s]:     63.01
	FillingsUpdate:  mu: -0.168550069  nElectrons: 343.000000
	SubspaceRotationAdjust: set factor to 0.516
ElecMinimize: Iter:  13  F: -572.698642035682155  |grad|_K:  1.297e-06  alpha:  4.580e-01  linmin:  1.433e-06  t[s]:     65.28
	FillingsUpdate:  mu: -0.168446746  nElectrons: 343.000000
	SubspaceRotationAdjust: set factor to 0.546
ElecMinimize: Iter:  14  F: -572.698671422074995  |grad|_K:  9.539e-07  alpha:  4.988e-01  linmin:  1.580e-06  t[s]:     67.55
	FillingsUpdate:  mu: -0.168479494  nElectrons: 343.000000
	SubspaceRotationAdjust: set factor to 0.568
ElecMinimize: Iter:  15  F: -572.698684385446768  |grad|_K:  6.576e-07  alpha:  4.091e-01  linmin:  7.935e-07  t[s]:     69.82
	FillingsUpdate:  mu: -0.168442766  nElectrons: 343.000000
	SubspaceRotationAdjust: set factor to 0.659
ElecMinimize: Iter:  16  F: -572.698691998948789  |grad|_K:  5.200e-07  alpha:  5.067e-01  linmin:  1.196e-06  t[s]:     72.08
	FillingsUpdate:  mu: -0.168448030  nElectrons: 343.000000
	SubspaceRotationAdjust: set factor to 0.739
ElecMinimize: Iter:  17  F: -572.698695601003124  |grad|_K:  3.495e-07  alpha:  3.839e-01  linmin:  4.205e-07  t[s]:     74.37
	FillingsUpdate:  mu: -0.168491447  nElectrons: 343.000000
	SubspaceRotationAdjust: set factor to 0.821
ElecMinimize: Iter:  18  F: -572.698697347801385  |grad|_K:  2.999e-07  alpha:  4.104e-01  linmin:  6.752e-07  t[s]:     76.65
	FillingsUpdate:  mu: -0.168473607  nElectrons: 343.000000
	SubspaceRotationAdjust: set factor to 0.998
[...]
	FillingsUpdate:  mu: -0.168514332  nElectrons: 343.000000
	SubspaceRotationAdjust: set factor to 0.378
ElecMinimize: Iter:   1  F: -572.698885025275445  |grad|_K:  5.531e-07  alpha:  8.358e-01  linmin:  4.727e-06  t[s]:   1698.94
	FillingsUpdate:  mu: -0.168587465  nElectrons: 343.000000
	SubspaceRotationAdjust: set factor to 0.368
ElecMinimize: Iter:   2  F: -572.698891792578593  |grad|_K:  3.300e-07  alpha:  6.257e-01  linmin: -1.727e-06  t[s]:   1701.23
	FillingsUpdate:  mu: -0.168531519  nElectrons: 343.000000
	SubspaceRotationAdjust: set factor to 0.345
ElecMinimize: Iter:   3  F: -572.698893909001299  |grad|_K:  2.257e-07  alpha:  5.495e-01  linmin:  1.635e-06  t[s]:   1703.50
	FillingsUpdate:  mu: -0.168555179  nElectrons: 343.000000
	SubspaceRotationAdjust: set factor to 0.45
ElecMinimize: Iter:   4  F: -572.698894909707860  |grad|_K:  1.082e-07  alpha:  5.557e-01  linmin: -6.514e-07  t[s]:   1705.82
	FillingsUpdate:  mu: -0.168560666  nElectrons: 343.000000
	SubspaceRotationAdjust: set factor to 0.506
ElecMinimize: Iter:   5  F: -572.698895224124499  |grad|_K:  7.590e-08  alpha:  7.589e-01  linmin:  4.859e-08  t[s]:   1708.12
	FillingsUpdate:  mu: -0.168548441  nElectrons: 343.000000
	SubspaceRotationAdjust: set factor to 0.415
ElecMinimize: Iter:   6  F: -572.698895305264955  |grad|_K:  4.214e-08  alpha:  3.982e-01  linmin: -1.024e-06  t[s]:   1710.41
	FillingsUpdate:  mu: -0.168556751  nElectrons: 343.000000
	SubspaceRotationAdjust: set factor to 0.268
ElecMinimize: Iter:   7  F: -572.698895337503245  |grad|_K:  2.683e-08  alpha:  5.135e-01  linmin:  4.907e-06  t[s]:   1712.71
	FillingsUpdate:  mu: -0.168553334  nElectrons: 343.000000
	SubspaceRotationAdjust: set factor to 0.299
ElecMinimize: Iter:   8  F: -572.698895348673432  |grad|_K:  1.330e-08  alpha:  4.398e-01  linmin:  4.986e-06  t[s]:   1714.99
	FillingsUpdate:  mu: -0.168552632  nElectrons: 343.000000
	SubspaceRotationAdjust: set factor to 0.334
ElecMinimize: Iter:   9  F: -572.698895351690908  |grad|_K:  7.597e-09  alpha:  4.819e-01  linmin: -1.121e-05  t[s]:   1717.27
	FillingsUpdate:  mu: -0.168553609  nElectrons: 343.000000
	SubspaceRotationAdjust: set factor to 0.287
ElecMinimize: Iter:  10  F: -572.698895352746490  |grad|_K:  4.025e-09  alpha:  5.177e-01  linmin: -1.811e-06  t[s]:   1719.55
ElecMinimize: Converged (|Delta F|<1.000000e-08 for 2 iters).
Setting wave functions to eigenvectors of Hamiltonian

Computing DFT-D3 correction:
# coordination-number C 3.301 3.301 3.301 3.302 3.301 3.303 3.301 3.300 3.305 3.303 3.301 3.329 3.304 3.301 3.307 3.301 3.301 3.301 3.301 3.297 3.297 3.300 3.298 3.297 3.300 3.401 3.301 3.335 3.296 3.331 3.303 3.471 3.412 3.302 3.497 3.332 3.301 3.301 3.301 3.301 3.301 3.301 3.301 3.305 3.301 3.300 3.289 3.301 3.301 3.293 3.301 3.309 3.301 3.303 3.286 3.287 3.300 3.286 3.286 3.336 3.301 3.363 3.345 3.301 3.550 3.304 3.310 3.338 3.369 3.307 3.530
# coordination-number N 3.209
# coordination-number S 2.006 3.002 2.919 2.925 3.005 2.006
# coordination-number Na 4.352 4.316
# diagonal-C6 C 24.28 24.28 24.27 24.26 24.28 24.25 24.27 24.28 24.24 24.25 24.27 23.98 24.25 24.27 24.21 24.27 24.28 24.27 24.28 24.31 24.31 24.28 24.31 24.31 24.28 23.09 24.28 23.92 24.32 23.97 24.25 22.07 22.93 24.26 21.69 23.96 24.28 24.28 24.27 24.28 24.27 24.27 24.27 24.24 24.27 24.28 24.39 24.27 24.28 24.35 24.27 24.19 24.28 24.25 24.41 24.41 24.28 24.41 24.41 23.91 24.27 23.59 23.80 24.27 20.93 24.25 24.19 23.89 23.52 24.21 21.21
# diagonal-C6 N 15.60
# diagonal-C6 S 125.90 125.81 125.81 125.81 125.81 125.90
# diagonal-C6 Na 186.11 186.11
EvdW_6 =   -0.066786
EvdW_8 =   -0.060761

-------- Electronic minimization -----------
	FillingsUpdate:  mu: -0.168541515  nElectrons: 343.000000
ElecMinimize: Iter:   0  F: -572.698872595618809  |grad|_K:  8.614e-07  alpha:  1.000e+00
	FillingsUpdate:  mu: -0.168606746  nElectrons: 343.000000
	SubspaceRotationAdjust: set factor to 0.311
ElecMinimize: Iter:   1  F: -572.698894765773844  |grad|_K:  3.314e-07  alpha:  8.449e-01  linmin: -3.610e-06  t[s]:   1725.89
	FillingsUpdate:  mu: -0.168572630  nElectrons: 343.000000
	SubspaceRotationAdjust: set factor to 0.354
ElecMinimize: Iter:   2  F: -572.698897346009630  |grad|_K:  2.016e-07  alpha:  6.642e-01  linmin:  4.344e-07  t[s]:   1728.16
	FillingsUpdate:  mu: -0.168591278  nElectrons: 343.000000
	SubspaceRotationAdjust: set factor to 0.419
ElecMinimize: Iter:   3  F: -572.698898238707329  |grad|_K:  1.538e-07  alpha:  6.213e-01  linmin: -4.866e-07  t[s]:   1730.45
	FillingsUpdate:  mu: -0.168589859  nElectrons: 343.000000
	SubspaceRotationAdjust: set factor to 0.605
ElecMinimize: Iter:   4  F: -572.698898678750083  |grad|_K:  8.742e-08  alpha:  5.257e-01  linmin:  1.647e-07  t[s]:   1732.74
	FillingsUpdate:  mu: -0.168576586  nElectrons: 343.000000
	SubspaceRotationAdjust: set factor to 0.438
ElecMinimize: Iter:   5  F: -572.698898863203908  |grad|_K:  7.427e-08  alpha:  6.826e-01  linmin:  2.163e-06  t[s]:   1735.06
	FillingsUpdate:  mu: -0.168591421  nElectrons: 343.000000
	SubspaceRotationAdjust: set factor to 0.251
ElecMinimize: Iter:   6  F: -572.698898917843280  |grad|_K:  3.509e-08  alpha:  2.803e-01  linmin:  2.244e-06  t[s]:   1737.32
	FillingsUpdate:  mu: -0.168588188  nElectrons: 343.000000
	SubspaceRotationAdjust: set factor to 0.289
ElecMinimize: Iter:   7  F: -572.698898941390212  |grad|_K:  2.317e-08  alpha:  5.420e-01  linmin:  1.323e-05  t[s]:   1739.59
	FillingsUpdate:  mu: -0.168585827  nElectrons: 343.000000
	SubspaceRotationAdjust: set factor to 0.29
ElecMinimize: Iter:   8  F: -572.698898949974478  |grad|_K:  1.147e-08  alpha:  4.523e-01  linmin: -1.345e-05  t[s]:   1741.86
	FillingsUpdate:  mu: -0.168587133  nElectrons: 343.000000
	SubspaceRotationAdjust: set factor to 0.298
ElecMinimize: Iter:   9  F: -572.698898952758668  |grad|_K:  6.037e-09  alpha:  5.988e-01  linmin: -3.990e-05  t[s]:   1744.13
ElecMinimize: Converged (|Delta F|<1.000000e-08 for 2 iters).
Setting wave functions to eigenvectors of Hamiltonian

Computing DFT-D3 correction:
# coordination-number C 3.301 3.301 3.301 3.302 3.301 3.303 3.301 3.300 3.305 3.303 3.301 3.329 3.304 3.301 3.307 3.301 3.301 3.301 3.301 3.297 3.297 3.300 3.298 3.297 3.300 3.401 3.301 3.335 3.296 3.331 3.303 3.471 3.412 3.302 3.497 3.332 3.301 3.301 3.301 3.301 3.301 3.301 3.301 3.305 3.301 3.300 3.289 3.301 3.301 3.293 3.301 3.309 3.301 3.303 3.286 3.287 3.300 3.286 3.286 3.336 3.301 3.363 3.345 3.301 3.550 3.304 3.310 3.338 3.369 3.307 3.530
# coordination-number N 3.209
# coordination-number S 2.006 3.002 2.919 2.925 3.005 2.006
# coordination-number Na 4.352 4.316
# diagonal-C6 C 24.28 24.28 24.27 24.26 24.28 24.25 24.27 24.28 24.24 24.25 24.27 23.98 24.25 24.27 24.21 24.27 24.28 24.27 24.28 24.31 24.31 24.28 24.31 24.31 24.28 23.09 24.28 23.92 24.32 23.97 24.25 22.07 22.93 24.26 21.69 23.96 24.28 24.28 24.27 24.28 24.27 24.27 24.27 24.24 24.27 24.28 24.39 24.27 24.28 24.35 24.27 24.19 24.28 24.25 24.41 24.41 24.28 24.41 24.41 23.91 24.27 23.59 23.80 24.27 20.93 24.25 24.19 23.89 23.52 24.21 21.21
# diagonal-C6 N 15.60
# diagonal-C6 S 125.90 125.81 125.81 125.81 125.81 125.90
# diagonal-C6 Na 186.11 186.11
EvdW_6 =   -0.066786
EvdW_8 =   -0.060761

# Ionic positions in cartesian coordinates:
ion C  28.010542013705631   0.002014969601156   0.635465203747167 0
ion C  16.341968157882292  20.214705522223607   0.636370795694031 0
ion C   2.338532027351695   4.042411505399060   0.630361847754816 0
ion C  23.343313188735969   0.002278716019722   0.640022467239564 0
ion C   4.672620934470559   0.001554156700161   0.632050616002296 0
ion C  11.674116326115334  20.215100669694028   0.619847495055023 0
ion C  25.676530282256284   4.042904097616445   0.653564930084009 0
ion C  18.675851376129700  16.172910511284943   0.662695583431347 0
ion C   4.671777948336020   8.082036709586005   0.612564386226399 0
ion C  18.676336142016080   0.002101964498535   0.651180333522277 0
ion C   9.339850970925752   0.001738039847832   0.641511836963307 0
ion C   9.341212652353351  16.175613291750459   0.599279306155555 0
ion C  23.342941439729607   8.084920466015539   0.683240254571249 0
ion C  21.009110272076708  12.128959849493356   0.688453340004557 0
ion C   7.009085367604252  12.128528685817338   0.597262204671189 0
ion C  14.008105470077210   0.001988816408382   0.654008834012114 0
ion C  14.009120976896664  16.174984627607692   0.629938477890011 0
ion C   7.005550759074101   4.041176716120078   0.616350899393808 0
ion C  21.010101094155836   4.043302536041172   0.668670850704729 0
ion C  16.344445762465487  12.130683361169906   0.668518806438794 0
ion C   9.337643998902927   8.081728763982859   0.614931622729934 0
ion C  16.343783017314891   4.042062713362387   0.668836182024798 0
ion C  11.674085450205249   4.041278849785761   0.642196060576936 0
ion C  11.675597583834264  12.133622242506720   0.630068253549407 0
ion C  18.678074956154809   8.085220585829878   0.685769374381508 0
ion C   7.007175797728255  20.216155157604103   0.619709324068161 0
ion C  -6.996748017889800  20.214440105700564   0.653094683289385 0
ion C   0.002354623270169   8.082966457809835   0.657418822396948 0
ion C  14.012576459862725   8.083203697825988   0.669712893069494 0
ion C   2.339067441062872  20.216465077180068   0.646220757178249 0
ion C  -4.663670527593792  16.172490992184059   0.678596642017759 0
ion C   2.336125814129785  12.127745765919109   0.656417500003109 0
ion C  -2.332224039758668  12.128030282589300   0.685859862245795 0
ion C  -2.329659352792410  20.215194179952768   0.659830322184195 0
ion C   4.673933801454849  16.177740252210711   0.625359734501050 0
ion C   0.002990588629148  16.174656174657997   0.666554428718456 0
ion C  14.008266720144102  21.561374576259517   0.629777200837147 0
ion C   2.338930816614256   1.348570645432834   0.632009758527847 0
ion C  25.677100562977380   1.348988124751942   0.641986895200073 0
ion C  16.342686998612663  17.520648868856785   0.642302048336074 0
ion C   4.672307145938162   5.388219921962990   0.616057256550324 0
ion C  21.010123495302889   1.349044430338556   0.652394834146865 0
ion C   7.005937845436384   1.348033936218268   0.628031389286509 0
ion C  11.674692189550257  17.521226022139913   0.612057705166649 0
ion C  23.343784883173043   5.390651685198355   0.669612389866280 0
ion C  18.676972543384359  13.478483594758318   0.675595907033575 0
ion C   7.004963348139576   9.432115986525980   0.597538283264729 0
ion C  16.342472076605748   1.348066366442404   0.659130179870282 0
ion C  11.673522256343780   1.347802312891912   0.646547034509048 0
ion C   9.340696631175403  13.481256291567631   0.599303874261302 0
ion C  21.010487586627971   9.434228317035956   0.689549670827176 0
ion C   9.340862584041272  21.562275316056120   0.623251203387415 0
ion C  -9.330262385564788  21.561165527783945   0.640491424243255 0
ion C   0.004476893676090   5.389148113018151   0.645932445799481 0
ion C  14.011432130181314  13.480719160062115   0.643556882023976 0
ion C   9.339051356617166   5.386992451363917   0.621078239496768 0
ion C  18.677007069088155   5.390558998944344   0.676741055188348 0
ion C  16.345725884609092   9.434637493571932   0.679131999516677 0
ion C  14.009428395823310   5.387478001177438   0.662736904438848 0
ion C   4.673293824799767  21.561882602550448   0.637519226383223 0
ion C  -6.996841473985327  17.520066852095106   0.666346621047357 0
ion C   2.337134667876788   9.428913976861832   0.643387178107247 0
ion C  -2.330217064543965   9.432650452790400   0.678563548363968 0
ion C  -4.663349535264295  21.561481505082671   0.652392573786173 0
ion C   7.008365318233412  17.523060541264897   0.607450639135720 0
ion C   0.004487123343837  21.561671103490092   0.654109318198199 0
ion C  -4.664147187494722  13.477588422800194   0.688047082736968 0
ion C   4.674619807111762  13.479414560663223   0.625188064189185 0
ion C   2.338448909138405  17.522455183042435   0.645633689115609 0
ion C  -2.330712054942804  17.520790606615741   0.670058696770369 0
ion C   0.000363098194401  13.478789474313889   0.675559226948007 0
ion N  11.674484029805171   9.432912355349794   0.644194404697448 0
ion S   7.753340957395345  16.819721774897609  10.939860143881184 1
ion S   5.624828591095613  13.733737560778371  10.607335223373223 1
ion S   5.552814308298148  12.488036419665880   7.002855303801882 1
ion S   0.469592022246136  17.176931937369307   7.185463316443538 1
ion S   0.618633712254057  15.861672946670364  10.760692300876505 1
ion S  -1.454522650452731  12.746634709843388  11.156068989862709 1
ion Na   5.658903118175761  17.809140444956963   6.262339624721468 1
ion Na   0.305585164531801  11.898040432822798   6.313691504529004 1

# Forces in Cartesian coordinates:
force C  -0.000476439865319   0.000370090961431  -0.000142880269780 0
force C  -0.000726441710838   0.000048413278296   0.000009175154641 0
force C  -0.000428937471609  -0.000223232758171   0.000005739276295 0
force C   0.000804988351824   0.000730985120684  -0.000079428921869 0
force C  -0.000614379356543   0.000599663969558  -0.000043719578733 0
force C   0.000647785022008   0.000537061479674  -0.000053333297738 0
force C   0.000058405348740  -0.000790951492407  -0.000013729479435 0
force C  -0.000047216697837   0.001829252963789  -0.000007700318866 0
force C   0.002141361515245  -0.004097800089189   0.000413997384229 0
force C   0.000605785416744   0.001557680447456   0.000076240455959 0
force C  -0.001779733582581  -0.001075797794217  -0.000077443353600 0
force C   0.006471242523345  -0.000854619728298   0.000680886331394 0
force C  -0.001221474433298  -0.001037906618307   0.000046338701089 0
force C   0.001716021678407  -0.000964796230532  -0.000029088859481 0
force C  -0.006806760498296   0.003811623744535   0.000134977324875 0
force C   0.001782837037596  -0.001071111138567   0.000074345583946 0
force C  -0.004461076819730   0.000470013019047   0.000102206906382 0
force C  -0.003100299909714   0.003534325347912   0.000045610328444 0
force C   0.000212338132075   0.000026447469309  -0.000018621273466 0
force C   0.005309899936667   0.002869581671662   0.000131759258963 0
force C   0.005840836555290   0.004045991344298   0.000483400871209 0
force C   0.003228320619736   0.003656705483036   0.000005862326690 0
force C   0.000348854346031  -0.006073217507745   0.000202830408371 0
force C   0.000040175417263  -0.006755459771270  -0.000218290296673 0
force C  -0.001496254301944  -0.004204913986412  -0.000032138218402 0
force C   0.001505985083288   0.001995174256689   0.000580097734406 0
force C  -0.001708784682251   0.000844366679052   0.000001198088408 0
force C   0.000953967407881  -0.001311453350971   0.000256136912045 0
force C  -0.005921703520594   0.003723309304768  -0.000669067851102 0
force C   0.000512423080616   0.001107876526947  -0.000199217251142 0
force C   0.000180618733356   0.000031262649697  -0.000032139261081 0
force C   0.000898856624617  -0.000185771914867  -0.001502190907554 0
force C  -0.000591577821137  -0.001217994715287   0.000253820125773 0
force C   0.000120188101779  -0.000338389815222   0.000028667056489 0
force C  -0.001290861285886  -0.001620607605671  -0.001192612530944 0
force C  -0.000717114366839   0.000886419821779  -0.000556796462724 0
force C   0.000156436234542  -0.000174997209387   0.000069076161942 0
force C   0.000266907509440  -0.000202236569607   0.000025013582579 0
force C   0.000191442714030  -0.000178990884333   0.000112204257448 0
force C   0.001396048511722  -0.000895990252743   0.000099243783358 0
force C   0.000485004684617   0.000754068599274   0.000079925257534 0
force C  -0.000617424075714   0.000102855603855   0.000113949828085 0
force C   0.001637059723538  -0.000913078615720   0.000150793741828 0
force C   0.000396425192817  -0.000616710509710   0.000097712224576 0
force C  -0.000407014082359   0.000258290576556   0.000067801025489 0
force C  -0.004634839508796  -0.002644126258733  -0.000005318062955 0
force C   0.010010621588153   0.002581725486008   0.000748583518064 0
force C  -0.001872498596317  -0.000646274356961   0.000007544831567 0
force C   0.000122608221737   0.005079014579073  -0.000024970172238 0
force C   0.003107242425577  -0.011149611888884   0.000386626093165 0
force C  -0.000518951520840   0.001571560979286  -0.000012842182146 0
force C   0.000983613925011   0.000424785155399   0.000295935514505 0
force C   0.001486622327843  -0.000781577174972   0.000072387567802 0
force C   0.000184279883514  -0.000541674273869   0.000273338797464 0
force C  -0.003648637013765  -0.010443732887037   0.000105915525495 0
force C   0.007163274512546   0.007855055682933   0.000312368766827 0
force C  -0.000614838929032   0.000209508205794   0.000140426606855 0
force C  -0.010477742708496   0.002293306762896  -0.000036545104642 0
force C  -0.007259288263958   0.007855586518984  -0.000031624589668 0
force C  -0.002502408097054   0.000330279359838   0.000254449333967 0
force C  -0.000375931378261  -0.001224582431141   0.000166433507184 0
force C   0.001330735324145   0.002643444414997  -0.000249287603902 0
force C  -0.000649298194528   0.000833386477593   0.000416266560314 0
force C   0.000999497805862   0.001030924880080   0.000115535253801 0
force C  -0.001422661600692  -0.002380666506370   0.000371568949289 0
force C  -0.001436195009331   0.001460057894526   0.000240035112849 0
force C  -0.002619165098347   0.000975530591131   0.000398481277898 0
force C   0.004312024676003  -0.004017943931876  -0.000962238891514 0
force C  -0.000891204122735  -0.001789598377859  -0.000393307049534 0
force C   0.000575451126195  -0.000001898274999  -0.000176368420589 0
force C   0.002914539517876   0.000847936823488  -0.001043738989489 0
force N   0.000036164848589   0.000405830422825  -0.000454376421747 0
force S  -0.000039649473989   0.000129684629893  -0.000118608038929 1
force S  -0.000012854193941  -0.000106779118212   0.000129953503524 1
force S   0.000073855872105   0.000178125019747   0.000002904352133 1
force S   0.000250140518137   0.000076862232045  -0.000073041529900 1
force S  -0.000083517931471  -0.000006459981006   0.000079070032918 1
force S  -0.000019412801092  -0.000144705147777  -0.000042982755442 1
force Na   0.000013423505205   0.000023930133296   0.000024295469897 1
force Na   0.000000025273084   0.000062422084816   0.000002850186514 1

# Energy components:
   Eewald =    -1857.5311241205640727
       EH =    -1423.0017073943859032
     Eloc =     2661.9354768126536328
      Enl =      -74.3319499671248423
     EvdW =       -0.1275471751337528
      Exc =     -171.1064247872317594
 Exc_core =       13.0859890739239617
       KE =      278.4490376226254398
-------------------------------------
     Etot =     -572.6282499352371360
       TS =        0.0706490175215273
-------------------------------------
        F =     -572.6988989527586682

IonicMinimize: Iter:  24  F: -572.698898952758668  |grad|_K:  9.434e-05  alpha:  4.880e+00  linmin:  9.141e-04  t[s]:   1747.15
IonicMinimize: Converged (|grad|_K<1.000000e-04).

#--- Lowdin population analysis ---
# oxidation-state C +0.041 +0.042 +0.040 +0.038 +0.042 +0.037 +0.039 +0.044 +0.038 +0.037 +0.044 +0.031 +0.036 +0.041 +0.045 +0.043 +0.041 +0.042 +0.039 +0.046 +0.141 +0.041 +0.046 +0.141 +0.040 +0.012 +0.044 +0.022 +0.139 +0.030 +0.043 +0.015 +0.014 +0.044 +0.016 +0.037 +0.041 +0.041 +0.037 +0.043 +0.040 +0.039 +0.043 +0.036 +0.040 +0.037 +0.028 +0.041 +0.037 +0.028 +0.040 +0.032 +0.041 +0.037 +0.029 +0.029 +0.040 +0.028 +0.028 +0.023 +0.042 +0.021 +0.019 +0.043 +0.004 +0.040 +0.035 +0.029 +0.025 +0.038 +0.008
# oxidation-state N -0.001
# oxidation-state S -0.330 +0.385 -0.415 -0.406 +0.387 -0.329
# oxidation-state Na +0.726 +0.727


Dumping 'Na2S6@N_graphene-vdw.fillings' ... done
Dumping 'Na2S6@N_graphene-vdw.wfns' ... done
Dumping 'Na2S6@N_graphene-vdw.ionpos' ... done
Dumping 'Na2S6@N_graphene-vdw.eigenvals' ... done
End date and time: Thu Sep 19 11:17:40 2024  (Duration: 0-0:29:08.97)
Done!
