
*************** JDFTx 1.7.0  ***************

Start date and time: Fri Dec 27 13:43:29 2024
Executable jdftx_gpu with command-line: -i /home/akim2/JDFTx/Na2S@N_graphene-vdw/Na2S@N_graphene-vdw.in -o /home/akim2/JDFTx/Na2S@N_graphene-vdw/Na2S@N_graphene-vdw.out
Running on hosts (process indices):  exp-3-57 (0)
Divided in process groups (process indices):  0 (0)
gpuInit: Found compatible cuda device 0 'Tesla V100-SXM2-32GB'
gpuInit: Selected device 0
Resource initialization completed at t[s]:      0.40
Run totals: 1 processes, 1 threads, 1 GPUs


Input parsed successfully to the following command list (including defaults):

basis kpoint-dependent
coords-type Cartesian
core-overlap-check vector
coulomb-interaction Slab 001
coulomb-truncation-embed 0 0 4
davidson-band-ratio 1.1
dump End State
dump-name Na2S@N_graphene-vdw.$VAR
elec-cutoff 20 100
elec-eigen-algo Davidson
elec-ex-corr gga-PBE
elec-smearing Fermi 0.01
electronic-minimize  \
	dirUpdateScheme      FletcherReeves \
	linminMethod         DirUpdateRecommended \
	nIterations          100 \
	history              15 \
	knormThreshold       0 \
	energyDiffThreshold  1e-08 \
	nEnergyDiff          2 \
	alphaTstart          1 \
	alphaTmin            1e-10 \
	updateTestStepSize   yes \
	alphaTreduceFactor   0.1 \
	alphaTincreaseFactor 3 \
	nAlphaAdjustMax      3 \
	wolfeEnergy          0.0001 \
	wolfeGradient        0.9 \
	fdTest               no
exchange-regularization WignerSeitzTruncated
fluid None
fluid-ex-corr lda-TF lda-PZ
fluid-gummel-loop 10 1.000000e-05
fluid-minimize  \
	dirUpdateScheme      PolakRibiere \
	linminMethod         DirUpdateRecommended \
	nIterations          100 \
	history              15 \
	knormThreshold       0 \
	energyDiffThreshold  0 \
	nEnergyDiff          2 \
	alphaTstart          1 \
	alphaTmin            1e-10 \
	updateTestStepSize   yes \
	alphaTreduceFactor   0.1 \
	alphaTincreaseFactor 3 \
	nAlphaAdjustMax      3 \
	wolfeEnergy          0.0001 \
	wolfeGradient        0.9 \
	fdTest               no
fluid-solvent H2O 55.338 ScalarEOS \
	epsBulk 78.4 \
	pMol 0.92466 \
	epsInf 1.77 \
	Pvap 1.06736e-10 \
	sigmaBulk 4.62e-05 \
	Rvdw 2.61727 \
	Res 1.42 \
	tauNuc 343133 \
	poleEl 15 7 1
forces-output-coords Positions
ion C   0.000000000000000   0.000000000000000   3.000003066900000 0
ion C  -2.333835447300000   4.042302545699999   3.000003066900000 0
ion C  11.669139441899999  20.211550523099998   3.000003066900000 0
ion C   4.667670894600000   0.000000000000000   3.000003066900000 0
ion C  23.338278883799997   0.000000000000000   3.000003066900000 0
ion C   2.333835447300000   4.042302545699999   3.000003066900000 0
ion C -11.669158339199999  20.211550523099998   3.000003066900000 0
ion C  -4.667670894600000   8.084623988700001   3.000003066900000 0
ion C   9.335303994599997  16.169229080099999   3.000003066900000 0
ion C   9.335322891900001   0.000000000000000   3.000003066900000 0
ion C  18.670626886499999   0.000000000000000   3.000003066900000 0
ion C   4.667670894599999   8.084623988700001   3.000003066900000 0
ion C  -9.335322891900001  16.169229080099999   3.000003066900000 0
ion C  -7.001487444600001  12.126926534399997   3.000003066900000 0
ion C  14.002993786499999   0.000000000000000   3.000003066900000 0
ion C   0.000000000000000   8.084623988700001   3.000003066900000 0
ion C   7.001468547300002  20.211550523099998   3.000003066900000 0
ion C  -7.001487444599999  20.211550523099998   3.000003066900000 0
ion C  -2.333835447300000  12.126926534399997   3.000003066900000 0
ion C   4.667633100000000  16.169229080099999   3.000003066900000 0
ion C  -2.333835447299998  20.211550523099998   3.000003066900000 0
ion C   2.333835447299998  20.211550523099998   3.000003066900000 0
ion C   2.333835447300001  12.126926534399997   3.000003066900000 0
ion C  -4.667651997299997  16.169229080099999   3.000003066900000 0
ion C   7.001468547300000   4.042302545699999   3.000003066900000 0
ion C  21.004424539199999   4.042302545699999   3.000003066900000 0
ion C  14.002955991899999  16.169229080099999   3.000003066900000 0
ion C   0.000000000000000  16.169229080099999   3.000003066900000 0
ion C  11.669120544600000   4.042302545699999   3.000003066900000 0
ion C  18.670626886500003   8.084623988700001   3.000003066900000 0
ion C  11.669120544600002  12.126926534399997   3.000003066900000 0
ion C  16.336791439199995  12.126926534399997   3.000003066900000 0
ion C  16.336791439199999   4.042302545699999   3.000003066900000 0
ion C   9.335303994599997   8.084623988700001   3.000003066900000 0
ion C  14.002955991899999   8.084623988700001   3.000003066900000 0
ion C   0.000018897300000   2.694868363800000   3.000003066900000 0
ion C  11.669139441899999  22.906399989600001   3.000003066900000 0
ion C -11.669139441899999  22.906399989600001   3.000003066900000 0
ion C  -2.333816550000000   6.737170909500000   3.000003066900000 0
ion C   9.335322891900001  18.864097443900000   3.000003066900000 0
ion C  -7.001468547300000  22.906399989600001   3.000003066900000 0
ion C   7.001487444600000  22.906399989600001   3.000003066900000 0
ion C   2.333816550000000   6.737170909500000   3.000003066900000 0
ion C  -9.335303994599998  18.864097443900000   3.000003066900000 0
ion C  -4.667651997299998  10.779473455200000   3.000003066900000 0
ion C   7.001487444599997  14.821794898200000   3.000003066900000 0
ion C  -2.333835447300000  22.906399989600001   3.000003066900000 0
ion C   2.333816550000000  22.906399989600001   3.000003066900000 0
ion C   4.667651997299999  10.779473455200000   3.000003066900000 0
ion C  -7.001468547300004  14.821794898200000   3.000003066900000 0
ion C   4.667651997300001   2.694868363800000   3.000003066900000 0
ion C  23.338259986499999   2.694868363800000   3.000003066900000 0
ion C  14.002955991899997  18.864097443900000   3.000003066900000 0
ion C   0.000018897300000  10.779473455200000   3.000003066900000 0
ion C   4.667651997299995  18.864097443900000   3.000003066900000 0
ion C  -4.667651997300002  18.864097443900000   3.000003066900000 0
ion C  -2.333816550000002  14.821794898200000   3.000003066900000 0
ion C   2.333816549999996  14.821794898200000   3.000003066900000 0
ion C  -0.000018897300000  18.864097443900000   3.000003066900000 0
ion C   9.335303994599998   2.694868363800000   3.000003066900000 0
ion C  21.004443436500001   6.737170909500000   3.000003066900000 0
ion C  11.669139441899999  14.821794898200000   3.000003066900000 0
ion C  16.336772541899997  14.821794898200000   3.000003066900000 0
ion C  18.670607989199997   2.694868363800000   3.000003066900000 0
ion C   7.001487444600001   6.737170909500000   3.000003066900000 0
ion C  14.002974889200001   2.694868363800000   3.000003066900000 0
ion C  18.670607989200004  10.779473455200000   3.000003066900000 0
ion C   9.335303994599997  10.779473455200000   3.000003066900000 0
ion C  11.669139441899997   6.737170909500000   3.000003066900000 0
ion C  16.336772541900000   6.737170909500000   3.000003066900000 0
ion C  14.002974889200004  10.779473455200000   3.000003066900000 0
ion N   7.001468547300003  12.126926534399997   3.000003066900000 0
ion S   6.708269959493291  11.247237973426726  10.236952371164678 1
ion Na   2.394255621307741  10.715704291261773   8.241511407168884 1
ion Na  11.076347781091513  11.126061407119943   8.270455562905186 1
ion-species GBRV/$ID_pbe.uspp
ion-width 0
ionic-minimize  \
	dirUpdateScheme      FletcherReeves \
	linminMethod         DirUpdateRecommended \
	nIterations          200 \
	history              15 \
	knormThreshold       0.0001 \
	energyDiffThreshold  1e-06 \
	nEnergyDiff          2 \
	alphaTstart          1 \
	alphaTmin            1e-10 \
	updateTestStepSize   yes \
	alphaTreduceFactor   0.1 \
	alphaTincreaseFactor 3 \
	nAlphaAdjustMax      3 \
	wolfeEnergy          0.0001 \
	wolfeGradient        0.9 \
	fdTest               no
kpoint   0.000000000000   0.000000000000   0.000000000000  1.00000000000000
kpoint-folding 1 1 1 
latt-move-scale 1 1 1
latt-scale 1 1 1 
lattice Triclinic 28.0058 28.0058 37.7946 90 90 120
lattice-minimize  \
	dirUpdateScheme      L-BFGS \
	linminMethod         DirUpdateRecommended \
	nIterations          0 \
	history              15 \
	knormThreshold       0 \
	energyDiffThreshold  1e-06 \
	nEnergyDiff          2 \
	alphaTstart          1 \
	alphaTmin            1e-10 \
	updateTestStepSize   yes \
	alphaTreduceFactor   0.1 \
	alphaTincreaseFactor 3 \
	nAlphaAdjustMax      3 \
	wolfeEnergy          0.0001 \
	wolfeGradient        0.9 \
	fdTest               no
lcao-params -1 1e-06 0.01
pcm-variant GLSSA13
spintype no-spin
subspace-rotation-factor 1 yes
symmetries automatic
symmetry-threshold 0.0001
van-der-waals D3



---------- Setting up symmetries ----------

Found 24 point-group symmetries of the bravais lattice
Found 1 space-group symmetries with basis
Applied RMS atom displacement 0 bohrs to make symmetries exact.

---------- Initializing the Grid ----------
R = 
[      28.0058     -14.0029            0  ]
[            0      24.2537            0  ]
[            0            0      37.7946  ]
unit cell volume = 25671.8
G =
[   0.224353    0.12953         -0  ]
[          0   0.259061          0  ]
[          0         -0   0.166246  ]
Minimum fftbox size, Smin = [  128  128  172  ]
Chosen fftbox size, S = [  128  128  180  ]

---------- Initializing tighter grid for wavefunction operations ----------
R = 
[      28.0058     -14.0029            0  ]
[            0      24.2537            0  ]
[            0            0      37.7946  ]
unit cell volume = 25671.8
G =
[   0.224353    0.12953         -0  ]
[          0   0.259061          0  ]
[          0         -0   0.166246  ]
Minimum fftbox size, Smin = [  116  116  156  ]
Chosen fftbox size, S = [  120  120  160  ]

---------- Exchange Correlation functional ----------
Initalized PBE GGA exchange.
Initalized PBE GGA correlation.

---------- Setting up pseudopotentials ----------
Width of ionic core gaussian charges (only for fluid interactions / plotting) set to 0

Reading pseudopotential file '/home/akim2/jdftx_install/build/pseudopotentials/GBRV/c_pbe.uspp':
  Title: C.  Created by USPP 7.3.6 on 3-2-2014
  Reference state energy: -5.406344.  4 valence electrons in orbitals:
    |200>  occupation: 2  eigenvalue: -0.504890
    |210>  occupation: 2  eigenvalue: -0.194356
  lMax: 1  lLocal: 2  QijEcut: 5
  4 projectors sampled on a log grid with 503 points:
    l: 0  eig: -0.504890  rCut: 1.3
    l: 0  eig: 0.000000  rCut: 1.3
    l: 1  eig: -0.194357  rCut: 1.3
    l: 1  eig: 0.000000  rCut: 1.3
  Partial core density with radius 1.1
  Transforming core density to a uniform radial grid of dG=0.02 with 1625 points.
  Transforming local potential to a uniform radial grid of dG=0.02 with 1625 points.
  Transforming nonlocal projectors to a uniform radial grid of dG=0.02 with 432 points.
  Transforming density augmentations to a uniform radial grid of dG=0.02 with 1625 points.
  Transforming atomic orbitals to a uniform radial grid of dG=0.02 with 432 points.
  Core radius for overlap checks: 1.30 bohrs.

Reading pseudopotential file '/home/akim2/jdftx_install/build/pseudopotentials/GBRV/n_pbe.uspp':
  Title: N.  Created by USPP 7.3.6 on 3-2-2014
  Reference state energy: -9.763716.  5 valence electrons in orbitals:
    |200>  occupation: 2  eigenvalue: -0.681964
    |210>  occupation: 3  eigenvalue: -0.260726
  lMax: 1  lLocal: 2  QijEcut: 6
  4 projectors sampled on a log grid with 491 points:
    l: 0  eig: -0.681964  rCut: 1.15
    l: 0  eig: 0.000000  rCut: 1.15
    l: 1  eig: -0.260729  rCut: 1.2
    l: 1  eig: 0.500000  rCut: 1.2
  Partial core density with radius 0.8
  Transforming core density to a uniform radial grid of dG=0.02 with 1625 points.
  Transforming local potential to a uniform radial grid of dG=0.02 with 1625 points.
  Transforming nonlocal projectors to a uniform radial grid of dG=0.02 with 432 points.
  Transforming density augmentations to a uniform radial grid of dG=0.02 with 1625 points.
  Transforming atomic orbitals to a uniform radial grid of dG=0.02 with 432 points.
  Core radius for overlap checks: 1.20 bohrs.

Reading pseudopotential file '/home/akim2/jdftx_install/build/pseudopotentials/GBRV/s_pbe.uspp':
  Title: S.  Created by USPP 7.3.6 on 1-4-15
  Reference state energy: -11.898476.  6 valence electrons in orbitals:
    |300>  occupation: 2  eigenvalue: -0.634167
    |310>  occupation: 4  eigenvalue: -0.257568
  lMax: 2  lLocal: 3  QijEcut: 6
  6 projectors sampled on a log grid with 635 points:
    l: 0  eig: -0.634161  rCut: 1.5
    l: 0  eig: 1.500000  rCut: 1.5
    l: 1  eig: -0.257567  rCut: 1.5
    l: 1  eig: 1.500000  rCut: 1.5
    l: 2  eig: -1.000000  rCut: 1.5
    l: 2  eig: 1.500000  rCut: 1.5
  Partial core density with radius 1.15
  Transforming core density to a uniform radial grid of dG=0.02 with 1625 points.
  Transforming local potential to a uniform radial grid of dG=0.02 with 1625 points.
  Transforming nonlocal projectors to a uniform radial grid of dG=0.02 with 432 points.
  Transforming density augmentations to a uniform radial grid of dG=0.02 with 1625 points.
  Transforming atomic orbitals to a uniform radial grid of dG=0.02 with 432 points.
  Core radius for overlap checks: 1.50 bohrs.

Reading pseudopotential file '/home/akim2/jdftx_install/build/pseudopotentials/GBRV/na_pbe.uspp':
  Title: Na.  Created by USPP 7.3.6 on 23-9-15
  Reference state energy: -47.625620.  9 valence electrons in orbitals:
    |200>  occupation: 2  eigenvalue: -2.085638
    |210>  occupation: 6  eigenvalue: -1.053708
    |300>  occupation: 1  eigenvalue: -0.100838
  lMax: 2  lLocal: 0  QijEcut: 6
  5 projectors sampled on a log grid with 657 points:
    l: 0  eig: -2.085640  rCut: 1.37
    l: 0  eig: -0.100839  rCut: 1.37
    l: 1  eig: -1.053708  rCut: 1.47
    l: 1  eig: 0.500000  rCut: 1.47
    l: 2  eig: 0.750000  rCut: 2
  Transforming local potential to a uniform radial grid of dG=0.02 with 1625 points.
  Transforming nonlocal projectors to a uniform radial grid of dG=0.02 with 432 points.
  Transforming density augmentations to a uniform radial grid of dG=0.02 with 1625 points.
  Transforming atomic orbitals to a uniform radial grid of dG=0.02 with 432 points.
  Core radius for overlap checks: 2.00 bohrs.

Initialized 4 species with 75 total atoms.

Folded 1 k-points by 1x1x1 to 1 k-points.

---------- Setting up k-points, bands, fillings ----------
No reducable k-points. 
Computing the number of bands and number of electrons
Calculating initial fillings.
nElectrons: 313.000000   nBands: 302   nStates: 1

----- Setting up reduced wavefunction bases (one per k-point) -----
average nbasis = 109673.000 , ideal nbasis = 109671.883

---------- Setting up coulomb interaction ----------
Setting up double-sized grid for truncated Coulomb potentials:
R = 
[      28.0058     -14.0029            0  ]
[            0      24.2537            0  ]
[            0            0      75.5892  ]
unit cell volume = 51343.6
G =
[   0.224353    0.12953         -0  ]
[          0   0.259061          0  ]
[          0         -0  0.0831228  ]
Chosen fftbox size, S = [  128  128  360  ]
Integer grid location selected as the embedding center:
   Grid: [  0  0  19  ]
   Lattice: [  0  0  0.105835  ]
   Cartesian: [  0  0  4  ]
Constructing Wigner-Seitz cell: 8 faces (6 quadrilaterals, 2 hexagons)
Range-separation parameter for embedded mesh potentials due to point charges: 0.590105 bohrs.
Initialized slab truncation along lattice direction 001

Initializing DFT-D3 calculator:
	Parameters set for gga-PBE functional
	s6:  1.000  s_r6:  1.217
	s8:  0.722  s_r8:  1.000
	Per-atom parameters loaded for:
	 C:  sqrtQ[a0]:  3.105  Rcov[a0]:  1.417  CN: [ 0.00 0.99 2.00 3.00 3.98 ]
	 N:  sqrtQ[a0]:  2.712  Rcov[a0]:  1.342  CN: [ 0.00 0.99 2.01 2.99 ]
	 S:  sqrtQ[a0]:  4.041  Rcov[a0]:  1.928  CN: [ 0.00 0.99 1.99 ]
	Na:  sqrtQ[a0]:  6.586  Rcov[a0]:  2.646  CN: [ 0.00 0.97 ]

---------- Setting up 2D ewald sum ----------
Optimum gaussian width for ewald sums = 15.547689 bohr.
Real space sums over 289 unit cells with max indices [  8  8  0  ]
Reciprocal space sums over 81 terms with max indices [  4  4  0  ]

Computing DFT-D3 correction:
# coordination-number C 3.300 3.300 3.300 3.300 3.300 3.303 3.300 3.301 3.299 3.300 3.300 3.387 3.300 3.300 3.300 3.389 3.300 3.300 3.318 3.294 3.300 3.300 3.779 3.300 3.301 3.300 3.306 3.306 3.302 3.300 3.802 3.311 3.300 3.379 3.340 3.300 3.300 3.300 3.304 3.301 3.300 3.300 3.356 3.300 3.302 3.314 3.300 3.300 3.607 3.300 3.300 3.300 3.300 3.577 3.300 3.300 3.304 3.346 3.300 3.300 3.300 3.367 3.303 3.300 3.309 3.300 3.301 3.699 3.332 3.302 3.461
# coordination-number N 3.263
# coordination-number S 1.987
# coordination-number Na 2.490 2.449
# diagonal-C6 C 24.29 24.28 24.28 24.29 24.29 24.26 24.28 24.27 24.29 24.29 24.29 23.28 24.28 24.28 24.29 23.25 24.28 24.29 24.10 24.34 24.29 24.28 18.84 24.28 24.27 24.29 24.22 24.23 24.27 24.28 18.74 24.17 24.28 23.38 23.86 24.28 24.29 24.29 24.24 24.28 24.29 24.29 23.68 24.29 24.27 24.15 24.29 24.29 20.19 24.28 24.28 24.29 24.28 20.57 24.28 24.29 24.24 23.79 24.28 24.28 24.28 23.54 24.25 24.29 24.19 24.28 24.27 19.31 23.96 24.26 22.22
# diagonal-C6 N 15.59
# diagonal-C6 S 125.91
# diagonal-C6 Na 186.11 186.11
EvdW_6 =   -0.058476
EvdW_8 =   -0.049511

---------- Allocating electronic variables ----------
Initializing wave functions:  linear combination of atomic orbitals
C pseudo-atom occupations:   s ( 2 )  p ( 2 )
N pseudo-atom occupations:   s ( 2 )  p ( 3 )
S pseudo-atom occupations:   s ( 2 )  p ( 4 )
Na pseudo-atom occupations:   s ( 2 1 )  p ( 6 )
	FillingsUpdate:  mu: -0.289235414  nElectrons: 313.000000
LCAOMinimize: Iter:   0  F: -516.8294938711320583  |grad|_K:  3.587e-03  alpha:  1.000e+00
	FillingsUpdate:  mu: -0.247371501  nElectrons: 313.000000
LCAOMinimize: Iter:   1  F: -516.8948367403172597  |grad|_K:  3.843e-03  alpha:  1.473e-01  linmin:  2.879e-02  cgtest: -2.969e-01  t[s]:     10.10
	FillingsUpdate:  mu: -0.233510189  nElectrons: 313.000000
LCAOMinimize: Iter:   2  F: -516.9188230057570763  |grad|_K:  2.705e-03  alpha:  4.019e-02  linmin: -1.792e-02  cgtest:  9.039e-01  t[s]:     11.66
LCAOMinimize: Encountered beta<0, resetting CG.
	FillingsUpdate:  mu: -0.274811908  nElectrons: 313.000000
LCAOMinimize: Iter:   3  F: -516.9350606591871156  |grad|_K:  6.312e-04  alpha:  4.898e-02  linmin:  5.357e-02  cgtest: -1.761e-01  t[s]:     13.21
LCAOMinimize: 	Predicted alpha/alphaT>3.000000, increasing alphaT to 1.469356e-01.
	FillingsUpdate:  mu: -0.275966900  nElectrons: 313.000000
LCAOMinimize: Iter:   4  F: -516.9394535641382618  |grad|_K:  3.886e-04  alpha:  2.600e-01  linmin: -3.124e-03  cgtest:  1.912e-01  t[s]:     15.22
	FillingsUpdate:  mu: -0.268797270  nElectrons: 313.000000
LCAOMinimize: Iter:   5  F: -516.9404501647280767  |grad|_K:  4.721e-04  alpha:  1.435e-01  linmin:  1.962e-04  cgtest: -3.129e-02  t[s]:     16.78
	FillingsUpdate:  mu: -0.274059464  nElectrons: 313.000000
LCAOMinimize: Iter:   6  F: -516.9416627693054807  |grad|_K:  1.444e-04  alpha:  1.180e-01  linmin:  2.198e-03  cgtest:  1.006e-01  t[s]:     18.33
	FillingsUpdate:  mu: -0.276035876  nElectrons: 313.000000
LCAOMinimize: Iter:   7  F: -516.9418656537520746  |grad|_K:  1.572e-04  alpha:  2.135e-01  linmin:  9.153e-05  cgtest:  1.342e-02  t[s]:     19.88
	FillingsUpdate:  mu: -0.274808664  nElectrons: 313.000000
LCAOMinimize: Iter:   8  F: -516.9419400353949641  |grad|_K:  5.257e-05  alpha:  6.646e-02  linmin:  2.556e-03  cgtest: -3.982e-02  t[s]:     21.43
LCAOMinimize: 	Predicted alpha/alphaT>3.000000, increasing alphaT to 1.993860e-01.
	FillingsUpdate:  mu: -0.274799688  nElectrons: 313.000000
LCAOMinimize: Iter:   9  F: -516.9419830326769443  |grad|_K:  2.782e-05  alpha:  3.433e-01  linmin:  5.780e-04  cgtest:  1.524e-02  t[s]:     23.43
	FillingsUpdate:  mu: -0.275178474  nElectrons: 313.000000
LCAOMinimize: Iter:  10  F: -516.9419858749062087  |grad|_K:  2.268e-05  alpha:  8.015e-02  linmin: -1.758e-04  cgtest:  9.216e-03  t[s]:     24.99
	FillingsUpdate:  mu: -0.275121462  nElectrons: 313.000000
LCAOMinimize: Iter:  11  F: -516.9419909853585295  |grad|_K:  8.335e-06  alpha:  2.158e-01  linmin: -4.066e-04  cgtest: -2.201e-02  t[s]:     26.56
	FillingsUpdate:  mu: -0.275038244  nElectrons: 313.000000
LCAOMinimize: Iter:  12  F: -516.9419917652127197  |grad|_K:  7.630e-06  alpha:  2.441e-01  linmin: -1.304e-05  cgtest: -2.138e-03  t[s]:     28.11
	FillingsUpdate:  mu: -0.275116559  nElectrons: 313.000000
LCAOMinimize: Iter:  13  F: -516.9419919154282752  |grad|_K:  2.081e-06  alpha:  5.618e-02  linmin: -1.779e-04  cgtest:  2.624e-03  t[s]:     29.67
LCAOMinimize: Converged (|Delta F|<1.000000e-06 for 2 iters).


---- Citations for features of the code used in this run ----

   Software package:
      R. Sundararaman, K. Letchworth-Weaver, K.A. Schwarz, D. Gunceler, Y. Ozhabes and T.A. Arias, 'JDFTx: software for joint density-functional theory', SoftwareX 6, 278 (2017)

   gga-PBE exchange-correlation functional:
      J.P. Perdew, K. Burke and M. Ernzerhof, Phys. Rev. Lett. 77, 3865 (1996)

   Pseudopotentials:
      KF Garrity, JW Bennett, KM Rabe and D Vanderbilt, Comput. Mater. Sci. 81, 446 (2014)

   Truncated Coulomb potentials:
      R. Sundararaman and T.A. Arias, Phys. Rev. B 87, 165122 (2013)

   DFT-D3 dispersion correction:
      S. Grimme, J. Antony, S. Ehrlich and H. Krieg, J. Chem. Phys. 132, 154104 (2010)

   Total energy minimization with Auxiliary Hamiltonian:
      C. Freysoldt, S. Boeck, and J. Neugebauer, Phys. Rev. B 79, 241103(R) (2009)

This list may not be complete. Please suggest additional citations or
report any other bugs at https://github.com/shankar1729/jdftx/issues

Initialization completed successfully at t[s]:     29.85


Computing DFT-D3 correction:
# coordination-number C 3.300 3.300 3.300 3.300 3.300 3.303 3.300 3.301 3.299 3.300 3.300 3.387 3.300 3.300 3.300 3.389 3.300 3.300 3.318 3.294 3.300 3.300 3.779 3.300 3.301 3.300 3.306 3.306 3.302 3.300 3.802 3.311 3.300 3.379 3.340 3.300 3.300 3.300 3.304 3.301 3.300 3.300 3.356 3.300 3.302 3.314 3.300 3.300 3.607 3.300 3.300 3.300 3.300 3.577 3.300 3.300 3.304 3.346 3.300 3.300 3.300 3.367 3.303 3.300 3.309 3.300 3.301 3.699 3.332 3.302 3.461
# coordination-number N 3.263
# coordination-number S 1.987
# coordination-number Na 2.490 2.449
# diagonal-C6 C 24.29 24.28 24.28 24.29 24.29 24.26 24.28 24.27 24.29 24.29 24.29 23.28 24.28 24.28 24.29 23.25 24.28 24.29 24.10 24.34 24.29 24.28 18.84 24.28 24.27 24.29 24.22 24.23 24.27 24.28 18.74 24.17 24.28 23.38 23.86 24.28 24.29 24.29 24.24 24.28 24.29 24.29 23.68 24.29 24.27 24.15 24.29 24.29 20.19 24.28 24.28 24.29 24.28 20.57 24.28 24.29 24.24 23.79 24.28 24.28 24.28 23.54 24.25 24.29 24.19 24.28 24.27 19.31 23.96 24.26 22.22
# diagonal-C6 N 15.59
# diagonal-C6 S 125.91
# diagonal-C6 Na 186.11 186.11
EvdW_6 =   -0.058476
EvdW_8 =   -0.049511

-------- Electronic minimization -----------
	FillingsUpdate:  mu: -0.275116559  nElectrons: 313.000000
ElecMinimize: Iter:   0  F: -516.941991915429867  |grad|_K:  4.100e-04  alpha:  1.000e+00
	FillingsUpdate:  mu: -0.135246328  nElectrons: 313.000000
	SubspaceRotationAdjust: set factor to 0.799
ElecMinimize: Iter:   1  F: -520.842784483707078  |grad|_K:  1.659e-04  alpha:  7.087e-01  linmin: -2.726e-04  t[s]:     35.29
	FillingsUpdate:  mu: -0.134186950  nElectrons: 313.000000
	SubspaceRotationAdjust: set factor to 0.714
ElecMinimize: Iter:   2  F: -520.910513204776635  |grad|_K:  1.095e-04  alpha:  3.865e-01  linmin: -4.313e-04  t[s]:     37.35
	FillingsUpdate:  mu: -0.132073407  nElectrons: 313.000000
	SubspaceRotationAdjust: set factor to 0.594
ElecMinimize: Iter:   3  F: -520.965607822303468  |grad|_K:  1.152e-04  alpha:  5.677e-02  linmin: -3.322e-03  t[s]:     39.45
ElecMinimize: 	Wrong curvature in test step, increasing alphaT to 1.703178e-01.
	FillingsUpdate:  mu: -0.129074296  nElectrons: 313.000000
	SubspaceRotationAdjust: set factor to 0.79
ElecMinimize: Iter:   4  F: -521.119112436268210  |grad|_K:  6.046e-05  alpha: -9.568e-02  linmin: -5.598e-03  t[s]:     41.34
ElecMinimize: 	Step increased F by 3.708574e-03, reducing alpha to 5.958439e-03.
	FillingsUpdate:  mu: -0.135151518  nElectrons: 313.000000
	SubspaceRotationAdjust: set factor to 1.08
ElecMinimize: Iter:   5  F: -521.122682410172274  |grad|_K:  5.724e-05  alpha:  5.958e-03  linmin: -4.186e-03  t[s]:     44.78
ElecMinimize: 	Predicted alpha/alphaT>3.000000, increasing alphaT to 1.787532e-02.
	FillingsUpdate:  mu: -0.146621241  nElectrons: 313.000000
	SubspaceRotationAdjust: set factor to 0.809
ElecMinimize: Iter:   6  F: -521.132368125698008  |grad|_K:  6.167e-05  alpha:  2.622e-02  linmin:  4.778e-04  t[s]:     47.49
	FillingsUpdate:  mu: -0.145104829  nElectrons: 313.000000
	SubspaceRotationAdjust: set factor to 0.692
ElecMinimize: Iter:   7  F: -521.132663996262295  |grad|_K:  6.444e-05  alpha:  3.959e-03  linmin: -2.080e-05  t[s]:     49.56
	FillingsUpdate:  mu: -0.141673921  nElectrons: 313.000000
	SubspaceRotationAdjust: set factor to 0.459
ElecMinimize: Iter:   8  F: -521.134220432672691  |grad|_K:  7.874e-05  alpha:  1.113e-02  linmin:  1.507e-05  t[s]:     56.74
	FillingsUpdate:  mu: -0.138375917  nElectrons: 313.000000
	SubspaceRotationAdjust: set factor to 0.281
ElecMinimize: Iter:   9  F: -521.136420804506542  |grad|_K:  8.342e-05  alpha:  1.096e-02  linmin:  4.025e-06  t[s]:     58.82
	FillingsUpdate:  mu: -0.135665603  nElectrons: 313.000000
	SubspaceRotationAdjust: set factor to 0.165
ElecMinimize: Iter:  10  F: -521.139766408627224  |grad|_K:  8.046e-05  alpha:  1.461e-02  linmin:  4.646e-06  t[s]:     60.92
	FillingsUpdate:  mu: -0.134515367  nElectrons: 313.000000
	SubspaceRotationAdjust: set factor to 0.0968
	SubspaceRotationAdjust: resetting CG because factor has changed by 0.0967531
ElecMinimize: 	State modified externally: resetting search direction.
ElecMinimize: Iter:  11  F: -521.144086895510668  |grad|_K:  5.670e-05  alpha:  2.028e-02
ElecMinimize: 	Predicted alpha/alphaT>3.000000, increasing alphaT to 6.084512e-02.
ElecMinimize: 	Predicted alpha/alphaT>3.000000, increasing alphaT to 1.825354e-01.
	FillingsUpdate:  mu: -0.151711197  nElectrons: 313.000000
	SubspaceRotationAdjust: set factor to 0.19
ElecMinimize: Iter:  12  F: -521.192520450285656  |grad|_K:  1.869e-05  alpha:  4.366e-01  linmin: -5.253e-03  t[s]:     70.90
ElecMinimize: 	Predicted alpha/alphaT>3.000000, increasing alphaT to 1.309761e+00.
	FillingsUpdate:  mu: -0.147474822  nElectrons: 313.000000
	SubspaceRotationAdjust: set factor to 0.183
ElecMinimize: Iter:  13  F: -521.209766295656664  |grad|_K:  1.650e-05  alpha:  1.375e+00  linmin: -8.058e-05  t[s]:     73.62
	FillingsUpdate:  mu: -0.152818019  nElectrons: 313.000000
	SubspaceRotationAdjust: set factor to 0.154
ElecMinimize: Iter:  14  F: -521.214162116169746  |grad|_K:  8.338e-06  alpha:  4.801e-01  linmin: -6.870e-06  t[s]:     75.66
	FillingsUpdate:  mu: -0.152217424  nElectrons: 313.000000
	SubspaceRotationAdjust: set factor to 0.177
ElecMinimize: Iter:  15  F: -521.215579307485086  |grad|_K:  6.144e-06  alpha:  6.138e-01  linmin:  1.281e-05  t[s]:     77.78
	FillingsUpdate:  mu: -0.151802078  nElectrons: 313.000000
	SubspaceRotationAdjust: set factor to 0.196
ElecMinimize: Iter:  16  F: -521.216420483264415  |grad|_K:  5.134e-06  alpha:  6.758e-01  linmin:  1.838e-05  t[s]:     79.85
	FillingsUpdate:  mu: -0.152592371  nElectrons: 313.000000
	SubspaceRotationAdjust: set factor to 0.225
ElecMinimize: Iter:  17  F: -521.216999341923383  |grad|_K:  3.796e-06  alpha:  6.724e-01  linmin:  3.062e-05  t[s]:     81.97
	FillingsUpdate:  mu: -0.153026791  nElectrons: 313.000000
	SubspaceRotationAdjust: set factor to 0.265
ElecMinimize: Iter:  18  F: -521.217317495308066  |grad|_K:  3.122e-06  alpha:  6.908e-01  linmin:  1.714e-05  t[s]:     84.04
	FillingsUpdate:  mu: -0.153275716  nElectrons: 313.000000
	SubspaceRotationAdjust: set factor to 0.306
ElecMinimize: Iter:  19  F: -521.217576957714414  |grad|_K:  2.323e-06  alpha:  8.399e-01  linmin:  1.731e-05  t[s]:     86.14
	FillingsUpdate:  mu: -0.153580749  nElectrons: 313.000000
	SubspaceRotationAdjust: set factor to 0.278
ElecMinimize: Iter:  20  F: -521.217683645898660  |grad|_K:  2.024e-06  alpha:  6.174e-01  linmin:  2.050e-06  t[s]:     88.20
	FillingsUpdate:  mu: -0.153279765  nElectrons: 313.000000
	SubspaceRotationAdjust: set factor to 0.26
ElecMinimize: Iter:  21  F: -521.217747591420562  |grad|_K:  1.286e-06  alpha:  4.737e-01  linmin:  1.089e-06  t[s]:     90.30
	FillingsUpdate:  mu: -0.153206379  nElectrons: 313.000000
	SubspaceRotationAdjust: set factor to 0.295
ElecMinimize: Iter:  22  F: -521.217782547334878  |grad|_K:  1.039e-06  alpha:  6.476e-01  linmin:  3.449e-06  t[s]:     92.36
	FillingsUpdate:  mu: -0.153278977  nElectrons: 313.000000
	SubspaceRotationAdjust: set factor to 0.342
ElecMinimize: Iter:  23  F: -521.217799168570878  |grad|_K:  8.014e-07  alpha:  4.757e-01  linmin:  1.414e-06  t[s]:     94.47
	FillingsUpdate:  mu: -0.153223835  nElectrons: 313.000000
	SubspaceRotationAdjust: set factor to 0.375
ElecMinimize: Iter:  24  F: -521.217809151952792  |grad|_K:  6.968e-07  alpha:  4.754e-01  linmin:  1.060e-06  t[s]:     96.54
	FillingsUpdate:  mu: -0.153182743  nElectrons: 313.000000
	SubspaceRotationAdjust: set factor to 0.356
ElecMinimize: Iter:  25  F: -521.217817939741849  |grad|_K:  6.830e-07  alpha:  5.581e-01  linmin:  1.856e-06  t[s]:     98.66
	FillingsUpdate:  mu: -0.153218866  nElectrons: 313.000000
	SubspaceRotationAdjust: set factor to 0.399
ElecMinimize: Iter:  26  F: -521.217823181496101  |grad|_K:  5.848e-07  alpha:  3.201e-01  linmin: -2.087e-06  t[s]:    100.72
	FillingsUpdate:  mu: -0.153195455  nElectrons: 313.000000
	SubspaceRotationAdjust: set factor to 0.403
ElecMinimize: Iter:  27  F: -521.217827312483223  |grad|_K:  5.800e-07  alpha:  3.545e-01  linmin:  5.100e-06  t[s]:    102.84
	FillingsUpdate:  mu: -0.153165815  nElectrons: 313.000000
	SubspaceRotationAdjust: set factor to 0.4
ElecMinimize: Iter:  28  F: -521.217828743546193  |grad|_K:  5.496e-07  alpha:  1.164e-01  linmin: -6.329e-06  t[s]:    104.91
	FillingsUpdate:  mu: -0.153108907  nElectrons: 313.000000
	SubspaceRotationAdjust: set factor to 0.316
ElecMinimize: Iter:  29  F: -521.217830788294918  |grad|_K:  5.328e-07  alpha:  1.763e-01  linmin:  5.969e-06  t[s]:    107.03
	FillingsUpdate:  mu: -0.153096649  nElectrons: 313.000000
	SubspaceRotationAdjust: set factor to 0.25
ElecMinimize: Iter:  30  F: -521.217831443998989  |grad|_K:  4.925e-07  alpha:  7.722e-02  linmin: -1.928e-06  t[s]:    109.10
	FillingsUpdate:  mu: -0.153096966  nElectrons: 313.000000
	SubspaceRotationAdjust: set factor to 0.203
ElecMinimize: Iter:  31  F: -521.217832352866026  |grad|_K:  4.407e-07  alpha:  1.085e-01  linmin:  1.926e-06  t[s]:    111.22
	FillingsUpdate:  mu: -0.153104087  nElectrons: 313.000000
	SubspaceRotationAdjust: set factor to 0.168
ElecMinimize: Iter:  32  F: -521.217832954407754  |grad|_K:  4.049e-07  alpha:  9.906e-02  linmin:  4.701e-07  t[s]:    113.30
	FillingsUpdate:  mu: -0.153112231  nElectrons: 313.000000
	SubspaceRotationAdjust: set factor to 0.136
ElecMinimize: Iter:  33  F: -521.217833551396552  |grad|_K:  3.738e-07  alpha:  1.118e-01  linmin:  4.755e-07  t[s]:    115.41
	FillingsUpdate:  mu: -0.153116561  nElectrons: 313.000000
	SubspaceRotationAdjust: set factor to 0.106
ElecMinimize: Iter:  34  F: -521.217834089688154  |grad|_K:  3.361e-07  alpha:  1.182e-01  linmin:  3.568e-07  t[s]:    117.49
	FillingsUpdate:  mu: -0.153115704  nElectrons: 313.000000
	SubspaceRotationAdjust: set factor to 0.084
ElecMinimize: Iter:  35  F: -521.217834563660404  |grad|_K:  2.948e-07  alpha:  1.281e-01  linmin:  3.157e-07  t[s]:    119.60
	FillingsUpdate:  mu: -0.153110790  nElectrons: 313.000000
	SubspaceRotationAdjust: set factor to 0.072
ElecMinimize: Iter:  36  F: -521.217834975104324  |grad|_K:  2.615e-07  alpha:  1.443e-01  linmin:  2.601e-07  t[s]:    121.69
	FillingsUpdate:  mu: -0.153103893  nElectrons: 313.000000
	SubspaceRotationAdjust: set factor to 0.0658
ElecMinimize: Iter:  37  F: -521.217835338479404  |grad|_K:  2.387e-07  alpha:  1.615e-01  linmin:  2.023e-07  t[s]:    123.83
	FillingsUpdate:  mu: -0.153097114  nElectrons: 313.000000
	SubspaceRotationAdjust: set factor to 0.0602
ElecMinimize: Iter:  38  F: -521.217835658935655  |grad|_K:  2.204e-07  alpha:  1.707e-01  linmin:  1.546e-07  t[s]:    125.91
	FillingsUpdate:  mu: -0.153091937  nElectrons: 313.000000
	SubspaceRotationAdjust: set factor to 0.0544
ElecMinimize: Iter:  39  F: -521.217835941855924  |grad|_K:  2.051e-07  alpha:  1.764e-01  linmin:  9.165e-08  t[s]:    128.05
	FillingsUpdate:  mu: -0.153088862  nElectrons: 313.000000
	SubspaceRotationAdjust: set factor to 0.0513
ElecMinimize: Iter:  40  F: -521.217836205076765  |grad|_K:  1.961e-07  alpha:  1.891e-01  linmin:  2.641e-08  t[s]:    130.11
	FillingsUpdate:  mu: -0.153087830  nElectrons: 313.000000
	SubspaceRotationAdjust: set factor to 0.0503
ElecMinimize: Iter:  41  F: -521.217836464679522  |grad|_K:  1.913e-07  alpha:  2.036e-01  linmin: -4.251e-09  t[s]:    132.22
	FillingsUpdate:  mu: -0.153088621  nElectrons: 313.000000
	SubspaceRotationAdjust: set factor to 0.0477
ElecMinimize: Iter:  42  F: -521.217836713658357  |grad|_K:  1.834e-07  alpha:  2.052e-01  linmin:  1.617e-08  t[s]:    134.30
	FillingsUpdate:  mu: -0.153090871  nElectrons: 313.000000
	SubspaceRotationAdjust: set factor to 0.0453
ElecMinimize: Iter:  43  F: -521.217836942310669  |grad|_K:  1.756e-07  alpha:  2.052e-01  linmin:  2.405e-08  t[s]:    136.41
	FillingsUpdate:  mu: -0.153094350  nElectrons: 313.000000
	SubspaceRotationAdjust: set factor to 0.048
ElecMinimize: Iter:  44  F: -521.217837168682308  |grad|_K:  1.771e-07  alpha:  2.216e-01  linmin:  1.750e-08  t[s]:    138.48
	FillingsUpdate:  mu: -0.153098905  nElectrons: 313.000000
	SubspaceRotationAdjust: set factor to 0.0531
ElecMinimize: Iter:  45  F: -521.217837409844492  |grad|_K:  1.832e-07  alpha:  2.320e-01  linmin:  8.252e-08  t[s]:    140.60
	FillingsUpdate:  mu: -0.153103708  nElectrons: 313.000000
	SubspaceRotationAdjust: set factor to 0.0541
ElecMinimize: Iter:  46  F: -521.217837644517545  |grad|_K:  1.835e-07  alpha:  2.115e-01  linmin:  1.735e-07  t[s]:    142.67
	FillingsUpdate:  mu: -0.153107906  nElectrons: 313.000000
	SubspaceRotationAdjust: set factor to 0.0538
ElecMinimize: Iter:  47  F: -521.217837859275392  |grad|_K:  1.826e-07  alpha:  1.936e-01  linmin:  2.304e-07  t[s]:    144.81
	FillingsUpdate:  mu: -0.153111197  nElectrons: 313.000000
	SubspaceRotationAdjust: set factor to 0.0561
ElecMinimize: Iter:  48  F: -521.217838065753654  |grad|_K:  1.867e-07  alpha:  1.886e-01  linmin:  2.861e-07  t[s]:    146.88
	FillingsUpdate:  mu: -0.153113386  nElectrons: 313.000000
	SubspaceRotationAdjust: set factor to 0.0578
ElecMinimize: Iter:  49  F: -521.217838261690758  |grad|_K:  1.905e-07  alpha:  1.716e-01  linmin:  3.183e-07  t[s]:    149.00
	FillingsUpdate:  mu: -0.153114555  nElectrons: 313.000000
	SubspaceRotationAdjust: set factor to 0.0554
ElecMinimize: Iter:  50  F: -521.217838431284235  |grad|_K:  1.883e-07  alpha:  1.421e-01  linmin:  2.770e-07  t[s]:    151.10
	FillingsUpdate:  mu: -0.153115128  nElectrons: 313.000000
	SubspaceRotationAdjust: set factor to 0.0504
ElecMinimize: Iter:  51  F: -521.217838573248969  |grad|_K:  1.818e-07  alpha:  1.217e-01  linmin:  3.195e-07  t[s]:    153.23
	FillingsUpdate:  mu: -0.153115492  nElectrons: 313.000000
	SubspaceRotationAdjust: set factor to 0.0456
ElecMinimize: Iter:  52  F: -521.217838693665158  |grad|_K:  1.752e-07  alpha:  1.113e-01  linmin:  3.357e-07  t[s]:    155.29
	FillingsUpdate:  mu: -0.153115911  nElectrons: 313.000000
	SubspaceRotationAdjust: set factor to 0.042
ElecMinimize: Iter:  53  F: -521.217838799865149  |grad|_K:  1.702e-07  alpha:  1.061e-01  linmin:  2.946e-07  t[s]:    157.42
	FillingsUpdate:  mu: -0.153116524  nElectrons: 313.000000
	SubspaceRotationAdjust: set factor to 0.0389
ElecMinimize: Iter:  54  F: -521.217838895872205  |grad|_K:  1.658e-07  alpha:  1.016e-01  linmin:  2.360e-07  t[s]:    159.49
	FillingsUpdate:  mu: -0.153117367  nElectrons: 313.000000
	SubspaceRotationAdjust: set factor to 0.0357
ElecMinimize: Iter:  55  F: -521.217838983048296  |grad|_K:  1.605e-07  alpha:  9.684e-02  linmin:  1.817e-07  t[s]:    161.61
	FillingsUpdate:  mu: -0.153118394  nElectrons: 313.000000
	SubspaceRotationAdjust: set factor to 0.0321
ElecMinimize: Iter:  56  F: -521.217839062100211  |grad|_K:  1.538e-07  alpha:  9.341e-02  linmin:  1.224e-07  t[s]:    163.68
	FillingsUpdate:  mu: -0.153119532  nElectrons: 313.000000
	SubspaceRotationAdjust: set factor to 0.0286
ElecMinimize: Iter:  57  F: -521.217839134326141  |grad|_K:  1.463e-07  alpha:  9.275e-02  linmin:  6.745e-08  t[s]:    165.80
	FillingsUpdate:  mu: -0.153120708  nElectrons: 313.000000
	SubspaceRotationAdjust: set factor to 0.0257
ElecMinimize: Iter:  58  F: -521.217839201423999  |grad|_K:  1.395e-07  alpha:  9.484e-02  linmin:  9.257e-09  t[s]:    167.86
	FillingsUpdate:  mu: -0.153121872  nElectrons: 313.000000
	SubspaceRotationAdjust: set factor to 0.0236
ElecMinimize: Iter:  59  F: -521.217839265012003  |grad|_K:  1.340e-07  alpha:  9.865e-02  linmin: -5.545e-08  t[s]:    169.98
	FillingsUpdate:  mu: -0.153122999  nElectrons: 313.000000
	SubspaceRotationAdjust: set factor to 0.022
ElecMinimize: Iter:  60  F: -521.217839326168132  |grad|_K:  1.297e-07  alpha:  1.024e-01  linmin: -1.233e-07  t[s]:    172.05
	FillingsUpdate:  mu: -0.153124093  nElectrons: 313.000000
	SubspaceRotationAdjust: set factor to 0.0206
ElecMinimize: Iter:  61  F: -521.217839385051548  |grad|_K:  1.256e-07  alpha:  1.048e-01  linmin: -1.775e-07  t[s]:    174.17
	FillingsUpdate:  mu: -0.153125178  nElectrons: 313.000000
	SubspaceRotationAdjust: set factor to 0.0192
ElecMinimize: Iter:  62  F: -521.217839441049932  |grad|_K:  1.211e-07  alpha:  1.060e-01  linmin: -2.509e-07  t[s]:    176.26
	FillingsUpdate:  mu: -0.153126313  nElectrons: 313.000000
	SubspaceRotationAdjust: set factor to 0.018
ElecMinimize: Iter:  63  F: -521.217839494479790  |grad|_K:  1.170e-07  alpha:  1.085e-01  linmin: -2.745e-07  t[s]:    178.38
	FillingsUpdate:  mu: -0.153127567  nElectrons: 313.000000
	SubspaceRotationAdjust: set factor to 0.0173
ElecMinimize: Iter:  64  F: -521.217839546195592  |grad|_K:  1.146e-07  alpha:  1.122e-01  linmin: -2.978e-07  t[s]:    180.44
	FillingsUpdate:  mu: -0.153128986  nElectrons: 313.000000
	SubspaceRotationAdjust: set factor to 0.0171
ElecMinimize: Iter:  65  F: -521.217839597409579  |grad|_K:  1.136e-07  alpha:  1.155e-01  linmin: -2.932e-07  t[s]:    182.56
	FillingsUpdate:  mu: -0.153130525  nElectrons: 313.000000
	SubspaceRotationAdjust: set factor to 0.0167
ElecMinimize: Iter:  66  F: -521.217839647675646  |grad|_K:  1.123e-07  alpha:  1.153e-01  linmin: -3.031e-07  t[s]:    184.62
	FillingsUpdate:  mu: -0.153132054  nElectrons: 313.000000
	SubspaceRotationAdjust: set factor to 0.016
ElecMinimize: Iter:  67  F: -521.217839695844077  |grad|_K:  1.097e-07  alpha:  1.130e-01  linmin: -3.334e-07  t[s]:    186.74
	FillingsUpdate:  mu: -0.153133451  nElectrons: 313.000000
	SubspaceRotationAdjust: set factor to 0.0153
ElecMinimize: Iter:  68  F: -521.217839741821422  |grad|_K:  1.073e-07  alpha:  1.131e-01  linmin: -3.425e-07  t[s]:    188.82
	FillingsUpdate:  mu: -0.153134643  nElectrons: 313.000000
	SubspaceRotationAdjust: set factor to 0.0154
ElecMinimize: Iter:  69  F: -521.217839787170419  |grad|_K:  1.073e-07  alpha:  1.167e-01  linmin: -3.178e-07  t[s]:    190.94
	FillingsUpdate:  mu: -0.153135580  nElectrons: 313.000000
	SubspaceRotationAdjust: set factor to 0.0162
ElecMinimize: Iter:  70  F: -521.217839833760650  |grad|_K:  1.098e-07  alpha:  1.198e-01  linmin: -2.739e-07  t[s]:    193.03
	FillingsUpdate:  mu: -0.153136214  nElectrons: 313.000000
	SubspaceRotationAdjust: set factor to 0.0171
ElecMinimize: Iter:  71  F: -521.217839881480927  |grad|_K:  1.123e-07  alpha:  1.172e-01  linmin: -2.586e-07  t[s]:    195.14
	FillingsUpdate:  mu: -0.153136561  nElectrons: 313.000000
	SubspaceRotationAdjust: set factor to 0.0174
ElecMinimize: Iter:  72  F: -521.217839928696094  |grad|_K:  1.130e-07  alpha:  1.109e-01  linmin: -2.571e-07  t[s]:    197.21
	FillingsUpdate:  mu: -0.153136723  nElectrons: 313.000000
	SubspaceRotationAdjust: set factor to 0.0175
ElecMinimize: Iter:  73  F: -521.217839974281674  |grad|_K:  1.129e-07  alpha:  1.058e-01  linmin: -2.772e-07  t[s]:    199.33
	FillingsUpdate:  mu: -0.153136839  nElectrons: 313.000000
	SubspaceRotationAdjust: set factor to 0.018
ElecMinimize: Iter:  74  F: -521.217840019088271  |grad|_K:  1.139e-07  alpha:  1.043e-01  linmin: -2.471e-07  t[s]:    201.41
	FillingsUpdate:  mu: -0.153137051  nElectrons: 313.000000
	SubspaceRotationAdjust: set factor to 0.0191
ElecMinimize: Iter:  75  F: -521.217840064078700  |grad|_K:  1.166e-07  alpha:  1.031e-01  linmin: -2.134e-07  t[s]:    203.54
	FillingsUpdate:  mu: -0.153137465  nElectrons: 313.000000
	SubspaceRotationAdjust: set factor to 0.0204
ElecMinimize: Iter:  76  F: -521.217840109348344  |grad|_K:  1.195e-07  alpha:  9.897e-02  linmin: -1.746e-07  t[s]:    205.61
	FillingsUpdate:  mu: -0.153138117  nElectrons: 313.000000
	SubspaceRotationAdjust: set factor to 0.0212
ElecMinimize: Iter:  77  F: -521.217840153411089  |grad|_K:  1.211e-07  alpha:  9.170e-02  linmin: -1.639e-07  t[s]:    207.74
	FillingsUpdate:  mu: -0.153138977  nElectrons: 313.000000
	SubspaceRotationAdjust: set factor to 0.0214
ElecMinimize: Iter:  78  F: -521.217840195016493  |grad|_K:  1.208e-07  alpha:  8.447e-02  linmin: -1.460e-07  t[s]:    209.81
	FillingsUpdate:  mu: -0.153139978  nElectrons: 313.000000
	SubspaceRotationAdjust: set factor to 0.0213
ElecMinimize: Iter:  79  F: -521.217840233620905  |grad|_K:  1.196e-07  alpha:  7.888e-02  linmin: -1.312e-07  t[s]:    211.94
	FillingsUpdate:  mu: -0.153141048  nElectrons: 313.000000
	SubspaceRotationAdjust: set factor to 0.0212
ElecMinimize: Iter:  80  F: -521.217840269537987  |grad|_K:  1.183e-07  alpha:  7.503e-02  linmin: -1.150e-07  t[s]:    214.01
	FillingsUpdate:  mu: -0.153142113  nElectrons: 313.000000
	SubspaceRotationAdjust: set factor to 0.0212
ElecMinimize: Iter:  81  F: -521.217840303231355  |grad|_K:  1.175e-07  alpha:  7.197e-02  linmin: -1.025e-07  t[s]:    216.14
	FillingsUpdate:  mu: -0.153143105  nElectrons: 313.000000
	SubspaceRotationAdjust: set factor to 0.0212
ElecMinimize: Iter:  82  F: -521.217840335016376  |grad|_K:  1.167e-07  alpha:  6.899e-02  linmin: -7.487e-08  t[s]:    218.21
	FillingsUpdate:  mu: -0.153143967  nElectrons: 313.000000
	SubspaceRotationAdjust: set factor to 0.0211
ElecMinimize: Iter:  83  F: -521.217840364918175  |grad|_K:  1.156e-07  alpha:  6.586e-02  linmin: -5.027e-08  t[s]:    220.33
	FillingsUpdate:  mu: -0.153144661  nElectrons: 313.000000
	SubspaceRotationAdjust: set factor to 0.0208
ElecMinimize: Iter:  84  F: -521.217840392913899  |grad|_K:  1.139e-07  alpha:  6.291e-02  linmin: -6.109e-08  t[s]:    222.40
	FillingsUpdate:  mu: -0.153145178  nElectrons: 313.000000
	SubspaceRotationAdjust: set factor to 0.0202
ElecMinimize: Iter:  85  F: -521.217840419263780  |grad|_K:  1.117e-07  alpha:  6.094e-02  linmin: -5.425e-08  t[s]:    224.52
	FillingsUpdate:  mu: -0.153145528  nElectrons: 313.000000
	SubspaceRotationAdjust: set factor to 0.0196
ElecMinimize: Iter:  86  F: -521.217840444074568  |grad|_K:  1.093e-07  alpha:  5.975e-02  linmin: -7.501e-08  t[s]:    226.59
	FillingsUpdate:  mu: -0.153145734  nElectrons: 313.000000
	SubspaceRotationAdjust: set factor to 0.0191
ElecMinimize: Iter:  87  F: -521.217840467777251  |grad|_K:  1.071e-07  alpha:  5.957e-02  linmin: -6.976e-08  t[s]:    228.73
	FillingsUpdate:  mu: -0.153145831  nElectrons: 313.000000
	SubspaceRotationAdjust: set factor to 0.0187
ElecMinimize: Iter:  88  F: -521.217840490578396  |grad|_K:  1.052e-07  alpha:  5.973e-02  linmin: -8.360e-08  t[s]:    230.80
	FillingsUpdate:  mu: -0.153145857  nElectrons: 313.000000
	SubspaceRotationAdjust: set factor to 0.0184
ElecMinimize: Iter:  89  F: -521.217840512725274  |grad|_K:  1.036e-07  alpha:  6.001e-02  linmin: -1.127e-07  t[s]:    232.95
	FillingsUpdate:  mu: -0.153145856  nElectrons: 313.000000
	SubspaceRotationAdjust: set factor to 0.0182
ElecMinimize: Iter:  90  F: -521.217840534279617  |grad|_K:  1.019e-07  alpha:  6.029e-02  linmin: -1.136e-07  t[s]:    235.02
	FillingsUpdate:  mu: -0.153145868  nElectrons: 313.000000
	SubspaceRotationAdjust: set factor to 0.0178
ElecMinimize: Iter:  91  F: -521.217840555170596  |grad|_K:  9.987e-08  alpha:  6.035e-02  linmin: -1.128e-07  t[s]:    237.15
	FillingsUpdate:  mu: -0.153145928  nElectrons: 313.000000
	SubspaceRotationAdjust: set factor to 0.0172
ElecMinimize: Iter:  92  F: -521.217840575289415  |grad|_K:  9.749e-08  alpha:  6.052e-02  linmin: -1.068e-07  t[s]:    239.22
	FillingsUpdate:  mu: -0.153146060  nElectrons: 313.000000
	SubspaceRotationAdjust: set factor to 0.0167
ElecMinimize: Iter:  93  F: -521.217840594610834  |grad|_K:  9.497e-08  alpha:  6.091e-02  linmin: -1.467e-07  t[s]:    241.34
	FillingsUpdate:  mu: -0.153146281  nElectrons: 313.000000
	SubspaceRotationAdjust: set factor to 0.0162
ElecMinimize: Iter:  94  F: -521.217840613288786  |grad|_K:  9.273e-08  alpha:  6.200e-02  linmin: -1.537e-07  t[s]:    243.43
	FillingsUpdate:  mu: -0.153146593  nElectrons: 313.000000
	SubspaceRotationAdjust: set factor to 0.0158
ElecMinimize: Iter:  95  F: -521.217840631449576  |grad|_K:  9.101e-08  alpha:  6.326e-02  linmin: -1.247e-07  t[s]:    245.57
	FillingsUpdate:  mu: -0.153146989  nElectrons: 313.000000
	SubspaceRotationAdjust: set factor to 0.0157
ElecMinimize: Iter:  96  F: -521.217840649109803  |grad|_K:  8.969e-08  alpha:  6.397e-02  linmin: -1.282e-07  t[s]:    247.67
	FillingsUpdate:  mu: -0.153147449  nElectrons: 313.000000
	SubspaceRotationAdjust: set factor to 0.0154
ElecMinimize: Iter:  97  F: -521.217840666325515  |grad|_K:  8.828e-08  alpha:  6.416e-02  linmin: -9.256e-08  t[s]:    249.79
	FillingsUpdate:  mu: -0.153147940  nElectrons: 313.000000
	SubspaceRotationAdjust: set factor to 0.0149
ElecMinimize: Iter:  98  F: -521.217840682839551  |grad|_K:  8.629e-08  alpha:  6.356e-02  linmin: -9.534e-08  t[s]:    251.87
	FillingsUpdate:  mu: -0.153148430  nElectrons: 313.000000
	SubspaceRotationAdjust: set factor to 0.0141
ElecMinimize: Iter:  99  F: -521.217840698529244  |grad|_K:  8.361e-08  alpha:  6.326e-02  linmin: -8.291e-08  t[s]:    254.00
	FillingsUpdate:  mu: -0.153148892  nElectrons: 313.000000
	SubspaceRotationAdjust: set factor to 0.0132
ElecMinimize: Iter: 100  F: -521.217840713386749  |grad|_K:  8.060e-08  alpha:  6.381e-02  linmin: -6.346e-08  t[s]:    256.08
ElecMinimize: None of the convergence criteria satisfied after 100 iterations.
Setting wave functions to eigenvectors of Hamiltonian

Computing DFT-D3 correction:
# coordination-number C 3.300 3.300 3.300 3.300 3.300 3.303 3.300 3.301 3.299 3.300 3.300 3.387 3.300 3.300 3.300 3.389 3.300 3.300 3.318 3.294 3.300 3.300 3.779 3.300 3.301 3.300 3.306 3.306 3.302 3.300 3.802 3.311 3.300 3.379 3.340 3.300 3.300 3.300 3.304 3.301 3.300 3.300 3.356 3.300 3.302 3.314 3.300 3.300 3.607 3.300 3.300 3.300 3.300 3.577 3.300 3.300 3.304 3.346 3.300 3.300 3.300 3.367 3.303 3.300 3.309 3.300 3.301 3.699 3.332 3.302 3.461
# coordination-number N 3.263
# coordination-number S 1.987
# coordination-number Na 2.490 2.449
# diagonal-C6 C 24.29 24.28 24.28 24.29 24.29 24.26 24.28 24.27 24.29 24.29 24.29 23.28 24.28 24.28 24.29 23.25 24.28 24.29 24.10 24.34 24.29 24.28 18.84 24.28 24.27 24.29 24.22 24.23 24.27 24.28 18.74 24.17 24.28 23.38 23.86 24.28 24.29 24.29 24.24 24.28 24.29 24.29 23.68 24.29 24.27 24.15 24.29 24.29 20.19 24.28 24.28 24.29 24.28 20.57 24.28 24.29 24.24 23.79 24.28 24.28 24.28 23.54 24.25 24.29 24.19 24.28 24.27 19.31 23.96 24.26 22.22
# diagonal-C6 N 15.59
# diagonal-C6 S 125.91
# diagonal-C6 Na 186.11 186.11
EvdW_6 =   -0.058476
EvdW_8 =   -0.049511

# Ionic positions in cartesian coordinates:
ion C   0.000000000000000   0.000000000000000   3.000003066900000 0
ion C  -2.333835447300000   4.042302545699999   3.000003066900000 0
ion C  11.669139441899999  20.211550523099998   3.000003066900000 0
ion C   4.667670894600000   0.000000000000000   3.000003066900000 0
ion C  23.338278883799997   0.000000000000000   3.000003066900000 0
ion C   2.333835447300000   4.042302545699999   3.000003066900000 0
ion C -11.669158339199999  20.211550523099998   3.000003066900000 0
ion C  -4.667670894600000   8.084623988700001   3.000003066900000 0
ion C   9.335303994599997  16.169229080099999   3.000003066900000 0
ion C   9.335322891900001   0.000000000000000   3.000003066900000 0
ion C  18.670626886499999   0.000000000000000   3.000003066900000 0
ion C   4.667670894599999   8.084623988700001   3.000003066900000 0
ion C  -9.335322891900001  16.169229080099999   3.000003066900000 0
ion C  -7.001487444600001  12.126926534399997   3.000003066900000 0
ion C  14.002993786499999   0.000000000000000   3.000003066900000 0
ion C   0.000000000000000   8.084623988700001   3.000003066900000 0
ion C   7.001468547300002  20.211550523099998   3.000003066900000 0
ion C  -7.001487444599999  20.211550523099998   3.000003066900000 0
ion C  -2.333835447300000  12.126926534399997   3.000003066900000 0
ion C   4.667633100000000  16.169229080099999   3.000003066900000 0
ion C  -2.333835447299998  20.211550523099998   3.000003066900000 0
ion C   2.333835447299998  20.211550523099998   3.000003066900000 0
ion C   2.333835447300001  12.126926534399997   3.000003066900000 0
ion C  -4.667651997299997  16.169229080099999   3.000003066900000 0
ion C   7.001468547300000   4.042302545699999   3.000003066900000 0
ion C  21.004424539199999   4.042302545699999   3.000003066900000 0
ion C  14.002955991899999  16.169229080099999   3.000003066900000 0
ion C   0.000000000000000  16.169229080099999   3.000003066900000 0
ion C  11.669120544600000   4.042302545699999   3.000003066900000 0
ion C  18.670626886500003   8.084623988700001   3.000003066900000 0
ion C  11.669120544600002  12.126926534399997   3.000003066900000 0
ion C  16.336791439199995  12.126926534399997   3.000003066900000 0
ion C  16.336791439199999   4.042302545699999   3.000003066900000 0
ion C   9.335303994599997   8.084623988700001   3.000003066900000 0
ion C  14.002955991899999   8.084623988700001   3.000003066900000 0
ion C   0.000018897300000   2.694868363800000   3.000003066900000 0
ion C  11.669139441899999  22.906399989600001   3.000003066900000 0
ion C -11.669139441899999  22.906399989600001   3.000003066900000 0
ion C  -2.333816550000000   6.737170909500000   3.000003066900000 0
ion C   9.335322891900001  18.864097443900000   3.000003066900000 0
ion C  -7.001468547300000  22.906399989600001   3.000003066900000 0
ion C   7.001487444600000  22.906399989600001   3.000003066900000 0
ion C   2.333816550000000   6.737170909500000   3.000003066900000 0
ion C  -9.335303994599998  18.864097443900000   3.000003066900000 0
ion C  -4.667651997299998  10.779473455200000   3.000003066900000 0
ion C   7.001487444599997  14.821794898200000   3.000003066900000 0
ion C  -2.333835447300000  22.906399989600001   3.000003066900000 0
ion C   2.333816550000000  22.906399989600001   3.000003066900000 0
ion C   4.667651997299999  10.779473455200000   3.000003066900000 0
ion C  -7.001468547300004  14.821794898200000   3.000003066900000 0
ion C   4.667651997300001   2.694868363800000   3.000003066900000 0
ion C  23.338259986499999   2.694868363800000   3.000003066900000 0
ion C  14.002955991899997  18.864097443900000   3.000003066900000 0
ion C   0.000018897300000  10.779473455200000   3.000003066900000 0
ion C   4.667651997299995  18.864097443900000   3.000003066900000 0
ion C  -4.667651997300002  18.864097443900000   3.000003066900000 0
ion C  -2.333816550000002  14.821794898200000   3.000003066900000 0
ion C   2.333816549999996  14.821794898200000   3.000003066900000 0
ion C  -0.000018897300000  18.864097443900000   3.000003066900000 0
ion C   9.335303994599998   2.694868363800000   3.000003066900000 0
ion C  21.004443436500001   6.737170909500000   3.000003066900000 0
ion C  11.669139441899999  14.821794898200000   3.000003066900000 0
ion C  16.336772541899997  14.821794898200000   3.000003066900000 0
ion C  18.670607989199997   2.694868363800000   3.000003066900000 0
ion C   7.001487444600001   6.737170909500000   3.000003066900000 0
ion C  14.002974889200001   2.694868363800000   3.000003066900000 0
ion C  18.670607989200004  10.779473455200000   3.000003066900000 0
ion C   9.335303994599997  10.779473455200000   3.000003066900000 0
ion C  11.669139441899997   6.737170909500000   3.000003066900000 0
ion C  16.336772541900000   6.737170909500000   3.000003066900000 0
ion C  14.002974889200004  10.779473455200000   3.000003066900000 0
ion N   7.001468547300003  12.126926534399997   3.000003066900000 0
ion S   6.708269959493291  11.247237973426726  10.236952371164678 1
ion Na   2.394255621307741  10.715704291261773   8.241511407168884 1
ion Na  11.076347781091513  11.126061407119943   8.270455562905186 1

# Forces in Cartesian coordinates:
force C   0.001953660626991  -0.001037351165578   0.000040938125245 0
force C   0.000542674521017  -0.000283836319050   0.000017269601841 0
force C   0.001629406903632  -0.001086762951087   0.000025983763126 0
force C   0.000956323641602   0.001058997846191   0.000025458745385 0
force C   0.000341593508435  -0.000618812974888   0.000023513761716 0
force C   0.001838182258249  -0.001760913684888   0.000258904863090 0
force C  -0.000318857496051  -0.001465021899502   0.000018432049067 0
force C  -0.000052209805021   0.000691788160604  -0.000008927410037 0
force C  -0.004129530778524  -0.009101363170825   0.000182457668068 0
force C  -0.001030794995233   0.001100319447625   0.000028231981973 0
force C  -0.000424720240409  -0.000646868381202   0.000023070457925 0
force C   0.007933050964617   0.006567455048746  -0.000577196137492 0
force C  -0.001387202949329   0.000300545326199   0.000097835796684 0
force C   0.000020217686506   0.002687796503911   0.000052721813285 0
force C  -0.001955044544489  -0.001029922652300   0.000032158693609 0
force C  -0.000723242877970  -0.001369927928492   0.000423471879470 0
force C   0.000001312590087  -0.000596990335998   0.000064978863725 0
force C  -0.000037694199316  -0.000259296792311   0.000027112879723 0
force C  -0.001706609197559   0.003331646743869   0.000383744231513 0
force C   0.003906648254857  -0.009373398611961   0.000207025897841 0
force C   0.000344943492473  -0.001439643404194   0.000015744700059 0
force C  -0.001568768321187  -0.001155914549705   0.000035535659178 0
force C   0.011269774405473   0.003889456499273  -0.000386159361752 0
force C   0.001333763943157   0.000331364246910   0.000087878392629 0
force C   0.000091494935487   0.006083345494741  -0.000033694990190 0
force C  -0.000031297376676  -0.000104431991352   0.000027702026996 0
force C  -0.005016227601581  -0.002423284104953   0.000162050707124 0
force C   0.005267002820123  -0.002406591734779   0.000094416946674 0
force C  -0.001807725846322  -0.001444393608361   0.000234065848766 0
force C  -0.000033816809837   0.000719859992123   0.000008291930301 0
force C  -0.010471429145328   0.003383342036326   0.000125626262069 0
force C   0.001267626637065   0.003008227316380   0.000313165750752 0
force C  -0.000565463906590  -0.000243639789216   0.000015560568266 0
force C  -0.007689294020833   0.006232909312239  -0.000323184533996 0
force C   0.000546186644794  -0.000891297933624   0.000263756195469 0
force C  -0.000730328520859   0.000682228689249   0.000017799631897 0
force C  -0.001285314574009   0.000205969969769   0.000039141938840 0
force C  -0.002056584067039   0.001259639025168   0.000027272471405 0
force C  -0.001214940783182  -0.000942104824129   0.000223866533519 0
force C  -0.004774368469242   0.001114747050825   0.000057242427351 0
force C   0.000031194636843   0.000149708383596   0.000021449344808 0
force C   0.000021713918361   0.000358687300760   0.000020674458395 0
force C  -0.002190622608876   0.002115287983850  -0.000013033588494 0
force C   0.000104082005443   0.000349006395915   0.000019886056624 0
force C   0.000011479657868  -0.001509739919674   0.000059438767122 0
force C  -0.000346065658953  -0.004966263184418   0.000193292087407 0
force C   0.002150818908845   0.001215229430587   0.000025712343807 0
force C   0.001285819256067   0.000242450615419   0.000034682033168 0
force C   0.008230205908287   0.002373004421362  -0.000554446356572 0
force C   0.000017623684653  -0.002552630801345   0.000031104866689 0
force C  -0.002055279733308  -0.001032283278671   0.000068442671639 0
force C  -0.000802105521138   0.000472371444307   0.000025763913030 0
force C  -0.000320401739747   0.002739636749329   0.000082044742050 0
force C  -0.000650546061314  -0.004985009706141   0.000614743722072 0
force C   0.004645135019294   0.001028229188831   0.000020892688508 0
force C  -0.000012892526922   0.000293363916663   0.000019417156423 0
force C  -0.002570485954376  -0.001202802669929   0.000009155871659 0
force C  -0.006045931822314   0.006087371752884   0.000062065597010 0
force C   0.000312457061319   0.002631820508233   0.000097548734872 0
force C   0.001993192567269  -0.001068904755125   0.000066827223389 0
force C  -0.000055320344102  -0.001049457404723   0.000094957553162 0
force C   0.006280892656456   0.006479454675389   0.000112109596614 0
force C   0.002661012384221  -0.001224897638032  -0.000012349626875 0
force C   0.000770623421023   0.000512054487376   0.000025712392546 0
force C  -0.000066125156376  -0.007712305675528   0.000108898682322 0
force C   0.000765361046737   0.000700266895002   0.000018005572285 0
force C  -0.000144956305301  -0.001584565984047   0.000059750828935 0
force C  -0.008135123583487   0.001728049632099  -0.000539466449142 0
force C   0.002597375786527   0.002225652269079   0.000032463942569 0
force C   0.000943654607149  -0.000743915714639   0.000164818158295 0
force C   0.001017532612950  -0.005647427509755   0.000634858819529 0
force N  -0.000741871806364   0.000803061685720  -0.002681795552305 0
force S   0.000507457075401   0.000031481216969  -0.000217148129209 1
force Na  -0.000230830492726  -0.000157063498217   0.000193114963368 1
force Na  -0.000198193918335  -0.000127319327247   0.000270841701635 1

# Energy components:
   Eewald =    -1093.8356631996693977
       EH =     -697.0398679416348386
     Eloc =     1239.3422575173945006
      Enl =      -83.0779539031537126
     EvdW =       -0.1079866327187750
      Exc =     -150.1359779118890287
 Exc_core =        4.2473387817256443
       KE =      259.4600112798135001
-------------------------------------
     Etot =     -521.1478420101320808
       TS =        0.0699987032546596
-------------------------------------
        F =     -521.2178407133867495

IonicMinimize: Iter:   0  F: -521.217840713386749  |grad|_K:  2.472e-04  alpha:  1.000e+00

#--- Lowdin population analysis ---
# oxidation-state C +0.038 +0.037 +0.039 +0.038 +0.040 +0.036 +0.037 +0.035 +0.020 +0.038 +0.040 +0.012 +0.035 +0.035 +0.039 +0.012 +0.039 +0.035 +0.025 +0.025 +0.037 +0.040 -0.021 +0.035 +0.036 +0.036 +0.026 +0.028 +0.037 +0.036 -0.026 +0.027 +0.038 +0.011 +0.019 +0.037 +0.039 +0.040 +0.030 +0.040 +0.040 +0.039 +0.019 +0.039 +0.033 +0.137 +0.040 +0.039 +0.113 +0.038 +0.039 +0.037 +0.038 -0.004 +0.040 +0.039 +0.032 +0.028 +0.039 +0.040 +0.035 +0.022 +0.032 +0.037 +0.041 +0.037 +0.034 +0.103 +0.023 +0.032 +0.003
# oxidation-state N -0.001
# oxidation-state S -0.953
# oxidation-state Na +0.796 +0.794


Computing DFT-D3 correction:
# coordination-number C 3.300 3.300 3.300 3.300 3.300 3.303 3.300 3.301 3.299 3.300 3.300 3.387 3.300 3.300 3.300 3.389 3.300 3.300 3.318 3.294 3.300 3.300 3.779 3.300 3.301 3.300 3.306 3.306 3.302 3.300 3.802 3.311 3.300 3.379 3.340 3.300 3.300 3.300 3.304 3.301 3.300 3.300 3.356 3.300 3.302 3.314 3.300 3.300 3.607 3.300 3.300 3.300 3.300 3.577 3.300 3.300 3.304 3.346 3.300 3.300 3.300 3.367 3.303 3.300 3.309 3.300 3.301 3.699 3.332 3.302 3.461
# coordination-number N 3.263
# coordination-number S 1.987
# coordination-number Na 2.490 2.449
# diagonal-C6 C 24.29 24.28 24.28 24.29 24.29 24.26 24.28 24.27 24.29 24.29 24.29 23.28 24.28 24.28 24.29 23.25 24.28 24.29 24.10 24.34 24.29 24.28 18.84 24.28 24.27 24.29 24.22 24.23 24.27 24.28 18.74 24.18 24.28 23.38 23.86 24.28 24.29 24.29 24.24 24.28 24.29 24.29 23.68 24.29 24.27 24.15 24.29 24.29 20.20 24.28 24.28 24.29 24.28 20.57 24.28 24.29 24.24 23.79 24.28 24.28 24.28 23.54 24.25 24.29 24.19 24.28 24.27 19.31 23.96 24.26 22.22
# diagonal-C6 N 15.59
# diagonal-C6 S 125.91
# diagonal-C6 Na 186.11 186.11
EvdW_6 =   -0.058477
EvdW_8 =   -0.049511

-------- Electronic minimization -----------
	FillingsUpdate:  mu: -0.153108098  nElectrons: 313.000000
ElecMinimize: Iter:   0  F: -521.217843858820629  |grad|_K:  5.997e-08  alpha:  1.000e+00
	FillingsUpdate:  mu: -0.153124441  nElectrons: 313.000000
	SubspaceRotationAdjust: set factor to 0.0153
ElecMinimize: Iter:   1  F: -521.217843972341370  |grad|_K:  3.716e-08  alpha:  9.519e-01  linmin:  1.469e-07  t[s]:    264.55
	FillingsUpdate:  mu: -0.153128182  nElectrons: 313.000000
	SubspaceRotationAdjust: set factor to 0.0169
ElecMinimize: Iter:   2  F: -521.217844000869832  |grad|_K:  2.812e-08  alpha:  6.232e-01  linmin:  1.841e-07  t[s]:    266.61
	FillingsUpdate:  mu: -0.153128276  nElectrons: 313.000000
	SubspaceRotationAdjust: set factor to 0.0195
ElecMinimize: Iter:   3  F: -521.217844015976425  |grad|_K:  1.971e-08  alpha:  5.768e-01  linmin:  2.051e-07  t[s]:    268.70
	FillingsUpdate:  mu: -0.153127532  nElectrons: 313.000000
	SubspaceRotationAdjust: set factor to 0.0249
ElecMinimize: Iter:   4  F: -521.217844024577971  |grad|_K:  1.380e-08  alpha:  6.703e-01  linmin:  5.979e-07  t[s]:    270.76
	FillingsUpdate:  mu: -0.153128274  nElectrons: 313.000000
	SubspaceRotationAdjust: set factor to 0.0299
ElecMinimize: Iter:   5  F: -521.217844030342917  |grad|_K:  1.319e-08  alpha:  9.196e-01  linmin:  2.912e-07  t[s]:    272.83
ElecMinimize: Converged (|Delta F|<1.000000e-08 for 2 iters).
Setting wave functions to eigenvectors of Hamiltonian
IonicMinimize: 	Wrong curvature in test step, increasing alphaT to 3.000000e+00.

Computing DFT-D3 correction:
# coordination-number C 3.300 3.300 3.300 3.300 3.300 3.303 3.300 3.301 3.299 3.300 3.300 3.387 3.300 3.300 3.300 3.389 3.300 3.300 3.318 3.294 3.300 3.300 3.779 3.300 3.301 3.300 3.306 3.306 3.302 3.300 3.802 3.311 3.300 3.379 3.340 3.300 3.300 3.300 3.304 3.301 3.300 3.300 3.356 3.300 3.302 3.314 3.300 3.300 3.607 3.300 3.300 3.300 3.300 3.577 3.300 3.300 3.304 3.346 3.300 3.300 3.300 3.367 3.303 3.300 3.309 3.300 3.301 3.699 3.332 3.302 3.461
# coordination-number N 3.263
# coordination-number S 1.987
# coordination-number Na 2.490 2.449
# diagonal-C6 C 24.29 24.28 24.28 24.29 24.29 24.26 24.28 24.27 24.29 24.29 24.29 23.28 24.28 24.28 24.29 23.25 24.28 24.29 24.10 24.34 24.29 24.28 18.84 24.28 24.27 24.29 24.22 24.23 24.27 24.28 18.74 24.18 24.28 23.38 23.86 24.28 24.29 24.29 24.24 24.28 24.29 24.29 23.68 24.29 24.27 24.15 24.29 24.29 20.20 24.28 24.28 24.29 24.28 20.57 24.28 24.29 24.24 23.79 24.28 24.28 24.28 23.54 24.25 24.29 24.19 24.28 24.27 19.31 23.96 24.26 22.22
# diagonal-C6 N 15.59
# diagonal-C6 S 125.91
# diagonal-C6 Na 186.11 186.11
EvdW_6 =   -0.058477
EvdW_8 =   -0.049511

-------- Electronic minimization -----------
	FillingsUpdate:  mu: -0.153158865  nElectrons: 313.000000
ElecMinimize: Iter:   0  F: -521.217843736064083  |grad|_K:  8.200e-08  alpha:  1.000e+00
	FillingsUpdate:  mu: -0.153132776  nElectrons: 313.000000
	SubspaceRotationAdjust: set factor to 0.0489
ElecMinimize: Iter:   1  F: -521.217843931266998  |grad|_K:  5.013e-08  alpha:  8.753e-01  linmin:  6.755e-08  t[s]:    278.39
	FillingsUpdate:  mu: -0.153127454  nElectrons: 313.000000
	SubspaceRotationAdjust: set factor to 0.0589
ElecMinimize: Iter:   2  F: -521.217843982753379  |grad|_K:  3.921e-08  alpha:  6.177e-01  linmin:  6.369e-08  t[s]:    280.48
	FillingsUpdate:  mu: -0.153126003  nElectrons: 313.000000
	SubspaceRotationAdjust: set factor to 0.0675
ElecMinimize: Iter:   3  F: -521.217844017381253  |grad|_K:  2.402e-08  alpha:  6.786e-01  linmin: -3.779e-07  t[s]:    282.61
	FillingsUpdate:  mu: -0.153127084  nElectrons: 313.000000
	SubspaceRotationAdjust: set factor to 0.0748
ElecMinimize: Iter:   4  F: -521.217844030476499  |grad|_K:  1.761e-08  alpha:  6.838e-01  linmin: -4.248e-08  t[s]:    284.70
	FillingsUpdate:  mu: -0.153128944  nElectrons: 313.000000
	SubspaceRotationAdjust: set factor to 0.0872
ElecMinimize: Iter:   5  F: -521.217844037016107  |grad|_K:  1.351e-08  alpha:  6.365e-01  linmin:  4.006e-08  t[s]:    286.82
	FillingsUpdate:  mu: -0.153130390  nElectrons: 313.000000
	SubspaceRotationAdjust: set factor to 0.102
ElecMinimize: Iter:   6  F: -521.217844040826435  |grad|_K:  9.693e-09  alpha:  6.276e-01  linmin: -1.256e-08  t[s]:    288.90
ElecMinimize: Converged (|Delta F|<1.000000e-08 for 2 iters).
Setting wave functions to eigenvectors of Hamiltonian

Computing DFT-D3 correction:
# coordination-number C 3.300 3.300 3.300 3.300 3.300 3.303 3.300 3.301 3.299 3.300 3.300 3.387 3.300 3.300 3.300 3.389 3.300 3.300 3.318 3.294 3.300 3.300 3.779 3.300 3.301 3.300 3.306 3.306 3.302 3.300 3.802 3.311 3.300 3.379 3.340 3.300 3.300 3.300 3.304 3.301 3.300 3.300 3.356 3.300 3.302 3.314 3.300 3.300 3.607 3.300 3.300 3.300 3.300 3.577 3.300 3.300 3.304 3.346 3.300 3.300 3.300 3.367 3.303 3.300 3.309 3.300 3.301 3.699 3.332 3.302 3.461
# coordination-number N 3.263
# coordination-number S 1.987
# coordination-number Na 2.490 2.449
# diagonal-C6 C 24.29 24.28 24.28 24.29 24.29 24.26 24.28 24.27 24.29 24.29 24.29 23.28 24.28 24.28 24.29 23.25 24.28 24.29 24.10 24.34 24.29 24.28 18.84 24.28 24.27 24.29 24.22 24.23 24.27 24.28 18.74 24.18 24.28 23.38 23.86 24.28 24.29 24.29 24.24 24.28 24.29 24.29 23.68 24.29 24.27 24.15 24.29 24.29 20.20 24.28 24.28 24.29 24.28 20.57 24.28 24.29 24.24 23.79 24.28 24.28 24.28 23.54 24.25 24.29 24.19 24.28 24.27 19.31 23.96 24.26 22.22
# diagonal-C6 N 15.59
# diagonal-C6 S 125.91
# diagonal-C6 Na 186.11 186.11
EvdW_6 =   -0.058477
EvdW_8 =   -0.049511

# Ionic positions in cartesian coordinates:
ion C   0.000000000000000   0.000000000000000   3.000003066900000 0
ion C  -2.333835447300000   4.042302545699999   3.000003066900000 0
ion C  11.669139441899999  20.211550523099998   3.000003066900000 0
ion C   4.667670894600000   0.000000000000000   3.000003066900000 0
ion C  23.338278883799997   0.000000000000000   3.000003066900000 0
ion C   2.333835447300000   4.042302545699999   3.000003066900000 0
ion C -11.669158339199999  20.211550523099998   3.000003066900000 0
ion C  -4.667670894600000   8.084623988700001   3.000003066900000 0
ion C   9.335303994599997  16.169229080099999   3.000003066900000 0
ion C   9.335322891900001   0.000000000000000   3.000003066900000 0
ion C  18.670626886499999   0.000000000000000   3.000003066900000 0
ion C   4.667670894599999   8.084623988700001   3.000003066900000 0
ion C  -9.335322891900001  16.169229080099999   3.000003066900000 0
ion C  -7.001487444600001  12.126926534399997   3.000003066900000 0
ion C  14.002993786499999   0.000000000000000   3.000003066900000 0
ion C   0.000000000000000   8.084623988700001   3.000003066900000 0
ion C   7.001468547300002  20.211550523099998   3.000003066900000 0
ion C  -7.001487444599999  20.211550523099998   3.000003066900000 0
ion C  -2.333835447300000  12.126926534399997   3.000003066900000 0
ion C   4.667633100000000  16.169229080099999   3.000003066900000 0
ion C  -2.333835447299998  20.211550523099998   3.000003066900000 0
ion C   2.333835447299998  20.211550523099998   3.000003066900000 0
ion C   2.333835447300001  12.126926534399997   3.000003066900000 0
ion C  -4.667651997299997  16.169229080099999   3.000003066900000 0
ion C   7.001468547300000   4.042302545699999   3.000003066900000 0
ion C  21.004424539199999   4.042302545699999   3.000003066900000 0
ion C  14.002955991899999  16.169229080099999   3.000003066900000 0
ion C   0.000000000000000  16.169229080099999   3.000003066900000 0
ion C  11.669120544600000   4.042302545699999   3.000003066900000 0
ion C  18.670626886500003   8.084623988700001   3.000003066900000 0
ion C  11.669120544600002  12.126926534399997   3.000003066900000 0
ion C  16.336791439199995  12.126926534399997   3.000003066900000 0
ion C  16.336791439199999   4.042302545699999   3.000003066900000 0
ion C   9.335303994599997   8.084623988700001   3.000003066900000 0
ion C  14.002955991899999   8.084623988700001   3.000003066900000 0
ion C   0.000018897300000   2.694868363800000   3.000003066900000 0
ion C  11.669139441899999  22.906399989600001   3.000003066900000 0
ion C -11.669139441899999  22.906399989600001   3.000003066900000 0
ion C  -2.333816550000000   6.737170909500000   3.000003066900000 0
ion C   9.335322891900001  18.864097443900000   3.000003066900000 0
ion C  -7.001468547300000  22.906399989600001   3.000003066900000 0
ion C   7.001487444600000  22.906399989600001   3.000003066900000 0
ion C   2.333816550000000   6.737170909500000   3.000003066900000 0
ion C  -9.335303994599998  18.864097443900000   3.000003066900000 0
ion C  -4.667651997299998  10.779473455200000   3.000003066900000 0
ion C   7.001487444599997  14.821794898200000   3.000003066900000 0
ion C  -2.333835447300000  22.906399989600001   3.000003066900000 0
ion C   2.333816550000000  22.906399989600001   3.000003066900000 0
ion C   4.667651997299999  10.779473455200000   3.000003066900000 0
ion C  -7.001468547300004  14.821794898200000   3.000003066900000 0
ion C   4.667651997300001   2.694868363800000   3.000003066900000 0
ion C  23.338259986499999   2.694868363800000   3.000003066900000 0
ion C  14.002955991899997  18.864097443900000   3.000003066900000 0
ion C   0.000018897300000  10.779473455200000   3.000003066900000 0
ion C   4.667651997299995  18.864097443900000   3.000003066900000 0
ion C  -4.667651997300002  18.864097443900000   3.000003066900000 0
ion C  -2.333816550000002  14.821794898200000   3.000003066900000 0
ion C   2.333816549999996  14.821794898200000   3.000003066900000 0
ion C  -0.000018897300000  18.864097443900000   3.000003066900000 0
ion C   9.335303994599998   2.694868363800000   3.000003066900000 0
ion C  21.004443436500001   6.737170909500000   3.000003066900000 0
ion C  11.669139441899999  14.821794898200000   3.000003066900000 0
ion C  16.336772541899997  14.821794898200000   3.000003066900000 0
ion C  18.670607989199997   2.694868363800000   3.000003066900000 0
ion C   7.001487444600001   6.737170909500000   3.000003066900000 0
ion C  14.002974889200001   2.694868363800000   3.000003066900000 0
ion C  18.670607989200004  10.779473455200000   3.000003066900000 0
ion C   9.335303994599997  10.779473455200000   3.000003066900000 0
ion C  11.669139441899997   6.737170909500000   3.000003066900000 0
ion C  16.336772541900000   6.737170909500000   3.000003066900000 0
ion C  14.002974889200004  10.779473455200000   3.000003066900000 0
ion N   7.001468547300003  12.126926534399997   3.000003066900000 0
ion S   6.708777416568692  11.247269454643696  10.236735223035467 1
ion Na   2.394024790815013  10.715547227763556   8.241704522132252 1
ion Na  11.076149587173180  11.125934087792695   8.270726404606821 1

# Forces in Cartesian coordinates:
force C   0.001952555519441  -0.001036704154339   0.000037012074613 0
force C   0.000542125088020  -0.000284298122798   0.000011889490485 0
force C   0.001631057923305  -0.001087147313878   0.000022737375534 0
force C   0.000953817029894   0.001056376500536   0.000022249023142 0
force C   0.000342690374620  -0.000617594799654   0.000022085385942 0
force C   0.001838951722707  -0.001761414178509   0.000251301712469 0
force C  -0.000316379983001  -0.001463981407634   0.000016021175531 0
force C  -0.000053562396422   0.000692020133139  -0.000019645067038 0
force C  -0.004125374217560  -0.009098515542707   0.000170274811072 0
force C  -0.001029415048979   0.001097286400554   0.000025783748640 0
force C  -0.000425574547852  -0.000645729447262   0.000022541738012 0
force C   0.007932601025103   0.006562157554260  -0.000576513502113 0
force C  -0.001384781448843   0.000300767032300   0.000092710487400 0
force C   0.000020453959487   0.002687276349439   0.000044302200679 0
force C  -0.001953934662403  -0.001029185769165   0.000030424106614 0
force C  -0.000723891157144  -0.001369314409655   0.000420873681558 0
force C   0.000001135635646  -0.000598276701395   0.000062896464836 0
force C  -0.000038094260205  -0.000259199275593   0.000024236946114 0
force C  -0.001709394079111   0.003332834300807   0.000375785243894 0
force C   0.003903083633815  -0.009370988113303   0.000198465298624 0
force C   0.000342617514726  -0.001438548421957   0.000014494323580 0
force C  -0.001571071777659  -0.001156289181935   0.000033401944063 0
force C   0.011264568539884   0.003892742514485  -0.000375946947383 0
force C   0.001332284667162   0.000330389419193   0.000083401343300 0
force C   0.000092072781440   0.006078574163034  -0.000043864174065 0
force C  -0.000030689160740  -0.000102504981191   0.000024170160740 0
force C  -0.005012998790132  -0.002421258259603   0.000155195340438 0
force C   0.005263651318385  -0.002404031357406   0.000088227353147 0
force C  -0.001809728566247  -0.001445699543831   0.000228826160712 0
force C  -0.000033537595138   0.000720193847499  -0.000002157269564 0
force C  -0.010465333169215   0.003386267517272   0.000133680532939 0
force C   0.001268644777252   0.003009492454428   0.000302685297640 0
force C  -0.000565097242906  -0.000243381579694   0.000011513562557 0
force C  -0.007687397095983   0.006226675105338  -0.000324311759380 0
force C   0.000546303425930  -0.000890099641902   0.000257507771914 0
force C  -0.000732130260880   0.000681131216307   0.000011695600853 0
force C  -0.001285320297576   0.000205908942173   0.000036308350474 0
force C  -0.002054138240346   0.001258480116249   0.000024916833059 0
force C  -0.001220062668992  -0.000943531001367   0.000216521251739 0
force C  -0.004774071056884   0.001115581689005   0.000052778656796 0
force C   0.000031363638886   0.000146394634941   0.000021608232478 0
force C   0.000021931085202   0.000360433282326   0.000017332862780 0
force C  -0.002191269544063   0.002113492526495  -0.000018156433706 0
force C   0.000104299205741   0.000348598765686   0.000016705359848 0
force C   0.000010361127866  -0.001509053757570   0.000047750190730 0
force C  -0.000345712211850  -0.004965962607465   0.000196251013397 0
force C   0.002149410298370   0.001213954443742   0.000025250336955 0
force C   0.001285793041142   0.000243058297023   0.000031632525556 0
force C   0.008232478495027   0.002374837005949  -0.000530754523550 0
force C   0.000017100433119  -0.002549945236029   0.000022180076876 0
force C  -0.002056723859830  -0.001030808529478   0.000062703078972 0
force C  -0.000802809872471   0.000473139552838   0.000026015453825 0
force C  -0.000321626791504   0.002740016694631   0.000078104874553 0
force C  -0.000652227752628  -0.004985515845631   0.000616980313690 0
force C   0.004645288198567   0.001029330749014   0.000016171680962 0
force C  -0.000012586382318   0.000293784533855   0.000015992174146 0
force C  -0.002571327155602  -0.001204384946132  -0.000000296475046 0
force C  -0.006048378630915   0.006089115196003   0.000055452029893 0
force C   0.000314163113691   0.002632017423588   0.000095042212665 0
force C   0.001995280433521  -0.001067617718501   0.000062242346924 0
force C  -0.000054660984923  -0.001051169775356   0.000089151120066 0
force C   0.006283331483493   0.006480205044741   0.000104297121632 0
force C   0.002661471453116  -0.001227182587215  -0.000023932233509 0
force C   0.000770867078948   0.000512458819025   0.000025065098190 0
force C  -0.000066045665976  -0.007716498919642   0.000107869458071 0
force C   0.000766314057287   0.000699868788202   0.000013484935109 0
force C  -0.000144489092865  -0.001584568419112   0.000049047660227 0
force C  -0.008135350795841   0.001729458277779  -0.000516331844639 0
force C   0.002597909725109   0.002225199754975   0.000026479212051 0
force C   0.000947606145834  -0.000744195263973   0.000158065215621 0
force C   0.001018874489219  -0.005648152221064   0.000632119589496 0
force N  -0.000740474150046   0.000800449603320  -0.002693101724518 0
force S   0.000442253998328   0.000093727972655  -0.000240246821076 1
force Na  -0.000219028750938  -0.000156062574306   0.000182454926477 1
force Na  -0.000164546803155  -0.000129191754651   0.000249103307958 1

# Energy components:
   Eewald =    -1093.8425971721430869
       EH =     -697.0420445896966157
     Eloc =     1239.3508180548483324
      Enl =      -83.0778680302512385
     EvdW =       -0.1079872898604551
      Exc =     -150.1361875019204604
 Exc_core =        4.2473387836834267
       KE =      259.4606657316398923
-------------------------------------
     Etot =     -521.1478620137003190
       TS =        0.0699820271261511
-------------------------------------
        F =     -521.2178440408264350

IonicMinimize: Iter:   1  F: -521.217844040826435  |grad|_K:  2.294e-04  alpha: -9.933e-02  linmin: -1.794e-02  t[s]:    291.64

#--- Lowdin population analysis ---
# oxidation-state C +0.038 +0.037 +0.039 +0.038 +0.040 +0.036 +0.037 +0.035 +0.020 +0.038 +0.040 +0.012 +0.035 +0.035 +0.039 +0.012 +0.039 +0.035 +0.025 +0.025 +0.037 +0.040 -0.021 +0.035 +0.036 +0.036 +0.026 +0.028 +0.037 +0.036 -0.026 +0.027 +0.038 +0.011 +0.019 +0.037 +0.039 +0.040 +0.030 +0.040 +0.040 +0.039 +0.019 +0.039 +0.033 +0.137 +0.040 +0.039 +0.113 +0.038 +0.039 +0.037 +0.038 -0.004 +0.040 +0.039 +0.032 +0.028 +0.039 +0.040 +0.035 +0.022 +0.032 +0.037 +0.041 +0.037 +0.034 +0.103 +0.023 +0.032 +0.003
# oxidation-state N -0.001
# oxidation-state S -0.953
# oxidation-state Na +0.796 +0.794


Computing DFT-D3 correction:
# coordination-number C 3.300 3.300 3.300 3.300 3.300 3.303 3.300 3.301 3.299 3.300 3.300 3.387 3.300 3.300 3.300 3.389 3.300 3.300 3.318 3.294 3.300 3.300 3.779 3.300 3.301 3.300 3.306 3.306 3.302 3.300 3.801 3.311 3.300 3.379 3.340 3.300 3.300 3.300 3.304 3.301 3.300 3.300 3.356 3.300 3.302 3.314 3.300 3.300 3.607 3.300 3.300 3.300 3.300 3.576 3.300 3.300 3.304 3.346 3.300 3.300 3.300 3.367 3.303 3.300 3.309 3.300 3.301 3.699 3.332 3.302 3.461
# coordination-number N 3.263
# coordination-number S 1.987
# coordination-number Na 2.489 2.448
# diagonal-C6 C 24.29 24.28 24.28 24.29 24.29 24.26 24.28 24.27 24.29 24.29 24.29 23.28 24.28 24.28 24.29 23.25 24.28 24.29 24.10 24.34 24.29 24.28 18.84 24.28 24.27 24.29 24.22 24.23 24.27 24.28 18.74 24.18 24.28 23.38 23.86 24.28 24.29 24.29 24.24 24.28 24.29 24.29 23.68 24.29 24.27 24.15 24.29 24.29 20.20 24.28 24.28 24.29 24.28 20.57 24.28 24.29 24.24 23.79 24.28 24.28 24.28 23.54 24.25 24.29 24.19 24.28 24.27 19.32 23.96 24.26 22.23
# diagonal-C6 N 15.59
# diagonal-C6 S 125.91
# diagonal-C6 Na 186.11 186.11
EvdW_6 =   -0.058477
EvdW_8 =   -0.049511

-------- Electronic minimization -----------
	FillingsUpdate:  mu: -0.153130883  nElectrons: 313.000000
ElecMinimize: Iter:   0  F: -521.217844874008733  |grad|_K:  4.364e-08  alpha:  1.000e+00
	FillingsUpdate:  mu: -0.153122185  nElectrons: 313.000000
	SubspaceRotationAdjust: set factor to 0.102
ElecMinimize: Iter:   1  F: -521.217844913405884  |grad|_K:  1.796e-08  alpha:  6.238e-01  linmin: -5.861e-07  t[s]:    297.34
	FillingsUpdate:  mu: -0.153123467  nElectrons: 313.000000
	SubspaceRotationAdjust: set factor to 0.127
[...]
force C   0.002575396777097   0.002205296371024   0.000031186876325 0
force C   0.000981169746200  -0.000769224303929   0.000157863262251 0
force C   0.000935142520116  -0.005544481747949   0.000667909541607 0
force N  -0.000728790037824   0.000748877844205  -0.002770100811466 0
force S   0.000066236915598   0.000020755719845  -0.000191488425569 1
force Na   0.000295183982367  -0.000089543049425  -0.000188738172366 1
force Na  -0.000250096477752  -0.000119422641674  -0.000084191700929 1

# Energy components:
   Eewald =    -1096.2510907565001617
       EH =     -699.1743764449187211
     Eloc =     1243.8938308483898254
      Enl =      -83.0755426952121354
     EvdW =       -0.1081701817911339
      Exc =     -150.1336630337315796
 Exc_core =        4.2473389907954244
       KE =      259.4535970415702195
-------------------------------------
     Etot =     -521.1480762313983632
       TS =        0.0697920573470882
-------------------------------------
        F =     -521.2178682887454215

IonicMinimize: Iter:   9  F: -521.217868288745422  |grad|_K:  1.687e-04  alpha:  3.919e+00  linmin: -1.488e-03  t[s]:    717.58

#--- Lowdin population analysis ---
# oxidation-state C +0.038 +0.036 +0.039 +0.038 +0.039 +0.036 +0.037 +0.035 +0.021 +0.038 +0.040 +0.012 +0.035 +0.035 +0.038 +0.011 +0.039 +0.035 +0.025 +0.025 +0.037 +0.040 -0.018 +0.035 +0.036 +0.036 +0.026 +0.028 +0.037 +0.036 -0.025 +0.027 +0.037 +0.011 +0.018 +0.037 +0.039 +0.040 +0.029 +0.040 +0.040 +0.039 +0.019 +0.039 +0.032 +0.138 +0.040 +0.039 +0.115 +0.038 +0.039 +0.037 +0.038 -0.003 +0.041 +0.039 +0.032 +0.030 +0.039 +0.039 +0.035 +0.023 +0.032 +0.037 +0.041 +0.037 +0.033 +0.105 +0.023 +0.031 +0.003
# oxidation-state N +0.000
# oxidation-state S -0.960
# oxidation-state Na +0.796 +0.795


Computing DFT-D3 correction:
# coordination-number C 3.300 3.300 3.300 3.300 3.300 3.303 3.300 3.301 3.298 3.300 3.300 3.376 3.300 3.300 3.300 3.383 3.300 3.300 3.317 3.293 3.300 3.300 3.705 3.300 3.301 3.300 3.306 3.305 3.302 3.300 3.764 3.311 3.300 3.376 3.341 3.300 3.300 3.300 3.304 3.300 3.300 3.300 3.352 3.300 3.302 3.312 3.300 3.300 3.555 3.300 3.300 3.300 3.300 3.543 3.300 3.300 3.304 3.337 3.300 3.300 3.300 3.359 3.303 3.300 3.309 3.300 3.301 3.663 3.332 3.302 3.458
# coordination-number N 3.256
# coordination-number S 1.988
# coordination-number Na 2.287 2.348
# diagonal-C6 C 24.29 24.28 24.28 24.29 24.29 24.26 24.29 24.27 24.31 24.29 24.29 23.43 24.28 24.28 24.29 23.33 24.28 24.29 24.12 24.35 24.29 24.28 19.28 24.28 24.27 24.29 24.22 24.23 24.27 24.28 18.91 24.18 24.28 23.43 23.85 24.28 24.29 24.29 24.24 24.28 24.29 24.29 23.72 24.29 24.27 24.17 24.29 24.29 20.85 24.28 24.28 24.29 24.28 21.02 24.28 24.29 24.25 23.90 24.28 24.28 24.28 23.64 24.25 24.29 24.20 24.28 24.27 19.61 23.95 24.26 22.27
# diagonal-C6 N 15.59
# diagonal-C6 S 125.91
# diagonal-C6 Na 186.11 186.11
EvdW_6 =   -0.058631
EvdW_8 =   -0.049541

-------- Electronic minimization -----------
	FillingsUpdate:  mu: -0.152171030  nElectrons: 313.000000
ElecMinimize: Iter:   0  F: -521.217868631077181  |grad|_K:  1.159e-07  alpha:  1.000e+00
	FillingsUpdate:  mu: -0.152172475  nElectrons: 313.000000
	SubspaceRotationAdjust: set factor to 0.213
ElecMinimize: Iter:   1  F: -521.217868933229397  |grad|_K:  5.412e-08  alpha:  6.778e-01  linmin: -7.000e-08  t[s]:    723.30
	FillingsUpdate:  mu: -0.152180473  nElectrons: 313.000000
	SubspaceRotationAdjust: set factor to 0.223
ElecMinimize: Iter:   2  F: -521.217868984514666  |grad|_K:  3.161e-08  alpha:  5.280e-01  linmin: -3.386e-06  t[s]:    725.38
	FillingsUpdate:  mu: -0.152179186  nElectrons: 313.000000
	SubspaceRotationAdjust: set factor to 0.291
ElecMinimize: Iter:   3  F: -521.217869001995268  |grad|_K:  2.234e-08  alpha:  5.273e-01  linmin:  9.893e-07  t[s]:    727.44
	FillingsUpdate:  mu: -0.152177727  nElectrons: 313.000000
	SubspaceRotationAdjust: set factor to 0.301
ElecMinimize: Iter:   4  F: -521.217869014668850  |grad|_K:  1.713e-08  alpha:  7.702e-01  linmin:  1.266e-05  t[s]:    729.51
	FillingsUpdate:  mu: -0.152181334  nElectrons: 313.000000
	SubspaceRotationAdjust: set factor to 0.255
ElecMinimize: Iter:   5  F: -521.217869019874684  |grad|_K:  1.451e-08  alpha:  5.390e-01  linmin:  3.432e-06  t[s]:    731.60
	FillingsUpdate:  mu: -0.152178923  nElectrons: 313.000000
	SubspaceRotationAdjust: set factor to 0.194
ElecMinimize: Iter:   6  F: -521.217869023827120  |grad|_K:  8.669e-09  alpha:  5.666e-01  linmin:  2.047e-06  t[s]:    733.67
ElecMinimize: Converged (|Delta F|<1.000000e-08 for 2 iters).
Setting wave functions to eigenvectors of Hamiltonian

Computing DFT-D3 correction:
# coordination-number C 3.300 3.300 3.300 3.300 3.300 3.303 3.300 3.301 3.298 3.300 3.300 3.376 3.300 3.300 3.300 3.384 3.300 3.300 3.317 3.293 3.300 3.300 3.704 3.300 3.301 3.300 3.306 3.305 3.302 3.300 3.764 3.311 3.300 3.376 3.341 3.300 3.300 3.300 3.304 3.300 3.300 3.300 3.352 3.300 3.302 3.312 3.300 3.300 3.555 3.300 3.300 3.300 3.300 3.543 3.300 3.300 3.304 3.337 3.300 3.300 3.300 3.359 3.303 3.300 3.309 3.300 3.301 3.663 3.332 3.302 3.458
# coordination-number N 3.256
# coordination-number S 1.988
# coordination-number Na 2.287 2.348
# diagonal-C6 C 24.29 24.28 24.28 24.29 24.29 24.26 24.29 24.27 24.31 24.29 24.29 23.42 24.28 24.28 24.29 23.33 24.28 24.29 24.12 24.35 24.29 24.28 19.28 24.28 24.27 24.29 24.22 24.23 24.27 24.28 18.91 24.18 24.28 23.43 23.85 24.28 24.29 24.29 24.24 24.28 24.29 24.29 23.72 24.29 24.27 24.17 24.29 24.29 20.85 24.28 24.28 24.29 24.28 21.02 24.28 24.29 24.25 23.90 24.28 24.28 24.28 23.64 24.25 24.29 24.20 24.28 24.27 19.61 23.95 24.26 22.27
# diagonal-C6 N 15.59
# diagonal-C6 S 125.91
# diagonal-C6 Na 186.11 186.11
EvdW_6 =   -0.058631
EvdW_8 =   -0.049541

-------- Electronic minimization -----------
	FillingsUpdate:  mu: -0.152183238  nElectrons: 313.000000
ElecMinimize: Iter:   0  F: -521.217869073023621  |grad|_K:  5.429e-08  alpha:  1.000e+00
	FillingsUpdate:  mu: -0.152172557  nElectrons: 313.000000
	SubspaceRotationAdjust: set factor to 0.108
ElecMinimize: Iter:   1  F: -521.217869110717515  |grad|_K:  2.037e-08  alpha:  3.857e-01  linmin:  9.249e-06  t[s]:    739.46
	FillingsUpdate:  mu: -0.152177252  nElectrons: 313.000000
	SubspaceRotationAdjust: set factor to 0.123
ElecMinimize: Iter:   2  F: -521.217869119767556  |grad|_K:  6.991e-09  alpha:  6.573e-01  linmin: -6.703e-06  t[s]:    741.55
	FillingsUpdate:  mu: -0.152177448  nElectrons: 313.000000
	SubspaceRotationAdjust: set factor to 0.156
ElecMinimize: Iter:   3  F: -521.217869120911132  |grad|_K:  5.166e-09  alpha:  7.055e-01  linmin:  1.086e-05  t[s]:    743.61
ElecMinimize: Converged (|Delta F|<1.000000e-08 for 2 iters).
Setting wave functions to eigenvectors of Hamiltonian

Computing DFT-D3 correction:
# coordination-number C 3.300 3.300 3.300 3.300 3.300 3.303 3.300 3.301 3.298 3.300 3.300 3.376 3.300 3.300 3.300 3.384 3.300 3.300 3.317 3.293 3.300 3.300 3.704 3.300 3.301 3.300 3.306 3.305 3.302 3.300 3.764 3.311 3.300 3.376 3.341 3.300 3.300 3.300 3.304 3.300 3.300 3.300 3.352 3.300 3.302 3.312 3.300 3.300 3.555 3.300 3.300 3.300 3.300 3.543 3.300 3.300 3.304 3.337 3.300 3.300 3.300 3.359 3.303 3.300 3.309 3.300 3.301 3.663 3.332 3.302 3.458
# coordination-number N 3.256
# coordination-number S 1.988
# coordination-number Na 2.287 2.348
# diagonal-C6 C 24.29 24.28 24.28 24.29 24.29 24.26 24.29 24.27 24.31 24.29 24.29 23.42 24.28 24.28 24.29 23.33 24.28 24.29 24.12 24.35 24.29 24.28 19.28 24.28 24.27 24.29 24.22 24.23 24.27 24.28 18.91 24.18 24.28 23.43 23.85 24.28 24.29 24.29 24.24 24.28 24.29 24.29 23.72 24.29 24.27 24.17 24.29 24.29 20.85 24.28 24.28 24.29 24.28 21.02 24.28 24.29 24.25 23.90 24.28 24.28 24.28 23.64 24.25 24.29 24.20 24.28 24.27 19.61 23.95 24.26 22.27
# diagonal-C6 N 15.59
# diagonal-C6 S 125.91
# diagonal-C6 Na 186.11 186.11
EvdW_6 =   -0.058631
EvdW_8 =   -0.049541

# Ionic positions in cartesian coordinates:
ion C   0.000000000000000   0.000000000000000   3.000003066900000 0
ion C  -2.333835447300000   4.042302545699999   3.000003066900000 0
ion C  11.669139441899999  20.211550523099998   3.000003066900000 0
ion C   4.667670894600000   0.000000000000000   3.000003066900000 0
ion C  23.338278883799997   0.000000000000000   3.000003066900000 0
ion C   2.333835447300000   4.042302545699999   3.000003066900000 0
ion C -11.669158339199999  20.211550523099998   3.000003066900000 0
ion C  -4.667670894600000   8.084623988700001   3.000003066900000 0
ion C   9.335303994599997  16.169229080099999   3.000003066900000 0
ion C   9.335322891900001   0.000000000000000   3.000003066900000 0
ion C  18.670626886499999   0.000000000000000   3.000003066900000 0
ion C   4.667670894599999   8.084623988700001   3.000003066900000 0
ion C  -9.335322891900001  16.169229080099999   3.000003066900000 0
ion C  -7.001487444600001  12.126926534399997   3.000003066900000 0
ion C  14.002993786499999   0.000000000000000   3.000003066900000 0
ion C   0.000000000000000   8.084623988700001   3.000003066900000 0
ion C   7.001468547300002  20.211550523099998   3.000003066900000 0
ion C  -7.001487444599999  20.211550523099998   3.000003066900000 0
ion C  -2.333835447300000  12.126926534399997   3.000003066900000 0
ion C   4.667633100000000  16.169229080099999   3.000003066900000 0
ion C  -2.333835447299998  20.211550523099998   3.000003066900000 0
ion C   2.333835447299998  20.211550523099998   3.000003066900000 0
ion C   2.333835447300001  12.126926534399997   3.000003066900000 0
ion C  -4.667651997299997  16.169229080099999   3.000003066900000 0
ion C   7.001468547300000   4.042302545699999   3.000003066900000 0
ion C  21.004424539199999   4.042302545699999   3.000003066900000 0
ion C  14.002955991899999  16.169229080099999   3.000003066900000 0
ion C   0.000000000000000  16.169229080099999   3.000003066900000 0
ion C  11.669120544600000   4.042302545699999   3.000003066900000 0
ion C  18.670626886500003   8.084623988700001   3.000003066900000 0
ion C  11.669120544600002  12.126926534399997   3.000003066900000 0
ion C  16.336791439199995  12.126926534399997   3.000003066900000 0
ion C  16.336791439199999   4.042302545699999   3.000003066900000 0
ion C   9.335303994599997   8.084623988700001   3.000003066900000 0
ion C  14.002955991899999   8.084623988700001   3.000003066900000 0
ion C   0.000018897300000   2.694868363800000   3.000003066900000 0
ion C  11.669139441899999  22.906399989600001   3.000003066900000 0
ion C -11.669139441899999  22.906399989600001   3.000003066900000 0
ion C  -2.333816550000000   6.737170909500000   3.000003066900000 0
ion C   9.335322891900001  18.864097443900000   3.000003066900000 0
ion C  -7.001468547300000  22.906399989600001   3.000003066900000 0
ion C   7.001487444600000  22.906399989600001   3.000003066900000 0
ion C   2.333816550000000   6.737170909500000   3.000003066900000 0
ion C  -9.335303994599998  18.864097443900000   3.000003066900000 0
ion C  -4.667651997299998  10.779473455200000   3.000003066900000 0
ion C   7.001487444599997  14.821794898200000   3.000003066900000 0
ion C  -2.333835447300000  22.906399989600001   3.000003066900000 0
ion C   2.333816550000000  22.906399989600001   3.000003066900000 0
ion C   4.667651997299999  10.779473455200000   3.000003066900000 0
ion C  -7.001468547300004  14.821794898200000   3.000003066900000 0
ion C   4.667651997300001   2.694868363800000   3.000003066900000 0
ion C  23.338259986499999   2.694868363800000   3.000003066900000 0
ion C  14.002955991899997  18.864097443900000   3.000003066900000 0
ion C   0.000018897300000  10.779473455200000   3.000003066900000 0
ion C   4.667651997299995  18.864097443900000   3.000003066900000 0
ion C  -4.667651997300002  18.864097443900000   3.000003066900000 0
ion C  -2.333816550000002  14.821794898200000   3.000003066900000 0
ion C   2.333816549999996  14.821794898200000   3.000003066900000 0
ion C  -0.000018897300000  18.864097443900000   3.000003066900000 0
ion C   9.335303994599998   2.694868363800000   3.000003066900000 0
ion C  21.004443436500001   6.737170909500000   3.000003066900000 0
ion C  11.669139441899999  14.821794898200000   3.000003066900000 0
ion C  16.336772541899997  14.821794898200000   3.000003066900000 0
ion C  18.670607989199997   2.694868363800000   3.000003066900000 0
ion C   7.001487444600001   6.737170909500000   3.000003066900000 0
ion C  14.002974889200001   2.694868363800000   3.000003066900000 0
ion C  18.670607989200004  10.779473455200000   3.000003066900000 0
ion C   9.335303994599997  10.779473455200000   3.000003066900000 0
ion C  11.669139441899997   6.737170909500000   3.000003066900000 0
ion C  16.336772541900000   6.737170909500000   3.000003066900000 0
ion C  14.002974889200004  10.779473455200000   3.000003066900000 0
ion N   7.001468547300003  12.126926534399997   3.000003066900000 0
ion S   6.730526294371516  11.286085515564617  10.177297685499740 1
ion Na   2.357934524371581  10.647998616758397   8.331958998347613 1
ion Na  11.128988024889331  11.058850992149285   8.315494889897938 1

# Forces in Cartesian coordinates:
force C   0.001919498960774  -0.001030668303839   0.000033701645365 0
force C   0.000520310731628  -0.000279083805524   0.000008466114589 0
force C   0.001611771742894  -0.001095099900688   0.000019501754295 0
force C   0.000947117916365   0.001038512031780   0.000017714898799 0
force C   0.000326009064191  -0.000613722055192   0.000017349787628 0
force C   0.001827317004304  -0.001764138347926   0.000243511429466 0
force C  -0.000317102310751  -0.001453351250386   0.000012112782528 0
force C  -0.000054756499397   0.000683347063020  -0.000020923748856 0
force C  -0.004045322130822  -0.009141547679515   0.000159114737934 0
force C  -0.001009990255493   0.001087645326121   0.000021128213653 0
force C  -0.000419864957779  -0.000645443151376   0.000017934018307 0
force C   0.007960844360399   0.006634156304796  -0.000549025724402 0
force C  -0.001369325525921   0.000288343179119   0.000087905792426 0
force C   0.000019267890267   0.002649919914729   0.000044469574351 0
force C  -0.001924661239435  -0.001018907607705   0.000026603031082 0
force C  -0.000700124592790  -0.001323304431466   0.000486076780430 0
force C  -0.000007606070910  -0.000612467053960   0.000062494458601 0
force C  -0.000037675034099  -0.000253337511101   0.000020357515751 0
force C  -0.001682370284063   0.003300868142872   0.000382828677524 0
force C   0.003852843615859  -0.009405520346110   0.000183906121768 0
force C   0.000348981853339  -0.001429217924247   0.000010717437528 0
force C  -0.001551235552535  -0.001167505068032   0.000029363526233 0
force C   0.011312975757592   0.003897811707804  -0.000299025760042 0
force C   0.001314905268395   0.000326727023936   0.000077170344000 0
force C   0.000094216771973   0.006046394339518  -0.000047058957012 0
force C  -0.000035056074606  -0.000097508943015   0.000020193564136 0
force C  -0.005009072277033  -0.002410703612030   0.000138093837607 0
force C   0.005232348132285  -0.002380122696251   0.000073240219300 0
force C  -0.001793662015171  -0.001460849321205   0.000226056575816 0
force C  -0.000028531809124   0.000699031180540  -0.000006499691330 0
force C  -0.010563486439496   0.003439664685693   0.000163777332547 0
force C   0.001297996380119   0.003007174453908   0.000310030373295 0
force C  -0.000548282187131  -0.000237488788615   0.000007150625796 0
force C  -0.007748907458285   0.006299180078931  -0.000331587795295 0
force C   0.000548699509770  -0.000916953047317   0.000292301092170 0
force C  -0.000712161414834   0.000657256601426   0.000008779806017 0
force C  -0.001258919061712   0.000199556275751   0.000031098178417 0
force C  -0.002031417318157   0.001245704608381   0.000020327246784 0
force C  -0.001244268041112  -0.000973604208557   0.000212994166594 0
force C  -0.004767809468321   0.001078517245647   0.000040687563179 0
force C   0.000023414801200   0.000133590522370   0.000017113308427 0
force C   0.000025803066498   0.000356305487586   0.000012873381761 0
force C  -0.002147378130726   0.002134506153896   0.000014668842322 0
force C   0.000106181879734   0.000357715066234   0.000012452967450 0
force C  -0.000007132969379  -0.001478043149734   0.000044006221738 0
force C  -0.000337671191804  -0.005157686286353   0.000269183275220 0
force C   0.002123190531698   0.001203519488359   0.000020803672931 0
force C   0.001269231305684   0.000242064113132   0.000026335714554 0
force C   0.008254317992833   0.002562963286447  -0.000402084410069 0
force C   0.000019713597958  -0.002509668853069   0.000018634075662 0
force C  -0.002034578101913  -0.001017924239675   0.000060052786047 0
force C  -0.000796868258307   0.000459820151691   0.000023155140565 0
force C  -0.000331417681945   0.002706523804019   0.000076242260291 0
force C  -0.000507529836496  -0.004874098500120   0.000687778732654 0
force C   0.004650307508028   0.001020067236409   0.000007235777882 0
force C  -0.000016010775726   0.000295180486402   0.000011940019581 0
force C  -0.002512606770165  -0.001177300555334   0.000000611892563 0
force C  -0.005951873234689   0.005899324461043   0.000086718504863 0
force C   0.000316847000911   0.002595351767786   0.000091351017567 0
force C   0.001971381429360  -0.001060747865687   0.000059396999435 0
force C  -0.000061404879749  -0.001058540235513   0.000086806897202 0
force C   0.006166844563800   0.006374859318790   0.000114891962792 0
force C   0.002615326744517  -0.001199976896424  -0.000024070881756 0
force C   0.000770113961163   0.000503210165903   0.000021693801615 0
force C  -0.000086042031879  -0.007666543425476   0.000093912473969 0
force C   0.000745180345358   0.000675018411505   0.000009757526594 0
force C  -0.000132742983747  -0.001549436009315   0.000045424808381 0
force C  -0.008238969611286   0.001930733699551  -0.000462086523179 0
force C   0.002574649226838   0.002204783856981   0.000030966378443 0
force C   0.000981837624247  -0.000770278056105   0.000158175226921 0
force C   0.000933183409591  -0.005541945328840   0.000667655045061 0
force N  -0.000727415032293   0.000751068692450  -0.002773589510932 0
force S  -0.000252611617052  -0.000030574265321  -0.000100515354563 1
force Na   0.000406032893578  -0.000057150980279  -0.000153943224280 1
force Na  -0.000127080821244  -0.000107239092503  -0.000134277791611 1

# Energy components:
   Eewald =    -1096.2054733458339797
       EH =     -699.1250988052070170
     Eloc =     1243.7989921435093947
      Enl =      -83.0756797451982152
     EvdW =       -0.1081719973573980
      Exc =     -150.1337468438709664
 Exc_core =        4.2473389899762006
       KE =      259.4537589342726847
-------------------------------------
     Etot =     -521.1480806697093158
       TS =        0.0697884512018059
-------------------------------------
        F =     -521.2178691209111321

IonicMinimize: Iter:  10  F: -521.217869120911132  |grad|_K:  1.863e-04  alpha:  4.967e+00  linmin: -6.377e-04  t[s]:    746.35
IonicMinimize: Converged (|Delta F|<1.000000e-06 for 2 iters).

#--- Lowdin population analysis ---
# oxidation-state C +0.038 +0.036 +0.039 +0.038 +0.039 +0.036 +0.037 +0.035 +0.021 +0.038 +0.040 +0.012 +0.035 +0.035 +0.038 +0.011 +0.039 +0.035 +0.025 +0.025 +0.037 +0.040 -0.018 +0.035 +0.036 +0.036 +0.026 +0.028 +0.037 +0.036 -0.025 +0.027 +0.037 +0.011 +0.018 +0.037 +0.039 +0.040 +0.029 +0.040 +0.040 +0.039 +0.019 +0.039 +0.032 +0.138 +0.040 +0.039 +0.115 +0.038 +0.039 +0.037 +0.038 -0.003 +0.041 +0.039 +0.032 +0.030 +0.039 +0.039 +0.035 +0.023 +0.032 +0.037 +0.041 +0.037 +0.033 +0.105 +0.023 +0.031 +0.003
# oxidation-state N +0.000
# oxidation-state S -0.960
# oxidation-state Na +0.796 +0.795


Dumping 'Na2S@N_graphene-vdw.fillings' ... done
Dumping 'Na2S@N_graphene-vdw.wfns' ... done
Dumping 'Na2S@N_graphene-vdw.ionpos' ... done
Dumping 'Na2S@N_graphene-vdw.eigenvals' ... done
End date and time: Fri Dec 27 13:55:57 2024  (Duration: 0-0:12:27.98)
Done!
