
*************** JDFTx 1.7.0  ***************

Start date and time: Sun Sep 29 06:03:33 2024
Executable jdftx_gpu with command-line: -i /home/akim2/JDFTx/Na2S8@N_graphene-glyme/Na2S8@N_graphene-glyme.in -o /home/akim2/JDFTx/Na2S8@N_graphene-glyme/Na2S8@N_graphene-glyme.out
Running on hosts (process indices):  exp-1-58 (0)
Divided in process groups (process indices):  0 (0)
gpuInit: Found compatible cuda device 0 'Tesla V100-SXM2-32GB'
gpuInit: Selected device 0
Resource initialization completed at t[s]:      0.73
Run totals: 1 processes, 1 threads, 1 GPUs


Input parsed successfully to the following command list (including defaults):

basis kpoint-dependent
coords-type Cartesian
core-overlap-check vector
coulomb-interaction Slab 001
coulomb-truncation-embed 0 0 1.62977
davidson-band-ratio 1.1
dump End State
dump-name Na2S8@N_graphene-glyme.$VAR
elec-cutoff 20 100
elec-eigen-algo Davidson
elec-ex-corr gga-PBE
elec-smearing Fermi 0.01
electronic-minimize  \
	dirUpdateScheme      FletcherReeves \
	linminMethod         DirUpdateRecommended \
	nIterations          100 \
	history              15 \
	knormThreshold       0 \
	energyDiffThreshold  1e-08 \
	nEnergyDiff          2 \
	alphaTstart          1 \
	alphaTmin            1e-10 \
	updateTestStepSize   yes \
	alphaTreduceFactor   0.1 \
	alphaTincreaseFactor 3 \
	nAlphaAdjustMax      3 \
	wolfeEnergy          0.0001 \
	wolfeGradient        0.9 \
	fdTest               no
exchange-regularization WignerSeitzTruncated
fluid LinearPCM 298.000000 1.013250
fluid-ex-corr lda-TF lda-PZ
fluid-gummel-loop 10 1.000000e-05
fluid-minimize  \
	dirUpdateScheme      PolakRibiere \
	linminMethod         DirUpdateRecommended \
	nIterations          400 \
	history              15 \
	knormThreshold       1e-11 \
	energyDiffThreshold  0 \
	nEnergyDiff          2 \
	alphaTstart          1 \
	alphaTmin            1e-10 \
	updateTestStepSize   yes \
	alphaTreduceFactor   0.1 \
	alphaTincreaseFactor 3 \
	nAlphaAdjustMax      6 \
	wolfeEnergy          0.0001 \
	wolfeGradient        0.9 \
	fdTest               no
fluid-solvent Glyme 9.62137 ScalarEOS \
	epsBulk 7.2 \
	pMol 0 \
	epsInf 1.9 \
	Pvap 0 \
	sigmaBulk 0 \
	Rvdw 0 \
	Res 0 \
	tauNuc 343133
forces-output-coords Positions
initial-state Na2S8@N_graphene-glyme.$VAR
ion C  28.010542013705631   0.002014969601156   0.635465203747167 0
ion C  16.341968157882292  20.214705522223607   0.636370795694031 0
ion C   2.338532027351695   4.042411505399060   0.630361847754816 0
ion C  23.343313188735969   0.002278716019722   0.640022467239564 0
ion C   4.672620934470559   0.001554156700161   0.632050616002296 0
ion C  11.674116326115334  20.215100669694028   0.619847495055023 0
ion C  25.676530282256284   4.042904097616445   0.653564930084009 0
ion C  18.675851376129700  16.172910511284943   0.662695583431347 0
ion C   4.671777948336020   8.082036709586005   0.612564386226399 0
ion C  18.676336142016080   0.002101964498535   0.651180333522277 0
ion C   9.339850970925752   0.001738039847832   0.641511836963307 0
ion C   9.341212652353351  16.175613291750459   0.599279306155555 0
ion C  23.342941439729607   8.084920466015539   0.683240254571249 0
ion C  21.009110272076708  12.128959849493356   0.688453340004557 0
ion C   7.009085367604252  12.128528685817338   0.597262204671189 0
ion C  14.008105470077210   0.001988816408382   0.654008834012114 0
ion C  14.009120976896664  16.174984627607692   0.629938477890011 0
ion C   7.005550759074101   4.041176716120078   0.616350899393808 0
ion C  21.010101094155836   4.043302536041172   0.668670850704729 0
ion C  16.344445762465487  12.130683361169906   0.668518806438794 0
ion C   9.337643998902927   8.081728763982859   0.614931622729934 0
ion C  16.343783017314891   4.042062713362387   0.668836182024798 0
ion C  11.674085450205249   4.041278849785761   0.642196060576936 0
ion C  11.675597583834264  12.133622242506720   0.630068253549407 0
ion C  18.678074956154809   8.085220585829878   0.685769374381508 0
ion C   7.007175797728255  20.216155157604103   0.619709324068161 0
ion C  -6.996748017889799  20.214440105700564   0.653094683289385 0
ion C   0.002354623270169   8.082966457809835   0.657418822396948 0
ion C  14.012576459862725   8.083203697825988   0.669712893069494 0
ion C   2.339067441062872  20.216465077180068   0.646220757178249 0
ion C  -4.663670527593792  16.172490992184059   0.678596642017759 0
ion C   2.336125814129785  12.127745765919109   0.656417500003109 0
ion C  -2.332224039758668  12.128030282589300   0.685859862245795 0
ion C  -2.329659352792410  20.215194179952768   0.659830322184195 0
ion C   4.673933801454849  16.177740252210711   0.625359734501050 0
ion C   0.002990588629148  16.174656174657997   0.666554428718456 0
ion C  14.008266720144102  21.561374576259517   0.629777200837147 0
ion C   2.338930816614256   1.348570645432834   0.632009758527847 0
ion C  25.677100562977380   1.348988124751942   0.641986895200073 0
ion C  16.342686998612663  17.520648868856785   0.642302048336074 0
ion C   4.672307145938162   5.388219921962990   0.616057256550324 0
ion C  21.010123495302889   1.349044430338556   0.652394834146865 0
ion C   7.005937845436384   1.348033936218268   0.628031389286509 0
ion C  11.674692189550257  17.521226022139913   0.612057705166649 0
ion C  23.343784883173043   5.390651685198355   0.669612389866280 0
ion C  18.676972543384359  13.478483594758318   0.675595907033575 0
ion C   7.004963348139576   9.432115986525980   0.597538283264729 0
ion C  16.342472076605748   1.348066366442404   0.659130179870282 0
ion C  11.673522256343780   1.347802312891912   0.646547034509048 0
ion C   9.340696631175403  13.481256291567631   0.599303874261302 0
ion C  21.010487586627971   9.434228317035956   0.689549670827176 0
ion C   9.340862584041272  21.562275316056120   0.623251203387415 0
ion C  -9.330262385564788  21.561165527783945   0.640491424243255 0
ion C   0.004476893676090   5.389148113018151   0.645932445799481 0
ion C  14.011432130181314  13.480719160062115   0.643556882023976 0
ion C   9.339051356617166   5.386992451363917   0.621078239496768 0
ion C  18.677007069088155   5.390558998944344   0.676741055188348 0
ion C  16.345725884609092   9.434637493571932   0.679131999516677 0
ion C  14.009428395823310   5.387478001177438   0.662736904438848 0
ion C   4.673293824799767  21.561882602550448   0.637519226383223 0
ion C  -6.996841473985329  17.520066852095106   0.666346621047357 0
ion C   2.337134667876788   9.428913976861832   0.643387178107247 0
ion C  -2.330217064543965   9.432650452790400   0.678563548363968 0
ion C  -4.663349535264295  21.561481505082671   0.652392573786173 0
ion C   7.008365318233412  17.523060541264897   0.607450639135720 0
ion C   0.004487123343837  21.561671103490092   0.654109318198199 0
ion C  -4.664147187494722  13.477588422800194   0.688047082736968 0
ion C   4.674619807111762  13.479414560663223   0.625188064189185 0
ion C   2.338448909138405  17.522455183042435   0.645633689115609 0
ion C  -2.330712054942804  17.520790606615741   0.670058696770369 0
ion C   0.000363098194401  13.478789474313889   0.675559226948007 0
ion N  11.674484029805171   9.432912355349794   0.644194404697448 0
ion S  12.157601098675316   5.456696727210174  10.370526980013269 1
ion S   7.861729408270000   4.849229322359080  10.426177585640060 1
ion S   6.686271328891801   4.821365108936281   6.887111479648573 1
ion S   5.272583105483168  11.649092134442531  11.865676212685830 1
ion S   5.869393319187088  15.244281465514238  10.680693000046958 1
ion S   5.886590928184376  15.561163644578370   6.935822004794708 1
ion S  12.836013291422207   7.228560988211750   7.060946632098404 1
ion S  11.755967593442360  10.953986981437854   7.171156004814669 1
ion Na   6.368287720470838  10.164942268744518   6.690863468389883 1
ion Na  10.274346228114519  10.320671571776725  12.078409680911069 1
ion-species GBRV/$ID_pbe.uspp
ion-width Ecut
ionic-minimize  \
	dirUpdateScheme      FletcherReeves \
	linminMethod         DirUpdateRecommended \
	nIterations          200 \
	history              15 \
	knormThreshold       0.0001 \
	energyDiffThreshold  1e-06 \
	nEnergyDiff          2 \
	alphaTstart          1 \
	alphaTmin            1e-10 \
	updateTestStepSize   yes \
	alphaTreduceFactor   0.1 \
	alphaTincreaseFactor 3 \
	nAlphaAdjustMax      3 \
	wolfeEnergy          0.0001 \
	wolfeGradient        0.9 \
	fdTest               no
kpoint   0.000000000000   0.000000000000   0.000000000000  1.00000000000000
kpoint-folding 1 1 1 
latt-move-scale 1 1 1
latt-scale 1 1 1 
lattice Triclinic 28.0058 28.0058 37.7946 90 90 120
lattice-minimize  \
	dirUpdateScheme      L-BFGS \
	linminMethod         DirUpdateRecommended \
	nIterations          0 \
	history              15 \
	knormThreshold       0 \
	energyDiffThreshold  1e-06 \
	nEnergyDiff          2 \
	alphaTstart          1 \
	alphaTmin            1e-10 \
	updateTestStepSize   yes \
	alphaTreduceFactor   0.1 \
	alphaTincreaseFactor 3 \
	nAlphaAdjustMax      3 \
	wolfeEnergy          0.0001 \
	wolfeGradient        0.9 \
	fdTest               no
lcao-params -1 1e-06 0.01
pcm-variant GLSSA13
spintype no-spin
subspace-rotation-factor 1 yes
symmetries automatic
symmetry-threshold 0.0001
van-der-waals D3



---------- Setting up symmetries ----------

Found 24 point-group symmetries of the bravais lattice
Found 1 space-group symmetries with basis
Applied RMS atom displacement 0 bohrs to make symmetries exact.

---------- Initializing the Grid ----------
R = 
[      28.0058     -14.0029            0  ]
[            0      24.2537            0  ]
[            0            0      37.7946  ]
unit cell volume = 25671.8
G =
[   0.224353    0.12953         -0  ]
[          0   0.259061          0  ]
[          0         -0   0.166246  ]
Minimum fftbox size, Smin = [  128  128  172  ]
Chosen fftbox size, S = [  128  128  180  ]

---------- Initializing tighter grid for wavefunction operations ----------
R = 
[      28.0058     -14.0029            0  ]
[            0      24.2537            0  ]
[            0            0      37.7946  ]
unit cell volume = 25671.8
G =
[   0.224353    0.12953         -0  ]
[          0   0.259061          0  ]
[          0         -0   0.166246  ]
Minimum fftbox size, Smin = [  116  116  156  ]
Chosen fftbox size, S = [  120  120  160  ]

---------- Exchange Correlation functional ----------
Initalized PBE GGA exchange.
Initalized PBE GGA correlation.

---------- Setting up pseudopotentials ----------
Width of ionic core gaussian charges (only for fluid interactions / plotting) set to 0.397384

Reading pseudopotential file '/home/akim2/jdftx_install/build/pseudopotentials/GBRV/c_pbe.uspp':
  Title: C.  Created by USPP 7.3.6 on 3-2-2014
  Reference state energy: -5.406344.  4 valence electrons in orbitals:
    |200>  occupation: 2  eigenvalue: -0.504890
    |210>  occupation: 2  eigenvalue: -0.194356
  lMax: 1  lLocal: 2  QijEcut: 5
  4 projectors sampled on a log grid with 503 points:
    l: 0  eig: -0.504890  rCut: 1.3
    l: 0  eig: 0.000000  rCut: 1.3
    l: 1  eig: -0.194357  rCut: 1.3
    l: 1  eig: 0.000000  rCut: 1.3
  Partial core density with radius 1.1
  Transforming core density to a uniform radial grid of dG=0.02 with 1625 points.
  Transforming local potential to a uniform radial grid of dG=0.02 with 1625 points.
  Transforming nonlocal projectors to a uniform radial grid of dG=0.02 with 432 points.
  Transforming density augmentations to a uniform radial grid of dG=0.02 with 1625 points.
  Transforming atomic orbitals to a uniform radial grid of dG=0.02 with 432 points.
  Core radius for overlap checks: 1.30 bohrs.

Reading pseudopotential file '/home/akim2/jdftx_install/build/pseudopotentials/GBRV/n_pbe.uspp':
  Title: N.  Created by USPP 7.3.6 on 3-2-2014
  Reference state energy: -9.763716.  5 valence electrons in orbitals:
    |200>  occupation: 2  eigenvalue: -0.681964
    |210>  occupation: 3  eigenvalue: -0.260726
  lMax: 1  lLocal: 2  QijEcut: 6
  4 projectors sampled on a log grid with 491 points:
    l: 0  eig: -0.681964  rCut: 1.15
    l: 0  eig: 0.000000  rCut: 1.15
    l: 1  eig: -0.260729  rCut: 1.2
    l: 1  eig: 0.500000  rCut: 1.2
  Partial core density with radius 0.8
  Transforming core density to a uniform radial grid of dG=0.02 with 1625 points.
  Transforming local potential to a uniform radial grid of dG=0.02 with 1625 points.
  Transforming nonlocal projectors to a uniform radial grid of dG=0.02 with 432 points.
  Transforming density augmentations to a uniform radial grid of dG=0.02 with 1625 points.
  Transforming atomic orbitals to a uniform radial grid of dG=0.02 with 432 points.
  Core radius for overlap checks: 1.20 bohrs.

Reading pseudopotential file '/home/akim2/jdftx_install/build/pseudopotentials/GBRV/s_pbe.uspp':
  Title: S.  Created by USPP 7.3.6 on 1-4-15
  Reference state energy: -11.898476.  6 valence electrons in orbitals:
    |300>  occupation: 2  eigenvalue: -0.634167
    |310>  occupation: 4  eigenvalue: -0.257568
  lMax: 2  lLocal: 3  QijEcut: 6
  6 projectors sampled on a log grid with 635 points:
    l: 0  eig: -0.634161  rCut: 1.5
    l: 0  eig: 1.500000  rCut: 1.5
    l: 1  eig: -0.257567  rCut: 1.5
    l: 1  eig: 1.500000  rCut: 1.5
    l: 2  eig: -1.000000  rCut: 1.5
    l: 2  eig: 1.500000  rCut: 1.5
  Partial core density with radius 1.15
  Transforming core density to a uniform radial grid of dG=0.02 with 1625 points.
  Transforming local potential to a uniform radial grid of dG=0.02 with 1625 points.
  Transforming nonlocal projectors to a uniform radial grid of dG=0.02 with 432 points.
  Transforming density augmentations to a uniform radial grid of dG=0.02 with 1625 points.
  Transforming atomic orbitals to a uniform radial grid of dG=0.02 with 432 points.
  Core radius for overlap checks: 1.50 bohrs.

Reading pseudopotential file '/home/akim2/jdftx_install/build/pseudopotentials/GBRV/na_pbe.uspp':
  Title: Na.  Created by USPP 7.3.6 on 23-9-15
  Reference state energy: -47.625620.  9 valence electrons in orbitals:
    |200>  occupation: 2  eigenvalue: -2.085638
    |210>  occupation: 6  eigenvalue: -1.053708
    |300>  occupation: 1  eigenvalue: -0.100838
  lMax: 2  lLocal: 0  QijEcut: 6
  5 projectors sampled on a log grid with 657 points:
    l: 0  eig: -2.085640  rCut: 1.37
    l: 0  eig: -0.100839  rCut: 1.37
    l: 1  eig: -1.053708  rCut: 1.47
    l: 1  eig: 0.500000  rCut: 1.47
    l: 2  eig: 0.750000  rCut: 2
  Transforming local potential to a uniform radial grid of dG=0.02 with 1625 points.
  Transforming nonlocal projectors to a uniform radial grid of dG=0.02 with 432 points.
  Transforming density augmentations to a uniform radial grid of dG=0.02 with 1625 points.
  Transforming atomic orbitals to a uniform radial grid of dG=0.02 with 432 points.
  Core radius for overlap checks: 2.00 bohrs.

Initialized 4 species with 82 total atoms.

Folded 1 k-points by 1x1x1 to 1 k-points.

---------- Setting up k-points, bands, fillings ----------
No reducable k-points. 
Computing the number of bands and number of electrons
Calculating initial fillings.
nElectrons: 355.000000   nBands: 330   nStates: 1

----- Setting up reduced wavefunction bases (one per k-point) -----
average nbasis = 109673.000 , ideal nbasis = 109671.883

---------- Setting up coulomb interaction ----------
Fluid mode embedding: using embedded box, but periodic Coulomb kernel.
(Fluid response is responsible for (approximate) separation between periodic images.)
Setting up double-sized grid for truncated Coulomb potentials:
R = 
[      28.0058     -14.0029            0  ]
[            0      24.2537            0  ]
[            0            0      75.5892  ]
unit cell volume = 51343.6
G =
[   0.224353    0.12953         -0  ]
[          0   0.259061          0  ]
[          0         -0  0.0831228  ]
Chosen fftbox size, S = [  128  128  360  ]
Integer grid location selected as the embedding center:
   Grid: [  0  0  8  ]
   Lattice: [  0  0  0.0431218  ]
   Cartesian: [  0  0  1.62977  ]
Constructing Wigner-Seitz cell: 8 faces (6 quadrilaterals, 2 hexagons)
Range-separation parameter for embedded mesh potentials due to point charges: 0.590105 bohrs.

Initializing DFT-D3 calculator:
	Parameters set for gga-PBE functional
	s6:  1.000  s_r6:  1.217
	s8:  0.722  s_r8:  1.000
	Per-atom parameters loaded for:
	 C:  sqrtQ[a0]:  3.105  Rcov[a0]:  1.417  CN: [ 0.00 0.99 2.00 3.00 3.98 ]
	 N:  sqrtQ[a0]:  2.712  Rcov[a0]:  1.342  CN: [ 0.00 0.99 2.01 2.99 ]
	 S:  sqrtQ[a0]:  4.041  Rcov[a0]:  1.928  CN: [ 0.00 0.99 1.99 ]
	Na:  sqrtQ[a0]:  6.586  Rcov[a0]:  2.646  CN: [ 0.00 0.97 ]

---------- Setting up ewald sum ----------
Optimum gaussian width for ewald sums = 7.113825 bohr.
Real space sum over 405 unit cells with max indices [  4  4  2  ]
Reciprocal space sum over 8325 terms with max indices [  7  7  18  ]

Computing DFT-D3 correction:
# coordination-number C 3.301 3.301 3.303 3.301 3.302 3.301 3.301 3.300 3.350 3.301 3.302 3.304 3.301 3.300 3.372 3.301 3.301 3.312 3.301 3.298 3.324 3.301 3.301 3.306 3.300 3.302 3.301 3.301 3.305 3.301 3.300 3.309 3.299 3.300 3.308 3.299 3.301 3.301 3.301 3.301 3.312 3.300 3.304 3.301 3.300 3.300 3.412 3.301 3.302 3.300 3.300 3.301 3.301 3.301 3.289 3.296 3.300 3.288 3.291 3.301 3.301 3.314 3.300 3.301 3.306 3.301 3.300 3.323 3.301 3.300 3.299
# coordination-number N 3.220
# coordination-number S 2.896 2.635 2.012 2.857 2.455 1.974 2.482 2.892
# coordination-number Na 5.182 4.411
# diagonal-C6 C 24.28 24.28 24.25 24.28 24.27 24.27 24.27 24.28 23.74 24.27 24.27 24.24 24.28 24.28 23.48 24.27 24.27 24.16 24.28 24.30 24.04 24.27 24.27 24.22 24.28 24.26 24.28 24.27 24.24 24.27 24.28 24.20 24.29 24.28 24.21 24.29 24.28 24.27 24.28 24.28 24.16 24.28 24.25 24.27 24.28 24.28 22.94 24.28 24.27 24.28 24.28 24.27 24.27 24.27 24.39 24.32 24.28 24.39 24.36 24.27 24.28 24.14 24.28 24.27 24.22 24.28 24.28 24.05 24.27 24.28 24.29
# diagonal-C6 N 15.60
# diagonal-C6 S 125.81 125.81 125.89 125.81 125.81 125.92 125.81 125.81
# diagonal-C6 Na 186.11 186.11
EvdW_6 =   -0.072641
EvdW_8 =   -0.065080

---------- Allocating electronic variables ----------
Initializing wave functions:  linear combination of atomic orbitals
C pseudo-atom occupations:   s ( 2 )  p ( 2 )
N pseudo-atom occupations:   s ( 2 )  p ( 3 )
S pseudo-atom occupations:   s ( 2 )  p ( 4 )
Na pseudo-atom occupations:   s ( 2 1 )  p ( 6 )
	FillingsUpdate:  mu: -0.133314439  nElectrons: 355.000000
LCAOMinimize: Iter:   0  F: -587.3955186502593051  |grad|_K:  1.141e-02  alpha:  1.000e+00
	FillingsUpdate:  mu: -0.184288660  nElectrons: 355.000000
LCAOMinimize: Iter:   1  F: -588.3242432560575708  |grad|_K:  3.825e-03  alpha:  1.441e-01  linmin:  7.931e-02  cgtest: -5.941e-01  t[s]:     10.49
	FillingsUpdate:  mu: -0.191065901  nElectrons: 355.000000
LCAOMinimize: Iter:   2  F: -588.3501079478841120  |grad|_K:  4.034e-03  alpha:  6.717e-02  linmin: -8.131e-04  cgtest:  7.879e-01  t[s]:     12.34
	FillingsUpdate:  mu: -0.209185753  nElectrons: 355.000000
LCAOMinimize: Iter:   3  F: -588.4125254693859688  |grad|_K:  3.087e-03  alpha:  1.279e-01  linmin:  2.387e-01  cgtest: -6.648e-01  t[s]:     14.17
LCAOMinimize: 	Bad step direction: g.d > 0.
LCAOMinimize: 	Undoing step.
LCAOMinimize: 	Step failed: resetting search direction.
	FillingsUpdate:  mu: -0.209185753  nElectrons: 355.000000
LCAOMinimize: Iter:   4  F: -588.4125254693859688  |grad|_K:  3.087e-03  alpha:  0.000e+00
	FillingsUpdate:  mu: -0.215489097  nElectrons: 355.000000
LCAOMinimize: Iter:   5  F: -588.4516812695420640  |grad|_K:  4.379e-04  alpha:  7.820e-02  linmin:  6.237e-02  cgtest: -1.726e-01  t[s]:     17.29
LCAOMinimize: 	Predicted alpha/alphaT>3.000000, increasing alphaT to 2.345866e-01.
	FillingsUpdate:  mu: -0.215667154  nElectrons: 355.000000
LCAOMinimize: Iter:   6  F: -588.4558869092996929  |grad|_K:  3.738e-04  alpha:  4.404e-01  linmin:  1.301e-02  cgtest: -8.994e-02  t[s]:     19.66
	FillingsUpdate:  mu: -0.214949286  nElectrons: 355.000000
LCAOMinimize: Iter:   7  F: -588.4572262336778294  |grad|_K:  2.487e-04  alpha:  1.869e-01  linmin: -1.076e-03  cgtest:  1.527e-01  t[s]:     21.51
	FillingsUpdate:  mu: -0.215623640  nElectrons: 355.000000
LCAOMinimize: Iter:   8  F: -588.4577772678181873  |grad|_K:  6.674e-05  alpha:  1.616e-01  linmin:  7.902e-04  cgtest: -8.409e-02  t[s]:     23.34
	FillingsUpdate:  mu: -0.215724049  nElectrons: 355.000000
LCAOMinimize: Iter:   9  F: -588.4578298548317434  |grad|_K:  3.925e-05  alpha:  2.157e-01  linmin: -8.643e-04  cgtest:  1.965e-02  t[s]:     25.19
	FillingsUpdate:  mu: -0.215703991  nElectrons: 355.000000
LCAOMinimize: Iter:  10  F: -588.4578447140163462  |grad|_K:  1.714e-05  alpha:  1.757e-01  linmin: -1.114e-04  cgtest: -7.480e-03  t[s]:     27.06
	FillingsUpdate:  mu: -0.215655840  nElectrons: 355.000000
LCAOMinimize: Iter:  11  F: -588.4578483955104957  |grad|_K:  1.225e-05  alpha:  2.288e-01  linmin:  1.260e-05  cgtest:  3.355e-04  t[s]:     28.93
	FillingsUpdate:  mu: -0.215711114  nElectrons: 355.000000
LCAOMinimize: Iter:  12  F: -588.4578506212673119  |grad|_K:  7.789e-06  alpha:  2.709e-01  linmin:  1.241e-04  cgtest: -4.724e-04  t[s]:     30.76
	FillingsUpdate:  mu: -0.215723200  nElectrons: 355.000000
LCAOMinimize: Iter:  13  F: -588.4578512325163047  |grad|_K:  3.315e-06  alpha:  1.840e-01  linmin: -4.028e-06  cgtest:  1.610e-03  t[s]:     32.60
	FillingsUpdate:  mu: -0.215730682  nElectrons: 355.000000
LCAOMinimize: Iter:  14  F: -588.4578513390779335  |grad|_K:  1.720e-06  alpha:  1.769e-01  linmin: -8.701e-05  cgtest:  2.230e-04  t[s]:     34.44
LCAOMinimize: Converged (|Delta F|<1.000000e-06 for 2 iters).
----- createFluidSolver() ----- (Fluid-side solver setup)
   Initializing fluid molecule 'Glyme'
     Net charge: 0   dipole magnitude: 0
     Initializing spherical shell mfKernel with radius 0 Bohr
     deltaS corrections:

Correction to mu due to finite nuclear width = -0.00686028
   Cavity determined by nc: 8.36e-05 and sigma: 0.6
   Effective cavity tension: -8.03e-06 Eh/bohr^2 to account for cavitation and dispersion.


---- Citations for features of the code used in this run ----

   Software package:
      R. Sundararaman, K. Letchworth-Weaver, K.A. Schwarz, D. Gunceler, Y. Ozhabes and T.A. Arias, 'JDFTx: software for joint density-functional theory', SoftwareX 6, 278 (2017)

   gga-PBE exchange-correlation functional:
      J.P. Perdew, K. Burke and M. Ernzerhof, Phys. Rev. Lett. 77, 3865 (1996)

   Pseudopotentials:
      KF Garrity, JW Bennett, KM Rabe and D Vanderbilt, Comput. Mater. Sci. 81, 446 (2014)

   Truncated Coulomb potentials:
      R. Sundararaman and T.A. Arias, Phys. Rev. B 87, 165122 (2013)

   DFT-D3 dispersion correction:
      S. Grimme, J. Antony, S. Ehrlich and H. Krieg, J. Chem. Phys. 132, 154104 (2010)

   Linear/nonlinear dielectric/ionic fluid model with effective cavity tension:
      D. Gunceler, K. Letchworth-Weaver, R. Sundararaman, K.A. Schwarz and T.A. Arias, Modelling Simul. Mater. Sci. Eng. 21, 074005 (2013)

   Total energy minimization with Auxiliary Hamiltonian:
      C. Freysoldt, S. Boeck, and J. Neugebauer, Phys. Rev. B 79, 241103(R) (2009)

This list may not be complete. Please suggest additional citations or
report any other bugs at https://github.com/shankar1729/jdftx/issues

Initialization completed successfully at t[s]:     34.65


Computing DFT-D3 correction:
# coordination-number C 3.301 3.301 3.303 3.301 3.302 3.301 3.301 3.300 3.350 3.301 3.302 3.304 3.301 3.300 3.372 3.301 3.301 3.312 3.301 3.298 3.324 3.301 3.301 3.306 3.300 3.302 3.301 3.301 3.305 3.301 3.300 3.309 3.299 3.300 3.308 3.299 3.301 3.301 3.301 3.301 3.312 3.300 3.304 3.301 3.300 3.300 3.412 3.301 3.302 3.300 3.300 3.301 3.301 3.301 3.289 3.296 3.300 3.288 3.291 3.301 3.301 3.314 3.300 3.301 3.306 3.301 3.300 3.323 3.301 3.300 3.299
# coordination-number N 3.220
# coordination-number S 2.896 2.635 2.012 2.857 2.455 1.974 2.482 2.892
# coordination-number Na 5.182 4.411
# diagonal-C6 C 24.28 24.28 24.25 24.28 24.27 24.27 24.27 24.28 23.74 24.27 24.27 24.24 24.28 24.28 23.48 24.27 24.27 24.16 24.28 24.30 24.04 24.27 24.27 24.22 24.28 24.26 24.28 24.27 24.24 24.27 24.28 24.20 24.29 24.28 24.21 24.29 24.28 24.27 24.28 24.28 24.16 24.28 24.25 24.27 24.28 24.28 22.94 24.28 24.27 24.28 24.28 24.27 24.27 24.27 24.39 24.32 24.28 24.39 24.36 24.27 24.28 24.14 24.28 24.27 24.22 24.28 24.28 24.05 24.27 24.28 24.29
# diagonal-C6 N 15.60
# diagonal-C6 S 125.81 125.81 125.89 125.81 125.81 125.92 125.81 125.81
# diagonal-C6 Na 186.11 186.11
EvdW_6 =   -0.072641
EvdW_8 =   -0.065080
Fluid solver invoked on fresh (random / LCAO) wavefunctions
Running a vacuum solve first:

-------- Initial electronic minimization -----------
	FillingsUpdate:  mu: -0.215730682  nElectrons: 355.000000
ElecMinimize: Iter:   0  F: -588.457851339073954  |grad|_K:  4.058e-04  alpha:  1.000e+00
	FillingsUpdate:  mu: -0.095171629  nElectrons: 355.000000
	SubspaceRotationAdjust: set factor to 0.979
ElecMinimize: Iter:   1  F: -592.765969053682966  |grad|_K:  1.510e-04  alpha:  7.302e-01  linmin: -1.182e-04  t[s]:     41.08
	FillingsUpdate:  mu: -0.095127595  nElectrons: 355.000000
	SubspaceRotationAdjust: set factor to 0.566
ElecMinimize: Iter:   2  F: -592.821897571472618  |grad|_K:  2.316e-04  alpha:  3.397e-01  linmin:  1.177e-03  t[s]:     43.63
	FillingsUpdate:  mu: -0.086269967  nElectrons: 355.000000
	SubspaceRotationAdjust: set factor to 0.45
ElecMinimize: Iter:   3  F: -593.102573710261595  |grad|_K:  9.750e-05  alpha:  2.154e-01  linmin: -1.123e-05  t[s]:     46.13
	FillingsUpdate:  mu: -0.104524158  nElectrons: 355.000000
	SubspaceRotationAdjust: set factor to 0.349
ElecMinimize: Iter:   4  F: -593.165045773243037  |grad|_K:  6.435e-05  alpha:  1.750e-01  linmin:  1.626e-04  t[s]:     48.67
	FillingsUpdate:  mu: -0.102753867  nElectrons: 355.000000
	SubspaceRotationAdjust: set factor to 0.238
ElecMinimize: Iter:   5  F: -593.202005547094814  |grad|_K:  6.766e-05  alpha:  2.774e-01  linmin:  1.294e-03  t[s]:     51.16
	FillingsUpdate:  mu: -0.109316798  nElectrons: 355.000000
	SubspaceRotationAdjust: set factor to 0.159
ElecMinimize: Iter:   6  F: -593.225113242309021  |grad|_K:  5.051e-05  alpha:  1.644e-01  linmin: -4.747e-05  t[s]:     53.64
	FillingsUpdate:  mu: -0.110928681  nElectrons: 355.000000
	SubspaceRotationAdjust: set factor to 0.176
ElecMinimize: Iter:   7  F: -593.242215330858016  |grad|_K:  3.107e-05  alpha:  1.838e-01  linmin: -8.515e-05  t[s]:     56.14
	FillingsUpdate:  mu: -0.115133116  nElectrons: 355.000000
	SubspaceRotationAdjust: set factor to 0.22
ElecMinimize: Iter:   8  F: -593.251999954697112  |grad|_K:  2.491e-05  alpha:  2.733e-01  linmin: -2.878e-04  t[s]:     58.64
	FillingsUpdate:  mu: -0.112931469  nElectrons: 355.000000
	SubspaceRotationAdjust: set factor to 0.211
ElecMinimize: Iter:   9  F: -593.259285811939321  |grad|_K:  2.023e-05  alpha:  3.118e-01  linmin: -1.224e-04  t[s]:     61.11
	FillingsUpdate:  mu: -0.114124812  nElectrons: 355.000000
	SubspaceRotationAdjust: set factor to 0.307
ElecMinimize: Iter:  10  F: -593.263226061537239  |grad|_K:  1.428e-05  alpha:  2.609e-01  linmin:  2.365e-06  t[s]:     63.58
	FillingsUpdate:  mu: -0.114887114  nElectrons: 355.000000
	SubspaceRotationAdjust: set factor to 0.345
ElecMinimize: Iter:  11  F: -593.265340640271120  |grad|_K:  1.246e-05  alpha:  2.868e-01  linmin:  1.796e-05  t[s]:     66.76
	FillingsUpdate:  mu: -0.114485807  nElectrons: 355.000000
	SubspaceRotationAdjust: set factor to 0.336
ElecMinimize: Iter:  12  F: -593.266825364121701  |grad|_K:  1.091e-05  alpha:  2.665e-01  linmin:  3.495e-06  t[s]:     69.30
	FillingsUpdate:  mu: -0.114437097  nElectrons: 355.000000
	SubspaceRotationAdjust: set factor to 0.337
ElecMinimize: Iter:  13  F: -593.267806428988251  |grad|_K:  8.575e-06  alpha:  2.278e-01  linmin:  1.645e-06  t[s]:     71.84
	FillingsUpdate:  mu: -0.114428457  nElectrons: 355.000000
	SubspaceRotationAdjust: set factor to 0.308
ElecMinimize: Iter:  14  F: -593.268458428209101  |grad|_K:  7.075e-06  alpha:  2.448e-01  linmin: -4.572e-06  t[s]:     74.33
	FillingsUpdate:  mu: -0.114287421  nElectrons: 355.000000
	SubspaceRotationAdjust: set factor to 0.362
ElecMinimize: Iter:  15  F: -593.268881296477844  |grad|_K:  5.185e-06  alpha:  2.318e-01  linmin:  9.055e-07  t[s]:     76.82
	FillingsUpdate:  mu: -0.114479281  nElectrons: 355.000000
	SubspaceRotationAdjust: set factor to 0.318
ElecMinimize: Iter:  16  F: -593.269133526887231  |grad|_K:  4.639e-06  alpha:  2.593e-01  linmin:  1.600e-06  t[s]:     79.33
	FillingsUpdate:  mu: -0.114634909  nElectrons: 355.000000
	SubspaceRotationAdjust: set factor to 0.286
ElecMinimize: Iter:  17  F: -593.269330968799295  |grad|_K:  3.630e-06  alpha:  2.540e-01  linmin:  2.402e-06  t[s]:     81.82
	FillingsUpdate:  mu: -0.114668058  nElectrons: 355.000000
	SubspaceRotationAdjust: set factor to 0.381
ElecMinimize: Iter:  18  F: -593.269434488505453  |grad|_K:  2.470e-06  alpha:  2.182e-01  linmin:  5.268e-07  t[s]:     84.33
	FillingsUpdate:  mu: -0.114683526  nElectrons: 355.000000
	SubspaceRotationAdjust: set factor to 0.361
ElecMinimize: Iter:  19  F: -593.269492045854918  |grad|_K:  2.265e-06  alpha:  2.608e-01  linmin:  5.462e-08  t[s]:     86.85
	FillingsUpdate:  mu: -0.114708750  nElectrons: 355.000000
	SubspaceRotationAdjust: set factor to 0.315
ElecMinimize: Iter:  20  F: -593.269540425969808  |grad|_K:  1.768e-06  alpha:  2.601e-01  linmin:  7.334e-08  t[s]:     89.34
	FillingsUpdate:  mu: -0.114735099  nElectrons: 355.000000
	SubspaceRotationAdjust: set factor to 0.405
ElecMinimize: Iter:  21  F: -593.269562919103805  |grad|_K:  1.132e-06  alpha:  1.984e-01  linmin:  2.293e-07  t[s]:     91.84
	FillingsUpdate:  mu: -0.114742763  nElectrons: 355.000000
	SubspaceRotationAdjust: set factor to 0.369
ElecMinimize: Iter:  22  F: -593.269575230235432  |grad|_K:  1.086e-06  alpha:  2.658e-01  linmin:  3.965e-07  t[s]:     94.32
	FillingsUpdate:  mu: -0.114726934  nElectrons: 355.000000
	SubspaceRotationAdjust: set factor to 0.442
ElecMinimize: Iter:  23  F: -593.269586344627555  |grad|_K:  8.672e-07  alpha:  2.611e-01  linmin:  3.015e-07  t[s]:     96.79
	FillingsUpdate:  mu: -0.114715081  nElectrons: 355.000000
	SubspaceRotationAdjust: set factor to 0.459
ElecMinimize: Iter:  24  F: -593.269592251070549  |grad|_K:  6.627e-07  alpha:  2.177e-01  linmin:  1.302e-07  t[s]:     99.27
	FillingsUpdate:  mu: -0.114719106  nElectrons: 355.000000
	SubspaceRotationAdjust: set factor to 0.382
ElecMinimize: Iter:  25  F: -593.269596427687134  |grad|_K:  6.070e-07  alpha:  2.632e-01  linmin:  2.067e-07  t[s]:    101.77
	FillingsUpdate:  mu: -0.114733993  nElectrons: 355.000000
	SubspaceRotationAdjust: set factor to 0.538
ElecMinimize: Iter:  26  F: -593.269599187887820  |grad|_K:  4.214e-07  alpha:  2.073e-01  linmin:  8.794e-08  t[s]:    104.23
	FillingsUpdate:  mu: -0.114742964  nElectrons: 355.000000
	SubspaceRotationAdjust: set factor to 0.532
ElecMinimize: Iter:  27  F: -593.269600808092264  |grad|_K:  4.088e-07  alpha:  2.526e-01  linmin:  1.057e-07  t[s]:    106.74
	FillingsUpdate:  mu: -0.114738886  nElectrons: 355.000000
	SubspaceRotationAdjust: set factor to 0.505
ElecMinimize: Iter:  28  F: -593.269602282224241  |grad|_K:  3.066e-07  alpha:  2.443e-01  linmin:  1.726e-07  t[s]:    109.21
	FillingsUpdate:  mu: -0.114730003  nElectrons: 355.000000
	SubspaceRotationAdjust: set factor to 0.524
ElecMinimize: Iter:  29  F: -593.269602884894084  |grad|_K:  2.235e-07  alpha:  1.778e-01  linmin:  4.232e-08  t[s]:    111.69
	FillingsUpdate:  mu: -0.114720523  nElectrons: 355.000000
	SubspaceRotationAdjust: set factor to 0.424
ElecMinimize: Iter:  30  F: -593.269603377658200  |grad|_K:  2.174e-07  alpha:  2.736e-01  linmin:  1.559e-07  t[s]:    114.18
	FillingsUpdate:  mu: -0.114717822  nElectrons: 355.000000
	SubspaceRotationAdjust: set factor to 0.616
ElecMinimize: Iter:  31  F: -593.269603704405199  |grad|_K:  1.521e-07  alpha:  1.919e-01  linmin:  2.893e-08  t[s]:    116.67
	FillingsUpdate:  mu: -0.114719109  nElectrons: 355.000000
	SubspaceRotationAdjust: set factor to 0.498
ElecMinimize: Iter:  32  F: -593.269603916726737  |grad|_K:  1.565e-07  alpha:  2.544e-01  linmin:  8.782e-08  t[s]:    119.14
	FillingsUpdate:  mu: -0.114719062  nElectrons: 355.000000
	SubspaceRotationAdjust: set factor to 0.569
ElecMinimize: Iter:  33  F: -593.269604085083188  |grad|_K:  1.070e-07  alpha:  1.902e-01  linmin:  4.216e-08  t[s]:    121.65
	FillingsUpdate:  mu: -0.114717498  nElectrons: 355.000000
	SubspaceRotationAdjust: set factor to 0.581
ElecMinimize: Iter:  34  F: -593.269604172630693  |grad|_K:  1.003e-07  alpha:  2.123e-01  linmin:  4.664e-08  t[s]:    124.11
	FillingsUpdate:  mu: -0.114715446  nElectrons: 355.000000
	SubspaceRotationAdjust: set factor to 0.481
ElecMinimize: Iter:  35  F: -593.269604270346576  |grad|_K:  9.463e-08  alpha:  2.704e-01  linmin:  9.380e-08  t[s]:    126.61
	FillingsUpdate:  mu: -0.114715641  nElectrons: 355.000000
	SubspaceRotationAdjust: set factor to 0.646
ElecMinimize: Iter:  36  F: -593.269604322134228  |grad|_K:  6.522e-08  alpha:  1.606e-01  linmin: -6.303e-09  t[s]:    129.11
	FillingsUpdate:  mu: -0.114717034  nElectrons: 355.000000
	SubspaceRotationAdjust: set factor to 0.503
ElecMinimize: Iter:  37  F: -593.269604360073345  |grad|_K:  7.233e-08  alpha:  2.461e-01  linmin:  4.163e-08  t[s]:    131.62
	FillingsUpdate:  mu: -0.114718569  nElectrons: 355.000000
	SubspaceRotationAdjust: set factor to 0.632
ElecMinimize: Iter:  38  F: -593.269604394232488  |grad|_K:  5.312e-08  alpha:  1.810e-01  linmin:  1.350e-08  t[s]:    134.10
	FillingsUpdate:  mu: -0.114719166  nElectrons: 355.000000
	SubspaceRotationAdjust: set factor to 0.603
ElecMinimize: Iter:  39  F: -593.269604414807645  |grad|_K:  5.008e-08  alpha:  2.018e-01  linmin:  1.717e-08  t[s]:    136.53
	FillingsUpdate:  mu: -0.114719526  nElectrons: 355.000000
	SubspaceRotationAdjust: set factor to 0.552
ElecMinimize: Iter:  40  F: -593.269604434369853  |grad|_K:  4.392e-08  alpha:  2.163e-01  linmin:  1.887e-08  t[s]:    138.98
	FillingsUpdate:  mu: -0.114719522  nElectrons: 355.000000
	SubspaceRotationAdjust: set factor to 0.675
ElecMinimize: Iter:  41  F: -593.269604447089137  |grad|_K:  3.782e-08  alpha:  1.829e-01  linmin:  7.863e-09  t[s]:    141.46
	FillingsUpdate:  mu: -0.114719166  nElectrons: 355.000000
	SubspaceRotationAdjust: set factor to 0.532
ElecMinimize: Iter:  42  F: -593.269604459749530  |grad|_K:  3.982e-08  alpha:  2.469e-01  linmin:  5.380e-08  t[s]:    143.92
	FillingsUpdate:  mu: -0.114719103  nElectrons: 355.000000
	SubspaceRotationAdjust: set factor to 0.632
ElecMinimize: Iter:  43  F: -593.269604467755926  |grad|_K:  2.797e-08  alpha:  1.380e-01  linmin: -4.325e-08  t[s]:    146.43
	FillingsUpdate:  mu: -0.114719648  nElectrons: 355.000000
	SubspaceRotationAdjust: set factor to 0.542
ElecMinimize: Iter:  44  F: -593.269604473299751  |grad|_K:  2.963e-08  alpha:  1.928e-01  linmin:  5.222e-08  t[s]:    148.91
ElecMinimize: Converged (|Delta F|<1.000000e-08 for 2 iters).
Setting wave functions to eigenvectors of Hamiltonian
Vacuum energy after initial minimize, F = -593.269604473299751


-------- Electronic minimization -----------
	Linear fluid (dielectric constant: 7.2) occupying 0.817174 of unit cell:	Completed after 14 iterations at t[s]:    149.62
	FillingsUpdate:  mu: -0.122604625  nElectrons: 355.000000
ElecMinimize: Iter:   0  F: -593.296149269849593  |grad|_K:  9.700e-06  alpha:  1.000e+00
	Linear fluid (dielectric constant: 7.2) occupying 0.817842 of unit cell:	Completed after 10 iterations at t[s]:    151.69
	Linear fluid (dielectric constant: 7.2) occupying 0.817748 of unit cell:	Completed after 7 iterations at t[s]:    152.66
	FillingsUpdate:  mu: -0.120638340  nElectrons: 355.000000
	SubspaceRotationAdjust: set factor to 0.412
ElecMinimize: Iter:   1  F: -593.298840670756022  |grad|_K:  8.859e-06  alpha:  8.044e-01  linmin: -1.291e-04  t[s]:    153.78
	Linear fluid (dielectric constant: 7.2) occupying 0.818116 of unit cell:	Completed after 11 iterations at t[s]:    154.67
	Linear fluid (dielectric constant: 7.2) occupying 0.817972 of unit cell:	Completed after 9 iterations at t[s]:    155.65
	FillingsUpdate:  mu: -0.121332861  nElectrons: 355.000000
	SubspaceRotationAdjust: set factor to 0.275
ElecMinimize: Iter:   2  F: -593.300069668080369  |grad|_K:  6.082e-06  alpha:  4.299e-01  linmin: -7.628e-06  t[s]:    156.80
	Linear fluid (dielectric constant: 7.2) occupying 0.818022 of unit cell:	Completed after 8 iterations at t[s]:    157.66
	Linear fluid (dielectric constant: 7.2) occupying 0.818051 of unit cell:	Completed after 7 iterations at t[s]:    158.60
	FillingsUpdate:  mu: -0.120817533  nElectrons: 355.000000
	SubspaceRotationAdjust: set factor to 0.368
ElecMinimize: Iter:   3  F: -593.301061961260189  |grad|_K:  3.293e-06  alpha:  7.197e-01  linmin: -1.292e-04  t[s]:    159.73
	Linear fluid (dielectric constant: 7.2) occupying 0.817996 of unit cell:	Completed after 7 iterations at t[s]:    160.57
	Linear fluid (dielectric constant: 7.2) occupying 0.818001 of unit cell:	Completed after 4 iterations at t[s]:    161.46
	FillingsUpdate:  mu: -0.120457848  nElectrons: 355.000000
	SubspaceRotationAdjust: set factor to 0.352
ElecMinimize: Iter:   4  F: -593.301332220649897  |grad|_K:  2.118e-06  alpha:  6.504e-01  linmin: -3.802e-05  t[s]:    162.58
	Linear fluid (dielectric constant: 7.2) occupying 0.817997 of unit cell:	Completed after 7 iterations at t[s]:    163.46
	Linear fluid (dielectric constant: 7.2) occupying 0.817997 of unit cell:	Completed after 4 iterations at t[s]:    164.31
	FillingsUpdate:  mu: -0.120637063  nElectrons: 355.000000
	SubspaceRotationAdjust: set factor to 0.273
ElecMinimize: Iter:   5  F: -593.301426591231120  |grad|_K:  1.267e-06  alpha:  5.697e-01  linmin: -3.399e-06  t[s]:    165.45
	Linear fluid (dielectric constant: 7.2) occupying 0.818009 of unit cell:	Completed after 5 iterations at t[s]:    166.33
	Linear fluid (dielectric constant: 7.2) occupying 0.818012 of unit cell:	Completed after 3 iterations at t[s]:    167.19
	FillingsUpdate:  mu: -0.120500048  nElectrons: 355.000000
	SubspaceRotationAdjust: set factor to 0.33
ElecMinimize: Iter:   6  F: -593.301470056708467  |grad|_K:  7.839e-07  alpha:  7.403e-01  linmin: -3.091e-06  t[s]:    168.31
	Linear fluid (dielectric constant: 7.2) occupying 0.818010 of unit cell:	Completed after 4 iterations at t[s]:    169.16
	Linear fluid (dielectric constant: 7.2) occupying 0.818010 of unit cell:	Completed after 0 iterations at t[s]:    169.96
	FillingsUpdate:  mu: -0.120461450  nElectrons: 355.000000
	SubspaceRotationAdjust: set factor to 0.383
ElecMinimize: Iter:   7  F: -593.301486036359734  |grad|_K:  5.805e-07  alpha:  7.116e-01  linmin:  1.876e-06  t[s]:    171.08
	Linear fluid (dielectric constant: 7.2) occupying 0.818010 of unit cell:	Completed after 4 iterations at t[s]:    171.92
	Linear fluid (dielectric constant: 7.2) occupying 0.818010 of unit cell:	Completed after 1 iterations at t[s]:    172.75
	FillingsUpdate:  mu: -0.120493025  nElectrons: 355.000000
	SubspaceRotationAdjust: set factor to 0.433
ElecMinimize: Iter:   8  F: -593.301493088912594  |grad|_K:  4.304e-07  alpha:  5.820e-01  linmin:  6.994e-07  t[s]:    173.91
	Linear fluid (dielectric constant: 7.2) occupying 0.818012 of unit cell:	Completed after 3 iterations at t[s]:    174.73
	Linear fluid (dielectric constant: 7.2) occupying 0.818012 of unit cell:	Completed after 0 iterations at t[s]:    175.54
	FillingsUpdate:  mu: -0.120476738  nElectrons: 355.000000
	SubspaceRotationAdjust: set factor to 0.55
ElecMinimize: Iter:   9  F: -593.301497041883636  |grad|_K:  2.801e-07  alpha:  5.920e-01  linmin: -1.509e-07  t[s]:    176.64
	Linear fluid (dielectric constant: 7.2) occupying 0.818011 of unit cell:	Completed after 3 iterations at t[s]:    177.46
	Linear fluid (dielectric constant: 7.2) occupying 0.818011 of unit cell:	Completed after 0 iterations at t[s]:    178.28
	FillingsUpdate:  mu: -0.120448298  nElectrons: 355.000000
	SubspaceRotationAdjust: set factor to 0.582
ElecMinimize: Iter:  10  F: -593.301498930563071  |grad|_K:  1.910e-07  alpha:  6.629e-01  linmin: -2.246e-07  t[s]:    179.40
	Linear fluid (dielectric constant: 7.2) occupying 0.818009 of unit cell:	Completed after 3 iterations at t[s]:    180.22
	Linear fluid (dielectric constant: 7.2) occupying 0.818009 of unit cell:	Completed after 1 iterations at t[s]:    181.04
	FillingsUpdate:  mu: -0.120474556  nElectrons: 355.000000
	SubspaceRotationAdjust: set factor to 0.461
ElecMinimize: Iter:  11  F: -593.301499535298944  |grad|_K:  1.489e-07  alpha:  4.545e-01  linmin:  3.163e-07  t[s]:    182.12
	Linear fluid (dielectric constant: 7.2) occupying 0.818009 of unit cell:	Completed after 2 iterations at t[s]:    182.96
	Linear fluid (dielectric constant: 7.2) occupying 0.818009 of unit cell:	Completed after 0 iterations at t[s]:    183.76
	FillingsUpdate:  mu: -0.120471509  nElectrons: 355.000000
	SubspaceRotationAdjust: set factor to 0.46
ElecMinimize: Iter:  12  F: -593.301499916699640  |grad|_K:  8.712e-08  alpha:  4.768e-01  linmin: -1.427e-06  t[s]:    184.84
	Linear fluid (dielectric constant: 7.2) occupying 0.818009 of unit cell:	Completed after 1 iterations at t[s]:    185.65
	Linear fluid (dielectric constant: 7.2) occupying 0.818009 of unit cell:	Completed after 0 iterations at t[s]:    186.45
	FillingsUpdate:  mu: -0.120465145  nElectrons: 355.000000
	SubspaceRotationAdjust: set factor to 0.573
ElecMinimize: Iter:  13  F: -593.301500098252518  |grad|_K:  6.501e-08  alpha:  6.325e-01  linmin: -1.316e-06  t[s]:    187.54
	Linear fluid (dielectric constant: 7.2) occupying 0.818009 of unit cell:	Completed after 2 iterations at t[s]:    188.37
	Linear fluid (dielectric constant: 7.2) occupying 0.818009 of unit cell:	Completed after 0 iterations at t[s]:    189.19
	FillingsUpdate:  mu: -0.120472427  nElectrons: 355.000000
	SubspaceRotationAdjust: set factor to 0.48
ElecMinimize: Iter:  14  F: -593.301500178018614  |grad|_K:  5.699e-08  alpha:  5.083e-01  linmin:  6.630e-07  t[s]:    190.28
	Linear fluid (dielectric constant: 7.2) occupying 0.818009 of unit cell:	Completed after 1 iterations at t[s]:    191.08
	Linear fluid (dielectric constant: 7.2) occupying 0.818009 of unit cell:	Completed after 0 iterations at t[s]:    191.87
	FillingsUpdate:  mu: -0.120470032  nElectrons: 355.000000
	SubspaceRotationAdjust: set factor to 0.459
ElecMinimize: Iter:  15  F: -593.301500225563700  |grad|_K:  3.625e-08  alpha:  4.218e-01  linmin:  7.261e-07  t[s]:    192.94
	Linear fluid (dielectric constant: 7.2) occupying 0.818010 of unit cell:	Completed after 0 iterations at t[s]:    193.73
	Linear fluid (dielectric constant: 7.2) occupying 0.818010 of unit cell:	Completed after 0 iterations at t[s]:    194.51
	FillingsUpdate:  mu: -0.120470113  nElectrons: 355.000000
	SubspaceRotationAdjust: set factor to 0.664
ElecMinimize: Iter:  16  F: -593.301500251871630  |grad|_K:  2.065e-08  alpha:  5.586e-01  linmin: -1.445e-06  t[s]:    195.60
	Linear fluid (dielectric constant: 7.2) occupying 0.818010 of unit cell:	Completed after 1 iterations at t[s]:    196.39
	Linear fluid (dielectric constant: 7.2) occupying 0.818010 of unit cell:	Completed after 0 iterations at t[s]:    197.16
	FillingsUpdate:  mu: -0.120471828  nElectrons: 355.000000
	SubspaceRotationAdjust: set factor to 0.489
ElecMinimize: Iter:  17  F: -593.301500256987538  |grad|_K:  2.486e-08  alpha:  3.732e-01  linmin: -1.670e-07  t[s]:    198.24
	Linear fluid (dielectric constant: 7.2) occupying 0.818010 of unit cell:	Completed after 0 iterations at t[s]:    199.06
	Linear fluid (dielectric constant: 7.2) occupying 0.818010 of unit cell:	Completed after 0 iterations at t[s]:    199.84
	FillingsUpdate:  mu: -0.120470908  nElectrons: 355.000000
	SubspaceRotationAdjust: set factor to 0.442
ElecMinimize: Iter:  18  F: -593.301500262266359  |grad|_K:  1.358e-08  alpha:  2.362e-01  linmin:  1.181e-06  t[s]:    200.92
ElecMinimize: Converged (|Delta F|<1.000000e-08 for 2 iters).
Setting wave functions to eigenvectors of Hamiltonian
Single-point solvation energy estimate, DeltaF = -0.031895788966608

Computing DFT-D3 correction:
# coordination-number C 3.301 3.301 3.303 3.301 3.302 3.301 3.301 3.300 3.350 3.301 3.302 3.304 3.301 3.300 3.372 3.301 3.301 3.312 3.301 3.298 3.324 3.301 3.301 3.306 3.300 3.302 3.301 3.301 3.305 3.301 3.300 3.309 3.299 3.300 3.308 3.299 3.301 3.301 3.301 3.301 3.312 3.300 3.304 3.301 3.300 3.300 3.412 3.301 3.302 3.300 3.300 3.301 3.301 3.301 3.289 3.296 3.300 3.288 3.291 3.301 3.301 3.314 3.300 3.301 3.306 3.301 3.300 3.323 3.301 3.300 3.299
# coordination-number N 3.220
# coordination-number S 2.896 2.635 2.012 2.857 2.455 1.974 2.482 2.892
# coordination-number Na 5.182 4.411
# diagonal-C6 C 24.28 24.28 24.25 24.28 24.27 24.27 24.27 24.28 23.74 24.27 24.27 24.24 24.28 24.28 23.48 24.27 24.27 24.16 24.28 24.30 24.04 24.27 24.27 24.22 24.28 24.26 24.28 24.27 24.24 24.27 24.28 24.20 24.29 24.28 24.21 24.29 24.28 24.27 24.28 24.28 24.16 24.28 24.25 24.27 24.28 24.28 22.94 24.28 24.27 24.28 24.28 24.27 24.27 24.27 24.39 24.32 24.28 24.39 24.36 24.27 24.28 24.14 24.28 24.27 24.22 24.28 24.28 24.05 24.27 24.28 24.29
# diagonal-C6 N 15.60
# diagonal-C6 S 125.81 125.81 125.89 125.81 125.81 125.92 125.81 125.81
# diagonal-C6 Na 186.11 186.11
EvdW_6 =   -0.072641
EvdW_8 =   -0.065080

# Ionic positions in cartesian coordinates:
ion C  28.010542013705631   0.002014969601156   0.635465203747167 0
ion C  16.341968157882292  20.214705522223607   0.636370795694031 0
ion C   2.338532027351695   4.042411505399060   0.630361847754816 0
ion C  23.343313188735969   0.002278716019722   0.640022467239564 0
ion C   4.672620934470559   0.001554156700161   0.632050616002296 0
ion C  11.674116326115334  20.215100669694028   0.619847495055023 0
ion C  25.676530282256284   4.042904097616445   0.653564930084009 0
ion C  18.675851376129700  16.172910511284943   0.662695583431347 0
ion C   4.671777948336020   8.082036709586005   0.612564386226399 0
ion C  18.676336142016080   0.002101964498535   0.651180333522277 0
ion C   9.339850970925752   0.001738039847832   0.641511836963307 0
ion C   9.341212652353351  16.175613291750459   0.599279306155555 0
ion C  23.342941439729607   8.084920466015539   0.683240254571249 0
ion C  21.009110272076708  12.128959849493356   0.688453340004557 0
ion C   7.009085367604252  12.128528685817338   0.597262204671189 0
ion C  14.008105470077210   0.001988816408382   0.654008834012114 0
ion C  14.009120976896664  16.174984627607692   0.629938477890011 0
ion C   7.005550759074101   4.041176716120078   0.616350899393808 0
ion C  21.010101094155836   4.043302536041172   0.668670850704729 0
ion C  16.344445762465487  12.130683361169906   0.668518806438794 0
ion C   9.337643998902927   8.081728763982859   0.614931622729934 0
ion C  16.343783017314891   4.042062713362387   0.668836182024798 0
ion C  11.674085450205249   4.041278849785761   0.642196060576936 0
ion C  11.675597583834264  12.133622242506720   0.630068253549407 0
ion C  18.678074956154809   8.085220585829878   0.685769374381508 0
ion C   7.007175797728255  20.216155157604103   0.619709324068161 0
ion C  -6.996748017889799  20.214440105700564   0.653094683289385 0
ion C   0.002354623270169   8.082966457809835   0.657418822396948 0
ion C  14.012576459862725   8.083203697825988   0.669712893069494 0
ion C   2.339067441062872  20.216465077180068   0.646220757178249 0
ion C  -4.663670527593792  16.172490992184059   0.678596642017759 0
ion C   2.336125814129785  12.127745765919109   0.656417500003109 0
ion C  -2.332224039758668  12.128030282589300   0.685859862245795 0
ion C  -2.329659352792410  20.215194179952768   0.659830322184195 0
ion C   4.673933801454849  16.177740252210711   0.625359734501050 0
ion C   0.002990588629148  16.174656174657997   0.666554428718456 0
ion C  14.008266720144102  21.561374576259517   0.629777200837147 0
ion C   2.338930816614256   1.348570645432834   0.632009758527847 0
ion C  25.677100562977380   1.348988124751942   0.641986895200073 0
ion C  16.342686998612663  17.520648868856785   0.642302048336074 0
ion C   4.672307145938162   5.388219921962990   0.616057256550324 0
ion C  21.010123495302889   1.349044430338556   0.652394834146865 0
ion C   7.005937845436384   1.348033936218268   0.628031389286509 0
ion C  11.674692189550257  17.521226022139913   0.612057705166649 0
ion C  23.343784883173043   5.390651685198355   0.669612389866280 0
ion C  18.676972543384359  13.478483594758318   0.675595907033575 0
ion C   7.004963348139576   9.432115986525980   0.597538283264729 0
ion C  16.342472076605748   1.348066366442404   0.659130179870282 0
ion C  11.673522256343780   1.347802312891912   0.646547034509048 0
ion C   9.340696631175403  13.481256291567631   0.599303874261302 0
ion C  21.010487586627971   9.434228317035956   0.689549670827176 0
ion C   9.340862584041272  21.562275316056120   0.623251203387415 0
ion C  -9.330262385564788  21.561165527783945   0.640491424243255 0
ion C   0.004476893676090   5.389148113018151   0.645932445799481 0
ion C  14.011432130181314  13.480719160062115   0.643556882023976 0
ion C   9.339051356617166   5.386992451363917   0.621078239496768 0
ion C  18.677007069088155   5.390558998944344   0.676741055188348 0
ion C  16.345725884609092   9.434637493571932   0.679131999516677 0
ion C  14.009428395823310   5.387478001177438   0.662736904438848 0
ion C   4.673293824799767  21.561882602550448   0.637519226383223 0
ion C  -6.996841473985329  17.520066852095106   0.666346621047357 0
ion C   2.337134667876788   9.428913976861832   0.643387178107247 0
ion C  -2.330217064543965   9.432650452790400   0.678563548363968 0
ion C  -4.663349535264295  21.561481505082671   0.652392573786173 0
ion C   7.008365318233412  17.523060541264897   0.607450639135720 0
ion C   0.004487123343837  21.561671103490092   0.654109318198199 0
ion C  -4.664147187494722  13.477588422800194   0.688047082736968 0
ion C   4.674619807111762  13.479414560663223   0.625188064189185 0
ion C   2.338448909138405  17.522455183042435   0.645633689115609 0
ion C  -2.330712054942804  17.520790606615741   0.670058696770369 0
ion C   0.000363098194401  13.478789474313889   0.675559226948007 0
ion N  11.674484029805171   9.432912355349794   0.644194404697448 0
ion S  12.157601098675316   5.456696727210174  10.370526980013269 1
ion S   7.861729408270000   4.849229322359080  10.426177585640060 1
ion S   6.686271328891801   4.821365108936281   6.887111479648573 1
ion S   5.272583105483168  11.649092134442531  11.865676212685830 1
ion S   5.869393319187088  15.244281465514238  10.680693000046958 1
ion S   5.886590928184376  15.561163644578370   6.935822004794708 1
ion S  12.836013291422207   7.228560988211750   7.060946632098404 1
ion S  11.755967593442360  10.953986981437854   7.171156004814669 1
ion Na   6.368287720470838  10.164942268744518   6.690863468389883 1
ion Na  10.274346228114519  10.320671571776725  12.078409680911069 1

# Forces in Cartesian coordinates:
force C  -0.000435291396291   0.000430836135673   0.000301838033549 0
force C  -0.000783645900472   0.000148560757753   0.000454427713569 0
force C  -0.000417220728544  -0.000276161871764   0.000415344845044 0
force C   0.000828890588961   0.000337664732879   0.000333011647896 0
force C  -0.000486890385831   0.000637045576940   0.000226543719036 0
force C   0.000173262930850   0.000230544601591   0.000459213534172 0
force C   0.000272017959859  -0.000807048329584   0.000357228194102 0
force C  -0.000146131102305   0.001767728591568   0.000282015655619 0
force C   0.000353924705350  -0.004345522968546   0.000666894313196 0
force C   0.000578613776954   0.000448612814776   0.000277034131818 0
force C  -0.001918304313419  -0.000754754583673   0.000218934403950 0
force C   0.004556367043345   0.000232387881292   0.000500204446473 0
force C  -0.000196520607366  -0.000546161786436  -0.000034239158498 0
force C   0.001582662584573  -0.000864675324325   0.000028670002898 0
force C  -0.006223982613016   0.005056557054563   0.000188429069126 0
force C   0.001464185291098  -0.000752143567321   0.000261244352617 0
force C  -0.004769711485880   0.000382142987645   0.000462291247727 0
force C  -0.002898367643856   0.003241598060801  -0.000371269434864 0
force C   0.000272635871578  -0.000099849490475   0.000176202510093 0
force C   0.004441370954844   0.002855956925359   0.000377097828483 0
force C   0.008561188809308   0.003285485350634   0.001125804511250 0
force C   0.002716575187650   0.003691425996124   0.000179601697192 0
force C  -0.000029674987562  -0.005547249738942   0.000501771523383 0
force C   0.000183546257697  -0.007637104705613   0.000257996823032 0
force C  -0.001662878430123  -0.004191217610166  -0.000128816638385 0
force C   0.000816902869752   0.000125142442068   0.000419833393969 0
force C  -0.001720477528016   0.000898916535021   0.000329881847440 0
force C   0.000597130537465  -0.000429518502132   0.000288098906516 0
force C  -0.007280109149506   0.004524953880045  -0.000190579775555 0
force C   0.001561926666291   0.000337615363195   0.000173790589938 0
force C   0.000208234940475  -0.000013922073276   0.000053529384701 0
force C  -0.000740780741735   0.000000122362648  -0.000562234681251 0
force C   0.000761201875959  -0.001459704585490   0.000000668717124 0
force C   0.000114304813045  -0.000336486014559   0.000306672949884 0
force C  -0.000216088184158   0.000260147556592   0.000019011799021 0
force C   0.000434298088745  -0.000367937389246   0.000052056719173 0
force C   0.000026050316509  -0.000268173052027   0.000465699320756 0
force C   0.000379486482336  -0.000076800901642   0.000459907110436 0
force C  -0.000024833153005  -0.000074137504946   0.000518164450880 0
force C   0.001251680511706  -0.001105234522901   0.000526543743781 0
force C   0.000485889568175  -0.000295219206278   0.000242671995962 0
force C  -0.000595243567204   0.000101261224378   0.000495836595320 0
force C   0.001707350460425  -0.000844376256010   0.000449384303818 0
force C   0.000187097271348  -0.000669412478371   0.000702862767460 0
force C  -0.000521170565028   0.000395111746535   0.000301710877414 0
force C  -0.004449230620198  -0.002826705618983   0.000133157333899 0
force C   0.010745244412984   0.002640158475491   0.000847671635827 0
force C  -0.001729389969409  -0.000455543411328   0.000106998632709 0
force C   0.000218255981263   0.005224713676176   0.000463415831258 0
force C   0.004224104156441  -0.010489653833758   0.000270692250192 0
force C  -0.000477249498393   0.001522601680262   0.000044283151595 0
force C  -0.000348745370775  -0.000353562358477   0.000547853763845 0
force C   0.001487944907989  -0.000546906307117   0.000499218096327 0
force C   0.000094093702802   0.000326762252039   0.000456474312834 0
force C  -0.003583650736909  -0.010755655384851   0.000208046357224 0
force C   0.007790389220254   0.007822829267667   0.000194646583056 0
force C  -0.000538274523240   0.000379567662259   0.000150255543669 0
force C  -0.010443017721507   0.002556112149132   0.000297381182739 0
force C  -0.007284151744554   0.007364996982820  -0.000237549962030 0
force C  -0.001370475321276  -0.000706678192381   0.000508083041517 0
force C  -0.000380207179877  -0.001193198394054   0.000324840898930 0
force C  -0.000352749346496   0.003760745615176  -0.000005146884804 0
force C   0.000143190127982   0.001793320217282   0.000244993912981 0
force C   0.000837899088490   0.001210693372428   0.000435199892162 0
force C  -0.001865796542242  -0.001179336988704   0.000310762580242 0
force C  -0.000747037943740   0.001103174665579   0.000434534968065 0
force C  -0.001242680661890  -0.000024929892721   0.000049986269872 0
force C   0.002446258993675  -0.002959610429460  -0.000203307997749 0
force C   0.000246201029592  -0.001633381930267   0.000500535926147 0
force C   0.000381415525341  -0.000094344690279   0.000316927318859 0
force C   0.002705327555044  -0.000645082145453  -0.000210192830944 0
force N   0.000202360870085   0.000376325770056  -0.001120149232761 0
force S  -0.000391851765600  -0.001944117553481  -0.000782900494938 1
force S   0.000991006065704  -0.000197110682026   0.000131438415903 1
force S  -0.000271178840148  -0.000385936000032  -0.000214657715514 1
force S  -0.002677916484824   0.001483990344656  -0.001210729828305 1
force S  -0.001086628660672  -0.001201549882990   0.001494461939977 1
force S   0.000406278295689   0.000910070340078  -0.001095898275386 1
force S  -0.000733200967947   0.001043098429757  -0.000950072507158 1
force S   0.000190234088791  -0.001434842708282  -0.002533821915556 1
force Na  -0.000425606314888  -0.000276437267406  -0.000241567996479 1
force Na   0.003919971304981   0.002120330426232   0.006981042614779 1

# Energy components:
   A_diel =       -0.0385643103051926
   Eewald =     5302.1714705752337977
       EH =     5773.9723099592820290
     Eloc =   -11721.4245340127072268
      Enl =      -70.8821793390599453
     EvdW =       -0.1377210895321079
      Exc =     -179.4428320992006718
 Exc_core =       16.6214473980954693
       KE =      285.9475129174483072
-------------------------------------
     Etot =     -593.2130900007457512
       TS =        0.0884102615205782
-------------------------------------
        F =     -593.3015002622663587

IonicMinimize: Iter:   0  F: -593.301500262266359  |grad|_K:  1.859e-03  alpha:  1.000e+00

#--- Lowdin population analysis ---
# oxidation-state C +0.043 +0.044 +0.043 +0.043 +0.045 +0.044 +0.043 +0.045 +0.027 +0.044 +0.047 +0.046 +0.043 +0.045 +0.031 +0.046 +0.046 +0.045 +0.043 +0.052 +0.140 +0.045 +0.053 +0.152 +0.044 +0.046 +0.044 +0.041 +0.142 +0.046 +0.044 +0.038 +0.044 +0.044 +0.043 +0.044 +0.044 +0.044 +0.040 +0.045 +0.038 +0.044 +0.048 +0.043 +0.043 +0.038 +0.006 +0.045 +0.040 +0.032 +0.044 +0.045 +0.042 +0.043 +0.037 +0.036 +0.042 +0.032 +0.033 +0.043 +0.042 +0.035 +0.041 +0.043 +0.045 +0.043 +0.042 +0.030 +0.045 +0.039 +0.042
# oxidation-state N +0.007
# oxidation-state S -0.063 +0.058 -0.298 -0.422 +0.294 -0.315 +0.174 -0.469
# oxidation-state Na +0.698 +0.793


Computing DFT-D3 correction:
# coordination-number C 3.301 3.301 3.303 3.301 3.302 3.301 3.301 3.300 3.351 3.301 3.302 3.304 3.301 3.300 3.372 3.301 3.301 3.312 3.301 3.298 3.324 3.301 3.301 3.306 3.300 3.302 3.301 3.301 3.305 3.301 3.300 3.309 3.299 3.300 3.308 3.299 3.301 3.301 3.301 3.301 3.312 3.300 3.304 3.301 3.300 3.300 3.412 3.301 3.302 3.300 3.300 3.301 3.301 3.301 3.289 3.296 3.300 3.288 3.291 3.301 3.301 3.314 3.300 3.301 3.306 3.301 3.300 3.323 3.301 3.300 3.299
# coordination-number N 3.220
# coordination-number S 2.894 2.632 2.012 2.855 2.455 1.973 2.480 2.891
# coordination-number Na 5.177 4.395
# diagonal-C6 C 24.28 24.28 24.25 24.28 24.27 24.27 24.27 24.28 23.74 24.27 24.27 24.24 24.28 24.28 23.48 24.27 24.27 24.16 24.28 24.30 24.04 24.27 24.27 24.22 24.28 24.26 24.28 24.27 24.24 24.27 24.28 24.20 24.29 24.28 24.21 24.29 24.28 24.27 24.28 24.28 24.16 24.28 24.25 24.27 24.28 24.28 22.94 24.28 24.27 24.28 24.28 24.27 24.27 24.27 24.39 24.32 24.28 24.39 24.36 24.27 24.28 24.14 24.28 24.27 24.22 24.28 24.28 24.05 24.27 24.28 24.29
# diagonal-C6 N 15.60
# diagonal-C6 S 125.81 125.81 125.89 125.81 125.81 125.92 125.81 125.81
# diagonal-C6 Na 186.11 186.11
EvdW_6 =   -0.072642
EvdW_8 =   -0.065095

-------- Electronic minimization -----------
	Linear fluid (dielectric constant: 7.2) occupying 0.818007 of unit cell:	Completed after 4 iterations at t[s]:    207.32
	FillingsUpdate:  mu: -0.120411926  nElectrons: 355.000000
ElecMinimize: Iter:   0  F: -593.301594232892626  |grad|_K:  4.320e-07  alpha:  1.000e+00
	Linear fluid (dielectric constant: 7.2) occupying 0.818010 of unit cell:	Completed after 3 iterations at t[s]:    209.31
	Linear fluid (dielectric constant: 7.2) occupying 0.818009 of unit cell:	Completed after 2 iterations at t[s]:    210.18
	FillingsUpdate:  mu: -0.120439582  nElectrons: 355.000000
	SubspaceRotationAdjust: set factor to 0.483
ElecMinimize: Iter:   1  F: -593.301598964310529  |grad|_K:  2.256e-07  alpha:  7.000e-01  linmin:  2.322e-06  t[s]:    211.31
	Linear fluid (dielectric constant: 7.2) occupying 0.818007 of unit cell:	Completed after 3 iterations at t[s]:    212.15
	Linear fluid (dielectric constant: 7.2) occupying 0.818007 of unit cell:	Completed after 1 iterations at t[s]:    212.95
	FillingsUpdate:  mu: -0.120416049  nElectrons: 355.000000
	SubspaceRotationAdjust: set factor to 0.389
ElecMinimize: Iter:   2  F: -593.301599901635882  |grad|_K:  1.356e-07  alpha:  5.092e-01  linmin:  3.483e-06  t[s]:    214.02
	Linear fluid (dielectric constant: 7.2) occupying 0.818006 of unit cell:	Completed after 2 iterations at t[s]:    214.84
	Linear fluid (dielectric constant: 7.2) occupying 0.818006 of unit cell:	Completed after 0 iterations at t[s]:    215.62
	FillingsUpdate:  mu: -0.120430439  nElectrons: 355.000000
	SubspaceRotationAdjust: set factor to 0.302
ElecMinimize: Iter:   3  F: -593.301600231919565  |grad|_K:  8.344e-08  alpha:  4.969e-01  linmin:  2.576e-07  t[s]:    216.69
	Linear fluid (dielectric constant: 7.2) occupying 0.818006 of unit cell:	Completed after 1 iterations at t[s]:    217.50
	Linear fluid (dielectric constant: 7.2) occupying 0.818006 of unit cell:	Completed after 0 iterations at t[s]:    218.27
	FillingsUpdate:  mu: -0.120428781  nElectrons: 355.000000
	SubspaceRotationAdjust: set factor to 0.372
ElecMinimize: Iter:   4  F: -593.301600403323846  |grad|_K:  3.776e-08  alpha:  6.744e-01  linmin: -7.024e-06  t[s]:    219.36
	Linear fluid (dielectric constant: 7.2) occupying 0.818006 of unit cell:	Completed after 1 iterations at t[s]:    220.14
	Linear fluid (dielectric constant: 7.2) occupying 0.818006 of unit cell:	Completed after 0 iterations at t[s]:    220.92
	FillingsUpdate:  mu: -0.120425997  nElectrons: 355.000000
	SubspaceRotationAdjust: set factor to 0.39
ElecMinimize: Iter:   5  F: -593.301600433784074  |grad|_K:  2.587e-08  alpha:  5.747e-01  linmin: -4.989e-07  t[s]:    222.00
	Linear fluid (dielectric constant: 7.2) occupying 0.818006 of unit cell:	Completed after 0 iterations at t[s]:    222.79
	Linear fluid (dielectric constant: 7.2) occupying 0.818006 of unit cell:	Completed after 0 iterations at t[s]:    223.55
	FillingsUpdate:  mu: -0.120426256  nElectrons: 355.000000
	SubspaceRotationAdjust: set factor to 0.357
ElecMinimize: Iter:   6  F: -593.301600446808379  |grad|_K:  1.273e-08  alpha:  5.353e-01  linmin: -9.861e-07  t[s]:    224.63
	Linear fluid (dielectric constant: 7.2) occupying 0.818006 of unit cell:	Completed after 0 iterations at t[s]:    225.41
	Linear fluid (dielectric constant: 7.2) occupying 0.818006 of unit cell:	Completed after 0 iterations at t[s]:    226.20
	FillingsUpdate:  mu: -0.120427411  nElectrons: 355.000000
	SubspaceRotationAdjust: set factor to 0.389
ElecMinimize: Iter:   7  F: -593.301600449605417  |grad|_K:  9.238e-09  alpha:  7.324e-01  linmin:  1.924e-06  t[s]:    227.28
	Linear fluid (dielectric constant: 7.2) occupying 0.818006 of unit cell:	Completed after 0 iterations at t[s]:    228.07
	Linear fluid (dielectric constant: 7.2) occupying 0.818006 of unit cell:	Completed after 0 iterations at t[s]:    228.81
	FillingsUpdate:  mu: -0.120427486  nElectrons: 355.000000
	SubspaceRotationAdjust: set factor to 0.424
ElecMinimize: Iter:   8  F: -593.301600451304125  |grad|_K:  6.628e-09  alpha:  6.495e-01  linmin: -1.114e-07  t[s]:    229.91
ElecMinimize: Converged (|Delta F|<1.000000e-08 for 2 iters).
Setting wave functions to eigenvectors of Hamiltonian
IonicMinimize: 	Predicted alpha/alphaT>3.000000, increasing alphaT to 3.000000e+00.

Computing DFT-D3 correction:
# coordination-number C 3.301 3.301 3.303 3.301 3.302 3.301 3.301 3.300 3.351 3.301 3.302 3.304 3.301 3.300 3.372 3.301 3.301 3.312 3.301 3.298 3.324 3.301 3.301 3.306 3.300 3.302 3.301 3.301 3.305 3.301 3.300 3.309 3.299 3.300 3.308 3.299 3.301 3.301 3.301 3.301 3.312 3.300 3.304 3.301 3.300 3.300 3.412 3.301 3.302 3.300 3.300 3.301 3.301 3.301 3.289 3.296 3.300 3.288 3.291 3.301 3.301 3.314 3.300 3.301 3.306 3.301 3.300 3.323 3.301 3.300 3.299
# coordination-number N 3.220
# coordination-number S 2.891 2.626 2.012 2.853 2.453 1.972 2.475 2.888
# coordination-number Na 5.167 4.365
# diagonal-C6 C 24.28 24.28 24.25 24.28 24.27 24.27 24.27 24.28 23.74 24.27 24.27 24.24 24.28 24.28 23.48 24.27 24.27 24.16 24.28 24.30 24.04 24.27 24.27 24.22 24.28 24.26 24.28 24.27 24.24 24.27 24.28 24.20 24.29 24.28 24.21 24.29 24.28 24.27 24.28 24.28 24.16 24.28 24.25 24.27 24.28 24.28 22.94 24.28 24.27 24.28 24.28 24.27 24.27 24.27 24.39 24.32 24.28 24.39 24.36 24.27 24.28 24.14 24.28 24.27 24.22 24.28 24.28 24.05 24.27 24.28 24.29
# diagonal-C6 N 15.60
# diagonal-C6 S 125.81 125.81 125.89 125.81 125.81 125.92 125.81 125.81
# diagonal-C6 Na 186.11 186.11
EvdW_6 =   -0.072644
EvdW_8 =   -0.065124

-------- Electronic minimization -----------
	Linear fluid (dielectric constant: 7.2) occupying 0.817999 of unit cell:	Completed after 6 iterations at t[s]:    233.14
	FillingsUpdate:  mu: -0.120304502  nElectrons: 355.000000
ElecMinimize: Iter:   0  F: -593.301758595630417  |grad|_K:  8.625e-07  alpha:  1.000e+00
	Linear fluid (dielectric constant: 7.2) occupying 0.818005 of unit cell:	Completed after 5 iterations at t[s]:    235.09
	Linear fluid (dielectric constant: 7.2) occupying 0.818003 of unit cell:	Completed after 2 iterations at t[s]:    235.95
	FillingsUpdate:  mu: -0.120367317  nElectrons: 355.000000
	SubspaceRotationAdjust: set factor to 0.465
ElecMinimize: Iter:   1  F: -593.301777459666027  |grad|_K:  4.494e-07  alpha:  6.999e-01  linmin:  2.569e-06  t[s]:    237.04
	Linear fluid (dielectric constant: 7.2) occupying 0.817999 of unit cell:	Completed after 4 iterations at t[s]:    237.86
	Linear fluid (dielectric constant: 7.2) occupying 0.818000 of unit cell:	Completed after 2 iterations at t[s]:    238.67
	FillingsUpdate:  mu: -0.120315391  nElectrons: 355.000000
	SubspaceRotationAdjust: set factor to 0.39
ElecMinimize: Iter:   2  F: -593.301781267894739  |grad|_K:  2.652e-07  alpha:  5.219e-01  linmin: -5.828e-06  t[s]:    239.74
	Linear fluid (dielectric constant: 7.2) occupying 0.817998 of unit cell:	Completed after 3 iterations at t[s]:    240.58
	Linear fluid (dielectric constant: 7.2) occupying 0.817998 of unit cell:	Completed after 0 iterations at t[s]:    241.40
	FillingsUpdate:  mu: -0.120347860  nElectrons: 355.000000
	SubspaceRotationAdjust: set factor to 0.306
ElecMinimize: Iter:   3  F: -593.301782610802206  |grad|_K:  1.663e-07  alpha:  5.259e-01  linmin: -3.410e-06  t[s]:    242.46
	Linear fluid (dielectric constant: 7.2) occupying 0.817998 of unit cell:	Completed after 2 iterations at t[s]:    243.25
	Linear fluid (dielectric constant: 7.2) occupying 0.817998 of unit cell:	Completed after 1 iterations at t[s]:    244.07
	FillingsUpdate:  mu: -0.120341394  nElectrons: 355.000000
	SubspaceRotationAdjust: set factor to 0.357
ElecMinimize: Iter:   4  F: -593.301783310399287  |grad|_K:  7.608e-08  alpha:  6.967e-01  linmin:  3.030e-06  t[s]:    245.15
	Linear fluid (dielectric constant: 7.2) occupying 0.817997 of unit cell:	Completed after 1 iterations at t[s]:    246.00
	Linear fluid (dielectric constant: 7.2) occupying 0.817997 of unit cell:	Completed after 0 iterations at t[s]:    246.80
	FillingsUpdate:  mu: -0.120338024  nElectrons: 355.000000
	SubspaceRotationAdjust: set factor to 0.392
ElecMinimize: Iter:   5  F: -593.301783440785357  |grad|_K:  4.807e-08  alpha:  6.255e-01  linmin:  1.221e-06  t[s]:    247.90
	Linear fluid (dielectric constant: 7.2) occupying 0.817998 of unit cell:	Completed after 1 iterations at t[s]:    248.71
	Linear fluid (dielectric constant: 7.2) occupying 0.817998 of unit cell:	Completed after 0 iterations at t[s]:    249.48
	FillingsUpdate:  mu: -0.120340900  nElectrons: 355.000000
	SubspaceRotationAdjust: set factor to 0.382
ElecMinimize: Iter:   6  F: -593.301783484414159  |grad|_K:  2.397e-08  alpha:  5.262e-01  linmin:  1.016e-06  t[s]:    250.57
	Linear fluid (dielectric constant: 7.2) occupying 0.817998 of unit cell:	Completed after 0 iterations at t[s]:    251.34
	Linear fluid (dielectric constant: 7.2) occupying 0.817998 of unit cell:	Completed after 0 iterations at t[s]:    252.13
	FillingsUpdate:  mu: -0.120340271  nElectrons: 355.000000
	SubspaceRotationAdjust: set factor to 0.405
ElecMinimize: Iter:   7  F: -593.301783495840141  |grad|_K:  1.212e-08  alpha:  5.501e-01  linmin: -3.379e-06  t[s]:    253.19
	Linear fluid (dielectric constant: 7.2) occupying 0.817998 of unit cell:	Completed after 0 iterations at t[s]:    253.98
	Linear fluid (dielectric constant: 7.2) occupying 0.817998 of unit cell:	Completed after 0 iterations at t[s]:    254.79
	FillingsUpdate:  mu: -0.120340271  nElectrons: 355.000000
	SubspaceRotationAdjust: set factor to 0.486
ElecMinimize: Iter:   8  F: -593.301783500615443  |grad|_K:  7.998e-09  alpha:  8.269e-01  linmin:  6.404e-08  t[s]:    255.86
	Linear fluid (dielectric constant: 7.2) occupying 0.817998 of unit cell:	Completed after 0 iterations at t[s]:    256.71
	Linear fluid (dielectric constant: 7.2) occupying 0.817998 of unit cell:	Completed after 0 iterations at t[s]:    257.53
ElecMinimize: 	Step increased F by 8.628831e-11, reducing alpha to 3.553591e-02.
	Linear fluid (dielectric constant: 7.2) occupying 0.817998 of unit cell:	Completed after 0 iterations at t[s]:    259.23
ElecMinimize: 	Step increased F by 4.440608e-10, reducing alpha to 3.553591e-03.
	Linear fluid (dielectric constant: 7.2) occupying 0.817998 of unit cell:	Completed after 0 iterations at t[s]:    260.90
ElecMinimize: 	Step increased F by 4.916956e-10, reducing alpha to 3.553591e-04.
ElecMinimize: 	Step failed to reduce F after 3 attempts. Quitting step.
ElecMinimize: 	Undoing step.
	Linear fluid (dielectric constant: 7.2) occupying 0.817998 of unit cell:	Completed after 0 iterations at t[s]:    262.58
ElecMinimize: 	Step failed: resetting search direction.
	FillingsUpdate:  mu: -0.120339325  nElectrons: 355.000000
	SubspaceRotationAdjust: set factor to 0.467
ElecMinimize: Iter:   9  F: -593.301783500111810  |grad|_K:  9.102e-09  alpha:  3.554e-04
	Linear fluid (dielectric constant: 7.2) occupying 0.817998 of unit cell:	Completed after 0 iterations at t[s]:    264.44
	Linear fluid (dielectric constant: 7.2) occupying 0.817998 of unit cell:	Completed after 0 iterations at t[s]:    265.23
	FillingsUpdate:  mu: -0.120339933  nElectrons: 355.000000
	SubspaceRotationAdjust: set factor to 0.301
ElecMinimize: Iter:  10  F: -593.301783500418310  |grad|_K:  9.184e-09  alpha:  3.346e-01  linmin:  2.499e-06  t[s]:    266.30
	Linear fluid (dielectric constant: 7.2) occupying 0.817998 of unit cell:	Completed after 0 iterations at t[s]:    267.10
	Linear fluid (dielectric constant: 7.2) occupying 0.817998 of unit cell:	Completed after 0 iterations at t[s]:    267.85
	FillingsUpdate:  mu: -0.120339765  nElectrons: 355.000000
	SubspaceRotationAdjust: set factor to 0.452
ElecMinimize: Iter:  11  F: -593.301783501636010  |grad|_K:  1.038e-08  alpha:  4.617e-01  linmin: -9.957e-11  t[s]:    268.92
ElecMinimize: Converged (|Delta F|<1.000000e-08 for 2 iters).
Setting wave functions to eigenvectors of Hamiltonian
IonicMinimize: 	Predicted alpha/alphaT>3.000000, increasing alphaT to 9.000000e+00.

Computing DFT-D3 correction:
# coordination-number C 3.301 3.301 3.303 3.301 3.302 3.301 3.301 3.300 3.351 3.301 3.302 3.304 3.301 3.300 3.372 3.301 3.301 3.313 3.301 3.298 3.324 3.301 3.301 3.306 3.300 3.302 3.301 3.301 3.305 3.301 3.300 3.309 3.299 3.300 3.308 3.299 3.301 3.301 3.301 3.301 3.313 3.300 3.304 3.301 3.300 3.300 3.412 3.301 3.302 3.300 3.300 3.301 3.301 3.301 3.289 3.296 3.300 3.288 3.291 3.301 3.301 3.314 3.300 3.301 3.306 3.301 3.300 3.323 3.301 3.300 3.299
# coordination-number N 3.220
# coordination-number S 2.881 2.608 2.011 2.844 2.448 1.969 2.462 2.878
# coordination-number Na 5.136 4.271
# diagonal-C6 C 24.28 24.28 24.25 24.28 24.27 24.27 24.27 24.28 23.74 24.27 24.27 24.24 24.28 24.28 23.48 24.27 24.27 24.16 24.28 24.30 24.04 24.27 24.27 24.22 24.28 24.26 24.28 24.27 24.24 24.27 24.28 24.20 24.29 24.28 24.21 24.29 24.28 24.27 24.28 24.28 24.16 24.28 24.25 24.27 24.28 24.28 22.94 24.28 24.27 24.28 24.28 24.27 24.27 24.27 24.39 24.32 24.28 24.39 24.36 24.27 24.28 24.14 24.28 24.27 24.22 24.28 24.28 24.05 24.27 24.28 24.29
# diagonal-C6 N 15.60
# diagonal-C6 S 125.81 125.81 125.89 125.81 125.81 125.92 125.81 125.81
# diagonal-C6 Na 186.11 186.11
EvdW_6 =   -0.072649
EvdW_8 =   -0.065215

-------- Electronic minimization -----------
	Linear fluid (dielectric constant: 7.2) occupying 0.817997 of unit cell:	Completed after 8 iterations at t[s]:    272.23
	FillingsUpdate:  mu: -0.118853090  nElectrons: 355.000000
ElecMinimize: Iter:   0  F: -593.251297513008467  |grad|_K:  6.079e-05  alpha:  1.000e+00
	Linear fluid (dielectric constant: 7.2) occupying 0.818024 of unit cell:	Completed after 11 iterations at t[s]:    274.29
	Linear fluid (dielectric constant: 7.2) occupying 0.818013 of unit cell:	Completed after 10 iterations at t[s]:    275.28
	FillingsUpdate:  mu: -0.120385361  nElectrons: 355.000000
	SubspaceRotationAdjust: set factor to 0.465
ElecMinimize: Iter:   1  F: -593.299111400985566  |grad|_K:  1.211e-05  alpha:  3.606e-01  linmin:  5.975e-04  t[s]:    276.42
	Linear fluid (dielectric constant: 7.2) occupying 0.817989 of unit cell:	Completed after 8 iterations at t[s]:    277.30
	Linear fluid (dielectric constant: 7.2) occupying 0.817984 of unit cell:	Completed after 6 iterations at t[s]:    278.22
	FillingsUpdate:  mu: -0.119748728  nElectrons: 355.000000
	SubspaceRotationAdjust: set factor to 0.431
ElecMinimize: Iter:   2  F: -593.301410674785075  |grad|_K:  6.110e-06  alpha:  4.362e-01  linmin: -1.151e-05  t[s]:    279.30
	Linear fluid (dielectric constant: 7.2) occupying 0.817968 of unit cell:	Completed after 7 iterations at t[s]:    280.15
	Linear fluid (dielectric constant: 7.2) occupying 0.817969 of unit cell:	Completed after 4 iterations at t[s]:    281.05
	FillingsUpdate:  mu: -0.120110811  nElectrons: 355.000000
	SubspaceRotationAdjust: set factor to 0.476
ElecMinimize: Iter:   3  F: -593.301950581936467  |grad|_K:  2.515e-06  alpha:  3.987e-01  linmin: -7.522e-07  t[s]:    282.15
	Linear fluid (dielectric constant: 7.2) occupying 0.817971 of unit cell:	Completed after 4 iterations at t[s]:    282.98
	Linear fluid (dielectric constant: 7.2) occupying 0.817973 of unit cell:	Completed after 4 iterations at t[s]:    283.85
	FillingsUpdate:  mu: -0.120060330  nElectrons: 355.000000
	SubspaceRotationAdjust: set factor to 0.579
ElecMinimize: Iter:   4  F: -593.302115895233214  |grad|_K:  1.602e-06  alpha:  7.214e-01  linmin:  3.751e-06  t[s]:    284.92
	Linear fluid (dielectric constant: 7.2) occupying 0.817968 of unit cell:	Completed after 5 iterations at t[s]:    285.81
	Linear fluid (dielectric constant: 7.2) occupying 0.817969 of unit cell:	Completed after 3 iterations at t[s]:    286.70
	FillingsUpdate:  mu: -0.120044932  nElectrons: 355.000000
	SubspaceRotationAdjust: set factor to 0.699
ElecMinimize: Iter:   5  F: -593.302166593951711  |grad|_K:  1.007e-06  alpha:  5.462e-01  linmin:  3.038e-07  t[s]:    287.78
	Linear fluid (dielectric constant: 7.2) occupying 0.817967 of unit cell:	Completed after 4 iterations at t[s]:    288.66
	Linear fluid (dielectric constant: 7.2) occupying 0.817967 of unit cell:	Completed after 1 iterations at t[s]:    289.51
	FillingsUpdate:  mu: -0.120091384  nElectrons: 355.000000
	SubspaceRotationAdjust: set factor to 0.66
ElecMinimize: Iter:   6  F: -593.302190159944985  |grad|_K:  5.511e-07  alpha:  6.410e-01  linmin:  5.931e-08  t[s]:    290.60
	Linear fluid (dielectric constant: 7.2) occupying 0.817972 of unit cell:	Completed after 4 iterations at t[s]:    291.44
	Linear fluid (dielectric constant: 7.2) occupying 0.817970 of unit cell:	Completed after 3 iterations at t[s]:    292.27
	FillingsUpdate:  mu: -0.120056885  nElectrons: 355.000000
	SubspaceRotationAdjust: set factor to 0.418
ElecMinimize: Iter:   7  F: -593.302194395174865  |grad|_K:  4.001e-07  alpha:  3.842e-01  linmin:  1.269e-06  t[s]:    293.36
	Linear fluid (dielectric constant: 7.2) occupying 0.817972 of unit cell:	Completed after 3 iterations at t[s]:    294.19
	Linear fluid (dielectric constant: 7.2) occupying 0.817972 of unit cell:	Completed after 0 iterations at t[s]:    294.98
	FillingsUpdate:  mu: -0.120083973  nElectrons: 355.000000
	SubspaceRotationAdjust: set factor to 0.306
ElecMinimize: Iter:   8  F: -593.302196798702198  |grad|_K:  1.984e-07  alpha:  4.153e-01  linmin: -3.375e-06  t[s]:    296.04
	Linear fluid (dielectric constant: 7.2) occupying 0.817971 of unit cell:	Completed after 2 iterations at t[s]:    296.85
	Linear fluid (dielectric constant: 7.2) occupying 0.817971 of unit cell:	Completed after 1 iterations at t[s]:    297.65
	FillingsUpdate:  mu: -0.120075792  nElectrons: 355.000000
	SubspaceRotationAdjust: set factor to 0.339
ElecMinimize: Iter:   9  F: -593.302197608760139  |grad|_K:  1.204e-07  alpha:  5.630e-01  linmin: -1.606e-06  t[s]:    298.74
	Linear fluid (dielectric constant: 7.2) occupying 0.817971 of unit cell:	Completed after 1 iterations at t[s]:    299.55
	Linear fluid (dielectric constant: 7.2) occupying 0.817971 of unit cell:	Completed after 0 iterations at t[s]:    300.32
	FillingsUpdate:  mu: -0.120070111  nElectrons: 355.000000
	SubspaceRotationAdjust: set factor to 0.364
ElecMinimize: Iter:  10  F: -593.302197920745584  |grad|_K:  7.967e-08  alpha:  5.906e-01  linmin: -3.161e-06  t[s]:    301.37
	Linear fluid (dielectric constant: 7.2) occupying 0.817971 of unit cell:	Completed after 1 iterations at t[s]:    302.15
	Linear fluid (dielectric constant: 7.2) occupying 0.817971 of unit cell:	Completed after 0 iterations at t[s]:    302.93
	FillingsUpdate:  mu: -0.120077840  nElectrons: 355.000000
	SubspaceRotationAdjust: set factor to 0.46
ElecMinimize: Iter:  11  F: -593.302198062339244  |grad|_K:  5.534e-08  alpha:  6.076e-01  linmin: -1.209e-06  t[s]:    303.97
	Linear fluid (dielectric constant: 7.2) occupying 0.817971 of unit cell:	Completed after 1 iterations at t[s]:    304.76
	Linear fluid (dielectric constant: 7.2) occupying 0.817971 of unit cell:	Completed after 0 iterations at t[s]:    305.55
	FillingsUpdate:  mu: -0.120079715  nElectrons: 355.000000
	SubspaceRotationAdjust: set factor to 0.465
ElecMinimize: Iter:  12  F: -593.302198125497739  |grad|_K:  4.049e-08  alpha:  5.632e-01  linmin:  2.841e-06  t[s]:    306.64
	Linear fluid (dielectric constant: 7.2) occupying 0.817971 of unit cell:	Completed after 1 iterations at t[s]:    307.44
	Linear fluid (dielectric constant: 7.2) occupying 0.817971 of unit cell:	Completed after 0 iterations at t[s]:    308.23
	FillingsUpdate:  mu: -0.120074805  nElectrons: 355.000000
	SubspaceRotationAdjust: set factor to 0.421
ElecMinimize: Iter:  13  F: -593.302198155365772  |grad|_K:  2.505e-08  alpha:  5.173e-01  linmin:  3.783e-07  t[s]:    309.32
	Linear fluid (dielectric constant: 7.2) occupying 0.817971 of unit cell:	Completed after 0 iterations at t[s]:    310.14
	Linear fluid (dielectric constant: 7.2) occupying 0.817971 of unit cell:	Completed after 0 iterations at t[s]:    310.94
	FillingsUpdate:  mu: -0.120076458  nElectrons: 355.000000
	SubspaceRotationAdjust: set factor to 0.45
ElecMinimize: Iter:  14  F: -593.302198166660787  |grad|_K:  1.290e-08  alpha:  5.016e-01  linmin: -1.383e-06  t[s]:    311.98
	Linear fluid (dielectric constant: 7.2) occupying 0.817971 of unit cell:	Completed after 0 iterations at t[s]:    312.77
	Linear fluid (dielectric constant: 7.2) occupying 0.817971 of unit cell:	Completed after 0 iterations at t[s]:    313.55
	FillingsUpdate:  mu: -0.120076453  nElectrons: 355.000000
[...]
ElecMinimize: Converged (|Delta F|<1.000000e-08 for 2 iters).
Setting wave functions to eigenvectors of Hamiltonian

Computing DFT-D3 correction:
# coordination-number C 3.301 3.301 3.303 3.301 3.302 3.301 3.301 3.300 3.338 3.301 3.301 3.303 3.300 3.300 3.347 3.301 3.301 3.310 3.301 3.298 3.318 3.301 3.301 3.305 3.300 3.302 3.301 3.301 3.304 3.301 3.300 3.307 3.299 3.300 3.307 3.299 3.301 3.301 3.301 3.301 3.311 3.300 3.303 3.301 3.300 3.300 3.372 3.301 3.301 3.297 3.300 3.301 3.301 3.301 3.288 3.295 3.300 3.288 3.291 3.301 3.301 3.311 3.300 3.301 3.305 3.301 3.300 3.318 3.301 3.300 3.299
# coordination-number N 3.219
# coordination-number S 2.358 2.366 1.989 2.745 2.370 1.949 2.319 2.851
# coordination-number Na 4.770 2.450
# diagonal-C6 C 24.28 24.28 24.25 24.28 24.27 24.27 24.27 24.28 23.88 24.27 24.27 24.25 24.28 24.28 23.78 24.27 24.28 24.19 24.28 24.30 24.10 24.27 24.27 24.24 24.28 24.26 24.28 24.27 24.25 24.27 24.28 24.22 24.29 24.28 24.21 24.29 24.28 24.27 24.28 24.28 24.17 24.28 24.25 24.27 24.28 24.28 23.48 24.28 24.27 24.31 24.28 24.27 24.27 24.27 24.39 24.33 24.28 24.40 24.37 24.27 24.28 24.17 24.28 24.27 24.24 24.28 24.28 24.11 24.27 24.28 24.29
# diagonal-C6 N 15.60
# diagonal-C6 S 125.82 125.82 125.91 125.81 125.82 125.94 125.82 125.81
# diagonal-C6 Na 186.11 186.11
EvdW_6 =   -0.072598
EvdW_8 =   -0.065213

-------- Electronic minimization -----------
	Linear fluid (dielectric constant: 7.2) occupying 0.817094 of unit cell:	Completed after 4 iterations at t[s]:   4085.83
	FillingsUpdate:  mu: -0.116923586  nElectrons: 355.000000
ElecMinimize: Iter:   0  F: -593.305832441235111  |grad|_K:  6.868e-07  alpha:  1.000e+00
	Linear fluid (dielectric constant: 7.2) occupying 0.817094 of unit cell:	Completed after 2 iterations at t[s]:   4087.82
	Linear fluid (dielectric constant: 7.2) occupying 0.817094 of unit cell:	Completed after 1 iterations at t[s]:   4088.63
	FillingsUpdate:  mu: -0.116930762  nElectrons: 355.000000
	SubspaceRotationAdjust: set factor to 0.389
ElecMinimize: Iter:   1  F: -593.305847097423566  |grad|_K:  2.903e-07  alpha:  8.573e-01  linmin:  1.416e-05  t[s]:   4089.70
	Linear fluid (dielectric constant: 7.2) occupying 0.817094 of unit cell:	Completed after 4 iterations at t[s]:   4090.52
	Linear fluid (dielectric constant: 7.2) occupying 0.817094 of unit cell:	Completed after 2 iterations at t[s]:   4091.37
	FillingsUpdate:  mu: -0.116929771  nElectrons: 355.000000
	SubspaceRotationAdjust: set factor to 0.271
ElecMinimize: Iter:   2  F: -593.305848695430313  |grad|_K:  1.606e-07  alpha:  5.221e-01  linmin:  5.750e-05  t[s]:   4092.42
	Linear fluid (dielectric constant: 7.2) occupying 0.817094 of unit cell:	Completed after 1 iterations at t[s]:   4093.22
	Linear fluid (dielectric constant: 7.2) occupying 0.817094 of unit cell:	Completed after 1 iterations at t[s]:   4094.03
	FillingsUpdate:  mu: -0.116932180  nElectrons: 355.000000
	SubspaceRotationAdjust: set factor to 0.215
ElecMinimize: Iter:   3  F: -593.305849314808597  |grad|_K:  8.470e-08  alpha:  6.660e-01  linmin:  6.540e-05  t[s]:   4095.11
	Linear fluid (dielectric constant: 7.2) occupying 0.817094 of unit cell:	Completed after 1 iterations at t[s]:   4095.92
	Linear fluid (dielectric constant: 7.2) occupying 0.817094 of unit cell:	Completed after 0 iterations at t[s]:   4096.71
	FillingsUpdate:  mu: -0.116931008  nElectrons: 355.000000
	SubspaceRotationAdjust: set factor to 0.299
ElecMinimize: Iter:   4  F: -593.305849488442618  |grad|_K:  4.616e-08  alpha:  6.704e-01  linmin: -7.112e-05  t[s]:   4097.75
	Linear fluid (dielectric constant: 7.2) occupying 0.817094 of unit cell:	Completed after 1 iterations at t[s]:   4098.54
	Linear fluid (dielectric constant: 7.2) occupying 0.817094 of unit cell:	Completed after 0 iterations at t[s]:   4099.33
	FillingsUpdate:  mu: -0.116930299  nElectrons: 355.000000
	SubspaceRotationAdjust: set factor to 0.33
ElecMinimize: Iter:   5  F: -593.305849541608836  |grad|_K:  2.956e-08  alpha:  6.851e-01  linmin: -3.919e-04  t[s]:   4100.37
	Linear fluid (dielectric constant: 7.2) occupying 0.817094 of unit cell:	Completed after 0 iterations at t[s]:   4101.20
	Linear fluid (dielectric constant: 7.2) occupying 0.817094 of unit cell:	Completed after 0 iterations at t[s]:   4101.99
	FillingsUpdate:  mu: -0.116930960  nElectrons: 355.000000
	SubspaceRotationAdjust: set factor to 0.428
ElecMinimize: Iter:   6  F: -593.305849561192986  |grad|_K:  1.957e-08  alpha:  6.048e-01  linmin:  1.017e-04  t[s]:   4103.03
	Linear fluid (dielectric constant: 7.2) occupying 0.817094 of unit cell:	Completed after 0 iterations at t[s]:   4103.81
	Linear fluid (dielectric constant: 7.2) occupying 0.817094 of unit cell:	Completed after 0 iterations at t[s]:   4104.59
	FillingsUpdate:  mu: -0.116930832  nElectrons: 355.000000
	SubspaceRotationAdjust: set factor to 0.56
ElecMinimize: Iter:   7  F: -593.305849570398209  |grad|_K:  1.008e-08  alpha:  6.552e-01  linmin: -1.798e-03  t[s]:   4105.61
	Linear fluid (dielectric constant: 7.2) occupying 0.817094 of unit cell:	Completed after 0 iterations at t[s]:   4106.42
	Linear fluid (dielectric constant: 7.2) occupying 0.817094 of unit cell:	Completed after 0 iterations at t[s]:   4107.19
	FillingsUpdate:  mu: -0.116930825  nElectrons: 355.000000
	SubspaceRotationAdjust: set factor to 0.67
ElecMinimize: Iter:   8  F: -593.305849573668411  |grad|_K:  7.790e-09  alpha:  7.825e-01  linmin: -3.883e-05  t[s]:   4108.29
ElecMinimize: Converged (|Delta F|<1.000000e-08 for 2 iters).
Setting wave functions to eigenvectors of Hamiltonian

Computing DFT-D3 correction:
# coordination-number C 3.301 3.301 3.303 3.301 3.302 3.301 3.301 3.300 3.338 3.301 3.301 3.303 3.300 3.300 3.347 3.301 3.301 3.310 3.301 3.298 3.318 3.301 3.301 3.305 3.300 3.302 3.301 3.301 3.304 3.301 3.300 3.307 3.299 3.300 3.307 3.299 3.301 3.301 3.301 3.301 3.311 3.300 3.303 3.301 3.300 3.300 3.372 3.301 3.301 3.297 3.300 3.301 3.301 3.301 3.288 3.295 3.300 3.288 3.291 3.301 3.301 3.311 3.300 3.301 3.305 3.301 3.300 3.318 3.301 3.300 3.299
# coordination-number N 3.219
# coordination-number S 2.358 2.366 1.989 2.745 2.370 1.949 2.319 2.851
# coordination-number Na 4.770 2.450
# diagonal-C6 C 24.28 24.28 24.25 24.28 24.27 24.27 24.27 24.28 23.88 24.27 24.27 24.25 24.28 24.28 23.78 24.27 24.28 24.19 24.28 24.30 24.10 24.27 24.27 24.24 24.28 24.26 24.28 24.27 24.25 24.27 24.28 24.22 24.29 24.28 24.21 24.29 24.28 24.27 24.28 24.28 24.17 24.28 24.25 24.27 24.28 24.28 23.48 24.28 24.27 24.31 24.28 24.27 24.27 24.27 24.39 24.33 24.28 24.40 24.37 24.27 24.28 24.17 24.28 24.27 24.24 24.28 24.28 24.11 24.27 24.28 24.29
# diagonal-C6 N 15.60
# diagonal-C6 S 125.82 125.82 125.91 125.81 125.82 125.94 125.82 125.81
# diagonal-C6 Na 186.11 186.11
EvdW_6 =   -0.072598
EvdW_8 =   -0.065213

# Ionic positions in cartesian coordinates:
ion C  28.010542013705631   0.002014969601156   0.635465203747167 0
ion C  16.341968157882292  20.214705522223607   0.636370795694031 0
ion C   2.338532027351695   4.042411505399060   0.630361847754816 0
ion C  23.343313188735969   0.002278716019722   0.640022467239564 0
ion C   4.672620934470559   0.001554156700161   0.632050616002296 0
ion C  11.674116326115334  20.215100669694028   0.619847495055023 0
ion C  25.676530282256284   4.042904097616445   0.653564930084009 0
ion C  18.675851376129700  16.172910511284943   0.662695583431347 0
ion C   4.671777948336020   8.082036709586005   0.612564386226399 0
ion C  18.676336142016080   0.002101964498535   0.651180333522277 0
ion C   9.339850970925752   0.001738039847832   0.641511836963307 0
ion C   9.341212652353351  16.175613291750459   0.599279306155555 0
ion C  23.342941439729607   8.084920466015539   0.683240254571249 0
ion C  21.009110272076708  12.128959849493356   0.688453340004557 0
ion C   7.009085367604252  12.128528685817338   0.597262204671189 0
ion C  14.008105470077210   0.001988816408382   0.654008834012114 0
ion C  14.009120976896664  16.174984627607692   0.629938477890011 0
ion C   7.005550759074101   4.041176716120078   0.616350899393808 0
ion C  21.010101094155836   4.043302536041172   0.668670850704729 0
ion C  16.344445762465487  12.130683361169906   0.668518806438794 0
ion C   9.337643998902927   8.081728763982859   0.614931622729934 0
ion C  16.343783017314891   4.042062713362387   0.668836182024798 0
ion C  11.674085450205249   4.041278849785761   0.642196060576936 0
ion C  11.675597583834264  12.133622242506720   0.630068253549407 0
ion C  18.678074956154809   8.085220585829878   0.685769374381508 0
ion C   7.007175797728255  20.216155157604103   0.619709324068161 0
ion C  -6.996748017889799  20.214440105700564   0.653094683289385 0
ion C   0.002354623270169   8.082966457809835   0.657418822396948 0
ion C  14.012576459862725   8.083203697825988   0.669712893069494 0
ion C   2.339067441062872  20.216465077180068   0.646220757178249 0
ion C  -4.663670527593792  16.172490992184059   0.678596642017759 0
ion C   2.336125814129785  12.127745765919109   0.656417500003109 0
ion C  -2.332224039758668  12.128030282589300   0.685859862245795 0
ion C  -2.329659352792410  20.215194179952768   0.659830322184195 0
ion C   4.673933801454849  16.177740252210711   0.625359734501050 0
ion C   0.002990588629148  16.174656174657997   0.666554428718456 0
ion C  14.008266720144102  21.561374576259517   0.629777200837147 0
ion C   2.338930816614256   1.348570645432834   0.632009758527847 0
ion C  25.677100562977380   1.348988124751942   0.641986895200073 0
ion C  16.342686998612663  17.520648868856785   0.642302048336074 0
ion C   4.672307145938162   5.388219921962990   0.616057256550324 0
ion C  21.010123495302889   1.349044430338556   0.652394834146865 0
ion C   7.005937845436384   1.348033936218268   0.628031389286509 0
ion C  11.674692189550257  17.521226022139913   0.612057705166649 0
ion C  23.343784883173043   5.390651685198355   0.669612389866280 0
ion C  18.676972543384359  13.478483594758318   0.675595907033575 0
ion C   7.004963348139576   9.432115986525980   0.597538283264729 0
ion C  16.342472076605748   1.348066366442404   0.659130179870282 0
ion C  11.673522256343780   1.347802312891912   0.646547034509048 0
ion C   9.340696631175403  13.481256291567631   0.599303874261302 0
ion C  21.010487586627971   9.434228317035956   0.689549670827176 0
ion C   9.340862584041272  21.562275316056120   0.623251203387415 0
ion C  -9.330262385564788  21.561165527783945   0.640491424243255 0
ion C   0.004476893676090   5.389148113018151   0.645932445799481 0
ion C  14.011432130181314  13.480719160062115   0.643556882023976 0
ion C   9.339051356617166   5.386992451363917   0.621078239496768 0
ion C  18.677007069088155   5.390558998944344   0.676741055188348 0
ion C  16.345725884609092   9.434637493571932   0.679131999516677 0
ion C  14.009428395823310   5.387478001177438   0.662736904438848 0
ion C   4.673293824799767  21.561882602550448   0.637519226383223 0
ion C  -6.996841473985329  17.520066852095106   0.666346621047357 0
ion C   2.337134667876788   9.428913976861832   0.643387178107247 0
ion C  -2.330217064543965   9.432650452790400   0.678563548363968 0
ion C  -4.663349535264295  21.561481505082671   0.652392573786173 0
ion C   7.008365318233412  17.523060541264897   0.607450639135720 0
ion C   0.004487123343837  21.561671103490092   0.654109318198199 0
ion C  -4.664147187494722  13.477588422800194   0.688047082736968 0
ion C   4.674619807111762  13.479414560663223   0.625188064189185 0
ion C   2.338448909138405  17.522455183042435   0.645633689115609 0
ion C  -2.330712054942804  17.520790606615741   0.670058696770369 0
ion C   0.000363098194401  13.478789474313889   0.675559226948007 0
ion N  11.674484029805171   9.432912355349794   0.644194404697448 0
ion S  11.763155454968004   5.336968448220720  10.326250273100648 1
ion S   7.574483398238964   4.954982138411871  10.521971432751490 1
ion S   6.198869792882777   4.753688905166409   7.046509692228560 1
ion S   5.678594437865713  11.697349148725014  12.053566662485411 1
ion S   5.623518671369473  15.280542672377235  10.746980221400209 1
ion S   5.398664659541087  15.492894870061340   6.991152085705552 1
ion S  12.526967493429897   7.172563318357798   7.049715641637668 1
ion S  11.636207395219321  10.933770359165331   7.221702176989759 1
ion Na   6.320515316898239  10.107489880074253   6.888239241463379 1
ion Na  11.235892082234777  11.362977830917732  12.601365140345647 1

# Forces in Cartesian coordinates:
force C  -0.000386714662547   0.000429319820490   0.000301051348661 0
force C  -0.000766044167484   0.000154907802399   0.000456631895024 0
force C  -0.000306309802351  -0.000192532065405   0.000453949720265 0
force C   0.000858290626512   0.000371153573525   0.000335411900369 0
force C  -0.000538872113636   0.000641540897295   0.000226067239807 0
force C   0.000191495861258   0.000256579711850   0.000446546148880 0
force C   0.000310654984239  -0.000770335088775   0.000360626969181 0
force C  -0.000135094640560   0.001814339932962   0.000283771356108 0
force C   0.000561332888848  -0.004296465843604   0.000767872167771 0
force C   0.000568448230536   0.000450023591341   0.000274145156826 0
force C  -0.001931610938036  -0.000744527750969   0.000216328503983 0
force C   0.004475657790070   0.000220559932085   0.000467428038964 0
force C  -0.000176338741920  -0.000526445681109  -0.000029806071593 0
force C   0.001625863107590  -0.000862321978286   0.000029458133390 0
force C  -0.006196595264526   0.004958688902854   0.000403022323387 0
force C   0.001489844321898  -0.000774635229973   0.000257425552261 0
force C  -0.004748453021486   0.000357618379910   0.000457031205888 0
force C  -0.002839345712005   0.003323750672521  -0.000159887157834 0
force C   0.000288482297871  -0.000098557152650   0.000176793859052 0
force C   0.004504836830209   0.002849019647834   0.000364589033988 0
force C   0.008145275995653   0.003434341888036   0.001242893727744 0
force C   0.002734828718409   0.003706242134983   0.000113794260562 0
force C  -0.000108230165337  -0.005593953453437   0.000519346880526 0
force C   0.000163805498197  -0.007688453610780   0.000317685610308 0
force C  -0.001699177818979  -0.004159549719307  -0.000127849482726 0
force C   0.000839297273732   0.000048825425780   0.000424653670051 0
force C  -0.001729847232162   0.000911068124663   0.000326518644774 0
force C   0.000660781558117  -0.000459238841951   0.000317734299121 0
force C  -0.007180895916876   0.004445198885237  -0.000144181041878 0
force C   0.001575419056237   0.000377500040059   0.000145395939990 0
force C   0.000230620006593   0.000005651106036   0.000058619053768 0
force C  -0.000736488163669  -0.000057071899505  -0.000476290844214 0
force C   0.000785064596012  -0.001458778685801   0.000002053172868 0
force C   0.000084504569985  -0.000348576029306   0.000304866819829 0
force C  -0.000158812244375   0.000197711533558  -0.000077375510405 0
force C   0.000420381475965  -0.000385149797548   0.000078017144037 0
force C   0.000019901526443  -0.000237583618995   0.000468315057392 0
force C   0.000380231942637  -0.000134292050623   0.000450295616223 0
force C  -0.000058472336361  -0.000077468713746   0.000522360035977 0
force C   0.001270698128375  -0.001099132563408   0.000525035959661 0
force C   0.000553323248429  -0.000213005697225   0.000152090209508 0
force C  -0.000610741797498   0.000097879098559   0.000495684189859 0
force C   0.001741406465388  -0.000660011340802   0.000483181585090 0
force C   0.000112780874021  -0.000686763395794   0.000719249081754 0
force C  -0.000520171557369   0.000375548168377   0.000305187355194 0
force C  -0.004513195517514  -0.002879791293937   0.000135601605718 0
force C   0.010688881975459   0.002622841322864   0.001081231384695 0
force C  -0.001710044459523  -0.000483463886270   0.000121461057348 0
force C   0.000223391872160   0.005254500267830   0.000453926152319 0
force C   0.003949231993993  -0.010550076948624   0.000340916340054 0
force C  -0.000473953266259   0.001509216870070   0.000047226564782 0
force C  -0.000369406905800  -0.000371096849468   0.000530067864690 0
force C   0.001481231882344  -0.000515917526825   0.000490300728442 0
force C   0.000059062954677   0.000353461116426   0.000424444894650 0
force C  -0.003642136234202  -0.010789561847093   0.000219403155867 0
force C   0.007566262207315   0.007688683478649   0.000351620813774 0
force C  -0.000565824806264   0.000367815750263   0.000192829990786 0
force C  -0.010475771665029   0.002496520579571   0.000255697981973 0
force C  -0.007231612482061   0.007464782565971  -0.000188747480028 0
force C  -0.001444158907218  -0.000701583614285   0.000497037082636 0
force C  -0.000376838842079  -0.001203318664397   0.000326867815550 0
force C  -0.000230188048912   0.003776356038106   0.000142026209362 0
force C   0.000139558702180   0.001803008285862   0.000248124621384 0
force C   0.000887353415147   0.001207247466964   0.000437407393678 0
force C  -0.001849727350414  -0.001238481757069   0.000444184997826 0
force C  -0.000706064992624   0.001123410839325   0.000430017616387 0
force C  -0.001240835562772  -0.000050366532965   0.000057055293652 0
force C   0.002623863770012  -0.003045793289771  -0.000111077262773 0
force C   0.000273274000827  -0.001658763120928   0.000557922134260 0
force C   0.000404580607713  -0.000098724475208   0.000310116405973 0
force C   0.002765915461344  -0.000626126554052  -0.000173153854109 0
force N   0.000190558975753   0.000468013075855  -0.000933544666114 0
force S  -0.000238988086925   0.000009173836045   0.000061502075031 1
force S   0.000029251603764   0.000062815785436   0.000090021872157 1
force S   0.000015758235573  -0.000139193495986   0.000035662936104 1
force S  -0.000128925582012  -0.000256264645053  -0.000064419057512 1
force S   0.000071547536282   0.000376953261960   0.000209946578425 1
force S   0.000031111782403   0.000009661050162  -0.000127284780031 1
force S  -0.000123200876205   0.000605748096489  -0.000030332972623 1
force S   0.000073107660147  -0.000546215508646  -0.000125311427505 1
force Na   0.000102253074102   0.000137179839786   0.000038594353088 1
force Na   0.000007834602093   0.000011992291959   0.000016519839684 1

# Energy components:
   A_diel =       -0.0538833861768762
   Eewald =     5275.5665408831810055
       EH =     5749.6761980785477135
     Eloc =   -11670.5030276269862952
      Enl =      -70.8902635012498479
     EvdW =       -0.1378111455701551
      Exc =     -179.4385484239610378
 Exc_core =       16.6214481063461577
       KE =      285.9423474070756583
-------------------------------------
     Etot =     -593.2169996087932304
       TS =        0.0888499648752207
-------------------------------------
        F =     -593.3058495736684108

IonicMinimize: Iter:  46  F: -593.305849573668411  |grad|_K:  1.935e-04  alpha:  3.287e+00  linmin: -1.724e-03  t[s]:   4111.46
IonicMinimize: Converged (|Delta F|<1.000000e-06 for 2 iters).

#--- Lowdin population analysis ---
# oxidation-state C +0.042 +0.042 +0.041 +0.042 +0.044 +0.042 +0.041 +0.043 +0.028 +0.043 +0.046 +0.045 +0.042 +0.043 +0.034 +0.044 +0.044 +0.046 +0.041 +0.051 +0.140 +0.043 +0.051 +0.151 +0.043 +0.044 +0.043 +0.040 +0.142 +0.045 +0.042 +0.038 +0.042 +0.043 +0.042 +0.043 +0.042 +0.043 +0.038 +0.043 +0.038 +0.042 +0.047 +0.042 +0.042 +0.037 +0.009 +0.044 +0.039 +0.032 +0.043 +0.043 +0.041 +0.042 +0.035 +0.036 +0.041 +0.031 +0.032 +0.042 +0.041 +0.035 +0.040 +0.042 +0.045 +0.042 +0.041 +0.031 +0.044 +0.037 +0.041
# oxidation-state N +0.006
# oxidation-state S -0.038 +0.091 -0.321 -0.407 +0.289 -0.326 +0.154 -0.470
# oxidation-state Na +0.691 +0.852


Dumping 'Na2S8@N_graphene-glyme.fillings' ... done
Dumping 'Na2S8@N_graphene-glyme.wfns' ... done
Dumping 'Na2S8@N_graphene-glyme.fluidState' ... done
Dumping 'Na2S8@N_graphene-glyme.ionpos' ... done
Dumping 'Na2S8@N_graphene-glyme.eigenvals' ... done
End date and time: Sun Sep 29 07:12:07 2024  (Duration: 0-1:08:33.39)
Done!
