
*************** JDFTx 1.7.0  ***************

Start date and time: Tue Aug 13 06:10:45 2024
Executable jdftx with command-line: -i Na2S@N_graphene-PC-vdw.in -o Na2S@N_graphene-PC-vdw.out
Running on hosts (process indices):  SimSlave (0)
Divided in process groups (process indices):  0 (0)
Resource initialization completed at t[s]:      0.00
Run totals: 1 processes, 2 threads, 0 GPUs


Input parsed successfully to the following command list (including defaults):

basis kpoint-dependent
coords-type Cartesian
core-overlap-check vector
coulomb-interaction Slab 001
coulomb-truncation-embed 0 0 4
davidson-band-ratio 1.1
dump End State
dump-name Na2S@N_graphene-PC-vdw.$VAR
elec-cutoff 20 100
elec-eigen-algo Davidson
elec-ex-corr gga-PBE
elec-smearing Fermi 0.01
electronic-minimize  \
	dirUpdateScheme      FletcherReeves \
	linminMethod         DirUpdateRecommended \
	nIterations          100 \
	history              15 \
	knormThreshold       0 \
	energyDiffThreshold  1e-08 \
	nEnergyDiff          2 \
	alphaTstart          1 \
	alphaTmin            1e-10 \
	updateTestStepSize   yes \
	alphaTreduceFactor   0.1 \
	alphaTincreaseFactor 3 \
	nAlphaAdjustMax      3 \
	wolfeEnergy          0.0001 \
	wolfeGradient        0.9 \
	fdTest               no
electronic-scf  \
	nIterations	50 \
	energyDiffThreshold	1e-08 \
	residualThreshold	1e-07 \
	mixFraction	0.5 \
	qMetric	0.8 \
	history	10 \
	nEigSteps	2 \
	eigDiffThreshold	1e-08 \
	mixedVariable	Density \
	qKerker	0.8 \
	qKappa	-1 \
	verbose	no \
	mixFractionMag	1.5
exchange-regularization WignerSeitzTruncated
fluid LinearPCM 298.000000 1.013250
fluid-ex-corr lda-TF lda-PZ
fluid-gummel-loop 10 1.000000e-05
fluid-minimize  \
	dirUpdateScheme      PolakRibiere \
	linminMethod         DirUpdateRecommended \
	nIterations          400 \
	history              15 \
	knormThreshold       1e-11 \
	energyDiffThreshold  0 \
	nEnergyDiff          2 \
	alphaTstart          1 \
	alphaTmin            1e-10 \
	updateTestStepSize   yes \
	alphaTreduceFactor   0.1 \
	alphaTincreaseFactor 3 \
	nAlphaAdjustMax      6 \
	wolfeEnergy          0.0001 \
	wolfeGradient        0.9 \
	fdTest               no
fluid-solvent PC 11.6429 ScalarEOS \
	epsBulk 64 \
	pMol 2.95 \
	epsInf 2.02 \
	Pvap 1.53277e-13 \
	sigmaBulk 2.88e-05 \
	Rvdw 0 \
	Res 0 \
	tauNuc 343133
forces-output-coords Positions
ion C   0.000000000000000   0.000000000000000   3.000003066900000 0
ion C  -2.333835447300000   4.042302545699999   3.000003066900000 0
ion C  11.669139441899999  20.211550523099998   3.000003066900000 0
ion C   4.667670894600000   0.000000000000000   3.000003066900000 0
ion C  23.338278883799997   0.000000000000000   3.000003066900000 0
ion C   2.333835447300000   4.042302545699999   3.000003066900000 0
ion C -11.669158339199999  20.211550523099998   3.000003066900000 0
ion C  -4.667670894600000   8.084623988700001   3.000003066900000 0
ion C   9.335303994599997  16.169229080099999   3.000003066900000 0
ion C   9.335322891900001   0.000000000000000   3.000003066900000 0
ion C  18.670626886499999   0.000000000000000   3.000003066900000 0
ion C   4.667670894599999   8.084623988700001   3.000003066900000 0
ion C  -9.335322891900001  16.169229080099999   3.000003066900000 0
ion C  -7.001487444600001  12.126926534399997   3.000003066900000 0
ion C  14.002993786499999   0.000000000000000   3.000003066900000 0
ion C   0.000000000000000   8.084623988700001   3.000003066900000 0
ion C   7.001468547300002  20.211550523099998   3.000003066900000 0
ion C  -7.001487444599999  20.211550523099998   3.000003066900000 0
ion C  -2.333835447300000  12.126926534399997   3.000003066900000 0
ion C   4.667633100000000  16.169229080099999   3.000003066900000 0
ion C  -2.333835447299998  20.211550523099998   3.000003066900000 0
ion C   2.333835447299998  20.211550523099998   3.000003066900000 0
ion C   2.333835447300001  12.126926534399997   3.000003066900000 0
ion C  -4.667651997299997  16.169229080099999   3.000003066900000 0
ion C   7.001468547300000   4.042302545699999   3.000003066900000 0
ion C  21.004424539199999   4.042302545699999   3.000003066900000 0
ion C  14.002955991899999  16.169229080099999   3.000003066900000 0
ion C   0.000000000000000  16.169229080099999   3.000003066900000 0
ion C  11.669120544600000   4.042302545699999   3.000003066900000 0
ion C  18.670626886500003   8.084623988700001   3.000003066900000 0
ion C  11.669120544600002  12.126926534399997   3.000003066900000 0
ion C  16.336791439199995  12.126926534399997   3.000003066900000 0
ion C  16.336791439199999   4.042302545699999   3.000003066900000 0
ion C   9.335303994599997   8.084623988700001   3.000003066900000 0
ion C  14.002955991899999   8.084623988700001   3.000003066900000 0
ion C   0.000018897300000   2.694868363800000   3.000003066900000 0
ion C  11.669139441899999  22.906399989600001   3.000003066900000 0
ion C -11.669139441899999  22.906399989600001   3.000003066900000 0
ion C  -2.333816550000000   6.737170909500000   3.000003066900000 0
ion C   9.335322891900001  18.864097443900000   3.000003066900000 0
ion C  -7.001468547300000  22.906399989600001   3.000003066900000 0
ion C   7.001487444600000  22.906399989600001   3.000003066900000 0
ion C   2.333816550000000   6.737170909500000   3.000003066900000 0
ion C  -9.335303994599998  18.864097443900000   3.000003066900000 0
ion C  -4.667651997299998  10.779473455200000   3.000003066900000 0
ion C   7.001487444599997  14.821794898200000   3.000003066900000 0
ion C  -2.333835447300000  22.906399989600001   3.000003066900000 0
ion C   2.333816550000000  22.906399989600001   3.000003066900000 0
ion C   4.667651997299999  10.779473455200000   3.000003066900000 0
ion C  -7.001468547300004  14.821794898200000   3.000003066900000 0
ion C   4.667651997300001   2.694868363800000   3.000003066900000 0
ion C  23.338259986499999   2.694868363800000   3.000003066900000 0
ion C  14.002955991899997  18.864097443900000   3.000003066900000 0
ion C   0.000018897300000  10.779473455200000   3.000003066900000 0
ion C   4.667651997299995  18.864097443900000   3.000003066900000 0
ion C  -4.667651997300002  18.864097443900000   3.000003066900000 0
ion C  -2.333816550000002  14.821794898200000   3.000003066900000 0
ion C   2.333816549999996  14.821794898200000   3.000003066900000 0
ion C  -0.000018897300000  18.864097443900000   3.000003066900000 0
ion C   9.335303994599998   2.694868363800000   3.000003066900000 0
ion C  21.004443436500001   6.737170909500000   3.000003066900000 0
ion C  11.669139441899999  14.821794898200000   3.000003066900000 0
ion C  16.336772541899997  14.821794898200000   3.000003066900000 0
ion C  18.670607989199997   2.694868363800000   3.000003066900000 0
ion C   7.001487444600001   6.737170909500000   3.000003066900000 0
ion C  14.002974889200001   2.694868363800000   3.000003066900000 0
ion C  18.670607989200004  10.779473455200000   3.000003066900000 0
ion C   9.335303994599997  10.779473455200000   3.000003066900000 0
ion C  11.669139441899997   6.737170909500000   3.000003066900000 0
ion C  16.336772541900000   6.737170909500000   3.000003066900000 0
ion C  14.002974889200004  10.779473455200000   3.000003066900000 0
ion N   7.001468547300003  12.126926534399997   3.000003066900000 0
ion S   6.708269959493291  11.247237973426726  10.236952371164678 1
ion Na   2.394255621307741  10.715704291261773   8.241511407168884 1
ion Na  11.076347781091513  11.126061407119943   8.270455562905186 1
ion-species GBRV/$ID_pbe.uspp
ion-width Ecut
ionic-minimize  \
	dirUpdateScheme      FletcherReeves \
	linminMethod         DirUpdateRecommended \
	nIterations          200 \
	history              15 \
	knormThreshold       0.0001 \
	energyDiffThreshold  1e-06 \
	nEnergyDiff          2 \
	alphaTstart          1 \
	alphaTmin            1e-10 \
	updateTestStepSize   yes \
	alphaTreduceFactor   0.1 \
	alphaTincreaseFactor 3 \
	nAlphaAdjustMax      3 \
	wolfeEnergy          0.0001 \
	wolfeGradient        0.9 \
	fdTest               no
kpoint   0.000000000000   0.000000000000   0.000000000000  1.00000000000000
kpoint-folding 1 1 1 
latt-move-scale 1 1 1
latt-scale 1 1 1 
lattice Triclinic 28.0058 28.0058 37.7946 90 90 120
lattice-minimize  \
	dirUpdateScheme      L-BFGS \
	linminMethod         DirUpdateRecommended \
	nIterations          0 \
	history              15 \
	knormThreshold       0 \
	energyDiffThreshold  1e-06 \
	nEnergyDiff          2 \
	alphaTstart          1 \
	alphaTmin            1e-10 \
	updateTestStepSize   yes \
	alphaTreduceFactor   0.1 \
	alphaTincreaseFactor 3 \
	nAlphaAdjustMax      3 \
	wolfeEnergy          0.0001 \
	wolfeGradient        0.9 \
	fdTest               no
lcao-params -1 1e-06 0.01
pcm-variant GLSSA13
spintype no-spin
subspace-rotation-factor 1 yes
symmetries automatic
symmetry-threshold 0.0001
van-der-waals D3



---------- Setting up symmetries ----------

Found 24 point-group symmetries of the bravais lattice
Found 1 space-group symmetries with basis
Applied RMS atom displacement 0 bohrs to make symmetries exact.

---------- Initializing the Grid ----------
R = 
[      28.0058     -14.0029            0  ]
[            0      24.2537            0  ]
[            0            0      37.7946  ]
unit cell volume = 25671.8
G =
[   0.224353    0.12953         -0  ]
[          0   0.259061          0  ]
[          0         -0   0.166246  ]
Minimum fftbox size, Smin = [  128  128  172  ]
Chosen fftbox size, S = [  128  128  180  ]

---------- Initializing tighter grid for wavefunction operations ----------
R = 
[      28.0058     -14.0029            0  ]
[            0      24.2537            0  ]
[            0            0      37.7946  ]
unit cell volume = 25671.8
G =
[   0.224353    0.12953         -0  ]
[          0   0.259061          0  ]
[          0         -0   0.166246  ]
Minimum fftbox size, Smin = [  116  116  156  ]
Chosen fftbox size, S = [  120  120  160  ]

---------- Exchange Correlation functional ----------
Initalized PBE GGA exchange.
Initalized PBE GGA correlation.

---------- Setting up pseudopotentials ----------
Width of ionic core gaussian charges (only for fluid interactions / plotting) set to 0.397384

Reading pseudopotential file '/home/simslave2427/jdftx_install/build/pseudopotentials/GBRV/c_pbe.uspp':
  Title: C.  Created by USPP 7.3.6 on 3-2-2014
  Reference state energy: -5.406344.  4 valence electrons in orbitals:
    |200>  occupation: 2  eigenvalue: -0.504890
    |210>  occupation: 2  eigenvalue: -0.194356
  lMax: 1  lLocal: 2  QijEcut: 5
  4 projectors sampled on a log grid with 503 points:
    l: 0  eig: -0.504890  rCut: 1.3
    l: 0  eig: 0.000000  rCut: 1.3
    l: 1  eig: -0.194357  rCut: 1.3
    l: 1  eig: 0.000000  rCut: 1.3
  Partial core density with radius 1.1
  Transforming core density to a uniform radial grid of dG=0.02 with 1625 points.
  Transforming local potential to a uniform radial grid of dG=0.02 with 1625 points.
  Transforming nonlocal projectors to a uniform radial grid of dG=0.02 with 432 points.
  Transforming density augmentations to a uniform radial grid of dG=0.02 with 1625 points.
  Transforming atomic orbitals to a uniform radial grid of dG=0.02 with 432 points.
  Core radius for overlap checks: 1.30 bohrs.

Reading pseudopotential file '/home/simslave2427/jdftx_install/build/pseudopotentials/GBRV/n_pbe.uspp':
  Title: N.  Created by USPP 7.3.6 on 3-2-2014
  Reference state energy: -9.763716.  5 valence electrons in orbitals:
    |200>  occupation: 2  eigenvalue: -0.681964
    |210>  occupation: 3  eigenvalue: -0.260726
  lMax: 1  lLocal: 2  QijEcut: 6
  4 projectors sampled on a log grid with 491 points:
    l: 0  eig: -0.681964  rCut: 1.15
    l: 0  eig: 0.000000  rCut: 1.15
    l: 1  eig: -0.260729  rCut: 1.2
    l: 1  eig: 0.500000  rCut: 1.2
  Partial core density with radius 0.8
  Transforming core density to a uniform radial grid of dG=0.02 with 1625 points.
  Transforming local potential to a uniform radial grid of dG=0.02 with 1625 points.
  Transforming nonlocal projectors to a uniform radial grid of dG=0.02 with 432 points.
  Transforming density augmentations to a uniform radial grid of dG=0.02 with 1625 points.
  Transforming atomic orbitals to a uniform radial grid of dG=0.02 with 432 points.
  Core radius for overlap checks: 1.20 bohrs.

Reading pseudopotential file '/home/simslave2427/jdftx_install/build/pseudopotentials/GBRV/s_pbe.uspp':
  Title: S.  Created by USPP 7.3.6 on 1-4-15
  Reference state energy: -11.898476.  6 valence electrons in orbitals:
    |300>  occupation: 2  eigenvalue: -0.634167
    |310>  occupation: 4  eigenvalue: -0.257568
  lMax: 2  lLocal: 3  QijEcut: 6
  6 projectors sampled on a log grid with 635 points:
    l: 0  eig: -0.634161  rCut: 1.5
    l: 0  eig: 1.500000  rCut: 1.5
    l: 1  eig: -0.257567  rCut: 1.5
    l: 1  eig: 1.500000  rCut: 1.5
    l: 2  eig: -1.000000  rCut: 1.5
    l: 2  eig: 1.500000  rCut: 1.5
  Partial core density with radius 1.15
  Transforming core density to a uniform radial grid of dG=0.02 with 1625 points.
  Transforming local potential to a uniform radial grid of dG=0.02 with 1625 points.
  Transforming nonlocal projectors to a uniform radial grid of dG=0.02 with 432 points.
  Transforming density augmentations to a uniform radial grid of dG=0.02 with 1625 points.
  Transforming atomic orbitals to a uniform radial grid of dG=0.02 with 432 points.
  Core radius for overlap checks: 1.50 bohrs.

Reading pseudopotential file '/home/simslave2427/jdftx_install/build/pseudopotentials/GBRV/na_pbe.uspp':
  Title: Na.  Created by USPP 7.3.6 on 23-9-15
  Reference state energy: -47.625620.  9 valence electrons in orbitals:
    |200>  occupation: 2  eigenvalue: -2.085638
    |210>  occupation: 6  eigenvalue: -1.053708
    |300>  occupation: 1  eigenvalue: -0.100838
  lMax: 2  lLocal: 0  QijEcut: 6
  5 projectors sampled on a log grid with 657 points:
    l: 0  eig: -2.085640  rCut: 1.37
    l: 0  eig: -0.100839  rCut: 1.37
    l: 1  eig: -1.053708  rCut: 1.47
    l: 1  eig: 0.500000  rCut: 1.47
    l: 2  eig: 0.750000  rCut: 2
  Transforming local potential to a uniform radial grid of dG=0.02 with 1625 points.
  Transforming nonlocal projectors to a uniform radial grid of dG=0.02 with 432 points.
  Transforming density augmentations to a uniform radial grid of dG=0.02 with 1625 points.
  Transforming atomic orbitals to a uniform radial grid of dG=0.02 with 432 points.
  Core radius for overlap checks: 2.00 bohrs.

Initialized 4 species with 75 total atoms.

Folded 1 k-points by 1x1x1 to 1 k-points.

---------- Setting up k-points, bands, fillings ----------
No reducable k-points. 
Computing the number of bands and number of electrons
Calculating initial fillings.
nElectrons: 313.000000   nBands: 302   nStates: 1

----- Setting up reduced wavefunction bases (one per k-point) -----
average nbasis = 109673.000 , ideal nbasis = 109671.883

---------- Setting up coulomb interaction ----------
Fluid mode embedding: using embedded box, but periodic Coulomb kernel.
(Fluid response is responsible for (approximate) separation between periodic images.)
Setting up double-sized grid for truncated Coulomb potentials:
R = 
[      28.0058     -14.0029            0  ]
[            0      24.2537            0  ]
[            0            0      75.5892  ]
unit cell volume = 51343.6
G =
[   0.224353    0.12953         -0  ]
[          0   0.259061          0  ]
[          0         -0  0.0831228  ]
Chosen fftbox size, S = [  128  128  360  ]
Integer grid location selected as the embedding center:
   Grid: [  0  0  19  ]
   Lattice: [  0  0  0.105835  ]
   Cartesian: [  0  0  4  ]
Constructing Wigner-Seitz cell: 8 faces (6 quadrilaterals, 2 hexagons)
Range-separation parameter for embedded mesh potentials due to point charges: 0.590105 bohrs.

Initializing DFT-D3 calculator:
	Parameters set for gga-PBE functional
	s6:  1.000  s_r6:  1.217
	s8:  0.722  s_r8:  1.000
	Per-atom parameters loaded for:
	 C:  sqrtQ[a0]:  3.105  Rcov[a0]:  1.417  CN: [ 0.00 0.99 2.00 3.00 3.98 ]
	 N:  sqrtQ[a0]:  2.712  Rcov[a0]:  1.342  CN: [ 0.00 0.99 2.01 2.99 ]
	 S:  sqrtQ[a0]:  4.041  Rcov[a0]:  1.928  CN: [ 0.00 0.99 1.99 ]
	Na:  sqrtQ[a0]:  6.586  Rcov[a0]:  2.646  CN: [ 0.00 0.97 ]

---------- Setting up ewald sum ----------
Optimum gaussian width for ewald sums = 7.220412 bohr.
Real space sum over 405 unit cells with max indices [  4  4  2  ]
Reciprocal space sum over 7875 terms with max indices [  7  7  17  ]

Computing DFT-D3 correction:
# coordination-number C 3.300 3.300 3.300 3.300 3.300 3.303 3.300 3.301 3.299 3.300 3.300 3.387 3.300 3.300 3.300 3.389 3.300 3.300 3.318 3.294 3.300 3.300 3.779 3.300 3.301 3.300 3.306 3.306 3.302 3.300 3.802 3.311 3.300 3.379 3.340 3.300 3.300 3.300 3.304 3.301 3.300 3.300 3.356 3.300 3.302 3.314 3.300 3.300 3.607 3.300 3.300 3.300 3.300 3.577 3.300 3.300 3.304 3.346 3.300 3.300 3.300 3.367 3.303 3.300 3.309 3.300 3.301 3.699 3.332 3.302 3.461
# coordination-number N 3.263
# coordination-number S 1.987
# coordination-number Na 2.490 2.449
# diagonal-C6 C 24.29 24.28 24.28 24.29 24.29 24.26 24.28 24.27 24.29 24.29 24.29 23.28 24.28 24.28 24.29 23.25 24.28 24.29 24.10 24.34 24.29 24.28 18.84 24.28 24.27 24.29 24.22 24.23 24.27 24.28 18.74 24.17 24.28 23.38 23.86 24.28 24.29 24.29 24.24 24.28 24.29 24.29 23.68 24.29 24.27 24.15 24.29 24.29 20.19 24.28 24.28 24.29 24.28 20.57 24.28 24.29 24.24 23.79 24.28 24.28 24.28 23.54 24.25 24.29 24.19 24.28 24.27 19.31 23.96 24.26 22.22
# diagonal-C6 N 15.59
# diagonal-C6 S 125.91
# diagonal-C6 Na 186.11 186.11
EvdW_6 =   -0.058476
EvdW_8 =   -0.049511

---------- Allocating electronic variables ----------
Initializing wave functions:  linear combination of atomic orbitals
C pseudo-atom occupations:   s ( 2 )  p ( 2 )
N pseudo-atom occupations:   s ( 2 )  p ( 3 )
S pseudo-atom occupations:   s ( 2 )  p ( 4 )
Na pseudo-atom occupations:   s ( 2 1 )  p ( 6 )
	FillingsUpdate:  mu: -0.245311550  nElectrons: 313.000000
LCAOMinimize: Iter:   0  F: -516.8348390547769213  |grad|_K:  3.466e-03  alpha:  1.000e+00
	FillingsUpdate:  mu: -0.198534418  nElectrons: 313.000000
LCAOMinimize: Iter:   1  F: -516.9091124795038468  |grad|_K:  3.112e-03  alpha:  1.416e-01  linmin:  7.548e-03  cgtest: -1.273e-01  t[s]:    571.38
	FillingsUpdate:  mu: -0.211425872  nElectrons: 313.000000
LCAOMinimize: Iter:   2  F: -516.9362579310297861  |grad|_K:  1.086e-03  alpha:  5.656e-02  linmin: -2.958e-02  cgtest:  7.651e-01  t[s]:    770.61
LCAOMinimize: Encountered beta<0, resetting CG.
	FillingsUpdate:  mu: -0.230033250  nElectrons: 313.000000
LCAOMinimize: Iter:   3  F: -516.9395443915217356  |grad|_K:  5.746e-04  alpha:  6.077e-02  linmin:  2.915e-03  cgtest: -1.158e-02  t[s]:    968.81
LCAOMinimize: 	Predicted alpha/alphaT>3.000000, increasing alphaT to 1.823149e-01.
	FillingsUpdate:  mu: -0.229032463  nElectrons: 313.000000
LCAOMinimize: Iter:   4  F: -516.9432762588677406  |grad|_K:  3.225e-04  alpha:  2.477e-01  linmin: -2.025e-03  cgtest:  2.434e-02  t[s]:   1219.49
	FillingsUpdate:  mu: -0.226931805  nElectrons: 313.000000
LCAOMinimize: Iter:   5  F: -516.9449032595381368  |grad|_K:  2.053e-04  alpha:  3.407e-01  linmin:  2.379e-03  cgtest: -4.384e-02  t[s]:   1416.67
	FillingsUpdate:  mu: -0.229616684  nElectrons: 313.000000
LCAOMinimize: Iter:   6  F: -516.9450271025460779  |grad|_K:  1.220e-04  alpha:  6.446e-02  linmin: -2.154e-03  cgtest:  8.939e-02  t[s]:   1614.00
LCAOMinimize: 	Predicted alpha/alphaT>3.000000, increasing alphaT to 1.933828e-01.
	FillingsUpdate:  mu: -0.229306253  nElectrons: 313.000000
LCAOMinimize: Iter:   7  F: -516.9452156398375564  |grad|_K:  3.711e-05  alpha:  2.722e-01  linmin: -7.441e-04  cgtest: -1.395e-01  t[s]:   1864.67
	FillingsUpdate:  mu: -0.229817556  nElectrons: 313.000000
LCAOMinimize: Iter:   8  F: -516.9452334139036793  |grad|_K:  4.038e-05  alpha:  2.803e-01  linmin:  7.026e-05  cgtest:  3.853e-03  t[s]:   2062.61
	FillingsUpdate:  mu: -0.229392166  nElectrons: 313.000000
LCAOMinimize: Iter:   9  F: -516.9452385024269461  |grad|_K:  1.625e-05  alpha:  6.840e-02  linmin:  9.521e-04  cgtest: -5.727e-03  t[s]:   2259.84
LCAOMinimize: 	Predicted alpha/alphaT>3.000000, increasing alphaT to 2.051867e-01.
	FillingsUpdate:  mu: -0.229535509  nElectrons: 313.000000
LCAOMinimize: Iter:  10  F: -516.9452426664543054  |grad|_K:  7.278e-06  alpha:  3.449e-01  linmin:  5.789e-06  cgtest:  1.167e-02  t[s]:   2510.50
	FillingsUpdate:  mu: -0.229429118  nElectrons: 313.000000
LCAOMinimize: Iter:  11  F: -516.9452430909417444  |grad|_K:  7.876e-06  alpha:  1.745e-01  linmin:  1.251e-05  cgtest: -6.667e-04  t[s]:   2707.74
	FillingsUpdate:  mu: -0.229507917  nElectrons: 313.000000
LCAOMinimize: Iter:  12  F: -516.9452433221953243  |grad|_K:  1.482e-06  alpha:  8.111e-02  linmin: -5.027e-04  cgtest:  3.633e-03  t[s]:   2905.11
LCAOMinimize: Converged (|Delta F|<1.000000e-06 for 2 iters).
----- createFluidSolver() ----- (Fluid-side solver setup)
   Initializing fluid molecule 'PC'
     Net charge: 0   dipole magnitude: 0
     Initializing spherical shell mfKernel with radius 0 Bohr
     deltaS corrections:

Correction to mu due to finite nuclear width = -0.00604864
   Cavity determined by nc: 0.00098 and sigma: 0.6
   Effective cavity tension: 9.53e-06 Eh/bohr^2 to account for cavitation and dispersion.


---- Citations for features of the code used in this run ----

   Software package:
      R. Sundararaman, K. Letchworth-Weaver, K.A. Schwarz, D. Gunceler, Y. Ozhabes and T.A. Arias, 'JDFTx: software for joint density-functional theory', SoftwareX 6, 278 (2017)

   gga-PBE exchange-correlation functional:
      J.P. Perdew, K. Burke and M. Ernzerhof, Phys. Rev. Lett. 77, 3865 (1996)

   Pseudopotentials:
      KF Garrity, JW Bennett, KM Rabe and D Vanderbilt, Comput. Mater. Sci. 81, 446 (2014)

   Truncated Coulomb potentials:
      R. Sundararaman and T.A. Arias, Phys. Rev. B 87, 165122 (2013)

   DFT-D3 dispersion correction:
      S. Grimme, J. Antony, S. Ehrlich and H. Krieg, J. Chem. Phys. 132, 154104 (2010)

   Linear/nonlinear dielectric/ionic fluid model with effective cavity tension:
      D. Gunceler, K. Letchworth-Weaver, R. Sundararaman, K.A. Schwarz and T.A. Arias, Modelling Simul. Mater. Sci. Eng. 21, 074005 (2013)

This list may not be complete. Please suggest additional citations or
report any other bugs at https://github.com/shankar1729/jdftx/issues

Initialization completed successfully at t[s]:   3005.11


Computing DFT-D3 correction:
# coordination-number C 3.300 3.300 3.300 3.300 3.300 3.303 3.300 3.301 3.299 3.300 3.300 3.387 3.300 3.300 3.300 3.389 3.300 3.300 3.318 3.294 3.300 3.300 3.779 3.300 3.301 3.300 3.306 3.306 3.302 3.300 3.802 3.311 3.300 3.379 3.340 3.300 3.300 3.300 3.304 3.301 3.300 3.300 3.356 3.300 3.302 3.314 3.300 3.300 3.607 3.300 3.300 3.300 3.300 3.577 3.300 3.300 3.304 3.346 3.300 3.300 3.300 3.367 3.303 3.300 3.309 3.300 3.301 3.699 3.332 3.302 3.461
# coordination-number N 3.263
# coordination-number S 1.987
# coordination-number Na 2.490 2.449
# diagonal-C6 C 24.29 24.28 24.28 24.29 24.29 24.26 24.28 24.27 24.29 24.29 24.29 23.28 24.28 24.28 24.29 23.25 24.28 24.29 24.10 24.34 24.29 24.28 18.84 24.28 24.27 24.29 24.22 24.23 24.27 24.28 18.74 24.17 24.28 23.38 23.86 24.28 24.29 24.29 24.24 24.28 24.29 24.29 23.68 24.29 24.27 24.15 24.29 24.29 20.19 24.28 24.28 24.29 24.28 20.57 24.28 24.29 24.24 23.79 24.28 24.28 24.28 23.54 24.25 24.29 24.19 24.28 24.27 19.31 23.96 24.26 22.22
# diagonal-C6 N 15.59
# diagonal-C6 S 125.91
# diagonal-C6 Na 186.11 186.11
EvdW_6 =   -0.058476
EvdW_8 =   -0.049511
Fluid solver invoked on fresh (random / LCAO) wavefunctions
Running a vacuum solve first:

-------- Initial electronic minimization -----------
Will mix electronic density at each iteration.
	FillingsUpdate:  mu: -0.229507917  nElectrons: 313.000000
	FillingsUpdate:  mu: -0.236902140  nElectrons: 313.000000
SCF: Cycle:  0   F: -520.361776818566682   dF: -3.417e+00   |Residual|: 9.422e-01   |deigs|: 1.219e-01  t[s]:   3834.09
	FillingsUpdate:  mu: -0.211702784  nElectrons: 313.000000
SCF: Cycle:  1   F: -520.825451707252341   dF: -4.637e-01   |Residual|: 4.918e-01   |deigs|: 3.628e-02  t[s]:   4561.29
	FillingsUpdate:  mu: -0.177239958  nElectrons: 313.000000
SCF: Cycle:  2   F: -521.072866626380232   dF: -2.474e-01   |Residual|: 1.791e-01   |deigs|: 2.926e-02  t[s]:   5290.71
	FillingsUpdate:  mu: -0.171578675  nElectrons: 313.000000
SCF: Cycle:  3   F: -521.137548849453538   dF: -6.468e-02   |Residual|: 9.597e-02   |deigs|: 1.116e-02  t[s]:   6307.50
	FillingsUpdate:  mu: -0.161037453  nElectrons: 313.000000
SCF: Cycle:  4   F: -521.192301238574146   dF: -5.475e-02   |Residual|: 7.082e-02   |deigs|: 7.332e-03  t[s]:   7344.41
	FillingsUpdate:  mu: -0.153467043  nElectrons: 313.000000
SCF: Cycle:  5   F: -521.198985096011711   dF: -6.684e-03   |Residual|: 3.462e-02   |deigs|: 8.960e-03  t[s]:   8380.63
	FillingsUpdate:  mu: -0.143592499  nElectrons: 313.000000
SCF: Cycle:  6   F: -521.214267669508217   dF: -1.528e-02   |Residual|: 1.977e-02   |deigs|: 7.766e-03  t[s]:   9359.05
	FillingsUpdate:  mu: -0.141121552  nElectrons: 313.000000
SCF: Cycle:  7   F: -521.213824189925163   dF: +4.435e-04   |Residual|: 1.578e-02   |deigs|: 2.977e-03  t[s]:  10341.45
	FillingsUpdate:  mu: -0.135493887  nElectrons: 313.000000
SCF: Cycle:  8   F: -521.215994001863237   dF: -2.170e-03   |Residual|: 9.881e-03   |deigs|: 5.470e-03  t[s]:  11306.80
	FillingsUpdate:  mu: -0.133307903  nElectrons: 313.000000
SCF: Cycle:  9   F: -521.216228679151300   dF: -2.347e-04   |Residual|: 9.482e-03   |deigs|: 2.114e-03  t[s]:  12205.04
	FillingsUpdate:  mu: -0.130112330  nElectrons: 313.000000
SCF: Cycle: 10   F: -521.217247140458767   dF: -1.018e-03   |Residual|: 7.791e-03   |deigs|: 2.652e-03  t[s]:  13130.83
	FillingsUpdate:  mu: -0.127845797  nElectrons: 313.000000
SCF: Cycle: 11   F: -521.217602202903663   dF: -3.551e-04   |Residual|: 5.633e-03   |deigs|: 2.129e-03  t[s]:  14021.53
	FillingsUpdate:  mu: -0.125905434  nElectrons: 313.000000
SCF: Cycle: 12   F: -521.217465250466603   dF: +1.370e-04   |Residual|: 6.650e-03   |deigs|: 1.474e-03  t[s]:  14915.31
	FillingsUpdate:  mu: -0.123992414  nElectrons: 313.000000
SCF: Cycle: 13   F: -521.217813616059630   dF: -3.484e-04   |Residual|: 4.183e-03   |deigs|: 1.946e-03  t[s]:  15812.98
	FillingsUpdate:  mu: -0.121954541  nElectrons: 313.000000
SCF: Cycle: 14   F: -521.217778286115163   dF: +3.533e-05   |Residual|: 3.315e-03   |deigs|: 1.973e-03  t[s]:  16703.00
	FillingsUpdate:  mu: -0.119580205  nElectrons: 313.000000
SCF: Cycle: 15   F: -521.217803880280712   dF: -2.559e-05   |Residual|: 2.350e-03   |deigs|: 2.944e-03  t[s]:  17592.81
	FillingsUpdate:  mu: -0.117943272  nElectrons: 313.000000
SCF: Cycle: 16   F: -521.217820697488150   dF: -1.682e-05   |Residual|: 1.710e-03   |deigs|: 1.897e-03  t[s]:  18476.29
	FillingsUpdate:  mu: -0.117220399  nElectrons: 313.000000
SCF: Cycle: 17   F: -521.217830642081140   dF: -9.945e-06   |Residual|: 1.371e-03   |deigs|: 1.015e-03  t[s]:  19362.60
	FillingsUpdate:  mu: -0.116462971  nElectrons: 313.000000
SCF: Cycle: 18   F: -521.217845398967597   dF: -1.476e-05   |Residual|: 9.421e-04   |deigs|: 1.058e-03  t[s]:  20246.70
	FillingsUpdate:  mu: -0.116178978  nElectrons: 313.000000
SCF: Cycle: 19   F: -521.217848465643328   dF: -3.067e-06   |Residual|: 8.658e-04   |deigs|: 4.174e-04  t[s]:  21131.94
	FillingsUpdate:  mu: -0.115857358  nElectrons: 313.000000
SCF: Cycle: 20   F: -521.217854278874142   dF: -5.813e-06   |Residual|: 6.194e-04   |deigs|: 7.871e-04  t[s]:  22020.01
	FillingsUpdate:  mu: -0.115710423  nElectrons: 313.000000
SCF: Cycle: 21   F: -521.217858445560296   dF: -4.167e-06   |Residual|: 4.622e-04   |deigs|: 6.673e-04  t[s]:  22912.95
	FillingsUpdate:  mu: -0.115604146  nElectrons: 313.000000
SCF: Cycle: 22   F: -521.217860731395035   dF: -2.286e-06   |Residual|: 3.517e-04   |deigs|: 4.666e-04  t[s]:  23796.32
	FillingsUpdate:  mu: -0.115306046  nElectrons: 313.000000
SCF: Cycle: 23   F: -521.217862524790462   dF: -1.793e-06   |Residual|: 2.547e-04   |deigs|: 7.984e-04  t[s]:  24685.71
	FillingsUpdate:  mu: -0.115101740  nElectrons: 313.000000
SCF: Cycle: 24   F: -521.217863022268261   dF: -4.975e-07   |Residual|: 1.956e-04   |deigs|: 7.746e-04  t[s]:  25467.97
	FillingsUpdate:  mu: -0.115005921  nElectrons: 313.000000
SCF: Cycle: 25   F: -521.217863288670742   dF: -2.664e-07   |Residual|: 1.406e-04   |deigs|: 3.776e-04  t[s]:  26092.29
	FillingsUpdate:  mu: -0.114982605  nElectrons: 313.000000
SCF: Cycle: 26   F: -521.217863374328999   dF: -8.566e-08   |Residual|: 1.180e-04   |deigs|: 2.102e-04  t[s]:  26716.29
	FillingsUpdate:  mu: -0.114951855  nElectrons: 313.000000
SCF: Cycle: 27   F: -521.217863502511591   dF: -1.282e-07   |Residual|: 8.857e-05   |deigs|: 2.454e-04  t[s]:  27340.07
	FillingsUpdate:  mu: -0.114953924  nElectrons: 313.000000
SCF: Cycle: 28   F: -521.217863535839342   dF: -3.333e-08   |Residual|: 6.724e-05   |deigs|: 2.006e-04  t[s]:  27964.21
	FillingsUpdate:  mu: -0.114937382  nElectrons: 313.000000
SCF: Cycle: 29   F: -521.217863570297823   dF: -3.446e-08   |Residual|: 4.374e-05   |deigs|: 2.980e-04  t[s]:  28588.91
	FillingsUpdate:  mu: -0.114921417  nElectrons: 313.000000
SCF: Cycle: 30   F: -521.217863578541710   dF: -8.244e-09   |Residual|: 2.891e-05   |deigs|: 3.290e-04  t[s]:  29212.12
	FillingsUpdate:  mu: -0.114915143  nElectrons: 313.000000
SCF: Cycle: 31   F: -521.217863585954660   dF: -7.413e-09   |Residual|: 1.815e-05   |deigs|: 2.338e-04  t[s]:  29837.36
SCF: Converged (|Delta E|<1.000000e-08 for 2 iters).

Setting wave functions to eigenvectors of Hamiltonian
Vacuum energy after initial minimize, F = -521.217863585954660


-------- Electronic minimization -----------
Will mix electronic density at each iteration.
	FillingsUpdate:  mu: -0.114915143  nElectrons: 313.000000
	Linear fluid (dielectric constant: 64) occupying 0.894426 of unit cell:	Completed after 45 iterations at t[s]:  29940.94
	FillingsUpdate:  mu: -0.106601546  nElectrons: 313.000000
	Linear fluid (dielectric constant: 64) occupying 0.894468 of unit cell:	Completed after 35 iterations at t[s]:  30752.00
SCF: Cycle:  0   F: -521.331041128491506   dF: -5.291e-04   |Residual|: 9.360e-02   |deigs|: 3.432e-03  t[s]:  30753.90
	Linear fluid (dielectric constant: 64) occupying 0.894579 of unit cell:	Completed after 32 iterations at t[s]:  30777.23
	FillingsUpdate:  mu: -0.104653741  nElectrons: 313.000000
	Linear fluid (dielectric constant: 64) occupying 0.894254 of unit cell:	Completed after 32 iterations at t[s]:  31527.92
SCF: Cycle:  1   F: -521.369476649120429   dF: -3.844e-02   |Residual|: 4.143e-02   |deigs|: 3.420e-03  t[s]:  31529.92
	Linear fluid (dielectric constant: 64) occupying 0.894500 of unit cell:	Completed after 31 iterations at t[s]:  31552.94
	FillingsUpdate:  mu: -0.105490392  nElectrons: 313.000000
	Linear fluid (dielectric constant: 64) occupying 0.894303 of unit cell:	Completed after 31 iterations at t[s]:  32259.82
SCF: Cycle:  2   F: -521.371541065987344   dF: -2.064e-03   |Residual|: 2.667e-02   |deigs|: 1.083e-03  t[s]:  32261.63
	Linear fluid (dielectric constant: 64) occupying 0.894421 of unit cell:	Completed after 27 iterations at t[s]:  32282.05
	FillingsUpdate:  mu: -0.104431231  nElectrons: 313.000000
	Linear fluid (dielectric constant: 64) occupying 0.894321 of unit cell:	Completed after 28 iterations at t[s]:  33031.60
SCF: Cycle:  3   F: -521.373134705226221   dF: -1.594e-03   |Residual|: 2.031e-02   |deigs|: 1.671e-03  t[s]:  33033.70
	Linear fluid (dielectric constant: 64) occupying 0.894310 of unit cell:	Completed after 25 iterations at t[s]:  33052.91
	FillingsUpdate:  mu: -0.104705324  nElectrons: 313.000000
	Linear fluid (dielectric constant: 64) occupying 0.894303 of unit cell:	Completed after 25 iterations at t[s]:  33796.88
SCF: Cycle:  4   F: -521.374586355978977   dF: -1.452e-03   |Residual|: 1.081e-02   |deigs|: 7.940e-04  t[s]:  33798.96
	Linear fluid (dielectric constant: 64) occupying 0.894181 of unit cell:	Completed after 20 iterations at t[s]:  33815.86
	FillingsUpdate:  mu: -0.104062755  nElectrons: 313.000000
	Linear fluid (dielectric constant: 64) occupying 0.894240 of unit cell:	Completed after 22 iterations at t[s]:  34561.63
SCF: Cycle:  5   F: -521.373982461223704   dF: +6.039e-04   |Residual|: 1.324e-02   |deigs|: 9.848e-04  t[s]:  34563.83
	Linear fluid (dielectric constant: 64) occupying 0.894025 of unit cell:	Completed after 20 iterations at t[s]:  34580.76
	FillingsUpdate:  mu: -0.104387751  nElectrons: 313.000000
	Linear fluid (dielectric constant: 64) occupying 0.894175 of unit cell:	Completed after 20 iterations at t[s]:  35322.69
SCF: Cycle:  6   F: -521.375151170025674   dF: -1.169e-03   |Residual|: 5.456e-03   |deigs|: 5.024e-04  t[s]:  35324.75
	Linear fluid (dielectric constant: 64) occupying 0.893873 of unit cell:	Completed after 19 iterations at t[s]:  35340.03
	FillingsUpdate:  mu: -0.104783238  nElectrons: 313.000000
	Linear fluid (dielectric constant: 64) occupying 0.894137 of unit cell:	Completed after 17 iterations at t[s]:  36079.00
SCF: Cycle:  7   F: -521.375283152668089   dF: -1.320e-04   |Residual|: 3.694e-03   |deigs|: 6.114e-04  t[s]:  36081.03
	Linear fluid (dielectric constant: 64) occupying 0.893872 of unit cell:	Completed after 16 iterations at t[s]:  36095.09
	FillingsUpdate:  mu: -0.104893598  nElectrons: 313.000000
	Linear fluid (dielectric constant: 64) occupying 0.894136 of unit cell:	Completed after 15 iterations at t[s]:  36735.93
SCF: Cycle:  8   F: -521.375335041520771   dF: -5.189e-05   |Residual|: 2.424e-03   |deigs|: 4.475e-04  t[s]:  36737.83
	Linear fluid (dielectric constant: 64) occupying 0.893946 of unit cell:	Completed after 13 iterations at t[s]:  36749.21
	FillingsUpdate:  mu: -0.105152379  nElectrons: 313.000000
	Linear fluid (dielectric constant: 64) occupying 0.894153 of unit cell:	Completed after 15 iterations at t[s]:  37391.56
SCF: Cycle:  9   F: -521.375328901053649   dF: +6.140e-06   |Residual|: 2.554e-03   |deigs|: 6.372e-04  t[s]:  37393.38
	Linear fluid (dielectric constant: 64) occupying 0.894035 of unit cell:	Completed after 13 iterations at t[s]:  37405.57
	FillingsUpdate:  mu: -0.105148812  nElectrons: 313.000000
	Linear fluid (dielectric constant: 64) occupying 0.894160 of unit cell:	Completed after 11 iterations at t[s]:  38032.44
SCF: Cycle: 10   F: -521.375357742579581   dF: -2.884e-05   |Residual|: 1.647e-03   |deigs|: 5.396e-04  t[s]:  38034.38
	Linear fluid (dielectric constant: 64) occupying 0.894099 of unit cell:	Completed after 10 iterations at t[s]:  38044.44
	FillingsUpdate:  mu: -0.105146207  nElectrons: 313.000000
	Linear fluid (dielectric constant: 64) occupying 0.894168 of unit cell:	Completed after 9 iterations at t[s]:  38668.83
SCF: Cycle: 11   F: -521.375361782201935   dF: -4.040e-06   |Residual|: 1.336e-03   |deigs|: 6.082e-04  t[s]:  38670.92
	Linear fluid (dielectric constant: 64) occupying 0.894115 of unit cell:	Completed after 9 iterations at t[s]:  38680.13
	FillingsUpdate:  mu: -0.105159879  nElectrons: 313.000000
	Linear fluid (dielectric constant: 64) occupying 0.894170 of unit cell:	Completed after 10 iterations at t[s]:  39305.99
SCF: Cycle: 12   F: -521.375361157857583   dF: +6.243e-07   |Residual|: 1.194e-03   |deigs|: 4.848e-04  t[s]:  39307.92
	Linear fluid (dielectric constant: 64) occupying 0.894130 of unit cell:	Completed after 7 iterations at t[s]:  39315.69
	FillingsUpdate:  mu: -0.105161526  nElectrons: 313.000000
	Linear fluid (dielectric constant: 64) occupying 0.894176 of unit cell:	Completed after 5 iterations at t[s]:  39952.73
SCF: Cycle: 13   F: -521.375364723613075   dF: -3.566e-06   |Residual|: 9.061e-04   |deigs|: 6.715e-04  t[s]:  39954.74
	Linear fluid (dielectric constant: 64) occupying 0.894131 of unit cell:	Completed after 5 iterations at t[s]:  39961.41
	FillingsUpdate:  mu: -0.105177350  nElectrons: 313.000000
	Linear fluid (dielectric constant: 64) occupying 0.894178 of unit cell:	Completed after 5 iterations at t[s]:  40585.12
SCF: Cycle: 14   F: -521.375362104703981   dF: +2.619e-06   |Residual|: 8.683e-04   |deigs|: 3.390e-04  t[s]:  40586.97
	Linear fluid (dielectric constant: 64) occupying 0.894158 of unit cell:	Completed after 5 iterations at t[s]:  40593.03
	FillingsUpdate:  mu: -0.105159618  nElectrons: 313.000000
	Linear fluid (dielectric constant: 64) occupying 0.894180 of unit cell:	Completed after 7 iterations at t[s]:  41218.84
SCF: Cycle: 15   F: -521.375362294092156   dF: -1.894e-07   |Residual|: 8.108e-04   |deigs|: 4.771e-04  t[s]:  41220.79
	Linear fluid (dielectric constant: 64) occupying 0.894166 of unit cell:	Completed after 4 iterations at t[s]:  41226.56
	FillingsUpdate:  mu: -0.105206182  nElectrons: 313.000000
	Linear fluid (dielectric constant: 64) occupying 0.894179 of unit cell:	Completed after 7 iterations at t[s]:  41864.62
SCF: Cycle: 16   F: -521.375363911111549   dF: -1.617e-06   |Residual|: 6.869e-04   |deigs|: 3.444e-04  t[s]:  41866.64
	Linear fluid (dielectric constant: 64) occupying 0.894179 of unit cell:	Completed after 5 iterations at t[s]:  41873.07
	FillingsUpdate:  mu: -0.105188793  nElectrons: 313.000000
	Linear fluid (dielectric constant: 64) occupying 0.894180 of unit cell:	Completed after 7 iterations at t[s]:  42497.98
SCF: Cycle: 17   F: -521.375364770226270   dF: -8.591e-07   |Residual|: 6.158e-04   |deigs|: 3.693e-04  t[s]:  42500.09
	Linear fluid (dielectric constant: 64) occupying 0.894171 of unit cell:	Completed after 4 iterations at t[s]:  42505.52
	FillingsUpdate:  mu: -0.105228349  nElectrons: 313.000000
	Linear fluid (dielectric constant: 64) occupying 0.894178 of unit cell:	Completed after 7 iterations at t[s]:  43130.09
SCF: Cycle: 18   F: -521.375364536833672   dF: +2.334e-07   |Residual|: 5.897e-04   |deigs|: 2.614e-04  t[s]:  43132.06
	Linear fluid (dielectric constant: 64) occupying 0.894174 of unit cell:	Completed after 4 iterations at t[s]:  43137.65
	FillingsUpdate:  mu: -0.105198836  nElectrons: 313.000000
	Linear fluid (dielectric constant: 64) occupying 0.894181 of unit cell:	Completed after 7 iterations at t[s]:  43774.69
SCF: Cycle: 19   F: -521.375364601124488   dF: -6.429e-08   |Residual|: 6.023e-04   |deigs|: 3.722e-04  t[s]:  43776.64
	Linear fluid (dielectric constant: 64) occupying 0.894173 of unit cell:	Completed after 5 iterations at t[s]:  43782.71
	FillingsUpdate:  mu: -0.105235802  nElectrons: 313.000000
	Linear fluid (dielectric constant: 64) occupying 0.894179 of unit cell:	Completed after 5 iterations at t[s]:  44416.97
SCF: Cycle: 20   F: -521.375366003952990   dF: -1.403e-06   |Residual|: 4.650e-04   |deigs|: 2.091e-04  t[s]:  44418.80
	Linear fluid (dielectric constant: 64) occupying 0.894177 of unit cell:	Completed after 3 iterations at t[s]:  44423.51
	FillingsUpdate:  mu: -0.105207607  nElectrons: 313.000000
	Linear fluid (dielectric constant: 64) occupying 0.894181 of unit cell:	Completed after 5 iterations at t[s]:  45046.86
SCF: Cycle: 21   F: -521.375366874672977   dF: -8.707e-07   |Residual|: 3.083e-04   |deigs|: 1.669e-04  t[s]:  45048.62
	Linear fluid (dielectric constant: 64) occupying 0.894177 of unit cell:	Completed after 3 iterations at t[s]:  45053.29
	FillingsUpdate:  mu: -0.105247270  nElectrons: 313.000000
	Linear fluid (dielectric constant: 64) occupying 0.894181 of unit cell:	Completed after 7 iterations at t[s]:  45676.64
SCF: Cycle: 22   F: -521.375365265666005   dF: +1.609e-06   |Residual|: 5.727e-04   |deigs|: 1.448e-04  t[s]:  45678.61
	Linear fluid (dielectric constant: 64) occupying 0.894180 of unit cell:	Completed after 4 iterations at t[s]:  45683.92
	FillingsUpdate:  mu: -0.105212444  nElectrons: 313.000000
	Linear fluid (dielectric constant: 64) occupying 0.894183 of unit cell:	Completed after 5 iterations at t[s]:  46311.80
SCF: Cycle: 23   F: -521.375366307847344   dF: -1.042e-06   |Residual|: 4.176e-04   |deigs|: 4.383e-05  t[s]:  46313.72
	Linear fluid (dielectric constant: 64) occupying 0.894180 of unit cell:	Completed after 3 iterations at t[s]:  46318.41
	FillingsUpdate:  mu: -0.105238345  nElectrons: 313.000000
	Linear fluid (dielectric constant: 64) occupying 0.894180 of unit cell:	Completed after 3 iterations at t[s]:  46934.06
SCF: Cycle: 24   F: -521.375367092775605   dF: -7.849e-07   |Residual|: 2.943e-04   |deigs|: 2.683e-04  t[s]:  46935.91
	Linear fluid (dielectric constant: 64) occupying 0.894180 of unit cell:	Completed after 3 iterations at t[s]:  46940.52
	FillingsUpdate:  mu: -0.105203109  nElectrons: 313.000000
	Linear fluid (dielectric constant: 64) occupying 0.894180 of unit cell:	Completed after 5 iterations at t[s]:  47560.66
SCF: Cycle: 25   F: -521.375366375983731   dF: +7.168e-07   |Residual|: 4.478e-04   |deigs|: 4.417e-05  t[s]:  47562.52
	Linear fluid (dielectric constant: 64) occupying 0.894179 of unit cell:	Completed after 3 iterations at t[s]:  47567.22
	FillingsUpdate:  mu: -0.105239025  nElectrons: 313.000000
	Linear fluid (dielectric constant: 64) occupying 0.894181 of unit cell:	Completed after 4 iterations at t[s]:  47999.43
SCF: Cycle: 26   F: -521.375366741251128   dF: -3.653e-07   |Residual|: 3.695e-04   |deigs|: 6.001e-05  t[s]:  48001.28
	Linear fluid (dielectric constant: 64) occupying 0.894180 of unit cell:	Completed after 3 iterations at t[s]:  48005.77
	FillingsUpdate:  mu: -0.105208050  nElectrons: 313.000000
	Linear fluid (dielectric constant: 64) occupying 0.894181 of unit cell:	Completed after 3 iterations at t[s]:  48625.22
SCF: Cycle: 27   F: -521.375367335203123   dF: -5.940e-07   |Residual|: 2.613e-04   |deigs|: 1.102e-04  t[s]:  48627.20
	Linear fluid (dielectric constant: 64) occupying 0.894178 of unit cell:	Completed after 3 iterations at t[s]:  48631.99
	FillingsUpdate:  mu: -0.105236509  nElectrons: 313.000000
	Linear fluid (dielectric constant: 64) occupying 0.894181 of unit cell:	Completed after 4 iterations at t[s]:  49252.63
SCF: Cycle: 28   F: -521.375366663532532   dF: +6.717e-07   |Residual|: 4.130e-04   |deigs|: 1.545e-04  t[s]:  49254.47
	Linear fluid (dielectric constant: 64) occupying 0.894179 of unit cell:	Completed after 3 iterations at t[s]:  49259.10
	FillingsUpdate:  mu: -0.105211136  nElectrons: 313.000000
	Linear fluid (dielectric constant: 64) occupying 0.894181 of unit cell:	Completed after 3 iterations at t[s]:  49878.75
SCF: Cycle: 29   F: -521.375367592861721   dF: -9.293e-07   |Residual|: 1.811e-04   |deigs|: 9.061e-05  t[s]:  49880.69
	Linear fluid (dielectric constant: 64) occupying 0.894178 of unit cell:	Completed after 2 iterations at t[s]:  49884.93
	FillingsUpdate:  mu: -0.105246890  nElectrons: 313.000000
	Linear fluid (dielectric constant: 64) occupying 0.894182 of unit cell:	Completed after 5 iterations at t[s]:  50505.25
SCF: Cycle: 30   F: -521.375365726681594   dF: +1.866e-06   |Residual|: 5.466e-04   |deigs|: 1.615e-04  t[s]:  50507.26
	Linear fluid (dielectric constant: 64) occupying 0.894179 of unit cell:	Completed after 3 iterations at t[s]:  50512.09
	FillingsUpdate:  mu: -0.105215107  nElectrons: 313.000000
	Linear fluid (dielectric constant: 64) occupying 0.894181 of unit cell:	Completed after 3 iterations at t[s]:  51130.14
SCF: Cycle: 31   F: -521.375367479812439   dF: -1.753e-06   |Residual|: 2.084e-04   |deigs|: 6.882e-05  t[s]:  51132.00
	Linear fluid (dielectric constant: 64) occupying 0.894180 of unit cell:	Completed after 3 iterations at t[s]:  51136.71
	FillingsUpdate:  mu: -0.105242056  nElectrons: 313.000000
	Linear fluid (dielectric constant: 64) occupying 0.894181 of unit cell:	Completed after 4 iterations at t[s]:  51754.47
SCF: Cycle: 32   F: -521.375366722656850   dF: +7.572e-07   |Residual|: 4.032e-04   |deigs|: 7.656e-05  t[s]:  51756.24
	Linear fluid (dielectric constant: 64) occupying 0.894181 of unit cell:	Completed after 3 iterations at t[s]:  51761.11
	FillingsUpdate:  mu: -0.105216899  nElectrons: 313.000000
	Linear fluid (dielectric constant: 64) occupying 0.894181 of unit cell:	Completed after 3 iterations at t[s]:  52380.08
SCF: Cycle: 33   F: -521.375367693476051   dF: -9.708e-07   |Residual|: 1.459e-04   |deigs|: 4.346e-05  t[s]:  52382.10
	Linear fluid (dielectric constant: 64) occupying 0.894181 of unit cell:	Completed after 1 iterations at t[s]:  52385.63
	FillingsUpdate:  mu: -0.105244921  nElectrons: 313.000000
	Linear fluid (dielectric constant: 64) occupying 0.894183 of unit cell:	Completed after 5 iterations at t[s]:  52818.57
SCF: Cycle: 34   F: -521.375365073791841   dF: +2.620e-06   |Residual|: 6.136e-04   |deigs|: 2.524e-05  t[s]:  52820.50
	Linear fluid (dielectric constant: 64) occupying 0.894181 of unit cell:	Completed after 3 iterations at t[s]:  52825.22
	FillingsUpdate:  mu: -0.105215507  nElectrons: 313.000000
	Linear fluid (dielectric constant: 64) occupying 0.894182 of unit cell:	Completed after 4 iterations at t[s]:  53257.31
SCF: Cycle: 35   F: -521.375367303172993   dF: -2.229e-06   |Residual|: 2.436e-04   |deigs|: 2.925e-05  t[s]:  53259.15
	Linear fluid (dielectric constant: 64) occupying 0.894181 of unit cell:	Completed after 2 iterations at t[s]:  53262.96
	FillingsUpdate:  mu: -0.105241833  nElectrons: 313.000000
	Linear fluid (dielectric constant: 64) occupying 0.894182 of unit cell:	Completed after 4 iterations at t[s]:  53694.68
SCF: Cycle: 36   F: -521.375366232008105   dF: +1.071e-06   |Residual|: 4.758e-04   |deigs|: 2.300e-05  t[s]:  53696.49
	Linear fluid (dielectric constant: 64) occupying 0.894182 of unit cell:	Completed after 3 iterations at t[s]:  53701.30
	FillingsUpdate:  mu: -0.105212232  nElectrons: 313.000000
	Linear fluid (dielectric constant: 64) occupying 0.894181 of unit cell:	Completed after 3 iterations at t[s]:  54132.77
SCF: Cycle: 37   F: -521.375367534201928   dF: -1.302e-06   |Residual|: 2.030e-04   |deigs|: 3.897e-05  t[s]:  54134.60
	Linear fluid (dielectric constant: 64) occupying 0.894182 of unit cell:	Completed after 2 iterations at t[s]:  54138.87
	FillingsUpdate:  mu: -0.105240258  nElectrons: 313.000000
	Linear fluid (dielectric constant: 64) occupying 0.894182 of unit cell:	Completed after 3 iterations at t[s]:  54569.61
SCF: Cycle: 38   F: -521.375367053485547   dF: +4.807e-07   |Residual|: 3.396e-04   |deigs|: 2.119e-05  t[s]:  54571.54
	Linear fluid (dielectric constant: 64) occupying 0.894182 of unit cell:	Completed after 3 iterations at t[s]:  54576.19
	FillingsUpdate:  mu: -0.105217035  nElectrons: 313.000000
	Linear fluid (dielectric constant: 64) occupying 0.894181 of unit cell:	Completed after 3 iterations at t[s]:  55007.51
SCF: Cycle: 39   F: -521.375367594616705   dF: -5.411e-07   |Residual|: 1.917e-04   |deigs|: 1.809e-05  t[s]:  55009.24
	Linear fluid (dielectric constant: 64) occupying 0.894182 of unit cell:	Completed after 2 iterations at t[s]:  55013.28
	FillingsUpdate:  mu: -0.105238280  nElectrons: 313.000000
	Linear fluid (dielectric constant: 64) occupying 0.894182 of unit cell:	Completed after 4 iterations at t[s]:  55446.09
SCF: Cycle: 40   F: -521.375367072924405   dF: +5.217e-07   |Residual|: 3.298e-04   |deigs|: 2.100e-05  t[s]:  55447.91
	Linear fluid (dielectric constant: 64) occupying 0.894182 of unit cell:	Completed after 2 iterations at t[s]:  55451.96
	FillingsUpdate:  mu: -0.105216142  nElectrons: 313.000000
	Linear fluid (dielectric constant: 64) occupying 0.894180 of unit cell:	Completed after 2 iterations at t[s]:  55883.09
SCF: Cycle: 41   F: -521.375367434049167   dF: -3.611e-07   |Residual|: 2.546e-04   |deigs|: 1.856e-05  t[s]:  55885.03
	Linear fluid (dielectric constant: 64) occupying 0.894182 of unit cell:	Completed after 2 iterations at t[s]:  55889.25
	FillingsUpdate:  mu: -0.105243244  nElectrons: 313.000000
	Linear fluid (dielectric constant: 64) occupying 0.894182 of unit cell:	Completed after 5 iterations at t[s]:  56322.85
SCF: Cycle: 42   F: -521.375366324836023   dF: +1.109e-06   |Residual|: 4.402e-04   |deigs|: 1.987e-05  t[s]:  56324.72
	Linear fluid (dielectric constant: 64) occupying 0.894182 of unit cell:	Completed after 3 iterations at t[s]:  56329.36
	FillingsUpdate:  mu: -0.105216153  nElectrons: 313.000000
	Linear fluid (dielectric constant: 64) occupying 0.894181 of unit cell:	Completed after 3 iterations at t[s]:  56761.71
SCF: Cycle: 43   F: -521.375367443290656   dF: -1.118e-06   |Residual|: 2.323e-04   |deigs|: 1.958e-05  t[s]:  56763.47
	Linear fluid (dielectric constant: 64) occupying 0.894182 of unit cell:	Completed after 3 iterations at t[s]:  56768.17
	FillingsUpdate:  mu: -0.105238973  nElectrons: 313.000000
	Linear fluid (dielectric constant: 64) occupying 0.894181 of unit cell:	Completed after 3 iterations at t[s]:  57200.89
SCF: Cycle: 44   F: -521.375367348614873   dF: +9.468e-08   |Residual|: 2.719e-04   |deigs|: 1.538e-05  t[s]:  57202.76
	Linear fluid (dielectric constant: 64) occupying 0.894182 of unit cell:	Completed after 3 iterations at t[s]:  57207.36
	FillingsUpdate:  mu: -0.105217637  nElectrons: 313.000000
	Linear fluid (dielectric constant: 64) occupying 0.894181 of unit cell:	Completed after 3 iterations at t[s]:  57640.96
SCF: Cycle: 45   F: -521.375367585796539   dF: -2.372e-07   |Residual|: 1.975e-04   |deigs|: 1.419e-05  t[s]:  57642.94
	Linear fluid (dielectric constant: 64) occupying 0.894181 of unit cell:	Completed after 2 iterations at t[s]:  57646.90
	FillingsUpdate:  mu: -0.105241555  nElectrons: 313.000000
	Linear fluid (dielectric constant: 64) occupying 0.894182 of unit cell:	Completed after 4 iterations at t[s]:  58079.35
SCF: Cycle: 46   F: -521.375366719908698   dF: +8.659e-07   |Residual|: 3.937e-04   |deigs|: 1.651e-05  t[s]:  58081.24
	Linear fluid (dielectric constant: 64) occupying 0.894181 of unit cell:	Completed after 3 iterations at t[s]:  58086.00
	FillingsUpdate:  mu: -0.105215273  nElectrons: 313.000000
	Linear fluid (dielectric constant: 64) occupying 0.894181 of unit cell:	Completed after 3 iterations at t[s]:  58515.64
SCF: Cycle: 47   F: -521.375367427523088   dF: -7.076e-07   |Residual|: 2.398e-04   |deigs|: 1.786e-05  t[s]:  58517.52
	Linear fluid (dielectric constant: 64) occupying 0.894181 of unit cell:	Completed after 3 iterations at t[s]:  58522.39
	FillingsUpdate:  mu: -0.105241542  nElectrons: 313.000000
	Linear fluid (dielectric constant: 64) occupying 0.894181 of unit cell:	Completed after 4 iterations at t[s]:  58954.42
SCF: Cycle: 48   F: -521.375366970277355   dF: +4.572e-07   |Residual|: 3.483e-04   |deigs|: 1.731e-05  t[s]:  58956.42
	Linear fluid (dielectric constant: 64) occupying 0.894181 of unit cell:	Completed after 3 iterations at t[s]:  58961.25
	FillingsUpdate:  mu: -0.105216030  nElectrons: 313.000000
	Linear fluid (dielectric constant: 64) occupying 0.894181 of unit cell:	Completed after 4 iterations at t[s]:  59393.10
SCF: Cycle: 49   F: -521.375367357432310   dF: -3.872e-07   |Residual|: 2.527e-04   |deigs|: 1.722e-05  t[s]:  59394.94
	Linear fluid (dielectric constant: 64) occupying 0.894182 of unit cell:	Completed after 2 iterations at t[s]:  59399.13
Setting wave functions to eigenvectors of Hamiltonian
Single-point solvation energy estimate, DeltaF = -0.156898445739102

Computing DFT-D3 correction:
# coordination-number C 3.300 3.300 3.300 3.300 3.300 3.303 3.300 3.301 3.299 3.300 3.300 3.387 3.300 3.300 3.300 3.389 3.300 3.300 3.318 3.294 3.300 3.300 3.779 3.300 3.301 3.300 3.306 3.306 3.302 3.300 3.802 3.311 3.300 3.379 3.340 3.300 3.300 3.300 3.304 3.301 3.300 3.300 3.356 3.300 3.302 3.314 3.300 3.300 3.607 3.300 3.300 3.300 3.300 3.577 3.300 3.300 3.304 3.346 3.300 3.300 3.300 3.367 3.303 3.300 3.309 3.300 3.301 3.699 3.332 3.302 3.461
# coordination-number N 3.263
# coordination-number S 1.987
# coordination-number Na 2.490 2.449
# diagonal-C6 C 24.29 24.28 24.28 24.29 24.29 24.26 24.28 24.27 24.29 24.29 24.29 23.28 24.28 24.28 24.29 23.25 24.28 24.29 24.10 24.34 24.29 24.28 18.84 24.28 24.27 24.29 24.22 24.23 24.27 24.28 18.74 24.17 24.28 23.38 23.86 24.28 24.29 24.29 24.24 24.28 24.29 24.29 23.68 24.29 24.27 24.15 24.29 24.29 20.19 24.28 24.28 24.29 24.28 20.57 24.28 24.29 24.24 23.79 24.28 24.28 24.28 23.54 24.25 24.29 24.19 24.28 24.27 19.31 23.96 24.26 22.22
# diagonal-C6 N 15.59
# diagonal-C6 S 125.91
# diagonal-C6 Na 186.11 186.11
EvdW_6 =   -0.058476
EvdW_8 =   -0.049511

# Ionic positions in cartesian coordinates:
ion C   0.000000000000000   0.000000000000000   3.000003066900000 0
ion C  -2.333835447300000   4.042302545699999   3.000003066900000 0
ion C  11.669139441899999  20.211550523099998   3.000003066900000 0
ion C   4.667670894600000   0.000000000000000   3.000003066900000 0
ion C  23.338278883799997   0.000000000000000   3.000003066900000 0
ion C   2.333835447300000   4.042302545699999   3.000003066900000 0
ion C -11.669158339199999  20.211550523099998   3.000003066900000 0
ion C  -4.667670894600000   8.084623988700001   3.000003066900000 0
ion C   9.335303994599997  16.169229080099999   3.000003066900000 0
ion C   9.335322891900001   0.000000000000000   3.000003066900000 0
ion C  18.670626886499999   0.000000000000000   3.000003066900000 0
ion C   4.667670894599999   8.084623988700001   3.000003066900000 0
ion C  -9.335322891900001  16.169229080099999   3.000003066900000 0
ion C  -7.001487444600001  12.126926534399997   3.000003066900000 0
ion C  14.002993786499999   0.000000000000000   3.000003066900000 0
ion C   0.000000000000000   8.084623988700001   3.000003066900000 0
ion C   7.001468547300002  20.211550523099998   3.000003066900000 0
ion C  -7.001487444599999  20.211550523099998   3.000003066900000 0
ion C  -2.333835447300000  12.126926534399997   3.000003066900000 0
ion C   4.667633100000000  16.169229080099999   3.000003066900000 0
ion C  -2.333835447299998  20.211550523099998   3.000003066900000 0
ion C   2.333835447299998  20.211550523099998   3.000003066900000 0
ion C   2.333835447300001  12.126926534399997   3.000003066900000 0
ion C  -4.667651997299997  16.169229080099999   3.000003066900000 0
ion C   7.001468547300000   4.042302545699999   3.000003066900000 0
ion C  21.004424539199999   4.042302545699999   3.000003066900000 0
ion C  14.002955991899999  16.169229080099999   3.000003066900000 0
ion C   0.000000000000000  16.169229080099999   3.000003066900000 0
ion C  11.669120544600000   4.042302545699999   3.000003066900000 0
ion C  18.670626886500003   8.084623988700001   3.000003066900000 0
ion C  11.669120544600002  12.126926534399997   3.000003066900000 0
ion C  16.336791439199995  12.126926534399997   3.000003066900000 0
ion C  16.336791439199999   4.042302545699999   3.000003066900000 0
ion C   9.335303994599997   8.084623988700001   3.000003066900000 0
ion C  14.002955991899999   8.084623988700001   3.000003066900000 0
ion C   0.000018897300000   2.694868363800000   3.000003066900000 0
ion C  11.669139441899999  22.906399989600001   3.000003066900000 0
ion C -11.669139441899999  22.906399989600001   3.000003066900000 0
ion C  -2.333816550000000   6.737170909500000   3.000003066900000 0
ion C   9.335322891900001  18.864097443900000   3.000003066900000 0
ion C  -7.001468547300000  22.906399989600001   3.000003066900000 0
ion C   7.001487444600000  22.906399989600001   3.000003066900000 0
ion C   2.333816550000000   6.737170909500000   3.000003066900000 0
ion C  -9.335303994599998  18.864097443900000   3.000003066900000 0
ion C  -4.667651997299998  10.779473455200000   3.000003066900000 0
ion C   7.001487444599997  14.821794898200000   3.000003066900000 0
ion C  -2.333835447300000  22.906399989600001   3.000003066900000 0
ion C   2.333816550000000  22.906399989600001   3.000003066900000 0
ion C   4.667651997299999  10.779473455200000   3.000003066900000 0
ion C  -7.001468547300004  14.821794898200000   3.000003066900000 0
ion C   4.667651997300001   2.694868363800000   3.000003066900000 0
ion C  23.338259986499999   2.694868363800000   3.000003066900000 0
ion C  14.002955991899997  18.864097443900000   3.000003066900000 0
ion C   0.000018897300000  10.779473455200000   3.000003066900000 0
ion C   4.667651997299995  18.864097443900000   3.000003066900000 0
ion C  -4.667651997300002  18.864097443900000   3.000003066900000 0
ion C  -2.333816550000002  14.821794898200000   3.000003066900000 0
ion C   2.333816549999996  14.821794898200000   3.000003066900000 0
ion C  -0.000018897300000  18.864097443900000   3.000003066900000 0
ion C   9.335303994599998   2.694868363800000   3.000003066900000 0
ion C  21.004443436500001   6.737170909500000   3.000003066900000 0
ion C  11.669139441899999  14.821794898200000   3.000003066900000 0
ion C  16.336772541899997  14.821794898200000   3.000003066900000 0
ion C  18.670607989199997   2.694868363800000   3.000003066900000 0
ion C   7.001487444600001   6.737170909500000   3.000003066900000 0
ion C  14.002974889200001   2.694868363800000   3.000003066900000 0
ion C  18.670607989200004  10.779473455200000   3.000003066900000 0
ion C   9.335303994599997  10.779473455200000   3.000003066900000 0
ion C  11.669139441899997   6.737170909500000   3.000003066900000 0
ion C  16.336772541900000   6.737170909500000   3.000003066900000 0
ion C  14.002974889200004  10.779473455200000   3.000003066900000 0
ion N   7.001468547300003  12.126926534399997   3.000003066900000 0
ion S   6.708269959493291  11.247237973426726  10.236952371164678 1
ion Na   2.394255621307741  10.715704291261773   8.241511407168884 1
ion Na  11.076347781091513  11.126061407119943   8.270455562905186 1

# Forces in Cartesian coordinates:
force C   0.001591933328924  -0.000872869668418  -0.000005352985776 0
force C   0.000500662997146  -0.000079191435850   0.000018901517953 0
force C   0.001423085207825  -0.001175652626970   0.000008208408034 0
force C   0.000805845126851   0.001120018048718  -0.000003584377934 0
force C   0.000241386495092  -0.000408993914310  -0.000012059298590 0
force C   0.001722793818265  -0.000781066373013   0.000097434992942 0
force C  -0.000474913176949  -0.001304012732341  -0.000004065665948 0
force C   0.000221970714749   0.000452467598557   0.000033624572247 0
force C  -0.002895759613732  -0.009884100610365   0.000045872464637 0
force C  -0.000882023459768   0.001124665374610  -0.000004015923413 0
force C  -0.000315969863669  -0.000407707245447  -0.000012051957759 0
force C   0.007414512011427   0.006967856334981  -0.001602528694787 0
force C  -0.001349928013111   0.000192485691118   0.000011200109613 0
force C   0.000031680203885   0.001863992942077   0.000010970512094 0
force C  -0.001626462471108  -0.000880999376087  -0.000006975011842 0
force C   0.000046123493580   0.000027718300237  -0.001098323270990 0
force C   0.000008646926610  -0.000583559953565   0.000032867271226 0
force C   0.000000561242280  -0.000049947363932  -0.000009661771210 0
force C   0.000338654532528   0.001848760213513   0.000013901720049 0
force C   0.002881027553442  -0.009901040481419   0.000136562827592 0
force C   0.000520487704607  -0.001310563680116  -0.000005961632920 0
force C  -0.001440421819391  -0.001177864539534   0.000010704767885 0
force C   0.009995602050354   0.002950684902535  -0.004409027155478 0
force C   0.001383884794637   0.000182335105469   0.000011926292906 0
force C   0.000010777164519   0.005435566949372   0.000088989976213 0
force C  -0.000003763830032  -0.000018265435414  -0.000008241992379 0
force C  -0.004815513031798  -0.002795705848044   0.000104703860573 0
force C   0.004832182530388  -0.002785975467988   0.000104828821216 0
force C  -0.001719935658388  -0.000783026360920   0.000084035872852 0
force C  -0.000226494444060   0.000438821438127   0.000016527124548 0
force C  -0.009834545238631   0.002781026499676  -0.004470473369401 0
force C  -0.000386349829323   0.001831465416164   0.000073533975397 0
force C  -0.000469006344746  -0.000070839755441   0.000005028778608 0
force C  -0.007290362442841   0.007028502958437  -0.001317130533734 0
force C  -0.000249753657309   0.000253133542171  -0.000373380900780 0
force C  -0.000581971722231   0.000730934531828   0.000021416547129 0
force C  -0.000972413525463   0.000100261607298  -0.000006813321415 0
force C  -0.001820345299745   0.001070053666045  -0.000009926895407 0
force C  -0.000230526162741  -0.000118388804845   0.000082368861231 0
force C  -0.004672421507912   0.000848747740459   0.000073436857404 0
force C   0.000031024186291  -0.000108371708771  -0.000012346415278 0
force C   0.000025772650112   0.000198594643854  -0.000008320065796 0
force C  -0.002821839201020   0.003245757093430  -0.000808283347828 0
force C   0.000095087966168   0.000112420481468  -0.000010407330762 0
force C   0.000344053023153  -0.000908616130658   0.000050007594785 0
force C  -0.000032559185340  -0.007224539105216  -0.000110744842090 0
force C   0.001904006934119   0.001065709583153  -0.000010056241405 0
force C   0.001005884002434   0.000105780781320  -0.000007826705986 0
force C   0.006953528359816   0.003611568858493  -0.003288489352854 0
force C  -0.000002469720739  -0.002146369603792  -0.000004629575069 0
force C  -0.001894658018943  -0.000836587767516   0.000058308101183 0
force C  -0.000628262938432   0.000343329173080  -0.000007524109940 0
force C  -0.000284260315051   0.002133842537911   0.000022563693399 0
force C   0.000835371378276  -0.004367545670997  -0.002834167437993 0
force C   0.004643846017169   0.000820624258154   0.000059039813074 0
force C  -0.000096033638931   0.000109343635592  -0.000010927130286 0
force C  -0.001739765766574  -0.001231457350234   0.000076609493275 0
force C  -0.005265773996148   0.003381289640990  -0.000507323116913 0
force C   0.000277000704044   0.002140530712938   0.000023588669719 0
force C   0.001906596328625  -0.000826890588618   0.000046213594959 0
force C  -0.000032054634814  -0.000738748722204   0.000003562516634 0
force C   0.005319947306232   0.003403027051026  -0.000802325231141 0
force C   0.001727372207042  -0.001214061765387   0.000060681430689 0
force C   0.000598866680186   0.000355369982559  -0.000009258990975 0
force C   0.000012085231583  -0.006023319326657   0.000047208592313 0
force C   0.000564256382565   0.000728129737547   0.000009557234210 0
force C  -0.000343937541647  -0.000930139399675   0.000041023253387 0
force C  -0.006679530782186   0.003418937641997  -0.003987147495023 0
force C   0.002800012100082   0.003461702995717  -0.000304975688294 0
force C   0.000285178324988  -0.000162660034771   0.000060813189168 0
force C  -0.001081193650264  -0.004456412308691  -0.001769750818484 0
force N   0.000017256026503   0.000310333941666  -0.001397064060916 0
force S   0.000084180358001   0.002812484911627   0.018555714441829 1
force Na  -0.019020516978239  -0.002078175534901   0.004132580592241 1
force Na   0.018704951167486  -0.000376626254445   0.003274333832804 1

# Energy components:
   A_diel =       -0.2167999763333499
   Eewald =     4643.3962031764767744
       EH =     5048.4392075501755244
     Eloc =   -10242.9855108742340235
      Enl =      -83.4217711433644524
     EvdW =       -0.1079866327187750
      Exc =     -150.1919330415044840
 Exc_core =        4.2473387817255484
       KE =      259.5361567779721099
-------------------------------------
     Etot =     -521.3050953818041080
       TS =        0.0696666498896076
-------------------------------------
        F =     -521.3747620316937628

IonicMinimize: Iter:   0  F: -521.374762031693763  |grad|_K:  1.104e-02  alpha:  1.000e+00

#--- Lowdin population analysis ---
# oxidation-state C +0.030 +0.031 +0.033 +0.030 +0.031 +0.033 +0.030 +0.030 +0.024 +0.030 +0.031 +0.023 +0.030 +0.030 +0.030 +0.029 +0.032 +0.026 +0.031 +0.025 +0.030 +0.033 +0.019 +0.030 +0.028 +0.027 +0.026 +0.027 +0.033 +0.030 +0.019 +0.031 +0.031 +0.023 +0.029 +0.031 +0.031 +0.032 +0.030 +0.034 +0.031 +0.031 +0.031 +0.031 +0.030 +0.144 +0.032 +0.031 +0.140 +0.031 +0.033 +0.030 +0.033 +0.031 +0.034 +0.031 +0.032 +0.040 +0.033 +0.033 +0.030 +0.040 +0.031 +0.030 +0.041 +0.031 +0.030 +0.140 +0.031 +0.030 +0.031
# oxidation-state N +0.011
# oxidation-state S -1.172
# oxidation-state Na +0.882 +0.882


Computing DFT-D3 correction:
# coordination-number C 3.300 3.300 3.300 3.300 3.300 3.303 3.300 3.301 3.299 3.300 3.300 3.385 3.300 3.300 3.300 3.390 3.300 3.300 3.319 3.294 3.300 3.300 3.776 3.300 3.301 3.300 3.306 3.306 3.302 3.300 3.801 3.311 3.300 3.378 3.341 3.300 3.300 3.300 3.305 3.301 3.300 3.300 3.355 3.300 3.302 3.313 3.300 3.300 3.601 3.300 3.300 3.300 3.300 3.579 3.300 3.300 3.304 3.346 3.300 3.300 3.300 3.367 3.303 3.300 3.309 3.300 3.301 3.693 3.332 3.302 3.463
# coordination-number N 3.261
# coordination-number S 1.985
# coordination-number Na 2.477 2.438
# diagonal-C6 C 24.29 24.28 24.28 24.29 24.29 24.26 24.28 24.27 24.29 24.29 24.29 23.30 24.28 24.28 24.29 23.24 24.28 24.29 24.10 24.34 24.29 24.28 18.85 24.28 24.27 24.29 24.22 24.23 24.27 24.28 18.75 24.17 24.28 23.40 23.86 24.28 24.29 24.29 24.24 24.28 24.29 24.29 23.68 24.29 24.27 24.15 24.29 24.29 20.27 24.28 24.28 24.29 24.28 20.54 24.28 24.29 24.24 23.80 24.28 24.28 24.28 23.54 24.25 24.29 24.20 24.28 24.27 19.36 23.96 24.26 22.19
# diagonal-C6 N 15.59
# diagonal-C6 S 125.91
# diagonal-C6 Na 186.11 186.11
EvdW_6 =   -0.058476
EvdW_8 =   -0.049492

-------- Electronic minimization -----------
Will mix electronic density at each iteration.
	FillingsUpdate:  mu: -0.105216030  nElectrons: 313.000000
	Linear fluid (dielectric constant: 64) occupying 0.894156 of unit cell:	Completed after 19 iterations at t[s]:  59861.78
	FillingsUpdate:  mu: -0.105204183  nElectrons: 313.000000
	Linear fluid (dielectric constant: 64) occupying 0.894152 of unit cell:	Completed after 7 iterations at t[s]:  60557.65
SCF: Cycle:  0   F: -521.376439908425255   dF: -1.532e-05   |Residual|: 1.640e-03   |deigs|: 1.332e-06  t[s]:  60559.41
	Linear fluid (dielectric constant: 64) occupying 0.894156 of unit cell:	Completed after 4 iterations at t[s]:  60564.12
	FillingsUpdate:  mu: -0.105189902  nElectrons: 313.000000
	Linear fluid (dielectric constant: 64) occupying 0.894151 of unit cell:	Completed after 5 iterations at t[s]:  60997.03
SCF: Cycle:  1   F: -521.376442112632617   dF: -2.204e-06   |Residual|: 9.148e-04   |deigs|: 4.489e-05  t[s]:  60998.83
	Linear fluid (dielectric constant: 64) occupying 0.894154 of unit cell:	Completed after 4 iterations at t[s]:  61004.03
	FillingsUpdate:  mu: -0.105229165  nElectrons: 313.000000
	Linear fluid (dielectric constant: 64) occupying 0.894151 of unit cell:	Completed after 7 iterations at t[s]:  61438.97
SCF: Cycle:  2   F: -521.376440937575694   dF: +1.175e-06   |Residual|: 7.536e-04   |deigs|: 3.029e-05  t[s]:  61440.75
	Linear fluid (dielectric constant: 64) occupying 0.894153 of unit cell:	Completed after 5 iterations at t[s]:  61446.62
	FillingsUpdate:  mu: -0.105194492  nElectrons: 313.000000
	Linear fluid (dielectric constant: 64) occupying 0.894151 of unit cell:	Completed after 7 iterations at t[s]:  61882.51
SCF: Cycle:  3   F: -521.376442754712798   dF: -1.817e-06   |Residual|: 4.585e-04   |deigs|: 3.295e-05  t[s]:  61884.50
	Linear fluid (dielectric constant: 64) occupying 0.894152 of unit cell:	Completed after 3 iterations at t[s]:  61888.86
	FillingsUpdate:  mu: -0.105226016  nElectrons: 313.000000
	Linear fluid (dielectric constant: 64) occupying 0.894150 of unit cell:	Completed after 5 iterations at t[s]:  62322.59
SCF: Cycle:  4   F: -521.376443399611389   dF: -6.449e-07   |Residual|: 3.563e-04   |deigs|: 2.621e-05  t[s]:  62324.43
	Linear fluid (dielectric constant: 64) occupying 0.894152 of unit cell:	Completed after 3 iterations at t[s]:  62329.00
	FillingsUpdate:  mu: -0.105191818  nElectrons: 313.000000
	Linear fluid (dielectric constant: 64) occupying 0.894151 of unit cell:	Completed after 4 iterations at t[s]:  62763.95
SCF: Cycle:  5   F: -521.376443527430979   dF: -1.278e-07   |Residual|: 3.500e-04   |deigs|: 2.307e-05  t[s]:  62765.91
	Linear fluid (dielectric constant: 64) occupying 0.894151 of unit cell:	Completed after 2 iterations at t[s]:  62769.93
	FillingsUpdate:  mu: -0.105228407  nElectrons: 313.000000
	Linear fluid (dielectric constant: 64) occupying 0.894151 of unit cell:	Completed after 5 iterations at t[s]:  63205.26
SCF: Cycle:  6   F: -521.376442346635258   dF: +1.181e-06   |Residual|: 5.413e-04   |deigs|: 2.427e-05  t[s]:  63207.34
	Linear fluid (dielectric constant: 64) occupying 0.894151 of unit cell:	Completed after 3 iterations at t[s]:  63212.11
	FillingsUpdate:  mu: -0.105192353  nElectrons: 313.000000
	Linear fluid (dielectric constant: 64) occupying 0.894151 of unit cell:	Completed after 4 iterations at t[s]:  63646.46
SCF: Cycle:  7   F: -521.376443278554007   dF: -9.319e-07   |Residual|: 3.839e-04   |deigs|: 2.525e-05  t[s]:  63648.44
	Linear fluid (dielectric constant: 64) occupying 0.894151 of unit cell:	Completed after 3 iterations at t[s]:  63653.25
	FillingsUpdate:  mu: -0.105226145  nElectrons: 313.000000
	Linear fluid (dielectric constant: 64) occupying 0.894151 of unit cell:	Completed after 3 iterations at t[s]:  64087.36
SCF: Cycle:  8   F: -521.376443772861421   dF: -4.943e-07   |Residual|: 2.957e-04   |deigs|: 2.068e-05  t[s]:  64089.53
	Linear fluid (dielectric constant: 64) occupying 0.894151 of unit cell:	Completed after 3 iterations at t[s]:  64094.85
	FillingsUpdate:  mu: -0.105199049  nElectrons: 313.000000
	Linear fluid (dielectric constant: 64) occupying 0.894150 of unit cell:	Completed after 4 iterations at t[s]:  64529.90
SCF: Cycle:  9   F: -521.376443820990744   dF: -4.813e-08   |Residual|: 2.780e-04   |deigs|: 1.657e-05  t[s]:  64532.15
	Linear fluid (dielectric constant: 64) occupying 0.894151 of unit cell:	Completed after 2 iterations at t[s]:  64536.69
	FillingsUpdate:  mu: -0.105222763  nElectrons: 313.000000
	Linear fluid (dielectric constant: 64) occupying 0.894151 of unit cell:	Completed after 4 iterations at t[s]:  65173.14
SCF: Cycle: 10   F: -521.376443673472977   dF: +1.475e-07   |Residual|: 3.217e-04   |deigs|: 1.800e-05  t[s]:  65175.12
	Linear fluid (dielectric constant: 64) occupying 0.894151 of unit cell:	Completed after 2 iterations at t[s]:  65179.20
	FillingsUpdate:  mu: -0.105201402  nElectrons: 313.000000
	Linear fluid (dielectric constant: 64) occupying 0.894150 of unit cell:	Completed after 4 iterations at t[s]:  65612.73
SCF: Cycle: 11   F: -521.376443781006628   dF: -1.075e-07   |Residual|: 2.906e-04   |deigs|: 1.793e-05  t[s]:  65614.57
	Linear fluid (dielectric constant: 64) occupying 0.894151 of unit cell:	Completed after 2 iterations at t[s]:  65618.99
	FillingsUpdate:  mu: -0.105225362  nElectrons: 313.000000
	Linear fluid (dielectric constant: 64) occupying 0.894151 of unit cell:	Completed after 3 iterations at t[s]:  66051.90
SCF: Cycle: 12   F: -521.376443522281875   dF: +2.587e-07   |Residual|: 3.528e-04   |deigs|: 1.969e-05  t[s]:  66053.88
	Linear fluid (dielectric constant: 64) occupying 0.894151 of unit cell:	Completed after 2 iterations at t[s]:  66058.29
	FillingsUpdate:  mu: -0.105200311  nElectrons: 313.000000
	Linear fluid (dielectric constant: 64) occupying 0.894150 of unit cell:	Completed after 3 iterations at t[s]:  66491.77
SCF: Cycle: 13   F: -521.376443989519203   dF: -4.672e-07   |Residual|: 2.403e-04   |deigs|: 1.708e-05  t[s]:  66493.70
	Linear fluid (dielectric constant: 64) occupying 0.894151 of unit cell:	Completed after 3 iterations at t[s]:  66498.67
	FillingsUpdate:  mu: -0.105225765  nElectrons: 313.000000
	Linear fluid (dielectric constant: 64) occupying 0.894151 of unit cell:	Completed after 3 iterations at t[s]:  66932.17
SCF: Cycle: 14   F: -521.376443645880840   dF: +3.436e-07   |Residual|: 3.296e-04   |deigs|: 1.630e-05  t[s]:  66934.06
	Linear fluid (dielectric constant: 64) occupying 0.894151 of unit cell:	Completed after 3 iterations at t[s]:  66938.90
	FillingsUpdate:  mu: -0.105202871  nElectrons: 313.000000
	Linear fluid (dielectric constant: 64) occupying 0.894151 of unit cell:	Completed after 3 iterations at t[s]:  67372.74
SCF: Cycle: 15   F: -521.376444157869173   dF: -5.120e-07   |Residual|: 1.802e-04   |deigs|: 1.481e-05  t[s]:  67374.64
	Linear fluid (dielectric constant: 64) occupying 0.894151 of unit cell:	Completed after 2 iterations at t[s]:  67378.90
	FillingsUpdate:  mu: -0.105227029  nElectrons: 313.000000
	Linear fluid (dielectric constant: 64) occupying 0.894152 of unit cell:	Completed after 6 iterations at t[s]:  67814.22
SCF: Cycle: 16   F: -521.376442542551217   dF: +1.615e-06   |Residual|: 4.957e-04   |deigs|: 1.885e-05  t[s]:  67816.08
	Linear fluid (dielectric constant: 64) occupying 0.894151 of unit cell:	Completed after 3 iterations at t[s]:  67820.82
	FillingsUpdate:  mu: -0.105200817  nElectrons: 313.000000
	Linear fluid (dielectric constant: 64) occupying 0.894151 of unit cell:	Completed after 4 iterations at t[s]:  68255.79
SCF: Cycle: 17   F: -521.376443933130417   dF: -1.391e-06   |Residual|: 2.261e-04   |deigs|: 2.170e-05  t[s]:  68257.70
	Linear fluid (dielectric constant: 64) occupying 0.894151 of unit cell:	Completed after 2 iterations at t[s]:  68261.83
	FillingsUpdate:  mu: -0.105224875  nElectrons: 313.000000
	Linear fluid (dielectric constant: 64) occupying 0.894151 of unit cell:	Completed after 4 iterations at t[s]:  68696.42
SCF: Cycle: 18   F: -521.376443304952204   dF: +6.282e-07   |Residual|: 3.848e-04   |deigs|: 1.895e-05  t[s]:  68698.37
	Linear fluid (dielectric constant: 64) occupying 0.894151 of unit cell:	Completed after 3 iterations at t[s]:  68703.11
	FillingsUpdate:  mu: -0.105199395  nElectrons: 313.000000
	Linear fluid (dielectric constant: 64) occupying 0.894151 of unit cell:	Completed after 3 iterations at t[s]:  69137.36
SCF: Cycle: 19   F: -521.376444127058221   dF: -8.221e-07   |Residual|: 1.881e-04   |deigs|: 1.699e-05  t[s]:  69139.42
	Linear fluid (dielectric constant: 64) occupying 0.894151 of unit cell:	Completed after 2 iterations at t[s]:  69143.65
	FillingsUpdate:  mu: -0.105223619  nElectrons: 313.000000
	Linear fluid (dielectric constant: 64) occupying 0.894151 of unit cell:	Completed after 3 iterations at t[s]:  69577.83
SCF: Cycle: 20   F: -521.376443814181243   dF: +3.129e-07   |Residual|: 2.909e-04   |deigs|: 1.706e-05  t[s]:  69579.88
	Linear fluid (dielectric constant: 64) occupying 0.894151 of unit cell:	Completed after 3 iterations at t[s]:  69584.70
	FillingsUpdate:  mu: -0.105201329  nElectrons: 313.000000
	Linear fluid (dielectric constant: 64) occupying 0.894151 of unit cell:	Completed after 3 iterations at t[s]:  70015.41
SCF: Cycle: 21   F: -521.376444080900342   dF: -2.667e-07   |Residual|: 2.102e-04   |deigs|: 1.452e-05  t[s]:  70017.37
	Linear fluid (dielectric constant: 64) occupying 0.894151 of unit cell:	Completed after 2 iterations at t[s]:  70021.70
	FillingsUpdate:  mu: -0.105225178  nElectrons: 313.000000
	Linear fluid (dielectric constant: 64) occupying 0.894152 of unit cell:	Completed after 4 iterations at t[s]:  70453.72
SCF: Cycle: 22   F: -521.376443611111085   dF: +4.698e-07   |Residual|: 3.283e-04   |deigs|: 1.541e-05  t[s]:  70455.64
	Linear fluid (dielectric constant: 64) occupying 0.894151 of unit cell:	Completed after 2 iterations at t[s]:  70459.88
	FillingsUpdate:  mu: -0.105201381  nElectrons: 313.000000
	Linear fluid (dielectric constant: 64) occupying 0.894150 of unit cell:	Completed after 2 iterations at t[s]:  70889.88
SCF: Cycle: 23   F: -521.376444084113018   dF: -4.730e-07   |Residual|: 2.210e-04   |deigs|: 1.576e-05  t[s]:  70891.86
	Linear fluid (dielectric constant: 64) occupying 0.894151 of unit cell:	Completed after 2 iterations at t[s]:  70895.98
	FillingsUpdate:  mu: -0.105229793  nElectrons: 313.000000
	Linear fluid (dielectric constant: 64) occupying 0.894152 of unit cell:	Completed after 5 iterations at t[s]:  71327.28
SCF: Cycle: 24   F: -521.376442599130769   dF: +1.485e-06   |Residual|: 4.794e-04   |deigs|: 1.974e-05  t[s]:  71329.17
	Linear fluid (dielectric constant: 64) occupying 0.894151 of unit cell:	Completed after 3 iterations at t[s]:  71333.81
	FillingsUpdate:  mu: -0.105200985  nElectrons: 313.000000
	Linear fluid (dielectric constant: 64) occupying 0.894151 of unit cell:	Completed after 3 iterations at t[s]:  71764.67
SCF: Cycle: 25   F: -521.376443845592007   dF: -1.246e-06   |Residual|: 2.648e-04   |deigs|: 2.174e-05  t[s]:  71766.46
	Linear fluid (dielectric constant: 64) occupying 0.894151 of unit cell:	Completed after 3 iterations at t[s]:  71771.19
	FillingsUpdate:  mu: -0.105227136  nElectrons: 313.000000
	Linear fluid (dielectric constant: 64) occupying 0.894151 of unit cell:	Completed after 3 iterations at t[s]:  72202.40
SCF: Cycle: 26   F: -521.376443717309598   dF: +1.283e-07   |Residual|: 3.142e-04   |deigs|: 1.754e-05  t[s]:  72204.21
	Linear fluid (dielectric constant: 64) occupying 0.894151 of unit cell:	Completed after 3 iterations at t[s]:  72209.03
	FillingsUpdate:  mu: -0.105202708  nElectrons: 313.000000
	Linear fluid (dielectric constant: 64) occupying 0.894151 of unit cell:	Completed after 3 iterations at t[s]:  72642.50
SCF: Cycle: 27   F: -521.376444050759460   dF: -3.334e-07   |Residual|: 2.145e-04   |deigs|: 1.536e-05  t[s]:  72644.31
	Linear fluid (dielectric constant: 64) occupying 0.894151 of unit cell:	Completed after 3 iterations at t[s]:  72648.90
	FillingsUpdate:  mu: -0.105224079  nElectrons: 313.000000
	Linear fluid (dielectric constant: 64) occupying 0.894151 of unit cell:	Completed after 4 iterations at t[s]:  73081.32
SCF: Cycle: 28   F: -521.376443780931709   dF: +2.698e-07   |Residual|: 2.923e-04   |deigs|: 1.483e-05  t[s]:  73083.12
	Linear fluid (dielectric constant: 64) occupying 0.894151 of unit cell:	Completed after 2 iterations at t[s]:  73087.16
	FillingsUpdate:  mu: -0.105199527  nElectrons: 313.000000
	Linear fluid (dielectric constant: 64) occupying 0.894150 of unit cell:	Completed after 4 iterations at t[s]:  73520.48
SCF: Cycle: 29   F: -521.376443399564437   dF: +3.814e-07   |Residual|: 3.635e-04   |deigs|: 1.822e-05  t[s]:  73522.49
	Linear fluid (dielectric constant: 64) occupying 0.894151 of unit cell:	Completed after 2 iterations at t[s]:  73526.72
	FillingsUpdate:  mu: -0.105224648  nElectrons: 313.000000
	Linear fluid (dielectric constant: 64) occupying 0.894151 of unit cell:	Completed after 4 iterations at t[s]:  73960.49
SCF: Cycle: 30   F: -521.376443420595933   dF: -2.103e-08   |Residual|: 3.687e-04   |deigs|: 2.063e-05  t[s]:  73962.35
	Linear fluid (dielectric constant: 64) occupying 0.894151 of unit cell:	Completed after 2 iterations at t[s]:  73966.51
	FillingsUpdate:  mu: -0.105202441  nElectrons: 313.000000
	Linear fluid (dielectric constant: 64) occupying 0.894151 of unit cell:	Completed after 4 iterations at t[s]:  74597.51
SCF: Cycle: 31   F: -521.376443967582873   dF: -5.470e-07   |Residual|: 2.319e-04   |deigs|: 1.741e-05  t[s]:  74599.58
	Linear fluid (dielectric constant: 64) occupying 0.894151 of unit cell:	Completed after 2 iterations at t[s]:  74603.76
	FillingsUpdate:  mu: -0.105228961  nElectrons: 313.000000
	Linear fluid (dielectric constant: 64) occupying 0.894152 of unit cell:	Completed after 3 iterations at t[s]:  75035.90
SCF: Cycle: 32   F: -521.376443127336643   dF: +8.402e-07   |Residual|: 4.371e-04   |deigs|: 1.886e-05  t[s]:  75037.73
	Linear fluid (dielectric constant: 64) occupying 0.894151 of unit cell:	Completed after 3 iterations at t[s]:  75042.68
	FillingsUpdate:  mu: -0.105202140  nElectrons: 313.000000
	Linear fluid (dielectric constant: 64) occupying 0.894151 of unit cell:	Completed after 3 iterations at t[s]:  75473.84
SCF: Cycle: 33   F: -521.376444190612688   dF: -1.063e-06   |Residual|: 1.583e-04   |deigs|: 1.681e-05  t[s]:  75475.64
	Linear fluid (dielectric constant: 64) occupying 0.894151 of unit cell:	Completed after 2 iterations at t[s]:  75479.88
	FillingsUpdate:  mu: -0.105226491  nElectrons: 313.000000
	Linear fluid (dielectric constant: 64) occupying 0.894152 of unit cell:	Completed after 5 iterations at t[s]:  75913.51
[...]
Will mix electronic density at each iteration.
	FillingsUpdate:  mu: -0.104325948  nElectrons: 313.000000
	Linear fluid (dielectric constant: 64) occupying 0.892363 of unit cell:	Completed after 8 iterations at t[s]: 1452720.51
	FillingsUpdate:  mu: -0.104353238  nElectrons: 313.000000
	Linear fluid (dielectric constant: 64) occupying 0.892364 of unit cell:	Completed after 7 iterations at t[s]: 1453210.21
SCF: Cycle:  0   F: -521.421107873609003   dF: +2.554e-06   |Residual|: 6.391e-04   |deigs|: 3.031e-09  t[s]: 1453211.73
	Linear fluid (dielectric constant: 64) occupying 0.892366 of unit cell:	Completed after 4 iterations at t[s]: 1453215.87
	FillingsUpdate:  mu: -0.104311834  nElectrons: 313.000000
	Linear fluid (dielectric constant: 64) occupying 0.892366 of unit cell:	Completed after 8 iterations at t[s]: 1453650.44
SCF: Cycle:  1   F: -521.421105744269880   dF: +2.129e-06   |Residual|: 8.150e-04   |deigs|: 3.871e-05  t[s]: 1453651.96
	Linear fluid (dielectric constant: 64) occupying 0.892364 of unit cell:	Completed after 8 iterations at t[s]: 1453658.07
	FillingsUpdate:  mu: -0.104333750  nElectrons: 313.000000
	Linear fluid (dielectric constant: 64) occupying 0.892363 of unit cell:	Completed after 0 iterations at t[s]: 1454089.61
SCF: Cycle:  2   F: -521.421110536285369   dF: -4.792e-06   |Residual|: 1.346e-04   |deigs|: 2.998e-05  t[s]: 1454091.17
	Linear fluid (dielectric constant: 64) occupying 0.892365 of unit cell:	Completed after 0 iterations at t[s]: 1454093.28
	FillingsUpdate:  mu: -0.104328370  nElectrons: 313.000000
	Linear fluid (dielectric constant: 64) occupying 0.892364 of unit cell:	Completed after 0 iterations at t[s]: 1454521.96
SCF: Cycle:  3   F: -521.421110544429553   dF: -8.144e-09   |Residual|: 5.536e-05   |deigs|: 3.145e-06  t[s]: 1454523.80
	Linear fluid (dielectric constant: 64) occupying 0.892365 of unit cell:	Completed after 0 iterations at t[s]: 1454525.45
	FillingsUpdate:  mu: -0.104328701  nElectrons: 313.000000
	Linear fluid (dielectric constant: 64) occupying 0.892364 of unit cell:	Completed after 0 iterations at t[s]: 1454954.94
SCF: Cycle:  4   F: -521.421110547455669   dF: -3.026e-09   |Residual|: 4.334e-05   |deigs|: 2.190e-06  t[s]: 1454956.55
SCF: Converged (|Delta E|<1.000000e-08 for 2 iters).

Setting wave functions to eigenvectors of Hamiltonian

Computing DFT-D3 correction:
# coordination-number C 3.300 3.301 3.300 3.300 3.300 3.301 3.300 3.304 3.288 3.300 3.300 3.290 3.300 3.301 3.300 3.333 3.300 3.300 3.323 3.288 3.300 3.300 3.304 3.300 3.300 3.300 3.303 3.302 3.300 3.302 3.317 3.322 3.300 3.291 3.321 3.300 3.300 3.300 3.309 3.300 3.300 3.300 3.307 3.300 3.307 3.300 3.300 3.300 3.304 3.300 3.300 3.300 3.300 3.362 3.300 3.300 3.304 3.301 3.300 3.300 3.301 3.304 3.305 3.300 3.299 3.300 3.304 3.306 3.305 3.304 3.364
# coordination-number N 3.213
# coordination-number S 0.156
# coordination-number Na 0.271 0.273
# diagonal-C6 C 24.29 24.27 24.28 24.29 24.29 24.28 24.28 24.24 24.39 24.29 24.29 24.37 24.28 24.27 24.29 23.94 24.29 24.29 24.05 24.40 24.29 24.29 24.24 24.28 24.28 24.28 24.25 24.27 24.28 24.26 24.12 24.06 24.28 24.37 24.07 24.28 24.29 24.29 24.20 24.28 24.29 24.29 24.22 24.28 24.22 24.29 24.29 24.29 24.25 24.28 24.28 24.28 24.28 23.60 24.29 24.29 24.24 24.27 24.28 24.28 24.28 24.24 24.23 24.28 24.30 24.28 24.24 24.23 24.23 24.24 23.58
# diagonal-C6 N 15.60
# diagonal-C6 S 133.82
# diagonal-C6 Na 1273.42 1269.90
EvdW_6 =   -0.060454
EvdW_8 =   -0.052126

-------- Electronic minimization -----------
Will mix electronic density at each iteration.
	FillingsUpdate:  mu: -0.104328701  nElectrons: 313.000000
	Linear fluid (dielectric constant: 64) occupying 0.892364 of unit cell:	Completed after 3 iterations at t[s]: 1455218.45
	FillingsUpdate:  mu: -0.104336794  nElectrons: 313.000000
	Linear fluid (dielectric constant: 64) occupying 0.892364 of unit cell:	Completed after 3 iterations at t[s]: 1455707.34
SCF: Cycle:  0   F: -521.421110845921476   dF: +1.448e-07   |Residual|: 1.444e-04   |deigs|: 4.779e-09  t[s]: 1455708.81
	Linear fluid (dielectric constant: 64) occupying 0.892363 of unit cell:	Completed after 0 iterations at t[s]: 1455710.75
	FillingsUpdate:  mu: -0.104352090  nElectrons: 313.000000
	Linear fluid (dielectric constant: 64) occupying 0.892365 of unit cell:	Completed after 4 iterations at t[s]: 1456143.03
SCF: Cycle:  1   F: -521.421109602963497   dF: +1.243e-06   |Residual|: 4.046e-04   |deigs|: 1.591e-05  t[s]: 1456144.58
	Linear fluid (dielectric constant: 64) occupying 0.892364 of unit cell:	Completed after 2 iterations at t[s]: 1456147.71
	FillingsUpdate:  mu: -0.104315131  nElectrons: 313.000000
	Linear fluid (dielectric constant: 64) occupying 0.892364 of unit cell:	Completed after 7 iterations at t[s]: 1456582.08
SCF: Cycle:  2   F: -521.421108105813687   dF: +1.497e-06   |Residual|: 5.866e-04   |deigs|: 2.734e-05  t[s]: 1456583.85
	Linear fluid (dielectric constant: 64) occupying 0.892363 of unit cell:	Completed after 7 iterations at t[s]: 1456589.47
	FillingsUpdate:  mu: -0.104331413  nElectrons: 313.000000
	Linear fluid (dielectric constant: 64) occupying 0.892363 of unit cell:	Completed after 1 iterations at t[s]: 1457020.27
SCF: Cycle:  3   F: -521.421110856236737   dF: -2.750e-06   |Residual|: 1.249e-04   |deigs|: 1.567e-05  t[s]: 1457021.79
	Linear fluid (dielectric constant: 64) occupying 0.892363 of unit cell:	Completed after 0 iterations at t[s]: 1457023.95
	FillingsUpdate:  mu: -0.104338440  nElectrons: 313.000000
	Linear fluid (dielectric constant: 64) occupying 0.892364 of unit cell:	Completed after 0 iterations at t[s]: 1457448.38
SCF: Cycle:  4   F: -521.421110902228975   dF: -4.599e-08   |Residual|: 1.011e-04   |deigs|: 5.821e-06  t[s]: 1457449.99
	Linear fluid (dielectric constant: 64) occupying 0.892363 of unit cell:	Completed after 0 iterations at t[s]: 1457451.57
	FillingsUpdate:  mu: -0.104338421  nElectrons: 313.000000
	Linear fluid (dielectric constant: 64) occupying 0.892364 of unit cell:	Completed after 0 iterations at t[s]: 1457881.14
SCF: Cycle:  5   F: -521.421110902976011   dF: -7.470e-10   |Residual|: 1.001e-04   |deigs|: 3.066e-07  t[s]: 1457882.71
	Linear fluid (dielectric constant: 64) occupying 0.892364 of unit cell:	Completed after 0 iterations at t[s]: 1457884.43
	FillingsUpdate:  mu: -0.104338394  nElectrons: 313.000000
	Linear fluid (dielectric constant: 64) occupying 0.892364 of unit cell:	Completed after 0 iterations at t[s]: 1458308.07
SCF: Cycle:  6   F: -521.421110903704744   dF: -7.287e-10   |Residual|: 9.860e-05   |deigs|: 7.383e-07  t[s]: 1458309.77
SCF: Converged (|Delta E|<1.000000e-08 for 2 iters).

Setting wave functions to eigenvectors of Hamiltonian

Computing DFT-D3 correction:
# coordination-number C 3.300 3.301 3.300 3.300 3.300 3.301 3.300 3.304 3.288 3.300 3.300 3.290 3.300 3.301 3.300 3.333 3.300 3.300 3.323 3.288 3.300 3.300 3.304 3.300 3.300 3.300 3.303 3.302 3.300 3.302 3.317 3.322 3.300 3.291 3.321 3.300 3.300 3.300 3.309 3.300 3.300 3.300 3.307 3.300 3.307 3.300 3.300 3.300 3.304 3.300 3.300 3.300 3.300 3.362 3.300 3.300 3.304 3.301 3.300 3.300 3.301 3.304 3.305 3.300 3.299 3.300 3.304 3.306 3.305 3.304 3.364
# coordination-number N 3.213
# coordination-number S 0.156
# coordination-number Na 0.271 0.273
# diagonal-C6 C 24.29 24.27 24.28 24.29 24.29 24.28 24.28 24.24 24.39 24.29 24.29 24.37 24.28 24.27 24.29 23.94 24.29 24.29 24.05 24.40 24.29 24.29 24.24 24.28 24.28 24.28 24.25 24.27 24.28 24.26 24.12 24.06 24.28 24.37 24.07 24.28 24.29 24.29 24.20 24.28 24.29 24.29 24.22 24.28 24.22 24.29 24.29 24.29 24.25 24.28 24.28 24.28 24.28 23.60 24.29 24.29 24.24 24.27 24.28 24.28 24.28 24.24 24.23 24.28 24.30 24.28 24.24 24.23 24.23 24.24 23.58
# diagonal-C6 N 15.60
# diagonal-C6 S 133.82
# diagonal-C6 Na 1273.42 1269.90
EvdW_6 =   -0.060454
EvdW_8 =   -0.052126

# Ionic positions in cartesian coordinates:
ion C   0.000000000000000   0.000000000000000   3.000003066900000 0
ion C  -2.333835447300000   4.042302545699999   3.000003066900000 0
ion C  11.669139441899999  20.211550523099998   3.000003066900000 0
ion C   4.667670894600000   0.000000000000000   3.000003066900000 0
ion C  23.338278883799997   0.000000000000000   3.000003066900000 0
ion C   2.333835447300000   4.042302545699999   3.000003066900000 0
ion C -11.669158339199999  20.211550523099998   3.000003066900000 0
ion C  -4.667670894600000   8.084623988700001   3.000003066900000 0
ion C   9.335303994599997  16.169229080099999   3.000003066900000 0
ion C   9.335322891900001   0.000000000000000   3.000003066900000 0
ion C  18.670626886499999   0.000000000000000   3.000003066900000 0
ion C   4.667670894599999   8.084623988700001   3.000003066900000 0
ion C  -9.335322891900001  16.169229080099999   3.000003066900000 0
ion C  -7.001487444600001  12.126926534399997   3.000003066900000 0
ion C  14.002993786499999   0.000000000000000   3.000003066900000 0
ion C   0.000000000000000   8.084623988700001   3.000003066900000 0
ion C   7.001468547300002  20.211550523099998   3.000003066900000 0
ion C  -7.001487444599999  20.211550523099998   3.000003066900000 0
ion C  -2.333835447300000  12.126926534399997   3.000003066900000 0
ion C   4.667633100000000  16.169229080099999   3.000003066900000 0
ion C  -2.333835447299998  20.211550523099998   3.000003066900000 0
ion C   2.333835447299998  20.211550523099998   3.000003066900000 0
ion C   2.333835447300001  12.126926534399997   3.000003066900000 0
ion C  -4.667651997299997  16.169229080099999   3.000003066900000 0
ion C   7.001468547300000   4.042302545699999   3.000003066900000 0
ion C  21.004424539199999   4.042302545699999   3.000003066900000 0
ion C  14.002955991899999  16.169229080099999   3.000003066900000 0
ion C   0.000000000000000  16.169229080099999   3.000003066900000 0
ion C  11.669120544600000   4.042302545699999   3.000003066900000 0
ion C  18.670626886500003   8.084623988700001   3.000003066900000 0
ion C  11.669120544600002  12.126926534399997   3.000003066900000 0
ion C  16.336791439199995  12.126926534399997   3.000003066900000 0
ion C  16.336791439199999   4.042302545699999   3.000003066900000 0
ion C   9.335303994599997   8.084623988700001   3.000003066900000 0
ion C  14.002955991899999   8.084623988700001   3.000003066900000 0
ion C   0.000018897300000   2.694868363800000   3.000003066900000 0
ion C  11.669139441899999  22.906399989600001   3.000003066900000 0
ion C -11.669139441899999  22.906399989600001   3.000003066900000 0
ion C  -2.333816550000000   6.737170909500000   3.000003066900000 0
ion C   9.335322891900001  18.864097443900000   3.000003066900000 0
ion C  -7.001468547300000  22.906399989600001   3.000003066900000 0
ion C   7.001487444600000  22.906399989600001   3.000003066900000 0
ion C   2.333816550000000   6.737170909500000   3.000003066900000 0
ion C  -9.335303994599998  18.864097443900000   3.000003066900000 0
ion C  -4.667651997299998  10.779473455200000   3.000003066900000 0
ion C   7.001487444599997  14.821794898200000   3.000003066900000 0
ion C  -2.333835447300000  22.906399989600001   3.000003066900000 0
ion C   2.333816550000000  22.906399989600001   3.000003066900000 0
ion C   4.667651997299999  10.779473455200000   3.000003066900000 0
ion C  -7.001468547300004  14.821794898200000   3.000003066900000 0
ion C   4.667651997300001   2.694868363800000   3.000003066900000 0
ion C  23.338259986499999   2.694868363800000   3.000003066900000 0
ion C  14.002955991899997  18.864097443900000   3.000003066900000 0
ion C   0.000018897300000  10.779473455200000   3.000003066900000 0
ion C   4.667651997299995  18.864097443900000   3.000003066900000 0
ion C  -4.667651997300002  18.864097443900000   3.000003066900000 0
ion C  -2.333816550000002  14.821794898200000   3.000003066900000 0
ion C   2.333816549999996  14.821794898200000   3.000003066900000 0
ion C  -0.000018897300000  18.864097443900000   3.000003066900000 0
ion C   9.335303994599998   2.694868363800000   3.000003066900000 0
ion C  21.004443436500001   6.737170909500000   3.000003066900000 0
ion C  11.669139441899999  14.821794898200000   3.000003066900000 0
ion C  16.336772541899997  14.821794898200000   3.000003066900000 0
ion C  18.670607989199997   2.694868363800000   3.000003066900000 0
ion C   7.001487444600001   6.737170909500000   3.000003066900000 0
ion C  14.002974889200001   2.694868363800000   3.000003066900000 0
ion C  18.670607989200004  10.779473455200000   3.000003066900000 0
ion C   9.335303994599997  10.779473455200000   3.000003066900000 0
ion C  11.669139441899997   6.737170909500000   3.000003066900000 0
ion C  16.336772541900000   6.737170909500000   3.000003066900000 0
ion C  14.002974889200004  10.779473455200000   3.000003066900000 0
ion N   7.001468547300003  12.126926534399997   3.000003066900000 0
ion S   6.689740269242455  11.766429167155648  10.776762689682009 1
ion Na  -0.283531381185192  10.262354582302992   9.495736518942442 1
ion Na  13.761882816295071  10.948797036193747   9.498385449778862 1

# Forces in Cartesian coordinates:
force C   0.001534017914825  -0.000840271711434  -0.000000658320245 0
force C   0.000519932202111  -0.000003680682434   0.000049899787260 0
force C   0.001383866892869  -0.001202472669094   0.000006195130572 0
force C   0.000796173071524   0.001141404651389  -0.000005373695856 0
force C   0.000212572291230  -0.000385456725311  -0.000006182983958 0
force C   0.001687399902979  -0.000613160575337   0.000060388292636 0
force C  -0.000516091202497  -0.001313657986561   0.000001585046935 0
force C   0.000262909686642   0.000443737138698   0.000075594891112 0
force C  -0.002914538963461  -0.009827620736576   0.000051215469725 0
force C  -0.000860900029015   0.001150618977943  -0.000006942806849 0
force C  -0.000287470010922  -0.000388786937580  -0.000007492177451 0
force C   0.007056485796435   0.007446259640682  -0.000010716040449 0
force C  -0.001359007916971   0.000152841554497   0.000047685123918 0
force C   0.000034060729392   0.001804429324015   0.000095422797023 0
force C  -0.001572877190080  -0.000853805490076  -0.000003964430595 0
force C   0.000534700735737   0.000253503539571  -0.000351792276333 0
force C   0.000007947341550  -0.000647076581447   0.000021655491959 0
force C   0.000000042053142  -0.000046929451592  -0.000002813040028 0
force C   0.000305753914297   0.001836791155602  -0.000163527202486 0
force C   0.002909965954892  -0.009844924807749   0.000038801462893 0
force C   0.000564493153723  -0.001318698911257  -0.000003711788404 0
force C  -0.001397338238987  -0.001201591141672   0.000005943205032 0
force C   0.009988345615364   0.002425081937047  -0.000154800113991 0
force C   0.001400729381937   0.000145052526793   0.000041824488242 0
force C   0.000010663458278   0.005455016924873   0.000027880270783 0
force C   0.000001226135432   0.000011235173834   0.000012188068303 0
force C  -0.004707549242049  -0.002715804612470   0.000075246358681 0
force C   0.004706498520421  -0.002720747253017   0.000069159110664 0
force C  -0.001680652300154  -0.000612919969752   0.000050971444305 0
force C  -0.000241340377967   0.000429362049677   0.000069788583209 0
force C  -0.010029164894643   0.002431009414901  -0.000341688251113 0
force C  -0.000288146996953   0.001810753916447  -0.000145302339064 0
force C  -0.000487462816221  -0.000004450438302   0.000032975632480 0
force C  -0.007067508491414   0.007437336034971   0.000031022675045 0
force C  -0.000508992459880   0.000294791013061  -0.000122793519005 0
force C  -0.000537484944074   0.000788126315485   0.000026996120736 0
force C  -0.000914495554392   0.000070241413172  -0.000004528457893 0
force C  -0.001787125278607   0.001051109783979  -0.000006182378194 0
force C  -0.000162913380907  -0.000100134407011   0.000069930342898 0
force C  -0.004663163189684   0.000720106155387   0.000017350659462 0
force C   0.000021341527199  -0.000109576686634  -0.000008265991726 0
force C   0.000028173934414   0.000188467213658  -0.000007091051331 0
force C  -0.002881895618835   0.003693739379537   0.000071174662436 0
force C   0.000090721996446   0.000073395606855   0.000004016227858 0
force C   0.000369352124394  -0.000851245610886   0.000092988220262 0
force C  -0.000033550373932  -0.007442177840963   0.000147107317492 0
force C   0.001865675501018   0.001046717846146  -0.000007789398725 0
force C   0.000954375813052   0.000075526387412  -0.000006758515783 0
force C   0.006469723581393   0.003688530065711   0.000103201272930 0
force C  -0.000003096737831  -0.002147213974057   0.000037749040742 0
force C  -0.001867824152482  -0.000756673793982   0.000024732985247 0
force C  -0.000595268957561   0.000350949721662   0.000010229234628 0
force C  -0.000280794097163   0.002013244280356   0.000029120163258 0
force C   0.001752942087778  -0.004343555999700  -0.000895256195756 0
force C   0.004643517554277   0.000710997058864   0.000006439456790 0
force C  -0.000094204156024   0.000061585260962   0.000000949848461 0
force C  -0.001625991624983  -0.001240618114634   0.000080689134858 0
force C  -0.005124825372100   0.002920109674978   0.000013673791222 0
force C   0.000261829289258   0.002016891263000   0.000021917153196 0
force C   0.001858650826741  -0.000763743819485   0.000019237829013 0
force C  -0.000031658551974  -0.000679283275913   0.000059468058813 0
force C   0.005135992078815   0.002951592408184   0.000056892468510 0
force C   0.001607384764997  -0.001246250481471   0.000076136342721 0
force C   0.000579052617963   0.000359949451860   0.000003440792205 0
force C  -0.000032942988650  -0.005901483930550   0.000015161934371 0
force C   0.000520401963557   0.000774012551611   0.000013577667660 0
force C  -0.000384145648931  -0.000868481115415   0.000095168836756 0
force C  -0.006475445939620   0.003672448796842   0.000134126589787 0
force C   0.002898287448213   0.003666458435060   0.000070746332386 0
force C   0.000194386363516  -0.000106313409913   0.000075756565222 0
force C  -0.001688432075159  -0.004425979660241  -0.000919982842495 0
force N  -0.000041463338007  -0.000017622828754  -0.001009386856494 0
force S  -0.000039702169848   0.000091503528966  -0.000004394558264 1
force Na  -0.000240906591068  -0.000069863704222  -0.000000964271141 1
force Na   0.000220195685347   0.000003113940640   0.000007289837925 1

# Energy components:
   A_diel =       -0.3455837638933956
   Eewald =     4576.2834304874149893
       EH =     4985.3831611681716822
     Eloc =   -10112.6623330225884274
      Enl =      -83.4011279773909990
     EvdW =       -0.1125802960668276
      Exc =     -150.1279441939383616
 Exc_core =        4.2473388481074279
       KE =      259.3845755805364774
-------------------------------------
     Etot =     -521.3510631696478868
       TS =        0.0700477340568348
-------------------------------------
        F =     -521.4211109037047436

IonicMinimize: Iter:  30  F: -521.421110903704744  |grad|_K:  1.162e-04  alpha:  1.587e+00  linmin: -8.972e-03  t[s]: 1458502.07
IonicMinimize: Converged (|Delta F|<1.000000e-06 for 2 iters).

#--- Lowdin population analysis ---
# oxidation-state C +0.029 +0.029 +0.032 +0.029 +0.030 +0.032 +0.029 +0.028 +0.025 +0.029 +0.030 +0.024 +0.028 +0.028 +0.029 +0.028 +0.031 +0.025 +0.030 +0.025 +0.029 +0.032 +0.023 +0.028 +0.027 +0.026 +0.026 +0.026 +0.032 +0.028 +0.023 +0.030 +0.030 +0.024 +0.029 +0.030 +0.030 +0.031 +0.028 +0.033 +0.030 +0.030 +0.032 +0.029 +0.028 +0.147 +0.031 +0.030 +0.146 +0.030 +0.032 +0.029 +0.032 +0.030 +0.033 +0.030 +0.031 +0.041 +0.032 +0.032 +0.028 +0.040 +0.030 +0.029 +0.041 +0.030 +0.028 +0.146 +0.032 +0.028 +0.030
# oxidation-state N +0.013
# oxidation-state S -1.267
# oxidation-state Na +0.958 +0.957


Dumping 'Na2S@N_graphene-PC-vdw.fillings' ... done
Dumping 'Na2S@N_graphene-PC-vdw.wfns' ... done
Dumping 'Na2S@N_graphene-PC-vdw.fluidState' ... done
Dumping 'Na2S@N_graphene-PC-vdw.ionpos' ... done
Dumping 'Na2S@N_graphene-PC-vdw.eigenvals' ... done
End date and time: Fri Aug 30 03:20:28 2024  (Duration: 16-21:09:42.66)
Done!
