
*************** JDFTx 1.7.0  ***************

Start date and time: Sat Oct 12 08:22:55 2024
Executable jdftx_gpu with command-line: -i /home/akim2/JDFTx/Na2S4@FeN4-PC/Na2S4@FeN4-PC.in -o /home/akim2/JDFTx/Na2S4@FeN4-PC/Na2S4@FeN4-PC.out
Running on hosts (process indices):  exp-8-57 (0)
Divided in process groups (process indices):  0 (0)
gpuInit: Found compatible cuda device 0 'Tesla V100-SXM2-32GB'
gpuInit: Selected device 0
Resource initialization completed at t[s]:      0.69
Run totals: 1 processes, 1 threads, 1 GPUs


Input parsed successfully to the following command list (including defaults):

basis kpoint-dependent
coords-type Cartesian
core-overlap-check vector
coulomb-interaction Slab 001
coulomb-truncation-embed 0 0 2.00001
davidson-band-ratio 1.1
dump End State
dump-name Na2S4@FeN4-PC.$VAR
elec-cutoff 20 100
elec-eigen-algo Davidson
elec-ex-corr gga-PBE
elec-smearing Fermi 0.01
electronic-minimize  \
	dirUpdateScheme      FletcherReeves \
	linminMethod         DirUpdateRecommended \
	nIterations          100 \
	history              15 \
	knormThreshold       0 \
	energyDiffThreshold  1e-08 \
	nEnergyDiff          2 \
	alphaTstart          1 \
	alphaTmin            1e-10 \
	updateTestStepSize   yes \
	alphaTreduceFactor   0.1 \
	alphaTincreaseFactor 3 \
	nAlphaAdjustMax      3 \
	wolfeEnergy          0.0001 \
	wolfeGradient        0.9 \
	fdTest               no
exchange-regularization WignerSeitzTruncated
fluid LinearPCM 298.000000 1.013250
fluid-ex-corr lda-TF lda-PZ
fluid-gummel-loop 10 1.000000e-05
fluid-minimize  \
	dirUpdateScheme      PolakRibiere \
	linminMethod         DirUpdateRecommended \
	nIterations          400 \
	history              15 \
	knormThreshold       1e-11 \
	energyDiffThreshold  0 \
	nEnergyDiff          2 \
	alphaTstart          1 \
	alphaTmin            1e-10 \
	updateTestStepSize   yes \
	alphaTreduceFactor   0.1 \
	alphaTincreaseFactor 3 \
	nAlphaAdjustMax      6 \
	wolfeEnergy          0.0001 \
	wolfeGradient        0.9 \
	fdTest               no
fluid-solvent PC 11.6429 ScalarEOS \
	epsBulk 64 \
	pMol 2.95 \
	epsInf 2.02 \
	Pvap 1.53277e-13 \
	sigmaBulk 2.88e-05 \
	Rvdw 0 \
	Res 0 \
	tauNuc 343133
forces-output-coords Positions
ion C   0.000000000000000   0.000000000000000   1.000007321400000 0
ion C  -2.333835447300000   4.042302545699999   1.000007321400000 0
ion C  11.669120544600000  20.211531625799999   1.000007321400000 0
ion C   4.667689791900001   0.000000000000000   1.000007321400000 0
ion C  23.338297781100000   0.000000000000000   1.000007321400000 0
ion C   2.333816549999999   4.042302545699999   1.000007321400000 0
ion C -11.669158339200004  20.211531625799999   1.000007321400000 0
ion C  -4.667670894600000   8.084623988700001   1.000007321400000 0
ion C   9.335303994599997  16.169229080099999   1.000007321400000 0
ion C   9.335322891900001   0.000000000000000   1.000007321400000 0
ion C  18.670626886499999   0.000000000000000   1.000007321400000 0
ion C  -9.335322891900001  16.169229080099999   1.000007321400000 0
ion C  -7.001487444600000  12.126907637100000   1.000007321400000 0
ion C  14.002993786499999   0.000000000000000   1.000007321400000 0
ion C   0.000000000000000   8.084623988700001   1.000007321400000 0
ion C   7.001487444599997  20.211531625799999   1.000007321400000 0
ion C  -7.001487444600005  20.211531625799999   1.000007321400000 0
ion C  -2.333816549999999  12.126907637100000   1.000007321400000 0
ion C   4.667670894600002  16.169229080099999   1.000007321400000 0
ion C  -2.333816550000000  20.211531625799999   1.000007321400000 0
ion C   2.333816550000000  20.211531625799999   1.000007321400000 0
ion C  -4.667651997299996  16.169229080099999   1.000007321400000 0
ion C   7.001487444600000   4.042302545699999   1.000007321400000 0
ion C  21.004424539199999   4.042302545699999   1.000007321400000 0
ion C  14.002955991899999  16.169229080099999   1.000007321400000 0
ion C   0.000000000000000  16.169229080099999   1.000007321400000 0
ion C  11.669120544600000   4.042302545699999   1.000007321400000 0
ion C  18.670607989199997   8.084623988700001   1.000007321400000 0
ion C  11.669120544599998  12.126907637100000   1.000007321400000 0
ion C  16.336791439199999  12.126907637100000   1.000007321400000 0
ion C  16.336791439199999   4.042302545699999   1.000007321400000 0
ion C   9.335303994599997   8.084623988700001   1.000007321400000 0
ion C  14.002955991899999   8.084623988700001   1.000007321400000 0
ion C   0.000000000000000   2.694868363800000   1.000007321400000 0
ion C  11.669120544600000  22.906399989600001   1.000007321400000 0
ion C -11.669120544600000  22.906399989600001   1.000007321400000 0
ion C  -2.333816550000000   6.737170909500000   1.000007321400000 0
ion C   9.335303994599995  18.864097443900000   1.000007321400000 0
ion C  -7.001487444600000  22.906399989600001   1.000007321400000 0
ion C   7.001487444600000  22.906399989600001   1.000007321400000 0
ion C   2.333816550000000   6.737170909500000   1.000007321400000 0
ion C  -9.335303994599998  18.864097443900000   1.000007321400000 0
ion C  -4.667670894599997  10.779473455200000   1.000007321400000 0
ion C  -2.333816550000000  22.906399989600001   1.000007321400000 0
ion C   2.333816550000000  22.906399989600001   1.000007321400000 0
ion C  -7.001487444600004  14.821794898200000   1.000007321400000 0
ion C   4.667670894600000   2.694868363800000   1.000007321400000 0
ion C  23.338259986499999   2.694868363800000   1.000007321400000 0
ion C  14.002974889199999  18.864097443900000   1.000007321400000 0
ion C   0.000000000000000  10.779473455200000   1.000007321400000 0
ion C   4.667670894600001  18.864097443900000   1.000007321400000 0
ion C  -4.667633100000004  18.864097443900000   1.000007321400000 0
ion C  -2.333816550000003  14.821794898200000   1.000007321400000 0
ion C   2.333816549999995  14.821794898200000   1.000007321400000 0
ion C  -0.000000000000005  18.864097443900000   1.000007321400000 0
ion C   9.335303994599998   2.694868363800000   1.000007321400000 0
ion C  21.004424539199999   6.737170909500000   1.000007321400000 0
ion C  11.669120544600000  14.821794898200000   1.000007321400000 0
ion C  16.336791439199999  14.821794898200000   1.000007321400000 0
ion C  18.670607989199997   2.694868363800000   1.000007321400000 0
ion C   7.001487444600001   6.737170909500000   1.000007321400000 0
ion C  14.002955991899999   2.694868363800000   1.000007321400000 0
ion C  18.670607989200004  10.779473455200000   1.000007321400000 0
ion C  11.669120544599998   6.737170909500000   1.000007321400000 0
ion C  16.336791439199999   6.737170909500000   1.000007321400000 0
ion C  14.002955991899999  10.779473455200000   1.000007321400000 0
ion N   4.667670894599999   8.084623988700001   1.000007321400000 0
ion N   2.333816549999999  12.126907637100000   1.000007321400000 0
ion N   7.001487444599997  14.821794898200000   1.000007321400000 0
ion N   9.335303994599997  10.779473455200000   1.000007321400000 0
ion Fe   5.837111407799997  11.454314935499999   1.000007321400000 0
ion S   5.468204798104988  11.362534507786290   5.336785219362401 1
ion S   8.070808428515150  13.504650156018911   7.430805225604459 1
ion S   9.853203388601669  11.184101881026494  10.093829239225848 1
ion S  12.833201592618561   9.175275240526799   8.508169628990180 1
ion Na   8.687030711533254   7.230359205990412   6.209972494311719 1
ion Na  13.380327782281922  13.410495232840686   5.793200734643123 1
ion-species GBRV/$ID_pbe.uspp
ion-width Ecut
ionic-minimize  \
	dirUpdateScheme      FletcherReeves \
	linminMethod         DirUpdateRecommended \
	nIterations          200 \
	history              15 \
	knormThreshold       0.0001 \
	energyDiffThreshold  1e-06 \
	nEnergyDiff          2 \
	alphaTstart          1 \
	alphaTmin            1e-10 \
	updateTestStepSize   yes \
	alphaTreduceFactor   0.1 \
	alphaTincreaseFactor 3 \
	nAlphaAdjustMax      3 \
	wolfeEnergy          0.0001 \
	wolfeGradient        0.9 \
	fdTest               no
kpoint   0.000000000000   0.000000000000   0.000000000000  1.00000000000000
kpoint-folding 1 1 1 
latt-move-scale 1 1 1
latt-scale 1 1 1 
lattice Triclinic 28.0058 28.0058 37.7946 90 90 120
lattice-minimize  \
	dirUpdateScheme      L-BFGS \
	linminMethod         DirUpdateRecommended \
	nIterations          0 \
	history              15 \
	knormThreshold       0 \
	energyDiffThreshold  1e-06 \
	nEnergyDiff          2 \
	alphaTstart          1 \
	alphaTmin            1e-10 \
	updateTestStepSize   yes \
	alphaTreduceFactor   0.1 \
	alphaTincreaseFactor 3 \
	nAlphaAdjustMax      3 \
	wolfeEnergy          0.0001 \
	wolfeGradient        0.9 \
	fdTest               no
lcao-params -1 1e-06 0.01
pcm-variant GLSSA13
spintype no-spin
subspace-rotation-factor 1 yes
symmetries automatic
symmetry-threshold 0.0001



---------- Setting up symmetries ----------

Found 24 point-group symmetries of the bravais lattice
Found 1 space-group symmetries with basis
Applied RMS atom displacement 0 bohrs to make symmetries exact.

---------- Initializing the Grid ----------
R = 
[      28.0058     -14.0029            0  ]
[            0      24.2537            0  ]
[            0            0      37.7946  ]
unit cell volume = 25671.8
G =
[   0.224353    0.12953         -0  ]
[          0   0.259061          0  ]
[          0         -0   0.166246  ]
Minimum fftbox size, Smin = [  128  128  172  ]
Chosen fftbox size, S = [  128  128  180  ]

---------- Initializing tighter grid for wavefunction operations ----------
R = 
[      28.0058     -14.0029            0  ]
[            0      24.2537            0  ]
[            0            0      37.7946  ]
unit cell volume = 25671.8
G =
[   0.224353    0.12953         -0  ]
[          0   0.259061          0  ]
[          0         -0   0.166246  ]
Minimum fftbox size, Smin = [  116  116  156  ]
Chosen fftbox size, S = [  120  120  160  ]

---------- Exchange Correlation functional ----------
Initalized PBE GGA exchange.
Initalized PBE GGA correlation.

---------- Setting up pseudopotentials ----------
Width of ionic core gaussian charges (only for fluid interactions / plotting) set to 0.397384

Reading pseudopotential file '/home/akim2/jdftx_install/build/pseudopotentials/GBRV/c_pbe.uspp':
  Title: C.  Created by USPP 7.3.6 on 3-2-2014
  Reference state energy: -5.406344.  4 valence electrons in orbitals:
    |200>  occupation: 2  eigenvalue: -0.504890
    |210>  occupation: 2  eigenvalue: -0.194356
  lMax: 1  lLocal: 2  QijEcut: 5
  4 projectors sampled on a log grid with 503 points:
    l: 0  eig: -0.504890  rCut: 1.3
    l: 0  eig: 0.000000  rCut: 1.3
    l: 1  eig: -0.194357  rCut: 1.3
    l: 1  eig: 0.000000  rCut: 1.3
  Partial core density with radius 1.1
  Transforming core density to a uniform radial grid of dG=0.02 with 1625 points.
  Transforming local potential to a uniform radial grid of dG=0.02 with 1625 points.
  Transforming nonlocal projectors to a uniform radial grid of dG=0.02 with 432 points.
  Transforming density augmentations to a uniform radial grid of dG=0.02 with 1625 points.
  Transforming atomic orbitals to a uniform radial grid of dG=0.02 with 432 points.
  Core radius for overlap checks: 1.30 bohrs.

Reading pseudopotential file '/home/akim2/jdftx_install/build/pseudopotentials/GBRV/n_pbe.uspp':
  Title: N.  Created by USPP 7.3.6 on 3-2-2014
  Reference state energy: -9.763716.  5 valence electrons in orbitals:
    |200>  occupation: 2  eigenvalue: -0.681964
    |210>  occupation: 3  eigenvalue: -0.260726
  lMax: 1  lLocal: 2  QijEcut: 6
  4 projectors sampled on a log grid with 491 points:
    l: 0  eig: -0.681964  rCut: 1.15
    l: 0  eig: 0.000000  rCut: 1.15
    l: 1  eig: -0.260729  rCut: 1.2
    l: 1  eig: 0.500000  rCut: 1.2
  Partial core density with radius 0.8
  Transforming core density to a uniform radial grid of dG=0.02 with 1625 points.
  Transforming local potential to a uniform radial grid of dG=0.02 with 1625 points.
  Transforming nonlocal projectors to a uniform radial grid of dG=0.02 with 432 points.
  Transforming density augmentations to a uniform radial grid of dG=0.02 with 1625 points.
  Transforming atomic orbitals to a uniform radial grid of dG=0.02 with 432 points.
  Core radius for overlap checks: 1.20 bohrs.

Reading pseudopotential file '/home/akim2/jdftx_install/build/pseudopotentials/GBRV/fe_pbe.uspp':
  Title: Fe.  Created by USPP 7.3.6 on 15-6-15
  Reference state energy: -124.316937.  16 valence electrons in orbitals:
    |300>  occupation: 2  eigenvalue: -4.008817
    |310>  occupation: 6  eigenvalue: -2.753096
    |320>  occupation: 5  eigenvalue: -0.791264
    |400>  occupation: 2  eigenvalue: -0.516384
    |410>  occupation: 0  eigenvalue: -0.312222
  lMax: 2  lLocal: 3  QijEcut: 6
  6 projectors sampled on a log grid with 607 points:
    l: 0  eig: -4.008819  rCut: 1.55
    l: 0  eig: -0.516386  rCut: 1.55
    l: 1  eig: -2.753096  rCut: 1.55
    l: 1  eig: -0.312226  rCut: 1.55
    l: 2  eig: -0.791264  rCut: 1.65
    l: 2  eig: -0.450000  rCut: 1.65
  Partial core density with radius 0.65
  Transforming core density to a uniform radial grid of dG=0.02 with 1625 points.
  Transforming local potential to a uniform radial grid of dG=0.02 with 1625 points.
  Transforming nonlocal projectors to a uniform radial grid of dG=0.02 with 432 points.
  Transforming density augmentations to a uniform radial grid of dG=0.02 with 1625 points.
  Transforming atomic orbitals to a uniform radial grid of dG=0.02 with 432 points.
  Core radius for overlap checks: 1.65 bohrs.

Reading pseudopotential file '/home/akim2/jdftx_install/build/pseudopotentials/GBRV/s_pbe.uspp':
  Title: S.  Created by USPP 7.3.6 on 1-4-15
  Reference state energy: -11.898476.  6 valence electrons in orbitals:
    |300>  occupation: 2  eigenvalue: -0.634167
    |310>  occupation: 4  eigenvalue: -0.257568
  lMax: 2  lLocal: 3  QijEcut: 6
  6 projectors sampled on a log grid with 635 points:
    l: 0  eig: -0.634161  rCut: 1.5
    l: 0  eig: 1.500000  rCut: 1.5
    l: 1  eig: -0.257567  rCut: 1.5
    l: 1  eig: 1.500000  rCut: 1.5
    l: 2  eig: -1.000000  rCut: 1.5
    l: 2  eig: 1.500000  rCut: 1.5
  Partial core density with radius 1.15
  Transforming core density to a uniform radial grid of dG=0.02 with 1625 points.
  Transforming local potential to a uniform radial grid of dG=0.02 with 1625 points.
  Transforming nonlocal projectors to a uniform radial grid of dG=0.02 with 432 points.
  Transforming density augmentations to a uniform radial grid of dG=0.02 with 1625 points.
  Transforming atomic orbitals to a uniform radial grid of dG=0.02 with 432 points.
  Core radius for overlap checks: 1.50 bohrs.

Reading pseudopotential file '/home/akim2/jdftx_install/build/pseudopotentials/GBRV/na_pbe.uspp':
  Title: Na.  Created by USPP 7.3.6 on 23-9-15
  Reference state energy: -47.625620.  9 valence electrons in orbitals:
    |200>  occupation: 2  eigenvalue: -2.085638
    |210>  occupation: 6  eigenvalue: -1.053708
    |300>  occupation: 1  eigenvalue: -0.100838
  lMax: 2  lLocal: 0  QijEcut: 6
  5 projectors sampled on a log grid with 657 points:
    l: 0  eig: -2.085640  rCut: 1.37
    l: 0  eig: -0.100839  rCut: 1.37
    l: 1  eig: -1.053708  rCut: 1.47
    l: 1  eig: 0.500000  rCut: 1.47
    l: 2  eig: 0.750000  rCut: 2
  Transforming local potential to a uniform radial grid of dG=0.02 with 1625 points.
  Transforming nonlocal projectors to a uniform radial grid of dG=0.02 with 432 points.
  Transforming density augmentations to a uniform radial grid of dG=0.02 with 1625 points.
  Transforming atomic orbitals to a uniform radial grid of dG=0.02 with 432 points.
  Core radius for overlap checks: 2.00 bohrs.

Initialized 5 species with 77 total atoms.

Folded 1 k-points by 1x1x1 to 1 k-points.

---------- Setting up k-points, bands, fillings ----------
No reducable k-points. 
Computing the number of bands and number of electrons
Calculating initial fillings.
nElectrons: 342.000000   nBands: 319   nStates: 1

----- Setting up reduced wavefunction bases (one per k-point) -----
average nbasis = 109673.000 , ideal nbasis = 109671.883

---------- Setting up coulomb interaction ----------
Fluid mode embedding: using embedded box, but periodic Coulomb kernel.
(Fluid response is responsible for (approximate) separation between periodic images.)
Setting up double-sized grid for truncated Coulomb potentials:
R = 
[      28.0058     -14.0029            0  ]
[            0      24.2537            0  ]
[            0            0      75.5892  ]
unit cell volume = 51343.6
G =
[   0.224353    0.12953         -0  ]
[          0   0.259061          0  ]
[          0         -0  0.0831228  ]
Chosen fftbox size, S = [  128  128  360  ]
Integer grid location selected as the embedding center:
   Grid: [  0  0  10  ]
   Lattice: [  0  0  0.0529178  ]
   Cartesian: [  0  0  2.00001  ]
Constructing Wigner-Seitz cell: 8 faces (6 quadrilaterals, 2 hexagons)
Range-separation parameter for embedded mesh potentials due to point charges: 0.590105 bohrs.

---------- Setting up ewald sum ----------
Optimum gaussian width for ewald sums = 7.188811 bohr.
Real space sum over 405 unit cells with max indices [  4  4  2  ]
Reciprocal space sum over 7875 terms with max indices [  7  7  17  ]

---------- Allocating electronic variables ----------
Initializing wave functions:  linear combination of atomic orbitals
C pseudo-atom occupations:   s ( 2 )  p ( 2 )
N pseudo-atom occupations:   s ( 2 )  p ( 3 )
Fe pseudo-atom occupations:   s ( 2 0 )  p ( 6 0 )  d ( 8 )
S pseudo-atom occupations:   s ( 2 )  p ( 4 )
Na pseudo-atom occupations:   s ( 2 1 )  p ( 6 )
	FillingsUpdate:  mu: -0.207847254  nElectrons: 342.000000
LCAOMinimize: Iter:   0  F: -656.7600079242560014  |grad|_K:  2.726e-02  alpha:  1.000e+00
	FillingsUpdate:  mu: -0.264405493  nElectrons: 342.000000
LCAOMinimize: Iter:   1  F: -662.6131868816871702  |grad|_K:  1.587e-02  alpha:  1.609e-01  linmin: -1.766e-01  cgtest:  6.621e-01  t[s]:      9.26
LCAOMinimize: Encountered beta<0, resetting CG.
	FillingsUpdate:  mu: -0.194396290  nElectrons: 342.000000
LCAOMinimize: Iter:   2  F: -671.6522628187150303  |grad|_K:  2.897e-02  alpha:  6.279e-02  linmin: -4.412e-01  cgtest:  1.820e-01  t[s]:     10.95
LCAOMinimize: 	Step increased F by 9.653920e+00, reducing alpha to 2.665763e-03.
	FillingsUpdate:  mu: -0.126442637  nElectrons: 342.000000
LCAOMinimize: Iter:   3  F: -672.1578449161871731  |grad|_K:  1.981e-02  alpha:  2.666e-03  linmin:  3.298e-01  cgtest: -6.790e-01  t[s]:     13.78
LCAOMinimize: 	Bad step direction: g.d > 0.
LCAOMinimize: 	Undoing step.
LCAOMinimize: 	Step failed: resetting search direction.
	FillingsUpdate:  mu: -0.126442637  nElectrons: 342.000000
LCAOMinimize: Iter:   4  F: -672.1578449161871731  |grad|_K:  1.981e-02  alpha:  0.000e+00
LCAOMinimize: 	Predicted alpha/alphaT>3.000000, increasing alphaT to 7.997288e-03.
LCAOMinimize: 	Predicted alpha/alphaT>3.000000, increasing alphaT to 2.399186e-02.
	FillingsUpdate:  mu: -0.186493509  nElectrons: 342.000000
LCAOMinimize: Iter:   5  F: -672.6871310091196392  |grad|_K:  9.485e-03  alpha:  2.660e-02  linmin:  3.782e-02  cgtest: -1.949e-02  t[s]:     17.50
LCAOMinimize: 	Predicted alpha/alphaT>3.000000, increasing alphaT to 7.978608e-02.
	FillingsUpdate:  mu: -0.180350010  nElectrons: 342.000000
LCAOMinimize: Iter:   6  F: -673.2506981128072994  |grad|_K:  5.727e-03  alpha:  1.342e-01  linmin:  2.062e-02  cgtest: -5.972e-01  t[s]:     19.62
	FillingsUpdate:  mu: -0.205782150  nElectrons: 342.000000
LCAOMinimize: Iter:   7  F: -673.2982757808186989  |grad|_K:  1.926e-03  alpha:  3.527e-02  linmin:  2.590e-02  cgtest:  5.238e-01  t[s]:     21.26
LCAOMinimize: Encountered beta<0, resetting CG.
LCAOMinimize: 	Predicted alpha/alphaT>3.000000, increasing alphaT to 1.058112e-01.
	FillingsUpdate:  mu: -0.235153092  nElectrons: 342.000000
LCAOMinimize: Iter:   8  F: -673.3245320699228387  |grad|_K:  2.815e-03  alpha:  1.414e-01  linmin:  1.117e-02  cgtest: -1.782e-01  t[s]:     23.38
	FillingsUpdate:  mu: -0.234806090  nElectrons: 342.000000
LCAOMinimize: Iter:   9  F: -673.3301541722039474  |grad|_K:  2.047e-03  alpha:  9.812e-03  linmin: -7.998e-02  cgtest:  9.831e-01  t[s]:     25.03
LCAOMinimize: Encountered beta<0, resetting CG.
	FillingsUpdate:  mu: -0.219277978  nElectrons: 342.000000
LCAOMinimize: Iter:  10  F: -673.3356005381053819  |grad|_K:  5.886e-04  alpha:  2.510e-02  linmin: -2.362e-02  cgtest:  6.671e-02  t[s]:     26.70
LCAOMinimize: 	Predicted alpha/alphaT>3.000000, increasing alphaT to 7.531242e-02.
LCAOMinimize: 	Predicted alpha/alphaT>3.000000, increasing alphaT to 2.259373e-01.
	FillingsUpdate:  mu: -0.218721504  nElectrons: 342.000000
LCAOMinimize: Iter:  11  F: -673.3401387468942403  |grad|_K:  4.470e-04  alpha:  2.500e-01  linmin: -1.030e-02  cgtest:  9.469e-03  t[s]:     29.31
	FillingsUpdate:  mu: -0.224062422  nElectrons: 342.000000
LCAOMinimize: Iter:  12  F: -673.3427135425529286  |grad|_K:  3.369e-04  alpha:  2.407e-01  linmin:  2.613e-03  cgtest: -6.034e-02  t[s]:     31.00
	FillingsUpdate:  mu: -0.218883937  nElectrons: 342.000000
LCAOMinimize: Iter:  13  F: -673.3429177260593406  |grad|_K:  2.288e-04  alpha:  3.567e-02  linmin: -4.303e-04  cgtest:  5.793e-02  t[s]:     32.66
LCAOMinimize: 	Predicted alpha/alphaT>3.000000, increasing alphaT to 1.070034e-01.
	FillingsUpdate:  mu: -0.220019627  nElectrons: 342.000000
LCAOMinimize: Iter:  14  F: -673.3435434808610580  |grad|_K:  6.571e-05  alpha:  2.313e-01  linmin: -6.305e-03  cgtest: -3.759e-02  t[s]:     34.75
	FillingsUpdate:  mu: -0.220800290  nElectrons: 342.000000
LCAOMinimize: Iter:  15  F: -673.3435844260877730  |grad|_K:  5.420e-05  alpha:  1.820e-01  linmin:  2.327e-04  cgtest: -1.627e-02  t[s]:     36.46
	FillingsUpdate:  mu: -0.219940519  nElectrons: 342.000000
LCAOMinimize: Iter:  16  F: -673.3435898593202182  |grad|_K:  3.415e-05  alpha:  3.622e-02  linmin:  2.738e-04  cgtest:  7.266e-03  t[s]:     38.13
LCAOMinimize: 	Predicted alpha/alphaT>3.000000, increasing alphaT to 1.086490e-01.
	FillingsUpdate:  mu: -0.220149380  nElectrons: 342.000000
LCAOMinimize: Iter:  17  F: -673.3436002876113662  |grad|_K:  1.339e-05  alpha:  1.747e-01  linmin: -9.503e-04  cgtest:  1.102e-02  t[s]:     40.26
	FillingsUpdate:  mu: -0.220436732  nElectrons: 342.000000
LCAOMinimize: Iter:  18  F: -673.3436027708905840  |grad|_K:  1.643e-05  alpha:  2.698e-01  linmin:  2.105e-05  cgtest: -2.254e-03  t[s]:     41.93
	FillingsUpdate:  mu: -0.220198063  nElectrons: 342.000000
LCAOMinimize: Iter:  19  F: -673.3436032295885525  |grad|_K:  8.166e-06  alpha:  3.320e-02  linmin: -3.207e-05  cgtest:  2.115e-03  t[s]:     43.63
LCAOMinimize: 	Predicted alpha/alphaT>3.000000, increasing alphaT to 9.959646e-02.
	FillingsUpdate:  mu: -0.220219651  nElectrons: 342.000000
LCAOMinimize: Iter:  20  F: -673.3436040911540204  |grad|_K:  3.903e-06  alpha:  2.521e-01  linmin: -3.219e-04  cgtest:  3.002e-03  t[s]:     45.77
LCAOMinimize: Converged (|Delta F|<1.000000e-06 for 2 iters).
----- createFluidSolver() ----- (Fluid-side solver setup)
   Initializing fluid molecule 'PC'
     Net charge: 0   dipole magnitude: 0
     Initializing spherical shell mfKernel with radius 0 Bohr
     deltaS corrections:

Correction to mu due to finite nuclear width = -0.00660906
   Cavity determined by nc: 0.00098 and sigma: 0.6
   Effective cavity tension: 9.53e-06 Eh/bohr^2 to account for cavitation and dispersion.


---- Citations for features of the code used in this run ----

   Software package:
      R. Sundararaman, K. Letchworth-Weaver, K.A. Schwarz, D. Gunceler, Y. Ozhabes and T.A. Arias, 'JDFTx: software for joint density-functional theory', SoftwareX 6, 278 (2017)

   gga-PBE exchange-correlation functional:
      J.P. Perdew, K. Burke and M. Ernzerhof, Phys. Rev. Lett. 77, 3865 (1996)

   Pseudopotentials:
      KF Garrity, JW Bennett, KM Rabe and D Vanderbilt, Comput. Mater. Sci. 81, 446 (2014)

   Truncated Coulomb potentials:
      R. Sundararaman and T.A. Arias, Phys. Rev. B 87, 165122 (2013)

   Linear/nonlinear dielectric/ionic fluid model with effective cavity tension:
      D. Gunceler, K. Letchworth-Weaver, R. Sundararaman, K.A. Schwarz and T.A. Arias, Modelling Simul. Mater. Sci. Eng. 21, 074005 (2013)

   Total energy minimization with Auxiliary Hamiltonian:
      C. Freysoldt, S. Boeck, and J. Neugebauer, Phys. Rev. B 79, 241103(R) (2009)

This list may not be complete. Please suggest additional citations or
report any other bugs at https://github.com/shankar1729/jdftx/issues

Initialization completed successfully at t[s]:     45.95

Fluid solver invoked on fresh (random / LCAO) wavefunctions
Running a vacuum solve first:

-------- Initial electronic minimization -----------
	FillingsUpdate:  mu: -0.220219651  nElectrons: 342.000000
ElecMinimize: Iter:   0  F: -673.343604091145494  |grad|_K:  4.043e-04  alpha:  1.000e+00
	FillingsUpdate:  mu: -0.138740516  nElectrons: 342.000000
	SubspaceRotationAdjust: set factor to 0.644
ElecMinimize: Iter:   1  F: -677.153045556104416  |grad|_K:  3.400e-04  alpha:  6.735e-01  linmin:  1.421e-04  t[s]:     49.91
ElecMinimize: 	Step increased F by 3.828791e-01, reducing alpha to 1.297041e-02.
	FillingsUpdate:  mu: -0.120411380  nElectrons: 342.000000
	SubspaceRotationAdjust: set factor to 0.702
ElecMinimize: Iter:   2  F: -677.235211083408785  |grad|_K:  1.919e-04  alpha:  1.297e-02  linmin: -4.046e-03  t[s]:     53.60
	FillingsUpdate:  mu: -0.067126239  nElectrons: 342.000000
	SubspaceRotationAdjust: set factor to 0.531
ElecMinimize: Iter:   3  F: -677.315367497164402  |grad|_K:  1.482e-04  alpha:  3.722e-02  linmin: -4.343e-04  t[s]:     55.86
	FillingsUpdate:  mu: -0.063355577  nElectrons: 342.000000
	SubspaceRotationAdjust: set factor to 0.334
ElecMinimize: Iter:   4  F: -677.410389981542835  |grad|_K:  2.100e-04  alpha:  1.076e-01  linmin: -5.229e-05  t[s]:     58.01
	FillingsUpdate:  mu: -0.076166333  nElectrons: 342.000000
	SubspaceRotationAdjust: set factor to 0.355
ElecMinimize: Iter:   5  F: -677.547154220500147  |grad|_K:  1.511e-04  alpha:  8.790e-02  linmin: -3.237e-05  t[s]:     60.21
	FillingsUpdate:  mu: -0.118168373  nElectrons: 342.000000
	SubspaceRotationAdjust: set factor to 0.309
ElecMinimize: Iter:   6  F: -677.600737129442109  |grad|_K:  8.770e-05  alpha:  6.376e-02  linmin:  1.076e-05  t[s]:     62.39
	FillingsUpdate:  mu: -0.132684312  nElectrons: 342.000000
	SubspaceRotationAdjust: set factor to 0.188
ElecMinimize: Iter:   7  F: -677.633526825955187  |grad|_K:  1.055e-04  alpha:  1.226e-01  linmin:  3.134e-06  t[s]:     64.61
	FillingsUpdate:  mu: -0.125686082  nElectrons: 342.000000
	SubspaceRotationAdjust: set factor to 0.179
ElecMinimize: Iter:   8  F: -677.682467724208095  |grad|_K:  7.613e-05  alpha:  1.256e-01  linmin:  1.286e-05  t[s]:     68.92
	FillingsUpdate:  mu: -0.112110686  nElectrons: 342.000000
	SubspaceRotationAdjust: set factor to 0.188
ElecMinimize: Iter:   9  F: -677.703925192832912  |grad|_K:  4.281e-05  alpha:  1.073e-01  linmin: -3.224e-05  t[s]:     74.10
	FillingsUpdate:  mu: -0.079733797  nElectrons: 342.000000
	SubspaceRotationAdjust: set factor to 0.15
ElecMinimize: Iter:  10  F: -677.714057070321473  |grad|_K:  4.159e-05  alpha:  1.548e-01  linmin: -3.851e-05  t[s]:     78.37
	FillingsUpdate:  mu: -0.080132823  nElectrons: 342.000000
	SubspaceRotationAdjust: set factor to 0.155
ElecMinimize: Iter:  11  F: -677.728378214745135  |grad|_K:  3.863e-05  alpha:  2.339e-01  linmin:  2.915e-06  t[s]:     80.57
	FillingsUpdate:  mu: -0.109362220  nElectrons: 342.000000
	SubspaceRotationAdjust: set factor to 0.173
ElecMinimize: Iter:  12  F: -677.735567380154407  |grad|_K:  2.125e-05  alpha:  1.370e-01  linmin: -1.066e-06  t[s]:     85.67
	FillingsUpdate:  mu: -0.117609618  nElectrons: 342.000000
	SubspaceRotationAdjust: set factor to 0.169
ElecMinimize: Iter:  13  F: -677.738279550964307  |grad|_K:  2.019e-05  alpha:  1.715e-01  linmin:  6.361e-06  t[s]:     87.84
	FillingsUpdate:  mu: -0.116776046  nElectrons: 342.000000
	SubspaceRotationAdjust: set factor to 0.251
ElecMinimize: Iter:  14  F: -677.741624555118051  |grad|_K:  1.813e-05  alpha:  2.347e-01  linmin:  2.784e-06  t[s]:     90.02
	FillingsUpdate:  mu: -0.110264461  nElectrons: 342.000000
	SubspaceRotationAdjust: set factor to 0.237
ElecMinimize: Iter:  15  F: -677.743171303844747  |grad|_K:  1.091e-05  alpha:  1.352e-01  linmin:  7.272e-06  t[s]:     92.20
	FillingsUpdate:  mu: -0.107014028  nElectrons: 342.000000
	SubspaceRotationAdjust: set factor to 0.277
ElecMinimize: Iter:  16  F: -677.743923129850600  |grad|_K:  9.736e-06  alpha:  1.809e-01  linmin: -5.114e-07  t[s]:     94.41
	FillingsUpdate:  mu: -0.111548247  nElectrons: 342.000000
	SubspaceRotationAdjust: set factor to 0.288
ElecMinimize: Iter:  17  F: -677.744540963456757  |grad|_K:  8.964e-06  alpha:  1.860e-01  linmin:  8.740e-07  t[s]:     96.62
	FillingsUpdate:  mu: -0.114426089  nElectrons: 342.000000
	SubspaceRotationAdjust: set factor to 0.27
ElecMinimize: Iter:  18  F: -677.745215881058243  |grad|_K:  9.677e-06  alpha:  2.401e-01  linmin:  1.472e-06  t[s]:     98.82
	FillingsUpdate:  mu: -0.111660589  nElectrons: 342.000000
	SubspaceRotationAdjust: set factor to 0.386
ElecMinimize: Iter:  19  F: -677.745638872641052  |grad|_K:  5.683e-06  alpha:  1.297e-01  linmin:  1.093e-06  t[s]:    101.05
	FillingsUpdate:  mu: -0.108494210  nElectrons: 342.000000
	SubspaceRotationAdjust: set factor to 0.363
ElecMinimize: Iter:  20  F: -677.745862737096331  |grad|_K:  6.560e-06  alpha:  1.979e-01  linmin: -8.372e-07  t[s]:    103.27
	FillingsUpdate:  mu: -0.110396139  nElectrons: 342.000000
	SubspaceRotationAdjust: set factor to 0.487
ElecMinimize: Iter:  21  F: -677.746098980035072  |grad|_K:  4.231e-06  alpha:  1.563e-01  linmin:  7.213e-07  t[s]:    105.50
	FillingsUpdate:  mu: -0.112515050  nElectrons: 342.000000
	SubspaceRotationAdjust: set factor to 0.455
ElecMinimize: Iter:  22  F: -677.746233678968679  |grad|_K:  5.477e-06  alpha:  2.155e-01  linmin:  9.495e-07  t[s]:    107.74
	FillingsUpdate:  mu: -0.111015238  nElectrons: 342.000000
	SubspaceRotationAdjust: set factor to 0.487
ElecMinimize: Iter:  23  F: -677.746369418250538  |grad|_K:  3.144e-06  alpha:  1.295e-01  linmin:  1.465e-07  t[s]:    109.95
	FillingsUpdate:  mu: -0.110047716  nElectrons: 342.000000
	SubspaceRotationAdjust: set factor to 0.437
ElecMinimize: Iter:  24  F: -677.746434022100971  |grad|_K:  3.050e-06  alpha:  1.868e-01  linmin:  7.443e-07  t[s]:    112.12
	FillingsUpdate:  mu: -0.111272245  nElectrons: 342.000000
	SubspaceRotationAdjust: set factor to 0.378
ElecMinimize: Iter:  25  F: -677.746466458503505  |grad|_K:  1.917e-06  alpha:  9.962e-02  linmin: -9.747e-08  t[s]:    114.31
	FillingsUpdate:  mu: -0.111913755  nElectrons: 342.000000
	SubspaceRotationAdjust: set factor to 0.347
ElecMinimize: Iter:  26  F: -677.746501311450174  |grad|_K:  2.147e-06  alpha:  2.717e-01  linmin:  8.221e-07  t[s]:    116.49
	FillingsUpdate:  mu: -0.111138440  nElectrons: 342.000000
	SubspaceRotationAdjust: set factor to 0.351
ElecMinimize: Iter:  27  F: -677.746519051277573  |grad|_K:  1.276e-06  alpha:  1.107e-01  linmin: -1.034e-07  t[s]:    118.69
	FillingsUpdate:  mu: -0.110724148  nElectrons: 342.000000
	SubspaceRotationAdjust: set factor to 0.378
ElecMinimize: Iter:  28  F: -677.746531322684291  |grad|_K:  1.288e-06  alpha:  2.148e-01  linmin:  1.782e-07  t[s]:    120.90
	FillingsUpdate:  mu: -0.111186605  nElectrons: 342.000000
	SubspaceRotationAdjust: set factor to 0.411
ElecMinimize: Iter:  29  F: -677.746538705496846  |grad|_K:  8.900e-07  alpha:  1.271e-01  linmin:  9.163e-08  t[s]:    123.05
	FillingsUpdate:  mu: -0.111431210  nElectrons: 342.000000
	SubspaceRotationAdjust: set factor to 0.441
ElecMinimize: Iter:  30  F: -677.746544696562751  |grad|_K:  9.420e-07  alpha:  2.164e-01  linmin:  2.482e-07  t[s]:    125.25
	FillingsUpdate:  mu: -0.111085242  nElectrons: 342.000000
	SubspaceRotationAdjust: set factor to 0.442
ElecMinimize: Iter:  31  F: -677.746548407273963  |grad|_K:  7.244e-07  alpha:  1.200e-01  linmin:  9.200e-08  t[s]:    127.45
	FillingsUpdate:  mu: -0.110923551  nElectrons: 342.000000
	SubspaceRotationAdjust: set factor to 0.43
ElecMinimize: Iter:  32  F: -677.746552999630126  |grad|_K:  7.993e-07  alpha:  2.511e-01  linmin:  3.040e-07  t[s]:    129.67
	FillingsUpdate:  mu: -0.111221775  nElectrons: 342.000000
	SubspaceRotationAdjust: set factor to 0.427
ElecMinimize: Iter:  33  F: -677.746555223253722  |grad|_K:  5.378e-07  alpha:  9.967e-02  linmin: -1.424e-07  t[s]:    131.85
	FillingsUpdate:  mu: -0.111325088  nElectrons: 342.000000
	SubspaceRotationAdjust: set factor to 0.414
ElecMinimize: Iter:  34  F: -677.746557510599587  |grad|_K:  5.998e-07  alpha:  2.259e-01  linmin:  3.686e-07  t[s]:    134.02
	FillingsUpdate:  mu: -0.111092259  nElectrons: 342.000000
	SubspaceRotationAdjust: set factor to 0.4
ElecMinimize: Iter:  35  F: -677.746558834843086  |grad|_K:  4.326e-07  alpha:  1.048e-01  linmin: -2.411e-07  t[s]:    136.22
	FillingsUpdate:  mu: -0.110958064  nElectrons: 342.000000
	SubspaceRotationAdjust: set factor to 0.346
ElecMinimize: Iter:  36  F: -677.746560086187287  |grad|_K:  4.653e-07  alpha:  1.907e-01  linmin:  6.658e-07  t[s]:    138.42
	FillingsUpdate:  mu: -0.111089357  nElectrons: 342.000000
	SubspaceRotationAdjust: set factor to 0.487
ElecMinimize: Iter:  37  F: -677.746560817253339  |grad|_K:  3.243e-07  alpha:  9.416e-02  linmin: -6.156e-07  t[s]:    140.58
	FillingsUpdate:  mu: -0.111218067  nElectrons: 342.000000
	SubspaceRotationAdjust: set factor to 0.465
ElecMinimize: Iter:  38  F: -677.746561337208504  |grad|_K:  3.647e-07  alpha:  1.380e-01  linmin:  5.337e-07  t[s]:    142.76
	FillingsUpdate:  mu: -0.111174741  nElectrons: 342.000000
	SubspaceRotationAdjust: set factor to 0.467
ElecMinimize: Iter:  39  F: -677.746561735966338  |grad|_K:  2.580e-07  alpha:  8.580e-02  linmin: -1.436e-07  t[s]:    144.93
	FillingsUpdate:  mu: -0.111090772  nElectrons: 342.000000
	SubspaceRotationAdjust: set factor to 0.471
ElecMinimize: Iter:  40  F: -677.746561924665798  |grad|_K:  2.400e-07  alpha:  8.033e-02  linmin:  7.826e-08  t[s]:    147.12
	FillingsUpdate:  mu: -0.111053336  nElectrons: 342.000000
	SubspaceRotationAdjust: set factor to 0.4
ElecMinimize: Iter:  41  F: -677.746562208038995  |grad|_K:  2.948e-07  alpha:  1.417e-01  linmin:  1.207e-07  t[s]:    149.30
	FillingsUpdate:  mu: -0.111127200  nElectrons: 342.000000
	SubspaceRotationAdjust: set factor to 0.59
ElecMinimize: Iter:  42  F: -677.746562445481914  |grad|_K:  2.275e-07  alpha:  7.827e-02  linmin: -2.045e-08  t[s]:    151.50
	FillingsUpdate:  mu: -0.111198823  nElectrons: 342.000000
	SubspaceRotationAdjust: set factor to 0.447
ElecMinimize: Iter:  43  F: -677.746562630656854  |grad|_K:  2.690e-07  alpha:  1.019e-01  linmin:  2.807e-08  t[s]:    153.71
	FillingsUpdate:  mu: -0.111172897  nElectrons: 342.000000
	SubspaceRotationAdjust: set factor to 0.434
ElecMinimize: Iter:  44  F: -677.746562839101330  |grad|_K:  2.026e-07  alpha:  8.249e-02  linmin:  1.586e-08  t[s]:    155.92
	FillingsUpdate:  mu: -0.111104694  nElectrons: 342.000000
	SubspaceRotationAdjust: set factor to 0.499
ElecMinimize: Iter:  45  F: -677.746562954273827  |grad|_K:  1.789e-07  alpha:  8.020e-02  linmin: -3.811e-09  t[s]:    158.12
	FillingsUpdate:  mu: -0.111061660  nElectrons: 342.000000
	SubspaceRotationAdjust: set factor to 0.377
ElecMinimize: Iter:  46  F: -677.746563104083066  |grad|_K:  2.169e-07  alpha:  1.323e-01  linmin: -1.236e-07  t[s]:    160.35
	FillingsUpdate:  mu: -0.111109142  nElectrons: 342.000000
	SubspaceRotationAdjust: set factor to 0.587
ElecMinimize: Iter:  47  F: -677.746563236523230  |grad|_K:  1.490e-07  alpha:  7.956e-02  linmin:  1.267e-08  t[s]:    162.57
	FillingsUpdate:  mu: -0.111159992  nElectrons: 342.000000
	SubspaceRotationAdjust: set factor to 0.528
ElecMinimize: Iter:  48  F: -677.746563326923592  |grad|_K:  1.737e-07  alpha:  1.160e-01  linmin: -4.167e-08  t[s]:    164.82
	FillingsUpdate:  mu: -0.111143179  nElectrons: 342.000000
	SubspaceRotationAdjust: set factor to 0.682
ElecMinimize: Iter:  49  F: -677.746563436116730  |grad|_K:  1.402e-07  alpha:  1.027e-01  linmin: -7.473e-09  t[s]:    167.03
	FillingsUpdate:  mu: -0.111099087  nElectrons: 342.000000
	SubspaceRotationAdjust: set factor to 0.742
ElecMinimize: Iter:  50  F: -677.746563503417406  |grad|_K:  1.493e-07  alpha:  9.756e-02  linmin:  5.229e-09  t[s]:    169.22
	FillingsUpdate:  mu: -0.111111227  nElectrons: 342.000000
	SubspaceRotationAdjust: set factor to 0.806
ElecMinimize: Iter:  51  F: -677.746563590720484  |grad|_K:  1.311e-07  alpha:  1.119e-01  linmin:  2.169e-08  t[s]:    171.40
	FillingsUpdate:  mu: -0.111152781  nElectrons: 342.000000
	SubspaceRotationAdjust: set factor to 0.674
ElecMinimize: Iter:  52  F: -677.746563638356861  |grad|_K:  1.334e-07  alpha:  7.942e-02  linmin: -6.381e-10  t[s]:    173.60
	FillingsUpdate:  mu: -0.111145128  nElectrons: 342.000000
	SubspaceRotationAdjust: set factor to 0.847
ElecMinimize: Iter:  53  F: -677.746563705090352  |grad|_K:  1.131e-07  alpha:  1.066e-01  linmin: -3.100e-08  t[s]:    175.80
	FillingsUpdate:  mu: -0.111109153  nElectrons: 342.000000
	SubspaceRotationAdjust: set factor to 0.774
ElecMinimize: Iter:  54  F: -677.746563747769869  |grad|_K:  1.225e-07  alpha:  9.468e-02  linmin: -1.106e-08  t[s]:    178.00
	FillingsUpdate:  mu: -0.111125259  nElectrons: 342.000000
	SubspaceRotationAdjust: set factor to 0.993
ElecMinimize: Iter:  55  F: -677.746563799738169  |grad|_K:  9.328e-08  alpha:  9.855e-02  linmin: -3.406e-08  t[s]:    180.21
	FillingsUpdate:  mu: -0.111151633  nElectrons: 342.000000
	SubspaceRotationAdjust: set factor to 0.832
ElecMinimize: Iter:  56  F: -677.746563834159815  |grad|_K:  1.085e-07  alpha:  1.118e-01  linmin: -2.738e-08  t[s]:    182.42
	FillingsUpdate:  mu: -0.111126927  nElectrons: 342.000000
	SubspaceRotationAdjust: set factor to 1.07
ElecMinimize: Iter:  57  F: -677.746563863592314  |grad|_K:  7.813e-08  alpha:  7.107e-02  linmin: -7.093e-09  t[s]:    184.62
	FillingsUpdate:  mu: -0.111118941  nElectrons: 342.000000
	SubspaceRotationAdjust: set factor to 0.971
ElecMinimize: Iter:  58  F: -677.746563894117003  |grad|_K:  8.340e-08  alpha:  1.410e-01  linmin: -6.834e-08  t[s]:    186.82
	FillingsUpdate:  mu: -0.111143852  nElectrons: 342.000000
	SubspaceRotationAdjust: set factor to 0.816
ElecMinimize: Iter:  59  F: -677.746563910528607  |grad|_K:  7.683e-08  alpha:  6.621e-02  linmin: -1.403e-09  t[s]:    188.99
	FillingsUpdate:  mu: -0.111134640  nElectrons: 342.000000
	SubspaceRotationAdjust: set factor to 1.16
ElecMinimize: Iter:  60  F: -677.746563933255857  |grad|_K:  6.006e-08  alpha:  1.093e-01  linmin: -2.940e-08  t[s]:    191.19
	FillingsUpdate:  mu: -0.111114562  nElectrons: 342.000000
	SubspaceRotationAdjust: set factor to 0.96
ElecMinimize: Iter:  61  F: -677.746563948673497  |grad|_K:  7.662e-08  alpha:  1.209e-01  linmin: -9.371e-09  t[s]:    193.38
	FillingsUpdate:  mu: -0.111132424  nElectrons: 342.000000
	SubspaceRotationAdjust: set factor to 1.06
ElecMinimize: Iter:  62  F: -677.746563961447464  |grad|_K:  5.296e-08  alpha:  6.139e-02  linmin: -2.167e-08  t[s]:    195.59
	FillingsUpdate:  mu: -0.111135399  nElectrons: 342.000000
	SubspaceRotationAdjust: set factor to 1.08
ElecMinimize: Iter:  63  F: -677.746563975139338  |grad|_K:  5.083e-08  alpha:  1.386e-01  linmin:  1.909e-08  t[s]:    197.81
	FillingsUpdate:  mu: -0.111120066  nElectrons: 342.000000
	SubspaceRotationAdjust: set factor to 0.895
ElecMinimize: Iter:  64  F: -677.746563981424401  |grad|_K:  5.121e-08  alpha:  6.953e-02  linmin: -9.682e-09  t[s]:    200.00
	FillingsUpdate:  mu: -0.111127889  nElectrons: 342.000000
	SubspaceRotationAdjust: set factor to 1.34
ElecMinimize: Iter:  65  F: -677.746563990447726  |grad|_K:  3.962e-08  alpha:  9.821e-02  linmin:  4.817e-09  t[s]:    202.21
ElecMinimize: Converged (|Delta F|<1.000000e-08 for 2 iters).
Setting wave functions to eigenvectors of Hamiltonian
Vacuum energy after initial minimize, F = -677.746563990447726


-------- Electronic minimization -----------
	Linear fluid (dielectric constant: 64) occupying 0.886466 of unit cell:	Completed after 43 iterations at t[s]:    203.20
	FillingsUpdate:  mu: -0.098867758  nElectrons: 342.000000
ElecMinimize: Iter:   0  F: -677.830210186397949  |grad|_K:  4.030e-05  alpha:  1.000e+00
	Linear fluid (dielectric constant: 64) occupying 0.886268 of unit cell:	Completed after 38 iterations at t[s]:    205.43
	Linear fluid (dielectric constant: 64) occupying 0.886449 of unit cell:	Completed after 33 iterations at t[s]:    206.65
	FillingsUpdate:  mu: -0.112005928  nElectrons: 342.000000
	SubspaceRotationAdjust: set factor to 0.725
ElecMinimize: Iter:   1  F: -677.850987645314717  |grad|_K:  8.090e-05  alpha:  3.896e-01  linmin:  8.117e-05  t[s]:    207.76
	Linear fluid (dielectric constant: 64) occupying 0.885794 of unit cell:	Completed after 42 iterations at t[s]:    208.97
	Linear fluid (dielectric constant: 64) occupying 0.886421 of unit cell:	Completed after 37 iterations at t[s]:    210.24
	FillingsUpdate:  mu: -0.089269265  nElectrons: 342.000000
	SubspaceRotationAdjust: set factor to 0.305
ElecMinimize: Iter:   2  F: -677.858287527931111  |grad|_K:  3.529e-05  alpha:  5.283e-02  linmin:  9.723e-04  t[s]:    211.33
	Linear fluid (dielectric constant: 64) occupying 0.886407 of unit cell:	Completed after 18 iterations at t[s]:    212.27
	Linear fluid (dielectric constant: 64) occupying 0.886375 of unit cell:	Completed after 23 iterations at t[s]:    213.33
	FillingsUpdate:  mu: -0.105498442  nElectrons: 342.000000
	SubspaceRotationAdjust: set factor to 0.198
ElecMinimize: Iter:   3  F: -677.863070800426158  |grad|_K:  1.977e-05  alpha:  1.582e-01  linmin: -2.125e-06  t[s]:    214.37
	Linear fluid (dielectric constant: 64) occupying 0.886346 of unit cell:	Completed after 20 iterations at t[s]:    215.34
	Linear fluid (dielectric constant: 64) occupying 0.886311 of unit cell:	Completed after 21 iterations at t[s]:    216.39
	FillingsUpdate:  mu: -0.093627147  nElectrons: 342.000000
	SubspaceRotationAdjust: set factor to 0.131
	SubspaceRotationAdjust: resetting CG because factor has changed by 0.0973385
	Linear fluid (dielectric constant: 64) occupying 0.886311 of unit cell:	Completed after 0 iterations at t[s]:    217.92
ElecMinimize: 	State modified externally: resetting search direction.
ElecMinimize: Iter:   4  F: -677.867781007759504  |grad|_K:  1.168e-05  alpha:  3.416e-01
	Linear fluid (dielectric constant: 64) occupying 0.886271 of unit cell:	Completed after 18 iterations at t[s]:    219.88
	Linear fluid (dielectric constant: 64) occupying 0.886284 of unit cell:	Completed after 12 iterations at t[s]:    220.81
	FillingsUpdate:  mu: -0.101887821  nElectrons: 342.000000
	SubspaceRotationAdjust: set factor to 0.282
ElecMinimize: Iter:   5  F: -677.868877254532890  |grad|_K:  7.384e-06  alpha:  2.290e-01  linmin:  1.272e-05  t[s]:    221.87
	Linear fluid (dielectric constant: 64) occupying 0.886257 of unit cell:	Completed after 12 iterations at t[s]:    222.74
ElecMinimize: 	Predicted alpha/alphaT>3.000000, increasing alphaT to 6.871494e-01.
	Linear fluid (dielectric constant: 64) occupying 0.886202 of unit cell:	Completed after 16 iterations at t[s]:    223.69
	Linear fluid (dielectric constant: 64) occupying 0.886199 of unit cell:	Completed after 3 iterations at t[s]:    224.54
	FillingsUpdate:  mu: -0.100480156  nElectrons: 342.000000
	SubspaceRotationAdjust: set factor to 0.338
ElecMinimize: Iter:   6  F: -677.870230929822128  |grad|_K:  5.077e-06  alpha:  7.089e-01  linmin: -2.285e-05  t[s]:    225.54
	Linear fluid (dielectric constant: 64) occupying 0.886171 of unit cell:	Completed after 18 iterations at t[s]:    226.47
	Linear fluid (dielectric constant: 64) occupying 0.886169 of unit cell:	Completed after 4 iterations at t[s]:    227.31
	FillingsUpdate:  mu: -0.098920318  nElectrons: 342.000000
	SubspaceRotationAdjust: set factor to 0.37
ElecMinimize: Iter:   7  F: -677.870902909898973  |grad|_K:  4.484e-06  alpha:  7.425e-01  linmin: -5.800e-06  t[s]:    228.32
	Linear fluid (dielectric constant: 64) occupying 0.886155 of unit cell:	Completed after 19 iterations at t[s]:    229.25
	Linear fluid (dielectric constant: 64) occupying 0.886163 of unit cell:	Completed after 15 iterations at t[s]:    230.23
	FillingsUpdate:  mu: -0.101414986  nElectrons: 342.000000
	SubspaceRotationAdjust: set factor to 0.322
ElecMinimize: Iter:   8  F: -677.871123274870456  |grad|_K:  5.341e-06  alpha:  3.139e-01  linmin:  3.361e-06  t[s]:    231.25
	Linear fluid (dielectric constant: 64) occupying 0.886161 of unit cell:	Completed after 18 iterations at t[s]:    232.20
	Linear fluid (dielectric constant: 64) occupying 0.886162 of unit cell:	Completed after 9 iterations at t[s]:    233.09
	FillingsUpdate:  mu: -0.099187466  nElectrons: 342.000000
	SubspaceRotationAdjust: set factor to 0.292
ElecMinimize: Iter:   9  F: -677.871352827541955  |grad|_K:  3.614e-06  alpha:  2.302e-01  linmin:  2.245e-06  t[s]:    234.12
	Linear fluid (dielectric constant: 64) occupying 0.886161 of unit cell:	Completed after 13 iterations at t[s]:    235.00
	Linear fluid (dielectric constant: 64) occupying 0.886158 of unit cell:	Completed after 17 iterations at t[s]:    235.99
	FillingsUpdate:  mu: -0.099699648  nElectrons: 342.000000
	SubspaceRotationAdjust: set factor to 0.339
ElecMinimize: Iter:  10  F: -677.871641116706655  |grad|_K:  3.011e-06  alpha:  6.385e-01  linmin:  1.022e-05  t[s]:    237.02
	Linear fluid (dielectric constant: 64) occupying 0.886165 of unit cell:	Completed after 20 iterations at t[s]:    237.98
	Linear fluid (dielectric constant: 64) occupying 0.886165 of unit cell:	Completed after 0 iterations at t[s]:    238.77
	FillingsUpdate:  mu: -0.100438809  nElectrons: 342.000000
	SubspaceRotationAdjust: set factor to 0.363
ElecMinimize: Iter:  11  F: -677.871839270555711  |grad|_K:  3.942e-06  alpha:  6.355e-01  linmin:  5.322e-07  t[s]:    239.75
	Linear fluid (dielectric constant: 64) occupying 0.886190 of unit cell:	Completed after 25 iterations at t[s]:    240.78
	Linear fluid (dielectric constant: 64) occupying 0.886177 of unit cell:	Completed after 21 iterations at t[s]:    241.81
	FillingsUpdate:  mu: -0.097750566  nElectrons: 342.000000
	SubspaceRotationAdjust: set factor to 0.305
ElecMinimize: Iter:  12  F: -677.872005755172609  |grad|_K:  4.827e-06  alpha:  2.917e-01  linmin: -1.228e-05  t[s]:    242.84
	Linear fluid (dielectric constant: 64) occupying 0.886194 of unit cell:	Completed after 24 iterations at t[s]:    243.84
	Linear fluid (dielectric constant: 64) occupying 0.886198 of unit cell:	Completed after 19 iterations at t[s]:    244.86
	FillingsUpdate:  mu: -0.098759379  nElectrons: 342.000000
	SubspaceRotationAdjust: set factor to 0.383
ElecMinimize: Iter:  13  F: -677.872288681205873  |grad|_K:  4.903e-06  alpha:  3.819e-01  linmin:  7.361e-05  t[s]:    245.88
	Linear fluid (dielectric constant: 64) occupying 0.886210 of unit cell:	Completed after 29 iterations at t[s]:    246.94
	Linear fluid (dielectric constant: 64) occupying 0.886202 of unit cell:	Completed after 24 iterations at t[s]:    248.03
	FillingsUpdate:  mu: -0.099105567  nElectrons: 342.000000
	SubspaceRotationAdjust: set factor to 0.447
ElecMinimize: Iter:  14  F: -677.872345708951229  |grad|_K:  4.827e-06  alpha:  7.780e-02  linmin: -4.368e-05  t[s]:    249.06
	Linear fluid (dielectric constant: 64) occupying 0.886205 of unit cell:	Completed after 17 iterations at t[s]:    249.99
	Linear fluid (dielectric constant: 64) occupying 0.886208 of unit cell:	Completed after 18 iterations at t[s]:    250.97
	FillingsUpdate:  mu: -0.099447223  nElectrons: 342.000000
	SubspaceRotationAdjust: set factor to 0.501
ElecMinimize: Iter:  15  F: -677.872519467180041  |grad|_K:  4.632e-06  alpha:  1.736e-01  linmin: -7.214e-06  t[s]:    252.00
	Linear fluid (dielectric constant: 64) occupying 0.886212 of unit cell:	Completed after 20 iterations at t[s]:    252.96
	Linear fluid (dielectric constant: 64) occupying 0.886214 of unit cell:	Completed after 18 iterations at t[s]:    253.95
	FillingsUpdate:  mu: -0.098204059  nElectrons: 342.000000
	SubspaceRotationAdjust: set factor to 0.598
ElecMinimize: Iter:  16  F: -677.872714330033091  |grad|_K:  6.977e-06  alpha:  2.474e-01  linmin: -9.832e-06  t[s]:    254.97
	Linear fluid (dielectric constant: 64) occupying 0.886221 of unit cell:	Completed after 35 iterations at t[s]:    256.10
	Linear fluid (dielectric constant: 64) occupying 0.886219 of unit cell:	Completed after 28 iterations at t[s]:    257.24
	FillingsUpdate:  mu: -0.097637250  nElectrons: 342.000000
	SubspaceRotationAdjust: set factor to 0.634
ElecMinimize: Iter:  17  F: -677.873129528839172  |grad|_K:  1.017e-05  alpha:  1.289e-01  linmin: -7.834e-05  t[s]:    258.28
	Linear fluid (dielectric constant: 64) occupying 0.886219 of unit cell:	Completed after 36 iterations at t[s]:    259.42
	Linear fluid (dielectric constant: 64) occupying 0.886220 of unit cell:	Completed after 31 iterations at t[s]:    260.59
	FillingsUpdate:  mu: -0.097732719  nElectrons: 342.000000
	SubspaceRotationAdjust: set factor to 0.603
ElecMinimize: Iter:  18  F: -677.873319950828318  |grad|_K:  1.045e-05  alpha:  2.029e-02  linmin: -1.531e-04  t[s]:    263.09
	Linear fluid (dielectric constant: 64) occupying 0.886221 of unit cell:	Completed after 25 iterations at t[s]:    264.10
	Linear fluid (dielectric constant: 64) occupying 0.886222 of unit cell:	Completed after 25 iterations at t[s]:    265.22
	FillingsUpdate:  mu: -0.098387225  nElectrons: 342.000000
	SubspaceRotationAdjust: set factor to 0.468
ElecMinimize: Iter:  19  F: -677.873585732258107  |grad|_K:  9.887e-06  alpha:  3.991e-02  linmin:  7.943e-05  t[s]:    269.13
	Linear fluid (dielectric constant: 64) occupying 0.886223 of unit cell:	Completed after 29 iterations at t[s]:    270.20
	Linear fluid (dielectric constant: 64) occupying 0.886222 of unit cell:	Completed after 25 iterations at t[s]:    275.60
	FillingsUpdate:  mu: -0.098564372  nElectrons: 342.000000
	SubspaceRotationAdjust: set factor to 0.392
ElecMinimize: Iter:  20  F: -677.873607595551334  |grad|_K:  9.155e-06  alpha:  1.028e-02  linmin:  7.642e-07  t[s]:    282.34
	Linear fluid (dielectric constant: 64) occupying 0.886223 of unit cell:	Completed after 18 iterations at t[s]:    283.28
	Linear fluid (dielectric constant: 64) occupying 0.886223 of unit cell:	Completed after 17 iterations at t[s]:    284.26
	FillingsUpdate:  mu: -0.098728735  nElectrons: 342.000000
	SubspaceRotationAdjust: set factor to 0.361
ElecMinimize: Iter:  21  F: -677.873662438783185  |grad|_K:  8.581e-06  alpha:  1.859e-02  linmin: -4.686e-06  t[s]:    285.28
	Linear fluid (dielectric constant: 64) occupying 0.886223 of unit cell:	Completed after 20 iterations at t[s]:    286.24
	Linear fluid (dielectric constant: 64) occupying 0.886223 of unit cell:	Completed after 5 iterations at t[s]:    287.08
	FillingsUpdate:  mu: -0.098862809  nElectrons: 342.000000
	SubspaceRotationAdjust: set factor to 0.376
ElecMinimize: Iter:  22  F: -677.873720405288054  |grad|_K:  8.260e-06  alpha:  2.179e-02  linmin: -1.152e-05  t[s]:    288.10
	Linear fluid (dielectric constant: 64) occupying 0.886223 of unit cell:	Completed after 19 iterations at t[s]:    289.10
	Linear fluid (dielectric constant: 64) occupying 0.886223 of unit cell:	Completed after 5 iterations at t[s]:    289.94
	FillingsUpdate:  mu: -0.098844242  nElectrons: 342.000000
	SubspaceRotationAdjust: set factor to 0.455
ElecMinimize: Iter:  23  F: -677.873783287888273  |grad|_K:  8.130e-06  alpha:  2.461e-02  linmin: -1.528e-05  t[s]:    290.94
	Linear fluid (dielectric constant: 64) occupying 0.886223 of unit cell:	Completed after 17 iterations at t[s]:    291.91
	Linear fluid (dielectric constant: 64) occupying 0.886223 of unit cell:	Completed after 5 iterations at t[s]:    292.75
	FillingsUpdate:  mu: -0.098672205  nElectrons: 342.000000
	SubspaceRotationAdjust: set factor to 0.605
ElecMinimize: Iter:  24  F: -677.873855433213407  |grad|_K:  8.009e-06  alpha:  2.835e-02  linmin: -1.487e-05  t[s]:    293.76
	Linear fluid (dielectric constant: 64) occupying 0.886223 of unit cell:	Completed after 15 iterations at t[s]:    294.66
	Linear fluid (dielectric constant: 64) occupying 0.886223 of unit cell:	Completed after 4 iterations at t[s]:    295.50
	FillingsUpdate:  mu: -0.098298403  nElectrons: 342.000000
	SubspaceRotationAdjust: set factor to 0.754
ElecMinimize: Iter:  25  F: -677.873933552858489  |grad|_K:  7.680e-06  alpha:  3.148e-02  linmin: -1.383e-05  t[s]:    296.50
	Linear fluid (dielectric constant: 64) occupying 0.886221 of unit cell:	Completed after 14 iterations at t[s]:    297.39
	Linear fluid (dielectric constant: 64) occupying 0.886221 of unit cell:	Completed after 4 iterations at t[s]:    298.24
	FillingsUpdate:  mu: -0.097796174  nElectrons: 342.000000
	SubspaceRotationAdjust: set factor to 0.897
ElecMinimize: Iter:  26  F: -677.874015694189552  |grad|_K:  7.078e-06  alpha:  3.567e-02  linmin: -1.332e-05  t[s]:    299.23
	Linear fluid (dielectric constant: 64) occupying 0.886219 of unit cell:	Completed after 12 iterations at t[s]:    300.11
	Linear fluid (dielectric constant: 64) occupying 0.886218 of unit cell:	Completed after 4 iterations at t[s]:    300.95
	FillingsUpdate:  mu: -0.097490840  nElectrons: 342.000000
	SubspaceRotationAdjust: set factor to 1.09
	SubspaceRotationAdjust: resetting CG because factor has changed by 8.35242
	Linear fluid (dielectric constant: 64) occupying 0.886218 of unit cell:	Completed after 0 iterations at t[s]:    302.38
ElecMinimize: 	State modified externally: resetting search direction.
ElecMinimize: Iter:  27  F: -677.874104894779748  |grad|_K:  6.527e-06  alpha:  4.464e-02
	Linear fluid (dielectric constant: 64) occupying 0.886216 of unit cell:	Completed after 11 iterations at t[s]:    304.19
ElecMinimize: 	Predicted alpha/alphaT>3.000000, increasing alphaT to 1.339178e-01.
	Linear fluid (dielectric constant: 64) occupying 0.886213 of unit cell:	Completed after 13 iterations at t[s]:    305.12
	Linear fluid (dielectric constant: 64) occupying 0.886211 of unit cell:	Completed after 11 iterations at t[s]:    306.03
	FillingsUpdate:  mu: -0.099702148  nElectrons: 342.000000
	SubspaceRotationAdjust: set factor to 0.656
ElecMinimize: Iter:  28  F: -677.874354902165010  |grad|_K:  8.248e-06  alpha:  1.664e-01  linmin: -9.872e-06  t[s]:    307.08
	Linear fluid (dielectric constant: 64) occupying 0.886207 of unit cell:	Completed after 22 iterations at t[s]:    308.05
	Linear fluid (dielectric constant: 64) occupying 0.886209 of unit cell:	Completed after 15 iterations at t[s]:    309.00
	FillingsUpdate:  mu: -0.097855229  nElectrons: 342.000000
	SubspaceRotationAdjust: set factor to 0.399
ElecMinimize: Iter:  29  F: -677.874554522054950  |grad|_K:  3.274e-06  alpha:  8.246e-02  linmin:  1.084e-06  t[s]:    310.03
	Linear fluid (dielectric constant: 64) occupying 0.886208 of unit cell:	Completed after 7 iterations at t[s]:    310.85
ElecMinimize: 	Predicted alpha/alphaT>3.000000, increasing alphaT to 2.473796e-01.
	Linear fluid (dielectric constant: 64) occupying 0.886206 of unit cell:	Completed after 12 iterations at t[s]:    311.78
	Linear fluid (dielectric constant: 64) occupying 0.886204 of unit cell:	Completed after 12 iterations at t[s]:    312.71
	FillingsUpdate:  mu: -0.098804201  nElectrons: 342.000000
	SubspaceRotationAdjust: set factor to 0.33
ElecMinimize: Iter:  30  F: -677.874712812756570  |grad|_K:  2.504e-06  alpha:  4.192e-01  linmin: -4.341e-06  t[s]:    313.76
	Linear fluid (dielectric constant: 64) occupying 0.886204 of unit cell:	Completed after 14 iterations at t[s]:    314.67
	Linear fluid (dielectric constant: 64) occupying 0.886204 of unit cell:	Completed after 11 iterations at t[s]:    315.58
	FillingsUpdate:  mu: -0.097539892  nElectrons: 342.000000
	SubspaceRotationAdjust: set factor to 0.219
ElecMinimize: Iter:  31  F: -677.874764019708437  |grad|_K:  2.157e-06  alpha:  2.295e-01  linmin:  3.642e-07  t[s]:    316.61
	Linear fluid (dielectric constant: 64) occupying 0.886202 of unit cell:	Completed after 10 iterations at t[s]:    317.48
	Linear fluid (dielectric constant: 64) occupying 0.886201 of unit cell:	Completed after 4 iterations at t[s]:    318.34
	FillingsUpdate:  mu: -0.098314295  nElectrons: 342.000000
	SubspaceRotationAdjust: set factor to 0.206
ElecMinimize: Iter:  32  F: -677.874815100004525  |grad|_K:  1.701e-06  alpha:  3.136e-01  linmin: -1.361e-06  t[s]:    319.37
	Linear fluid (dielectric constant: 64) occupying 0.886199 of unit cell:	Completed after 12 iterations at t[s]:    320.22
	Linear fluid (dielectric constant: 64) occupying 0.886195 of unit cell:	Completed after 15 iterations at t[s]:    321.18
	FillingsUpdate:  mu: -0.098833476  nElectrons: 342.000000
	SubspaceRotationAdjust: set factor to 0.22
ElecMinimize: Iter:  33  F: -677.874881379539488  |grad|_K:  1.969e-06  alpha:  7.218e-01  linmin:  6.107e-05  t[s]:    322.19
	Linear fluid (dielectric constant: 64) occupying 0.886192 of unit cell:	Completed after 24 iterations at t[s]:    323.18
	Linear fluid (dielectric constant: 64) occupying 0.886194 of unit cell:	Completed after 24 iterations at t[s]:    324.25
	FillingsUpdate:  mu: -0.098405498  nElectrons: 342.000000
	SubspaceRotationAdjust: set factor to 0.252
ElecMinimize: Iter:  34  F: -677.874902202593944  |grad|_K:  1.450e-06  alpha:  1.722e-01  linmin: -4.184e-05  t[s]:    325.26
	Linear fluid (dielectric constant: 64) occupying 0.886195 of unit cell:	Completed after 9 iterations at t[s]:    326.09
	Linear fluid (dielectric constant: 64) occupying 0.886195 of unit cell:	Completed after 2 iterations at t[s]:    326.90
	FillingsUpdate:  mu: -0.098122862  nElectrons: 342.000000
	SubspaceRotationAdjust: set factor to 0.274
ElecMinimize: Iter:  35  F: -677.874918199292892  |grad|_K:  1.177e-06  alpha:  2.001e-01  linmin: -1.347e-05  t[s]:    327.92
	Linear fluid (dielectric constant: 64) occupying 0.886197 of unit cell:	Completed after 11 iterations at t[s]:    328.78
	Linear fluid (dielectric constant: 64) occupying 0.886197 of unit cell:	Completed after 0 iterations at t[s]:    329.56
	FillingsUpdate:  mu: -0.098323232  nElectrons: 342.000000
	SubspaceRotationAdjust: set factor to 0.321
ElecMinimize: Iter:  36  F: -677.874927428268961  |grad|_K:  1.031e-06  alpha:  1.872e-01  linmin: -3.230e-07  t[s]:    330.54
	Linear fluid (dielectric constant: 64) occupying 0.886198 of unit cell:	Completed after 4 iterations at t[s]:    331.32
	Linear fluid (dielectric constant: 64) occupying 0.886199 of unit cell:	Completed after 3 iterations at t[s]:    332.13
	FillingsUpdate:  mu: -0.098476185  nElectrons: 342.000000
	SubspaceRotationAdjust: set factor to 0.363
ElecMinimize: Iter:  37  F: -677.874936518389177  |grad|_K:  1.093e-06  alpha:  2.483e-01  linmin:  3.979e-06  t[s]:    333.13
	Linear fluid (dielectric constant: 64) occupying 0.886202 of unit cell:	Completed after 6 iterations at t[s]:    333.92
	Linear fluid (dielectric constant: 64) occupying 0.886201 of unit cell:	Completed after 3 iterations at t[s]:    334.74
	FillingsUpdate:  mu: -0.098218072  nElectrons: 342.000000
	SubspaceRotationAdjust: set factor to 0.389
ElecMinimize: Iter:  38  F: -677.874943847052350  |grad|_K:  9.629e-07  alpha:  1.848e-01  linmin: -1.188e-06  t[s]:    335.75
	Linear fluid (dielectric constant: 64) occupying 0.886203 of unit cell:	Completed after 4 iterations at t[s]:    336.54
	Linear fluid (dielectric constant: 64) occupying 0.886203 of unit cell:	Completed after 3 iterations at t[s]:    337.35
	FillingsUpdate:  mu: -0.098040313  nElectrons: 342.000000
	SubspaceRotationAdjust: set factor to 0.469
ElecMinimize: Iter:  39  F: -677.874951794364961  |grad|_K:  1.034e-06  alpha:  2.427e-01  linmin: -5.862e-08  t[s]:    338.35
	Linear fluid (dielectric constant: 64) occupying 0.886205 of unit cell:	Completed after 10 iterations at t[s]:    339.21
	Linear fluid (dielectric constant: 64) occupying 0.886204 of unit cell:	Completed after 4 iterations at t[s]:    340.08
	FillingsUpdate:  mu: -0.098345888  nElectrons: 342.000000
	SubspaceRotationAdjust: set factor to 0.477
ElecMinimize: Iter:  40  F: -677.874956962158649  |grad|_K:  7.427e-07  alpha:  1.396e-01  linmin:  1.045e-06  t[s]:    341.09
	Linear fluid (dielectric constant: 64) occupying 0.886205 of unit cell:	Completed after 3 iterations at t[s]:    341.84
	Linear fluid (dielectric constant: 64) occupying 0.886205 of unit cell:	Completed after 0 iterations at t[s]:    342.61
	FillingsUpdate:  mu: -0.098418098  nElectrons: 342.000000
	SubspaceRotationAdjust: set factor to 0.587
ElecMinimize: Iter:  41  F: -677.874961075934493  |grad|_K:  6.569e-07  alpha:  2.090e-01  linmin: -7.436e-06  t[s]:    343.59
	Linear fluid (dielectric constant: 64) occupying 0.886207 of unit cell:	Completed after 6 iterations at t[s]:    344.40
	Linear fluid (dielectric constant: 64) occupying 0.886207 of unit cell:	Completed after 3 iterations at t[s]:    345.22
	FillingsUpdate:  mu: -0.098320428  nElectrons: 342.000000
	SubspaceRotationAdjust: set factor to 0.712
ElecMinimize: Iter:  42  F: -677.874963372590173  |grad|_K:  5.114e-07  alpha:  1.520e-01  linmin: -3.857e-06  t[s]:    346.21
	Linear fluid (dielectric constant: 64) occupying 0.886207 of unit cell:	Completed after 4 iterations at t[s]:    346.98
	Linear fluid (dielectric constant: 64) occupying 0.886207 of unit cell:	Completed after 0 iterations at t[s]:    347.74
	FillingsUpdate:  mu: -0.098242453  nElectrons: 342.000000
	SubspaceRotationAdjust: set factor to 0.828
ElecMinimize: Iter:  43  F: -677.874965173803844  |grad|_K:  4.967e-07  alpha:  1.827e-01  linmin: -8.212e-06  t[s]:    348.72
	Linear fluid (dielectric constant: 64) occupying 0.886208 of unit cell:	Completed after 4 iterations at t[s]:    349.50
	Linear fluid (dielectric constant: 64) occupying 0.886208 of unit cell:	Completed after 0 iterations at t[s]:    350.26
	FillingsUpdate:  mu: -0.098363568  nElectrons: 342.000000
	SubspaceRotationAdjust: set factor to 0.833
ElecMinimize: Iter:  44  F: -677.874966555529909  |grad|_K:  4.871e-07  alpha:  1.419e-01  linmin:  5.636e-06  t[s]:    351.23
	Linear fluid (dielectric constant: 64) occupying 0.886208 of unit cell:	Completed after 2 iterations at t[s]:    351.98
	Linear fluid (dielectric constant: 64) occupying 0.886208 of unit cell:	Completed after 0 iterations at t[s]:    352.73
	FillingsUpdate:  mu: -0.098275955  nElectrons: 342.000000
	SubspaceRotationAdjust: set factor to 0.932
ElecMinimize: Iter:  45  F: -677.874967531746165  |grad|_K:  3.956e-07  alpha:  1.323e-01  linmin: -5.236e-06  t[s]:    353.73
	Linear fluid (dielectric constant: 64) occupying 0.886208 of unit cell:	Completed after 0 iterations at t[s]:    354.46
	Linear fluid (dielectric constant: 64) occupying 0.886208 of unit cell:	Completed after 2 iterations at t[s]:    355.24
	FillingsUpdate:  mu: -0.098315806  nElectrons: 342.000000
	SubspaceRotationAdjust: set factor to 1.13
ElecMinimize: Iter:  46  F: -677.874968610399947  |grad|_K:  3.252e-07  alpha:  2.019e-01  linmin:  5.466e-06  t[s]:    356.24
	Linear fluid (dielectric constant: 64) occupying 0.886208 of unit cell:	Completed after 2 iterations at t[s]:    356.99
	Linear fluid (dielectric constant: 64) occupying 0.886208 of unit cell:	Completed after 0 iterations at t[s]:    357.74
	FillingsUpdate:  mu: -0.098315334  nElectrons: 342.000000
	SubspaceRotationAdjust: set factor to 1.36
ElecMinimize: Iter:  47  F: -677.874969219618151  |grad|_K:  2.846e-07  alpha:  1.786e-01  linmin: -2.617e-07  t[s]:    358.71
	Linear fluid (dielectric constant: 64) occupying 0.886208 of unit cell:	Completed after 0 iterations at t[s]:    359.42
	Linear fluid (dielectric constant: 64) occupying 0.886208 of unit cell:	Completed after 2 iterations at t[s]:    360.20
	FillingsUpdate:  mu: -0.098297828  nElectrons: 342.000000
	SubspaceRotationAdjust: set factor to 1.62
ElecMinimize: Iter:  48  F: -677.874969643449163  |grad|_K:  2.637e-07  alpha:  2.212e-01  linmin:  2.138e-05  t[s]:    361.20
	Linear fluid (dielectric constant: 64) occupying 0.886207 of unit cell:	Completed after 2 iterations at t[s]:    361.97
	Linear fluid (dielectric constant: 64) occupying 0.886207 of unit cell:	Completed after 0 iterations at t[s]:    362.73
	FillingsUpdate:  mu: -0.098363071  nElectrons: 342.000000
	SubspaceRotationAdjust: set factor to 1.34
ElecMinimize: Iter:  49  F: -677.874969861076352  |grad|_K:  3.770e-07  alpha:  1.142e-01  linmin:  7.169e-06  t[s]:    363.72
	Linear fluid (dielectric constant: 64) occupying 0.886206 of unit cell:	Completed after 4 iterations at t[s]:    364.50
	Linear fluid (dielectric constant: 64) occupying 0.886207 of unit cell:	Completed after 1 iterations at t[s]:    365.29
	FillingsUpdate:  mu: -0.098250158  nElectrons: 342.000000
	SubspaceRotationAdjust: set factor to 0.905
ElecMinimize: Iter:  50  F: -677.874970016806060  |grad|_K:  3.650e-07  alpha:  4.400e-02  linmin:  8.325e-06  t[s]:    366.32
	Linear fluid (dielectric constant: 64) occupying 0.886207 of unit cell:	Completed after 1 iterations at t[s]:    367.08
	Linear fluid (dielectric constant: 64) occupying 0.886207 of unit cell:	Completed after 0 iterations at t[s]:    367.82
	FillingsUpdate:  mu: -0.098264654  nElectrons: 342.000000
	SubspaceRotationAdjust: set factor to 1.22
ElecMinimize: Iter:  51  F: -677.874970183188339  |grad|_K:  2.747e-07  alpha:  4.469e-02  linmin: -1.127e-05  t[s]:    368.79
	Linear fluid (dielectric constant: 64) occupying 0.886206 of unit cell:	Completed after 2 iterations at t[s]:    369.58
	Linear fluid (dielectric constant: 64) occupying 0.886206 of unit cell:	Completed after 0 iterations at t[s]:    370.32
	FillingsUpdate:  mu: -0.098366970  nElectrons: 342.000000
	SubspaceRotationAdjust: set factor to 0.95
ElecMinimize: Iter:  52  F: -677.874970194314074  |grad|_K:  3.301e-07  alpha:  2.141e-02  linmin:  6.138e-06  t[s]:    371.29
	Linear fluid (dielectric constant: 64) occupying 0.886206 of unit cell:	Completed after 0 iterations at t[s]:    372.00
ElecMinimize: 	Predicted alpha/alphaT>3.000000, increasing alphaT to 6.423575e-02.
	Linear fluid (dielectric constant: 64) occupying 0.886206 of unit cell:	Completed after 0 iterations at t[s]:    372.75
	Linear fluid (dielectric constant: 64) occupying 0.886206 of unit cell:	Completed after 0 iterations at t[s]:    373.49
	FillingsUpdate:  mu: -0.098358503  nElectrons: 342.000000
	SubspaceRotationAdjust: set factor to 0.847
ElecMinimize: Iter:  53  F: -677.874970431809629  |grad|_K:  2.778e-07  alpha:  7.084e-02  linmin: -5.030e-06  t[s]:    374.46
	Linear fluid (dielectric constant: 64) occupying 0.886206 of unit cell:	Completed after 3 iterations at t[s]:    375.24
	Linear fluid (dielectric constant: 64) occupying 0.886206 of unit cell:	Completed after 1 iterations at t[s]:    376.02
ElecMinimize: 	Step increased F by 1.291949e-08, reducing alpha to 2.809850e-03.
	Linear fluid (dielectric constant: 64) occupying 0.886206 of unit cell:	Completed after 0 iterations at t[s]:    377.59
	FillingsUpdate:  mu: -0.098296008  nElectrons: 342.000000
	SubspaceRotationAdjust: set factor to 0.837
ElecMinimize: Iter:  54  F: -677.874970447674968  |grad|_K:  1.800e-07  alpha:  2.810e-03  linmin:  7.385e-06  t[s]:    378.59
	Linear fluid (dielectric constant: 64) occupying 0.886206 of unit cell:	Completed after 0 iterations at t[s]:    379.30
ElecMinimize: 	Predicted alpha/alphaT>3.000000, increasing alphaT to 8.429550e-03.
	Linear fluid (dielectric constant: 64) occupying 0.886206 of unit cell:	Completed after 0 iterations at t[s]:    380.04
ElecMinimize: 	Predicted alpha/alphaT>3.000000, increasing alphaT to 2.528865e-02.
	Linear fluid (dielectric constant: 64) occupying 0.886206 of unit cell:	Completed after 0 iterations at t[s]:    380.78
ElecMinimize: 	Predicted alpha/alphaT>3.000000, increasing alphaT to 7.586595e-02.
	Linear fluid (dielectric constant: 64) occupying 0.886206 of unit cell:	Completed after 0 iterations at t[s]:    381.52
	FillingsUpdate:  mu: -0.098295867  nElectrons: 342.000000
	SubspaceRotationAdjust: set factor to 1.05
ElecMinimize: Iter:  55  F: -677.874970639748767  |grad|_K:  1.691e-07  alpha:  1.947e-01  linmin:  9.359e-08  t[s]:    382.49
	Linear fluid (dielectric constant: 64) occupying 0.886206 of unit cell:	Completed after 3 iterations at t[s]:    383.27
	Linear fluid (dielectric constant: 64) occupying 0.886206 of unit cell:	Completed after 0 iterations at t[s]:    384.05
	FillingsUpdate:  mu: -0.098257112  nElectrons: 342.000000
	SubspaceRotationAdjust: set factor to 0.784
ElecMinimize: Iter:  56  F: -677.874970661530710  |grad|_K:  2.793e-07  alpha:  8.284e-02  linmin:  1.929e-05  t[s]:    385.04
	Linear fluid (dielectric constant: 64) occupying 0.886206 of unit cell:	Completed after 2 iterations at t[s]:    385.79
	Linear fluid (dielectric constant: 64) occupying 0.886206 of unit cell:	Completed after 0 iterations at t[s]:    386.57
	FillingsUpdate:  mu: -0.098328859  nElectrons: 342.000000
	SubspaceRotationAdjust: set factor to 0.608
ElecMinimize: Iter:  57  F: -677.874970740502022  |grad|_K:  1.652e-07  alpha:  3.232e-02  linmin:  3.088e-05  t[s]:    387.55
	Linear fluid (dielectric constant: 64) occupying 0.886206 of unit cell:	Completed after 0 iterations at t[s]:    388.28
ElecMinimize: 	Predicted alpha/alphaT>3.000000, increasing alphaT to 9.697048e-02.
	Linear fluid (dielectric constant: 64) occupying 0.886206 of unit cell:	Completed after 0 iterations at t[s]:    389.02
	Linear fluid (dielectric constant: 64) occupying 0.886206 of unit cell:	Completed after 0 iterations at t[s]:    389.75
	FillingsUpdate:  mu: -0.098328278  nElectrons: 342.000000
	SubspaceRotationAdjust: set factor to 0.851
ElecMinimize: Iter:  58  F: -677.874970802139046  |grad|_K:  1.495e-07  alpha:  1.050e-01  linmin: -6.992e-09  t[s]:    390.71
	Linear fluid (dielectric constant: 64) occupying 0.886206 of unit cell:	Completed after 1 iterations at t[s]:    391.46
	Linear fluid (dielectric constant: 64) occupying 0.886206 of unit cell:	Completed after 0 iterations at t[s]:    392.20
	FillingsUpdate:  mu: -0.098307231  nElectrons: 342.000000
	SubspaceRotationAdjust: set factor to 1.03
ElecMinimize: Iter:  59  F: -677.874970828145706  |grad|_K:  1.211e-07  alpha:  6.517e-02  linmin: -1.388e-05  t[s]:    393.18
	Linear fluid (dielectric constant: 64) occupying 0.886206 of unit cell:	Completed after 0 iterations at t[s]:    393.90
ElecMinimize: 	Predicted alpha/alphaT>3.000000, increasing alphaT to 1.954989e-01.
	Linear fluid (dielectric constant: 64) occupying 0.886206 of unit cell:	Completed after 0 iterations at t[s]:    394.63
	Linear fluid (dielectric constant: 64) occupying 0.886206 of unit cell:	Completed after 0 iterations at t[s]:    395.37
	FillingsUpdate:  mu: -0.098309496  nElectrons: 342.000000
	SubspaceRotationAdjust: set factor to 1.13
ElecMinimize: Iter:  60  F: -677.874971007546037  |grad|_K:  1.514e-07  alpha:  2.941e-01  linmin:  1.635e-08  t[s]:    396.37
	Linear fluid (dielectric constant: 64) occupying 0.886207 of unit cell:	Completed after 5 iterations at t[s]:    397.15
	Linear fluid (dielectric constant: 64) occupying 0.886206 of unit cell:	Completed after 3 iterations at t[s]:    397.96
ElecMinimize: 	Step increased F by 2.163368e-07, reducing alpha to 3.854536e-03.
	Linear fluid (dielectric constant: 64) occupying 0.886206 of unit cell:	Completed after 0 iterations at t[s]:    399.54
ElecMinimize: 	Step increased F by 1.344740e-07, reducing alpha to 3.854536e-04.
	Linear fluid (dielectric constant: 64) occupying 0.886206 of unit cell:	Completed after 0 iterations at t[s]:    401.10
ElecMinimize: 	Step increased F by 1.263094e-07, reducing alpha to 3.854536e-05.
ElecMinimize: 	Step failed to reduce F after 3 attempts. Quitting step.
ElecMinimize: 	Undoing step.
	Linear fluid (dielectric constant: 64) occupying 0.886206 of unit cell:	Completed after 0 iterations at t[s]:    402.65
ElecMinimize: 	Step failed: resetting search direction.
	FillingsUpdate:  mu: -0.098264876  nElectrons: 342.000000
	SubspaceRotationAdjust: set factor to 1.12
ElecMinimize: Iter:  61  F: -677.874970881333070  |grad|_K:  2.379e-07  alpha:  3.855e-05
	Linear fluid (dielectric constant: 64) occupying 0.886206 of unit cell:	Completed after 4 iterations at t[s]:    404.42
	Linear fluid (dielectric constant: 64) occupying 0.886206 of unit cell:	Completed after 4 iterations at t[s]:    405.23
	FillingsUpdate:  mu: -0.098354004  nElectrons: 342.000000
	SubspaceRotationAdjust: set factor to 0.719
ElecMinimize: Iter:  62  F: -677.874970917072801  |grad|_K:  2.358e-07  alpha:  8.160e-02  linmin:  6.659e-05  t[s]:    406.25
	Linear fluid (dielectric constant: 64) occupying 0.886206 of unit cell:	Completed after 1 iterations at t[s]:    406.98
	Linear fluid (dielectric constant: 64) occupying 0.886206 of unit cell:	Completed after 0 iterations at t[s]:    407.72
	FillingsUpdate:  mu: -0.098333619  nElectrons: 342.000000
	SubspaceRotationAdjust: set factor to 0.511
ElecMinimize: Iter:  63  F: -677.874971106146290  |grad|_K:  1.144e-07  alpha:  1.035e-01  linmin: -1.274e-04  t[s]:    408.72
	Linear fluid (dielectric constant: 64) occupying 0.886206 of unit cell:	Completed after 2 iterations at t[s]:    409.47
	Linear fluid (dielectric constant: 64) occupying 0.886206 of unit cell:	Completed after 0 iterations at t[s]:    410.24
ElecMinimize: 	Step increased F by 2.568697e-08, reducing alpha to 1.998620e-03.
	Linear fluid (dielectric constant: 64) occupying 0.886206 of unit cell:	Completed after 0 iterations at t[s]:    411.82
	FillingsUpdate:  mu: -0.098236096  nElectrons: 342.000000
	SubspaceRotationAdjust: set factor to 0.367
ElecMinimize: Iter:  64  F: -677.874971116981214  |grad|_K:  2.406e-07  alpha:  1.999e-03  linmin:  1.846e-04  t[s]:    412.81
ElecMinimize: 	Bad step direction: g.d > 0.
ElecMinimize: 	Undoing step.
	Linear fluid (dielectric constant: 64) occupying 0.886206 of unit cell:	Completed after 0 iterations at t[s]:    413.52
ElecMinimize: 	Step failed: resetting search direction.
	FillingsUpdate:  mu: -0.098236096  nElectrons: 342.000000
	SubspaceRotationAdjust: set factor to 0.329
ElecMinimize: Iter:  65  F: -677.874971116985307  |grad|_K:  2.180e-07  alpha:  0.000e+00
	Linear fluid (dielectric constant: 64) occupying 0.886206 of unit cell:	Completed after 0 iterations at t[s]:    415.22
ElecMinimize: 	Wrong curvature in test step, increasing alphaT to 5.995860e-03.
	Linear fluid (dielectric constant: 64) occupying 0.886206 of unit cell:	Completed after 0 iterations at t[s]:    415.79
	FillingsUpdate:  mu: -0.098236071  nElectrons: 342.000000
	SubspaceRotationAdjust: set factor to 0.311
ElecMinimize: Iter:  66  F: -677.874971123646333  |grad|_K:  2.117e-07  alpha: -9.284e-01  linmin: -1.099e-03  t[s]:    416.78
ElecMinimize: Converged (|Delta F|<1.000000e-08 for 2 iters).
Setting wave functions to eigenvectors of Hamiltonian
Single-point solvation energy estimate, DeltaF = -0.128407133198607

# Ionic positions in cartesian coordinates:
ion C   0.000000000000000   0.000000000000000   1.000007321400000 0
ion C  -2.333835447300000   4.042302545699999   1.000007321400000 0
ion C  11.669120544600000  20.211531625799999   1.000007321400000 0
ion C   4.667689791900001   0.000000000000000   1.000007321400000 0
ion C  23.338297781100000   0.000000000000000   1.000007321400000 0
ion C   2.333816549999999   4.042302545699999   1.000007321400000 0
ion C -11.669158339200004  20.211531625799999   1.000007321400000 0
ion C  -4.667670894600000   8.084623988700001   1.000007321400000 0
ion C   9.335303994599997  16.169229080099999   1.000007321400000 0
ion C   9.335322891900001   0.000000000000000   1.000007321400000 0
ion C  18.670626886499999   0.000000000000000   1.000007321400000 0
ion C  -9.335322891900001  16.169229080099999   1.000007321400000 0
ion C  -7.001487444600000  12.126907637100000   1.000007321400000 0
ion C  14.002993786499999   0.000000000000000   1.000007321400000 0
ion C   0.000000000000000   8.084623988700001   1.000007321400000 0
ion C   7.001487444599997  20.211531625799999   1.000007321400000 0
ion C  -7.001487444600005  20.211531625799999   1.000007321400000 0
ion C  -2.333816549999999  12.126907637100000   1.000007321400000 0
ion C   4.667670894600002  16.169229080099999   1.000007321400000 0
ion C  -2.333816550000000  20.211531625799999   1.000007321400000 0
ion C   2.333816550000000  20.211531625799999   1.000007321400000 0
ion C  -4.667651997299996  16.169229080099999   1.000007321400000 0
ion C   7.001487444600000   4.042302545699999   1.000007321400000 0
ion C  21.004424539199999   4.042302545699999   1.000007321400000 0
ion C  14.002955991899999  16.169229080099999   1.000007321400000 0
ion C   0.000000000000000  16.169229080099999   1.000007321400000 0
ion C  11.669120544600000   4.042302545699999   1.000007321400000 0
ion C  18.670607989199997   8.084623988700001   1.000007321400000 0
ion C  11.669120544599998  12.126907637100000   1.000007321400000 0
ion C  16.336791439199999  12.126907637100000   1.000007321400000 0
ion C  16.336791439199999   4.042302545699999   1.000007321400000 0
ion C   9.335303994599997   8.084623988700001   1.000007321400000 0
ion C  14.002955991899999   8.084623988700001   1.000007321400000 0
ion C   0.000000000000000   2.694868363800000   1.000007321400000 0
ion C  11.669120544600000  22.906399989600001   1.000007321400000 0
ion C -11.669120544600000  22.906399989600001   1.000007321400000 0
ion C  -2.333816550000000   6.737170909500000   1.000007321400000 0
ion C   9.335303994599995  18.864097443900000   1.000007321400000 0
ion C  -7.001487444600000  22.906399989600001   1.000007321400000 0
ion C   7.001487444600000  22.906399989600001   1.000007321400000 0
ion C   2.333816550000000   6.737170909500000   1.000007321400000 0
ion C  -9.335303994599998  18.864097443900000   1.000007321400000 0
ion C  -4.667670894599997  10.779473455200000   1.000007321400000 0
ion C  -2.333816550000000  22.906399989600001   1.000007321400000 0
ion C   2.333816550000000  22.906399989600001   1.000007321400000 0
ion C  -7.001487444600004  14.821794898200000   1.000007321400000 0
ion C   4.667670894600000   2.694868363800000   1.000007321400000 0
ion C  23.338259986499999   2.694868363800000   1.000007321400000 0
ion C  14.002974889199999  18.864097443900000   1.000007321400000 0
ion C   0.000000000000000  10.779473455200000   1.000007321400000 0
ion C   4.667670894600001  18.864097443900000   1.000007321400000 0
ion C  -4.667633100000004  18.864097443900000   1.000007321400000 0
ion C  -2.333816550000003  14.821794898200000   1.000007321400000 0
ion C   2.333816549999995  14.821794898200000   1.000007321400000 0
ion C  -0.000000000000005  18.864097443900000   1.000007321400000 0
ion C   9.335303994599998   2.694868363800000   1.000007321400000 0
ion C  21.004424539199999   6.737170909500000   1.000007321400000 0
ion C  11.669120544600000  14.821794898200000   1.000007321400000 0
ion C  16.336791439199999  14.821794898200000   1.000007321400000 0
ion C  18.670607989199997   2.694868363800000   1.000007321400000 0
ion C   7.001487444600001   6.737170909500000   1.000007321400000 0
ion C  14.002955991899999   2.694868363800000   1.000007321400000 0
ion C  18.670607989200004  10.779473455200000   1.000007321400000 0
ion C  11.669120544599998   6.737170909500000   1.000007321400000 0
ion C  16.336791439199999   6.737170909500000   1.000007321400000 0
ion C  14.002955991899999  10.779473455200000   1.000007321400000 0
ion N   4.667670894599999   8.084623988700001   1.000007321400000 0
ion N   2.333816549999999  12.126907637100000   1.000007321400000 0
[...]
	FillingsUpdate:  mu: -0.095467324  nElectrons: 342.000000
	SubspaceRotationAdjust: set factor to 0.603
ElecMinimize: Iter:   2  F: -677.935701300217374  |grad|_K:  2.006e-07  alpha:  3.345e-01  linmin:  4.777e-03  t[s]:   9271.39
	Linear fluid (dielectric constant: 64) occupying 0.884224 of unit cell:	Completed after 4 iterations at t[s]:   9272.17
	Linear fluid (dielectric constant: 64) occupying 0.884223 of unit cell:	Completed after 4 iterations at t[s]:   9273.00
	FillingsUpdate:  mu: -0.095408009  nElectrons: 342.000000
	SubspaceRotationAdjust: set factor to 0.28
ElecMinimize: Iter:   3  F: -677.935701312884362  |grad|_K:  6.532e-08  alpha:  4.002e-02  linmin:  3.276e-03  t[s]:   9274.02
	Linear fluid (dielectric constant: 64) occupying 0.884223 of unit cell:	Completed after 0 iterations at t[s]:   9274.75
ElecMinimize: 	Predicted alpha/alphaT>3.000000, increasing alphaT to 1.200693e-01.
	Linear fluid (dielectric constant: 64) occupying 0.884223 of unit cell:	Completed after 0 iterations at t[s]:   9275.48
ElecMinimize: 	Predicted alpha/alphaT>3.000000, increasing alphaT to 3.602080e-01.
	Linear fluid (dielectric constant: 64) occupying 0.884223 of unit cell:	Completed after 0 iterations at t[s]:   9276.22
	Linear fluid (dielectric constant: 64) occupying 0.884223 of unit cell:	Completed after 0 iterations at t[s]:   9276.97
	FillingsUpdate:  mu: -0.095406668  nElectrons: 342.000000
	SubspaceRotationAdjust: set factor to 0.454
ElecMinimize: Iter:   4  F: -677.935701391908651  |grad|_K:  3.385e-08  alpha:  6.587e-01  linmin: -1.589e-05  t[s]:   9277.96
	Linear fluid (dielectric constant: 64) occupying 0.884223 of unit cell:	Completed after 2 iterations at t[s]:   9278.71
	Linear fluid (dielectric constant: 64) occupying 0.884223 of unit cell:	Completed after 0 iterations at t[s]:   9279.48
ElecMinimize: 	Step increased F by 4.002356e-08, reducing alpha to 4.950319e-03.
	Linear fluid (dielectric constant: 64) occupying 0.884223 of unit cell:	Completed after 0 iterations at t[s]:   9281.04
ElecMinimize: 	Step increased F by 2.218985e-08, reducing alpha to 4.950319e-04.
	Linear fluid (dielectric constant: 64) occupying 0.884223 of unit cell:	Completed after 0 iterations at t[s]:   9282.59
ElecMinimize: 	Step increased F by 2.041224e-08, reducing alpha to 4.950319e-05.
ElecMinimize: 	Step failed to reduce F after 3 attempts. Quitting step.
ElecMinimize: 	Undoing step.
	Linear fluid (dielectric constant: 64) occupying 0.884223 of unit cell:	Completed after 0 iterations at t[s]:   9284.15
ElecMinimize: 	Step failed: resetting search direction.
	FillingsUpdate:  mu: -0.095502081  nElectrons: 342.000000
	SubspaceRotationAdjust: set factor to 0.316
ElecMinimize: Iter:   5  F: -677.935701371519599  |grad|_K:  2.616e-07  alpha:  4.950e-05
	Linear fluid (dielectric constant: 64) occupying 0.884224 of unit cell:	Completed after 6 iterations at t[s]:   9285.90
	Linear fluid (dielectric constant: 64) occupying 0.884223 of unit cell:	Completed after 4 iterations at t[s]:   9286.75
	FillingsUpdate:  mu: -0.095360685  nElectrons: 342.000000
	SubspaceRotationAdjust: set factor to 0.133
ElecMinimize: Iter:   6  F: -677.935701390116151  |grad|_K:  1.293e-07  alpha:  7.328e-02  linmin:  1.565e-02  t[s]:   9287.77
	Linear fluid (dielectric constant: 64) occupying 0.884223 of unit cell:	Completed after 0 iterations at t[s]:   9288.50
ElecMinimize: 	Wrong curvature in test step, increasing alphaT to 2.198470e-01.
	Linear fluid (dielectric constant: 64) occupying 0.884223 of unit cell:	Completed after 0 iterations at t[s]:   9289.07
	FillingsUpdate:  mu: -0.095360563  nElectrons: 342.000000
	SubspaceRotationAdjust: set factor to 0.137
ElecMinimize: Iter:   7  F: -677.935701432664928  |grad|_K:  1.008e-07  alpha: -3.176e+00  linmin: -1.766e-02  t[s]:   9290.06
	Linear fluid (dielectric constant: 64) occupying 0.884222 of unit cell:	Completed after 9 iterations at t[s]:   9290.89
	Linear fluid (dielectric constant: 64) occupying 0.884223 of unit cell:	Completed after 5 iterations at t[s]:   9291.74
	FillingsUpdate:  mu: -0.095448956  nElectrons: 342.000000
	SubspaceRotationAdjust: set factor to 0.117
ElecMinimize: Iter:   8  F: -677.935701471782522  |grad|_K:  1.371e-07  alpha:  1.064e-01  linmin:  1.158e-02  t[s]:   9292.76
ElecMinimize: 	Bad step direction: g.d > 0.
ElecMinimize: 	Undoing step.
	Linear fluid (dielectric constant: 64) occupying 0.884223 of unit cell:	Completed after 0 iterations at t[s]:   9293.47
ElecMinimize: 	Step failed: resetting search direction.
	FillingsUpdate:  mu: -0.095448956  nElectrons: 342.000000
	SubspaceRotationAdjust: set factor to 0.13
ElecMinimize: Iter:   9  F: -677.935701471783659  |grad|_K:  1.361e-07  alpha:  0.000e+00
	Linear fluid (dielectric constant: 64) occupying 0.884223 of unit cell:	Completed after 1 iterations at t[s]:   9295.17
	Linear fluid (dielectric constant: 64) occupying 0.884223 of unit cell:	Completed after 0 iterations at t[s]:   9295.92
	FillingsUpdate:  mu: -0.095441338  nElectrons: 342.000000
	SubspaceRotationAdjust: set factor to 0.139
ElecMinimize: Iter:  10  F: -677.935701582761453  |grad|_K:  1.288e-07  alpha:  1.316e-01  linmin: -4.256e-02  t[s]:   9296.92
	Linear fluid (dielectric constant: 64) occupying 0.884223 of unit cell:	Completed after 5 iterations at t[s]:   9297.72
	Linear fluid (dielectric constant: 64) occupying 0.884223 of unit cell:	Completed after 1 iterations at t[s]:   9298.51
ElecMinimize: 	Step increased F by 1.737268e-07, reducing alpha to 3.270092e-03.
	Linear fluid (dielectric constant: 64) occupying 0.884223 of unit cell:	Completed after 0 iterations at t[s]:   9300.07
ElecMinimize: 	Step increased F by 1.516754e-07, reducing alpha to 3.270092e-04.
	Linear fluid (dielectric constant: 64) occupying 0.884223 of unit cell:	Completed after 0 iterations at t[s]:   9301.63
ElecMinimize: 	Step increased F by 1.467052e-07, reducing alpha to 3.270092e-05.
ElecMinimize: 	Step failed to reduce F after 3 attempts. Quitting step.
ElecMinimize: 	Undoing step.
	Linear fluid (dielectric constant: 64) occupying 0.884223 of unit cell:	Completed after 0 iterations at t[s]:   9303.18
ElecMinimize: 	Step failed: resetting search direction.
	FillingsUpdate:  mu: -0.095386107  nElectrons: 342.000000
	SubspaceRotationAdjust: set factor to 0.126
ElecMinimize: Iter:  11  F: -677.935701436110207  |grad|_K:  1.062e-07  alpha:  3.270e-05
	Linear fluid (dielectric constant: 64) occupying 0.884223 of unit cell:	Completed after 1 iterations at t[s]:   9304.88
	Linear fluid (dielectric constant: 64) occupying 0.884223 of unit cell:	Completed after 0 iterations at t[s]:   9305.65
ElecMinimize: 	Step increased F by 4.917615e-08, reducing alpha to 5.236563e-03.
	Linear fluid (dielectric constant: 64) occupying 0.884223 of unit cell:	Completed after 0 iterations at t[s]:   9307.23
ElecMinimize: 	Step increased F by 4.680919e-08, reducing alpha to 5.236563e-04.
	Linear fluid (dielectric constant: 64) occupying 0.884223 of unit cell:	Completed after 0 iterations at t[s]:   9308.82
ElecMinimize: 	Step increased F by 4.633046e-08, reducing alpha to 5.236563e-05.
ElecMinimize: 	Step failed to reduce F after 3 attempts. Quitting step.
ElecMinimize: 	Undoing step.
	Linear fluid (dielectric constant: 64) occupying 0.884223 of unit cell:	Completed after 0 iterations at t[s]:   9310.39
ElecMinimize: 	Step failed along negative gradient direction.
ElecMinimize: Probably at roundoff error limit. (Stopping)
Setting wave functions to eigenvectors of Hamiltonian

# Ionic positions in cartesian coordinates:
ion C   0.000000000000000   0.000000000000000   1.000007321400000 0
ion C  -2.333835447300000   4.042302545699999   1.000007321400000 0
ion C  11.669120544600000  20.211531625799999   1.000007321400000 0
ion C   4.667689791900001   0.000000000000000   1.000007321400000 0
ion C  23.338297781100000   0.000000000000000   1.000007321400000 0
ion C   2.333816549999999   4.042302545699999   1.000007321400000 0
ion C -11.669158339200004  20.211531625799999   1.000007321400000 0
ion C  -4.667670894600000   8.084623988700001   1.000007321400000 0
ion C   9.335303994599997  16.169229080099999   1.000007321400000 0
ion C   9.335322891900001   0.000000000000000   1.000007321400000 0
ion C  18.670626886499999   0.000000000000000   1.000007321400000 0
ion C  -9.335322891900001  16.169229080099999   1.000007321400000 0
ion C  -7.001487444600000  12.126907637100000   1.000007321400000 0
ion C  14.002993786499999   0.000000000000000   1.000007321400000 0
ion C   0.000000000000000   8.084623988700001   1.000007321400000 0
ion C   7.001487444599997  20.211531625799999   1.000007321400000 0
ion C  -7.001487444600005  20.211531625799999   1.000007321400000 0
ion C  -2.333816549999999  12.126907637100000   1.000007321400000 0
ion C   4.667670894600002  16.169229080099999   1.000007321400000 0
ion C  -2.333816550000000  20.211531625799999   1.000007321400000 0
ion C   2.333816550000000  20.211531625799999   1.000007321400000 0
ion C  -4.667651997299996  16.169229080099999   1.000007321400000 0
ion C   7.001487444600000   4.042302545699999   1.000007321400000 0
ion C  21.004424539199999   4.042302545699999   1.000007321400000 0
ion C  14.002955991899999  16.169229080099999   1.000007321400000 0
ion C   0.000000000000000  16.169229080099999   1.000007321400000 0
ion C  11.669120544600000   4.042302545699999   1.000007321400000 0
ion C  18.670607989199997   8.084623988700001   1.000007321400000 0
ion C  11.669120544599998  12.126907637100000   1.000007321400000 0
ion C  16.336791439199999  12.126907637100000   1.000007321400000 0
ion C  16.336791439199999   4.042302545699999   1.000007321400000 0
ion C   9.335303994599997   8.084623988700001   1.000007321400000 0
ion C  14.002955991899999   8.084623988700001   1.000007321400000 0
ion C   0.000000000000000   2.694868363800000   1.000007321400000 0
ion C  11.669120544600000  22.906399989600001   1.000007321400000 0
ion C -11.669120544600000  22.906399989600001   1.000007321400000 0
ion C  -2.333816550000000   6.737170909500000   1.000007321400000 0
ion C   9.335303994599995  18.864097443900000   1.000007321400000 0
ion C  -7.001487444600000  22.906399989600001   1.000007321400000 0
ion C   7.001487444600000  22.906399989600001   1.000007321400000 0
ion C   2.333816550000000   6.737170909500000   1.000007321400000 0
ion C  -9.335303994599998  18.864097443900000   1.000007321400000 0
ion C  -4.667670894599997  10.779473455200000   1.000007321400000 0
ion C  -2.333816550000000  22.906399989600001   1.000007321400000 0
ion C   2.333816550000000  22.906399989600001   1.000007321400000 0
ion C  -7.001487444600004  14.821794898200000   1.000007321400000 0
ion C   4.667670894600000   2.694868363800000   1.000007321400000 0
ion C  23.338259986499999   2.694868363800000   1.000007321400000 0
ion C  14.002974889199999  18.864097443900000   1.000007321400000 0
ion C   0.000000000000000  10.779473455200000   1.000007321400000 0
ion C   4.667670894600001  18.864097443900000   1.000007321400000 0
ion C  -4.667633100000004  18.864097443900000   1.000007321400000 0
ion C  -2.333816550000003  14.821794898200000   1.000007321400000 0
ion C   2.333816549999995  14.821794898200000   1.000007321400000 0
ion C  -0.000000000000005  18.864097443900000   1.000007321400000 0
ion C   9.335303994599998   2.694868363800000   1.000007321400000 0
ion C  21.004424539199999   6.737170909500000   1.000007321400000 0
ion C  11.669120544600000  14.821794898200000   1.000007321400000 0
ion C  16.336791439199999  14.821794898200000   1.000007321400000 0
ion C  18.670607989199997   2.694868363800000   1.000007321400000 0
ion C   7.001487444600001   6.737170909500000   1.000007321400000 0
ion C  14.002955991899999   2.694868363800000   1.000007321400000 0
ion C  18.670607989200004  10.779473455200000   1.000007321400000 0
ion C  11.669120544599998   6.737170909500000   1.000007321400000 0
ion C  16.336791439199999   6.737170909500000   1.000007321400000 0
ion C  14.002955991899999  10.779473455200000   1.000007321400000 0
ion N   4.667670894599999   8.084623988700001   1.000007321400000 0
ion N   2.333816549999999  12.126907637100000   1.000007321400000 0
ion N   7.001487444599997  14.821794898200000   1.000007321400000 0
ion N   9.335303994599997  10.779473455200000   1.000007321400000 0
ion Fe   5.837111407799997  11.454314935499999   1.000007321400000 0
ion S   5.411554066979365  11.411365914035098   5.267152382921104 1
ion S   8.238992207660232  13.127977094581768   7.390682621889223 1
ion S  10.008812506551401  10.609244098392496   9.896976545234851 1
ion S  13.272613317568743   8.962723631247583   8.591954000721161 1
ion Na   7.386247652677750   3.551663999495213   8.588519132413539 1
ion Na  15.786370653586058  16.314245387071391   8.631051743175739 1

# Forces in Cartesian coordinates:
force C   0.003754269148021   0.000101032065616  -0.000069042770146 0
force C   0.000906783827823  -0.001088436140515  -0.000021651421656 0
force C   0.002998803494968  -0.002058771529908  -0.000034920791997 0
force C   0.000862435735453   0.002469955741601  -0.000015837648994 0
force C   0.001906480883033  -0.000270267812641  -0.000022057915674 0
force C   0.004925476142751   0.001497438598971   0.000233690728583 0
force C   0.000531951165978  -0.000562006029882  -0.000021470782750 0
force C  -0.000465262427479   0.001278188718756  -0.000021740808471 0
force C  -0.036154604509139  -0.016253729930709   0.000192077359938 0
force C  -0.000797699569335   0.000111918427447  -0.000041659381364 0
force C  -0.000658654664949  -0.000332663656831  -0.000027582318679 0
force C  -0.000222369172919   0.000741912484493  -0.000022962403354 0
force C   0.001971452659922   0.003213330193749  -0.000058365935712 0
force C  -0.000188316152035  -0.000058123000086  -0.000039798718504 0
force C   0.010092940800143   0.005791377735729   0.000107114309648 0
force C   0.002600028177953   0.001876876985549  -0.000043199000129 0
force C   0.001414175441499   0.000780418451649  -0.000043231422218 0
force C   0.003773651815890   0.003548282943863   0.000295513682155 0
force C   0.032883152171060   0.007192563511067  -0.000063998191407 0
force C  -0.000276060155501  -0.000750059787529  -0.000052366852717 0
force C  -0.002106343071607   0.000291730904857  -0.000091567345308 0
force C   0.002589162714572  -0.000419796204199  -0.000031903539718 0
force C   0.005179289786017   0.004955416212667   0.000093351134387 0
force C   0.001546260935337   0.000914080837008  -0.000044409750658 0
force C  -0.002246057460536  -0.001335785249152  -0.000137470417392 0
force C   0.006908827497033   0.001912509667593   0.000120566950961 0
force C  -0.000757020375858  -0.001836298104115  -0.000130490060383 0
force C   0.000635120078597   0.001834302732594   0.000027505235882 0
force C  -0.032090887699680  -0.023483052699406   0.000264461984410 0
force C  -0.000463117135544   0.003461902697608  -0.000133674991533 0
force C  -0.000651900092926  -0.000335301114664   0.000030215230571 0
force C   0.023045377632094   0.025059793798260   0.000062424373568 0
force C   0.002832389090065   0.001451831143600  -0.000602196614700 0
force C  -0.003048521417144   0.002078374536030  -0.000043930971738 0
force C  -0.003792009508987  -0.000051968853480  -0.000074107601912 0
force C  -0.001918668878668   0.000322478246624  -0.000011111220834 0
force C   0.001929595592902   0.001190181333272  -0.000070933792720 0
force C  -0.004966170545152  -0.001619671039535   0.000191626175333 0
force C   0.000731439753525   0.000304392141770  -0.000032524600690 0
force C  -0.000990877674109  -0.002449562577454  -0.000024449233730 0
force C   0.035941217158860   0.016002842745662   0.000312946748105 0
force C  -0.001510539862706  -0.000903140761208  -0.000053646598467 0
force C   0.000315087152309  -0.003614324850231  -0.000022469843613 0
force C   0.000244943944388   0.000041477396505  -0.000028365451836 0
force C   0.000829880645817  -0.000167241442706  -0.000042547395425 0
force C  -0.000601631825331  -0.001859305068593  -0.000019600925329 0
force C  -0.002649907694565  -0.001911324799867  -0.000072246210369 0
force C  -0.000550013495198   0.000613329414802  -0.000021888551283 0
force C  -0.000963078868468   0.001179190216287   0.000003850633829 0
force C   0.031764411572992   0.023201657483064   0.000123231870576 0
force C  -0.005216858960413  -0.004882234812805   0.000112392517632 0
force C   0.000679780847916   0.000361560197693  -0.000037678627520 0
force C  -0.002946084934940  -0.001308780648822  -0.000055318555978 0
force C  -0.022976472727705  -0.024292133967150  -0.000286857706816 0
force C   0.000825031188722   0.001987621018541  -0.000117858405075 0
force C   0.002186665280484  -0.000299465231998  -0.000091210045555 0
force C   0.000272553610905  -0.000761746705674  -0.000026209456940 0
force C  -0.010064421934208  -0.005869286745842  -0.000261102397588 0
force C   0.000524084314287  -0.001399811852408   0.000021186667476 0
force C  -0.001400854782869  -0.000810643081051  -0.000044862130906 0
force C  -0.032758206887623  -0.007398388395094  -0.000206221363655 0
force C   0.000311877148150   0.000763375004233   0.000007684575760 0
force C  -0.001963268335339  -0.003272666807992  -0.000032695851731 0
force C  -0.006636803050366  -0.001827361160049  -0.000189180571963 0
force C  -0.002803242087654   0.000506491835202  -0.000100820629323 0
force C  -0.003959058088191  -0.003686156274937  -0.000270534660700 0
force N   0.023915294519000  -0.041129803935299  -0.008743616737747 0
force N  -0.025083652193846   0.041084934706606  -0.009914978075486 0
force N  -0.023474369490020   0.040186773626033  -0.008510543734073 0
force N   0.022558795877631  -0.040635024400870  -0.006765377367270 0
force Fe   0.003732332548846   0.001004343231585   0.023028191911842 0
force S  -0.000096152326185   0.000096437086486  -0.000146827344762 1
force S  -0.000136096212040   0.000051099777103  -0.000146218287122 1
force S   0.000003192199609  -0.000054585033488   0.000026028737501 1
force S  -0.000069593903054  -0.000137978944284  -0.000037559223591 1
force Na   0.000053671848851   0.000020406179326   0.000029025587275 1
force Na  -0.000002006874431  -0.000023545248818   0.000117355706204 1

# Energy components:
   A_diel =       -0.3705044398362533
   Eewald =     5253.8471152138981779
       EH =     5808.5734729009054718
     Eloc =   -11805.4072932684193802
      Enl =      -59.0626687622678190
      Exc =     -176.2377579454016825
 Exc_core =       10.4335675708277815
       KE =      290.3554091697152444
-------------------------------------
     Etot =     -677.8686595605787488
       TS =        0.0670418292032874
-------------------------------------
        F =     -677.9357013897820252

IonicMinimize: Iter:  42  F: -677.935701389782025  |grad|_K:  8.500e-05  alpha:  6.370e+00  linmin: -9.320e-04  t[s]:   9312.37
IonicMinimize: Converged (|grad|_K<1.000000e-04).

#--- Lowdin population analysis ---
# oxidation-state C +0.031 +0.020 +0.024 +0.021 +0.025 +0.014 +0.023 +0.020 +0.137 +0.024 +0.025 +0.023 +0.031 +0.026 -0.008 +0.038 +0.030 +0.015 +0.118 +0.026 +0.022 +0.023 +0.021 +0.033 +0.037 +0.024 +0.020 +0.025 +0.140 +0.024 +0.025 +0.119 +0.042 +0.025 +0.031 +0.023 +0.039 +0.014 +0.023 +0.023 +0.135 +0.031 +0.025 +0.025 +0.026 +0.024 +0.036 +0.025 +0.018 +0.136 +0.023 +0.024 +0.038 +0.118 +0.021 +0.019 +0.025 -0.007 +0.018 +0.031 +0.116 +0.026 +0.031 +0.025 +0.023 +0.018
# oxidation-state N -0.134 -0.134 -0.130 -0.129
# oxidation-state Fe +0.194
# oxidation-state S -0.105 -0.031 -0.000 -0.623
# oxidation-state Na +0.973 +0.975


Dumping 'Na2S4@FeN4-PC.fillings' ... done
Dumping 'Na2S4@FeN4-PC.wfns' ... done
Dumping 'Na2S4@FeN4-PC.fluidState' ... done
Dumping 'Na2S4@FeN4-PC.ionpos' ... done
Dumping 'Na2S4@FeN4-PC.eigenvals' ... done
End date and time: Sat Oct 12 10:58:10 2024  (Duration: 0-2:35:14.37)
Done!
