
*************** JDFTx 1.7.0  ***************

Start date and time: Fri Dec 15 17:06:58 2023
Executable jdftx with command-line: -i Na2S2@FeN4.in -o Na2S2@FeN4.out
Running on hosts (process indices):  Topper2 (0)
Divided in process groups (process indices):  0 (0)
Resource initialization completed at t[s]:      0.00
Run totals: 1 processes, 4 threads, 0 GPUs


Input parsed successfully to the following command list (including defaults):

basis kpoint-dependent
coords-type Cartesian
core-overlap-check vector
coulomb-interaction Slab 001
coulomb-truncation-embed 0 0 2
davidson-band-ratio 1.1
dump End State
dump-name Na2S2@FeN4.$VAR
elec-cutoff 20 100
elec-eigen-algo Davidson
elec-ex-corr gga-PBE
elec-smearing Fermi 0.01
electronic-minimize  \
	dirUpdateScheme      FletcherReeves \
	linminMethod         DirUpdateRecommended \
	nIterations          100 \
	history              15 \
	knormThreshold       0 \
	energyDiffThreshold  1e-08 \
	nEnergyDiff          2 \
	alphaTstart          1 \
	alphaTmin            1e-10 \
	updateTestStepSize   yes \
	alphaTreduceFactor   0.1 \
	alphaTincreaseFactor 3 \
	nAlphaAdjustMax      3 \
	wolfeEnergy          0.0001 \
	wolfeGradient        0.9 \
	fdTest               no
electronic-scf  \
	nIterations	50 \
	energyDiffThreshold	1e-08 \
	residualThreshold	1e-07 \
	mixFraction	0.5 \
	qMetric	0.8 \
	history	10 \
	nEigSteps	2 \
	eigDiffThreshold	1e-08 \
	mixedVariable	Density \
	qKerker	0.8 \
	qKappa	-1 \
	verbose	no \
	mixFractionMag	1.5
exchange-regularization WignerSeitzTruncated
fluid None
fluid-ex-corr lda-TF lda-PZ
fluid-gummel-loop 10 1.000000e-05
fluid-minimize  \
	dirUpdateScheme      PolakRibiere \
	linminMethod         DirUpdateRecommended \
	nIterations          100 \
	history              15 \
	knormThreshold       0 \
	energyDiffThreshold  0 \
	nEnergyDiff          2 \
	alphaTstart          1 \
	alphaTmin            1e-10 \
	updateTestStepSize   yes \
	alphaTreduceFactor   0.1 \
	alphaTincreaseFactor 3 \
	nAlphaAdjustMax      3 \
	wolfeEnergy          0.0001 \
	wolfeGradient        0.9 \
	fdTest               no
fluid-solvent H2O 55.338 ScalarEOS \
	epsBulk 78.4 \
	pMol 0.92466 \
	epsInf 1.77 \
	Pvap 1.06736e-10 \
	sigmaBulk 4.62e-05 \
	Rvdw 2.61727 \
	Res 1.42 \
	tauNuc 343133 \
	poleEl 15 7 1
forces-output-coords Positions
ion C   0.000000000000000   0.000000000000000   1.000001652210000 0
ion C  -2.333831667840000   4.042310104620000   1.000001652210000 0
ion C  11.669128103520002  20.211535405260001   1.000001652210000 0
ion C   4.667680343250000   0.000000000000000   1.000001652210000 0
ion C  23.338288332449999   0.000000000000000   1.000001652210000 0
ion C   2.333822219190000   4.042310104620000   1.000001652210000 0
ion C -11.669150780279999  20.211535405260001   1.000001652210000 0
ion C  -4.667665225410000   8.084622098970000   1.000001652210000 0
ion C   9.335305884329998  16.169223410910003   1.000001652210000 0
ion C   9.335322891900001   0.000000000000000   1.000001652210000 0
ion C  18.670626886499999   0.000000000000000   1.000001652210000 0
ion C  -9.335317222710001  16.169223410910003   1.000001652210000 0
ion C  -7.001485554870001  12.126913306290001   1.000001652210000 0
ion C  14.002984337850000   0.000000000000000   1.000001652210000 0
ion C   0.000000000000000   8.084622098970000   1.000001652210000 0
ion C   7.001485554870005  20.211535405260001   1.000001652210000 0
ion C  -7.001481775409998  20.211535405260001   1.000001652210000 0
ion C  -2.333822219190001  12.126913306290001   1.000001652210000 0
ion C   4.667663335680000  16.169223410910003   1.000001652210000 0
ion C  -2.333820329459998  20.211535405260001   1.000001652210000 0
ion C   2.333824108920002  20.211535405260001   1.000001652210000 0
ion C  -4.667659556220002  16.169223410910003   1.000001652210000 0
ion C   7.001483665139999   4.042310104620000   1.000001652210000 0
ion C  21.004430208390001   4.042310104620000   1.000001652210000 0
ion C  14.002948432979998  16.169223410910003   1.000001652210000 0
ion C   0.000001889729997  16.169223410910003   1.000001652210000 0
ion C  11.669126213789999   4.042310104620000   1.000001652210000 0
ion C  18.670609878930001   8.084622098970000   1.000001652210000 0
ion C  11.669126213789998  12.126913306290001   1.000001652210000 0
ion C  16.336787659739997  12.126913306290001   1.000001652210000 0
ion C  16.336789549470002   4.042310104620000   1.000001652210000 0
ion C   9.335303994600000   8.084622098970000   1.000001652210000 0
ion C  14.002948432980002   8.084622098970000   1.000001652210000 0
ion C   0.000000000000000   2.694874032990001   1.000001652210000 0
ion C  11.669128103520000  22.906390540950003   1.000001652210000 0
ion C -11.669124324059998  22.906390540950003   1.000001652210000 0
ion C  -2.333822219189999   6.737165240310001   1.000001652210000 0
ion C   9.335305884330001  18.864097443900004   1.000001652210000 0
ion C  -7.001481775409998  22.906390540950003   1.000001652210000 0
ion C   7.001485554870003  22.906390540950003   1.000001652210000 0
ion C   2.333822219190001   6.737165240310001   1.000001652210000 0
ion C  -9.335302104869999  18.864097443900004   1.000001652210000 0
ion C  -4.667661445950000  10.779477234660002   1.000001652210000 0
ion C  -2.333820329460000  22.906390540950003   1.000001652210000 0
ion C   2.333824108920002  22.906390540950003   1.000001652210000 0
ion C  -7.001483665140000  14.821787339280002   1.000001652210000 0
ion C   4.667661445950001   2.694874032990001   1.000001652210000 0
ion C  23.338269435150000   2.694874032990001   1.000001652210000 0
ion C  14.002967330280001  18.864097443900004   1.000001652210000 0
ion C   0.000000000000000  10.779477234660002   1.000001652210000 0
ion C   4.667663335679999  18.864097443900004   1.000001652210000 0
ion C  -4.667640658920000  18.864097443900004   1.000001652210000 0
ion C  -2.333822219190001  14.821787339280002   1.000001652210000 0
ion C   2.333824108919998  14.821787339280002   1.000001652210000 0
ion C   0.000001889729999  18.864097443900004   1.000001652210000 0
ion C   9.335303994599998   2.694874032990001   1.000001652210000 0
ion C  21.004430208390005   6.737165240310001   1.000001652210000 0
ion C  11.669126213790001  14.821787339280002   1.000001652210000 0
ion C  16.336789549469998  14.821787339280002   1.000001652210000 0
ion C  18.670609878930001   2.694874032990001   1.000001652210000 0
ion C   7.001483665140000   6.737165240310001   1.000001652210000 0
ion C  14.002946543249999   2.694874032990001   1.000001652210000 0
ion C  18.670607989200004  10.779477234660002   1.000001652210000 0
ion C  11.669126213789999   6.737165240310001   1.000001652210000 0
ion C  16.336787659740004   6.737165240310001   1.000001652210000 0
ion C  14.002946543250001  10.779477234660002   1.000001652210000 0
ion N   4.667661445950002   8.084622098970000   1.000001652210000 0
ion N   2.333822219190000  12.126913306290001   1.000001652210000 0
ion N   7.001485554869999  14.821787339280002   1.000001652210000 0
ion N   9.335305884330001  10.779477234660002   1.000001652210000 0
ion Fe   5.837109518070000  11.454309266310000   1.000001652210000 0
ion S   9.402875070210001  10.246681089270000   4.861882226160001 1
ion S   5.921463285809999  12.589061895630003   4.783942202040001 1
ion Na   9.852901041599996  14.733716472630002   6.654514119300001 1
ion Na   5.365079530560000   8.061060945330002   6.438623805180001 1
ion-species GBRV/$ID_pbe.uspp
ion-width 0
ionic-minimize  \
	dirUpdateScheme      FletcherReeves \
	linminMethod         DirUpdateRecommended \
	nIterations          200 \
	history              15 \
	knormThreshold       0.0001 \
	energyDiffThreshold  1e-06 \
	nEnergyDiff          2 \
	alphaTstart          1 \
	alphaTmin            1e-10 \
	updateTestStepSize   yes \
	alphaTreduceFactor   0.1 \
	alphaTincreaseFactor 3 \
	nAlphaAdjustMax      3 \
	wolfeEnergy          0.0001 \
	wolfeGradient        0.9 \
	fdTest               no
kpoint   0.000000000000   0.000000000000   0.000000000000  1.00000000000000
kpoint-folding 1 1 1 
latt-move-scale 1 1 1
latt-scale 1 1 1 
lattice Triclinic 28.0058 28.0058 32.1253 90 90 120
lattice-minimize  \
	dirUpdateScheme      L-BFGS \
	linminMethod         DirUpdateRecommended \
	nIterations          0 \
	history              15 \
	knormThreshold       0 \
	energyDiffThreshold  1e-06 \
	nEnergyDiff          2 \
	alphaTstart          1 \
	alphaTmin            1e-10 \
	updateTestStepSize   yes \
	alphaTreduceFactor   0.1 \
	alphaTincreaseFactor 3 \
	nAlphaAdjustMax      3 \
	wolfeEnergy          0.0001 \
	wolfeGradient        0.9 \
	fdTest               no
lcao-params -1 1e-06 0.01
pcm-variant GLSSA13
spintype no-spin
subspace-rotation-factor 1 yes
symmetries automatic
symmetry-threshold 0.0001



---------- Setting up symmetries ----------

Found 24 point-group symmetries of the bravais lattice
Found 1 space-group symmetries with basis
Applied RMS atom displacement 0 bohrs to make symmetries exact.

---------- Initializing the Grid ----------
R = 
[      28.0058     -14.0029            0  ]
[            0      24.2537            0  ]
[            0            0      32.1253  ]
unit cell volume = 21821
G =
[   0.224353    0.12953         -0  ]
[          0   0.259061          0  ]
[          0         -0   0.195584  ]
Minimum fftbox size, Smin = [  128  128  148  ]
Chosen fftbox size, S = [  128  128  150  ]

---------- Initializing tighter grid for wavefunction operations ----------
R = 
[      28.0058     -14.0029            0  ]
[            0      24.2537            0  ]
[            0            0      32.1253  ]
unit cell volume = 21821
G =
[   0.224353    0.12953         -0  ]
[          0   0.259061          0  ]
[          0         -0   0.195584  ]
Minimum fftbox size, Smin = [  116  116  132  ]
Chosen fftbox size, S = [  120  120  140  ]

---------- Exchange Correlation functional ----------
Initalized PBE GGA exchange.
Initalized PBE GGA correlation.

---------- Setting up pseudopotentials ----------
Width of ionic core gaussian charges (only for fluid interactions / plotting) set to 0

Reading pseudopotential file '/home/topper2/jdftx_install/build/pseudopotentials/GBRV/c_pbe.uspp':
  Title: C.  Created by USPP 7.3.6 on 3-2-2014
  Reference state energy: -5.406344.  4 valence electrons in orbitals:
    |200>  occupation: 2  eigenvalue: -0.504890
    |210>  occupation: 2  eigenvalue: -0.194356
  lMax: 1  lLocal: 2  QijEcut: 5
  4 projectors sampled on a log grid with 503 points:
    l: 0  eig: -0.504890  rCut: 1.3
    l: 0  eig: 0.000000  rCut: 1.3
    l: 1  eig: -0.194357  rCut: 1.3
    l: 1  eig: 0.000000  rCut: 1.3
  Partial core density with radius 1.1
  Transforming core density to a uniform radial grid of dG=0.02 with 1618 points.
  Transforming local potential to a uniform radial grid of dG=0.02 with 1618 points.
  Transforming nonlocal projectors to a uniform radial grid of dG=0.02 with 432 points.
  Transforming density augmentations to a uniform radial grid of dG=0.02 with 1618 points.
  Transforming atomic orbitals to a uniform radial grid of dG=0.02 with 432 points.
  Core radius for overlap checks: 1.30 bohrs.

Reading pseudopotential file '/home/topper2/jdftx_install/build/pseudopotentials/GBRV/n_pbe.uspp':
  Title: N.  Created by USPP 7.3.6 on 3-2-2014
  Reference state energy: -9.763716.  5 valence electrons in orbitals:
    |200>  occupation: 2  eigenvalue: -0.681964
    |210>  occupation: 3  eigenvalue: -0.260726
  lMax: 1  lLocal: 2  QijEcut: 6
  4 projectors sampled on a log grid with 491 points:
    l: 0  eig: -0.681964  rCut: 1.15
    l: 0  eig: 0.000000  rCut: 1.15
    l: 1  eig: -0.260729  rCut: 1.2
    l: 1  eig: 0.500000  rCut: 1.2
  Partial core density with radius 0.8
  Transforming core density to a uniform radial grid of dG=0.02 with 1618 points.
  Transforming local potential to a uniform radial grid of dG=0.02 with 1618 points.
  Transforming nonlocal projectors to a uniform radial grid of dG=0.02 with 432 points.
  Transforming density augmentations to a uniform radial grid of dG=0.02 with 1618 points.
  Transforming atomic orbitals to a uniform radial grid of dG=0.02 with 432 points.
  Core radius for overlap checks: 1.20 bohrs.

Reading pseudopotential file '/home/topper2/jdftx_install/build/pseudopotentials/GBRV/fe_pbe.uspp':
  Title: Fe.  Created by USPP 7.3.6 on 15-6-15
  Reference state energy: -124.316937.  16 valence electrons in orbitals:
    |300>  occupation: 2  eigenvalue: -4.008817
    |310>  occupation: 6  eigenvalue: -2.753096
    |320>  occupation: 5  eigenvalue: -0.791264
    |400>  occupation: 2  eigenvalue: -0.516384
    |410>  occupation: 0  eigenvalue: -0.312222
  lMax: 2  lLocal: 3  QijEcut: 6
  6 projectors sampled on a log grid with 607 points:
    l: 0  eig: -4.008819  rCut: 1.55
    l: 0  eig: -0.516386  rCut: 1.55
    l: 1  eig: -2.753096  rCut: 1.55
    l: 1  eig: -0.312226  rCut: 1.55
    l: 2  eig: -0.791264  rCut: 1.65
    l: 2  eig: -0.450000  rCut: 1.65
  Partial core density with radius 0.65
  Transforming core density to a uniform radial grid of dG=0.02 with 1618 points.
  Transforming local potential to a uniform radial grid of dG=0.02 with 1618 points.
  Transforming nonlocal projectors to a uniform radial grid of dG=0.02 with 432 points.
  Transforming density augmentations to a uniform radial grid of dG=0.02 with 1618 points.
  Transforming atomic orbitals to a uniform radial grid of dG=0.02 with 432 points.
  Core radius for overlap checks: 1.65 bohrs.

Reading pseudopotential file '/home/topper2/jdftx_install/build/pseudopotentials/GBRV/s_pbe.uspp':
  Title: S.  Created by USPP 7.3.6 on 1-4-15
  Reference state energy: -11.898476.  6 valence electrons in orbitals:
    |300>  occupation: 2  eigenvalue: -0.634167
    |310>  occupation: 4  eigenvalue: -0.257568
  lMax: 2  lLocal: 3  QijEcut: 6
  6 projectors sampled on a log grid with 635 points:
    l: 0  eig: -0.634161  rCut: 1.5
    l: 0  eig: 1.500000  rCut: 1.5
    l: 1  eig: -0.257567  rCut: 1.5
    l: 1  eig: 1.500000  rCut: 1.5
    l: 2  eig: -1.000000  rCut: 1.5
    l: 2  eig: 1.500000  rCut: 1.5
  Partial core density with radius 1.15
  Transforming core density to a uniform radial grid of dG=0.02 with 1618 points.
  Transforming local potential to a uniform radial grid of dG=0.02 with 1618 points.
  Transforming nonlocal projectors to a uniform radial grid of dG=0.02 with 432 points.
  Transforming density augmentations to a uniform radial grid of dG=0.02 with 1618 points.
  Transforming atomic orbitals to a uniform radial grid of dG=0.02 with 432 points.
  Core radius for overlap checks: 1.50 bohrs.

Reading pseudopotential file '/home/topper2/jdftx_install/build/pseudopotentials/GBRV/na_pbe.uspp':
  Title: Na.  Created by USPP 7.3.6 on 23-9-15
  Reference state energy: -47.625620.  9 valence electrons in orbitals:
    |200>  occupation: 2  eigenvalue: -2.085638
    |210>  occupation: 6  eigenvalue: -1.053708
    |300>  occupation: 1  eigenvalue: -0.100838
  lMax: 2  lLocal: 0  QijEcut: 6
  5 projectors sampled on a log grid with 657 points:
    l: 0  eig: -2.085640  rCut: 1.37
    l: 0  eig: -0.100839  rCut: 1.37
    l: 1  eig: -1.053708  rCut: 1.47
    l: 1  eig: 0.500000  rCut: 1.47
    l: 2  eig: 0.750000  rCut: 2
  Transforming local potential to a uniform radial grid of dG=0.02 with 1618 points.
  Transforming nonlocal projectors to a uniform radial grid of dG=0.02 with 432 points.
  Transforming density augmentations to a uniform radial grid of dG=0.02 with 1618 points.
  Transforming atomic orbitals to a uniform radial grid of dG=0.02 with 432 points.
  Core radius for overlap checks: 2.00 bohrs.

Initialized 5 species with 75 total atoms.

Folded 1 k-points by 1x1x1 to 1 k-points.

---------- Setting up k-points, bands, fillings ----------
No reducable k-points. 
Computing the number of bands and number of electrons
Calculating initial fillings.
nElectrons: 330.000000   nBands: 311   nStates: 1

----- Setting up reduced wavefunction bases (one per k-point) -----
average nbasis = 93173.000 , ideal nbasis = 93220.781

---------- Setting up coulomb interaction ----------
Setting up double-sized grid for truncated Coulomb potentials:
R = 
[      28.0058     -14.0029            0  ]
[            0      24.2537            0  ]
[            0            0      64.2506  ]
unit cell volume = 43641.9
G =
[   0.224353    0.12953         -0  ]
[          0   0.259061          0  ]
[          0         -0  0.0977919  ]
Chosen fftbox size, S = [  128  128  300  ]
Integer grid location selected as the embedding center:
   Grid: [  0  0  9  ]
   Lattice: [  0  0  0.0622563  ]
   Cartesian: [  0  0  2  ]
Constructing Wigner-Seitz cell: 8 faces (6 quadrilaterals, 2 hexagons)
Range-separation parameter for embedded mesh potentials due to point charges: 0.590105 bohrs.
Initialized slab truncation along lattice direction 001

---------- Setting up 2D ewald sum ----------
Optimum gaussian width for ewald sums = 15.547689 bohr.
Real space sums over 289 unit cells with max indices [  8  8  0  ]
Reciprocal space sums over 81 terms with max indices [  4  4  0  ]

---------- Allocating electronic variables ----------
Initializing wave functions:  linear combination of atomic orbitals
C pseudo-atom occupations:   s ( 2 )  p ( 2 )
N pseudo-atom occupations:   s ( 2 )  p ( 3 )
Fe pseudo-atom occupations:   s ( 2 0 )  p ( 6 0 )  d ( 8 )
S pseudo-atom occupations:   s ( 2 )  p ( 4 )
Na pseudo-atom occupations:   s ( 2 1 )  p ( 6 )
	FillingsUpdate:  mu: -0.216967082  nElectrons: 330.000000
LCAOMinimize: Iter:   0  F: -635.5387062347656411  |grad|_K:  2.819e-02  alpha:  1.000e+00
	FillingsUpdate:  mu: -0.275233698  nElectrons: 330.000000
LCAOMinimize: Iter:   1  F: -641.4587405745681963  |grad|_K:  1.613e-02  alpha:  1.480e-01  linmin: -9.708e-02  cgtest:  4.875e-01  t[s]:    380.17
	FillingsUpdate:  mu: -0.131747718  nElectrons: 330.000000
LCAOMinimize: Iter:   2  F: -647.3639356025438474  |grad|_K:  4.751e-02  alpha:  1.061e-01  linmin:  2.479e-01  cgtest: -1.251e-01  t[s]:    501.29
LCAOMinimize: 	Bad step direction: g.d > 0.
LCAOMinimize: 	Undoing step.
LCAOMinimize: 	Step failed: resetting search direction.
	FillingsUpdate:  mu: -0.131747718  nElectrons: 330.000000
LCAOMinimize: Iter:   3  F: -647.3639356025438474  |grad|_K:  4.751e-02  alpha:  0.000e+00
	FillingsUpdate:  mu: -0.218121878  nElectrons: 330.000000
LCAOMinimize: Iter:   4  F: -652.4879270033588909  |grad|_K:  5.085e-03  alpha:  4.483e-02  linmin:  1.132e-01  cgtest:  1.218e-01  t[s]:    697.75
LCAOMinimize: Encountered beta<0, resetting CG.
	FillingsUpdate:  mu: -0.190974288  nElectrons: 330.000000
LCAOMinimize: Iter:   5  F: -652.6160238949726136  |grad|_K:  5.466e-03  alpha:  9.813e-02  linmin: -1.477e-02  cgtest: -2.252e-02  t[s]:    819.90
	FillingsUpdate:  mu: -0.243345631  nElectrons: 330.000000
LCAOMinimize: Iter:   6  F: -652.7128650198741298  |grad|_K:  1.124e-03  alpha:  6.149e-02  linmin: -4.979e-04  cgtest: -1.353e-02  t[s]:    940.98
	FillingsUpdate:  mu: -0.233154458  nElectrons: 330.000000
LCAOMinimize: Iter:   7  F: -652.7239972818837259  |grad|_K:  6.687e-04  alpha:  1.805e-01  linmin: -2.122e-03  cgtest:  3.149e-02  t[s]:   1062.32
	FillingsUpdate:  mu: -0.243328960  nElectrons: 330.000000
LCAOMinimize: Iter:   8  F: -652.7284468527816443  |grad|_K:  6.252e-04  alpha:  2.037e-01  linmin:  1.816e-03  cgtest: -1.949e-02  t[s]:   1183.37
	FillingsUpdate:  mu: -0.235969869  nElectrons: 330.000000
LCAOMinimize: Iter:   9  F: -652.7292257743082473  |grad|_K:  3.636e-04  alpha:  4.282e-02  linmin:  5.115e-03  cgtest: -2.648e-02  t[s]:   1304.77
LCAOMinimize: 	Predicted alpha/alphaT>3.000000, increasing alphaT to 1.284484e-01.
	FillingsUpdate:  mu: -0.237895480  nElectrons: 330.000000
LCAOMinimize: Iter:  10  F: -652.7309950427617196  |grad|_K:  1.291e-04  alpha:  2.858e-01  linmin:  7.478e-03  cgtest:  1.417e-01  t[s]:   1455.53
	FillingsUpdate:  mu: -0.240373455  nElectrons: 330.000000
LCAOMinimize: Iter:  11  F: -652.7311697875052232  |grad|_K:  1.592e-04  alpha:  2.181e-01  linmin:  4.463e-05  cgtest:  1.445e-02  t[s]:   1576.38
	FillingsUpdate:  mu: -0.238466232  nElectrons: 330.000000
LCAOMinimize: Iter:  12  F: -652.7312150488074849  |grad|_K:  4.478e-05  alpha:  3.738e-02  linmin:  8.199e-03  cgtest: -7.442e-02  t[s]:   1698.03
LCAOMinimize: 	Predicted alpha/alphaT>3.000000, increasing alphaT to 1.121254e-01.
	FillingsUpdate:  mu: -0.238586068  nElectrons: 330.000000
LCAOMinimize: Iter:  13  F: -652.7312413060400331  |grad|_K:  2.111e-05  alpha:  2.748e-01  linmin:  4.092e-04  cgtest:  6.079e-02  t[s]:   1849.99
	FillingsUpdate:  mu: -0.238464188  nElectrons: 330.000000
LCAOMinimize: Iter:  14  F: -652.7312459923351753  |grad|_K:  2.311e-05  alpha:  2.163e-01  linmin: -9.231e-06  cgtest: -1.768e-03  t[s]:   1971.79
	FillingsUpdate:  mu: -0.238831585  nElectrons: 330.000000
LCAOMinimize: Iter:  15  F: -652.7312472001987089  |grad|_K:  1.461e-05  alpha:  4.636e-02  linmin: -3.124e-04  cgtest:  2.994e-03  t[s]:   2095.12
	FillingsUpdate:  mu: -0.238651501  nElectrons: 330.000000
LCAOMinimize: Iter:  16  F: -652.7312486486996477  |grad|_K:  6.412e-06  alpha:  1.388e-01  linmin: -1.077e-03  cgtest: -2.234e-03  t[s]:   2217.21
	FillingsUpdate:  mu: -0.238725969  nElectrons: 330.000000
LCAOMinimize: Iter:  17  F: -652.7312491997547568  |grad|_K:  3.190e-06  alpha:  2.743e-01  linmin:  1.095e-04  cgtest: -7.498e-03  t[s]:   2337.34
	FillingsUpdate:  mu: -0.238673019  nElectrons: 330.000000
LCAOMinimize: Iter:  18  F: -652.7312492245370095  |grad|_K:  2.671e-06  alpha:  5.075e-02  linmin: -9.333e-05  cgtest:  1.097e-03  t[s]:   2458.10
LCAOMinimize: Converged (|Delta F|<1.000000e-06 for 2 iters).


---- Citations for features of the code used in this run ----

   Software package:
      R. Sundararaman, K. Letchworth-Weaver, K.A. Schwarz, D. Gunceler, Y. Ozhabes and T.A. Arias, 'JDFTx: software for joint density-functional theory', SoftwareX 6, 278 (2017)

   gga-PBE exchange-correlation functional:
      J.P. Perdew, K. Burke and M. Ernzerhof, Phys. Rev. Lett. 77, 3865 (1996)

   Pseudopotentials:
      KF Garrity, JW Bennett, KM Rabe and D Vanderbilt, Comput. Mater. Sci. 81, 446 (2014)

   Truncated Coulomb potentials:
      R. Sundararaman and T.A. Arias, Phys. Rev. B 87, 165122 (2013)

This list may not be complete. Please suggest additional citations or
report any other bugs at https://github.com/shankar1729/jdftx/issues

Initialization completed successfully at t[s]:   2529.31


-------- Electronic minimization -----------
Will mix electronic density at each iteration.
	FillingsUpdate:  mu: -0.238673019  nElectrons: 330.000000
	FillingsUpdate:  mu: -0.253113191  nElectrons: 330.000000
SCF: Cycle:  0   F: -656.227563580461378   dF: -3.496e+00   |Residual|: 9.742e-01   |deigs|: 1.187e-01  t[s]:   3146.76
	FillingsUpdate:  mu: -0.240199541  nElectrons: 330.000000
SCF: Cycle:  1   F: -654.641908759539660   dF: +1.586e+00   |Residual|: 9.120e-01   |deigs|: 3.241e-02  t[s]:   3705.29
	FillingsUpdate:  mu: -0.192356706  nElectrons: 330.000000
SCF: Cycle:  2   F: -648.056629367134633   dF: +6.585e+00   |Residual|: 1.797e+00   |deigs|: 3.303e-02  t[s]:   4262.06
	FillingsUpdate:  mu: -0.203083516  nElectrons: 330.000000
SCF: Cycle:  3   F: -656.262243259351635   dF: -8.206e+00   |Residual|: 4.593e-01   |deigs|: 2.921e-02  t[s]:   4817.36
	FillingsUpdate:  mu: -0.192410267  nElectrons: 330.000000
SCF: Cycle:  4   F: -656.840191680533621   dF: -5.779e-01   |Residual|: 2.351e-01   |deigs|: 1.045e-02  t[s]:   5375.38
	FillingsUpdate:  mu: -0.189500751  nElectrons: 330.000000
SCF: Cycle:  5   F: -656.906812759996683   dF: -6.662e-02   |Residual|: 1.842e-01   |deigs|: 2.208e-03  t[s]:   5932.52
	FillingsUpdate:  mu: -0.177238317  nElectrons: 330.000000
SCF: Cycle:  6   F: -656.988973341776841   dF: -8.216e-02   |Residual|: 8.869e-02   |deigs|: 9.892e-03  t[s]:   6489.21
	FillingsUpdate:  mu: -0.172279808  nElectrons: 330.000000
SCF: Cycle:  7   F: -656.991010595192506   dF: -2.037e-03   |Residual|: 9.012e-02   |deigs|: 4.066e-03  t[s]:   7048.64
	FillingsUpdate:  mu: -0.167835150  nElectrons: 330.000000
SCF: Cycle:  8   F: -657.009822872764175   dF: -1.881e-02   |Residual|: 3.215e-02   |deigs|: 4.569e-03  t[s]:   7605.29
	FillingsUpdate:  mu: -0.164852535  nElectrons: 330.000000
SCF: Cycle:  9   F: -657.011690216778902   dF: -1.867e-03   |Residual|: 2.152e-02   |deigs|: 2.522e-03  t[s]:   8085.58
	FillingsUpdate:  mu: -0.157765594  nElectrons: 330.000000
SCF: Cycle: 10   F: -657.013906759686733   dF: -2.217e-03   |Residual|: 2.173e-02   |deigs|: 7.134e-03  t[s]:   8601.06
	FillingsUpdate:  mu: -0.154619400  nElectrons: 330.000000
SCF: Cycle: 11   F: -657.014452633027872   dF: -5.459e-04   |Residual|: 1.568e-02   |deigs|: 3.074e-03  t[s]:   9080.60
	FillingsUpdate:  mu: -0.149718043  nElectrons: 330.000000
SCF: Cycle: 12   F: -657.015699766120065   dF: -1.247e-03   |Residual|: 1.131e-02   |deigs|: 5.314e-03  t[s]:   9568.24
	FillingsUpdate:  mu: -0.147405124  nElectrons: 330.000000
SCF: Cycle: 13   F: -657.016083692978555   dF: -3.839e-04   |Residual|: 6.940e-03   |deigs|: 2.263e-03  t[s]:  10048.27
	FillingsUpdate:  mu: -0.144335568  nElectrons: 330.000000
SCF: Cycle: 14   F: -657.016260177360095   dF: -1.765e-04   |Residual|: 6.249e-03   |deigs|: 2.944e-03  t[s]:  10530.93
	FillingsUpdate:  mu: -0.139978600  nElectrons: 330.000000
SCF: Cycle: 15   F: -657.016263053849002   dF: -2.876e-06   |Residual|: 6.266e-03   |deigs|: 4.008e-03  t[s]:  11011.86
	FillingsUpdate:  mu: -0.137661187  nElectrons: 330.000000
SCF: Cycle: 16   F: -657.016206348735523   dF: +5.671e-05   |Residual|: 6.063e-03   |deigs|: 2.327e-03  t[s]:  11493.72
	FillingsUpdate:  mu: -0.135233834  nElectrons: 330.000000
SCF: Cycle: 17   F: -657.016307953928163   dF: -1.016e-04   |Residual|: 3.036e-03   |deigs|: 2.280e-03  t[s]:  11972.89
	FillingsUpdate:  mu: -0.131967127  nElectrons: 330.000000
SCF: Cycle: 18   F: -657.016369452706954   dF: -6.150e-05   |Residual|: 2.235e-03   |deigs|: 3.238e-03  t[s]:  12453.26
	FillingsUpdate:  mu: -0.130268921  nElectrons: 330.000000
SCF: Cycle: 19   F: -657.016412675989045   dF: -4.322e-05   |Residual|: 1.914e-03   |deigs|: 1.849e-03  t[s]:  12930.78
	FillingsUpdate:  mu: -0.129186627  nElectrons: 330.000000
SCF: Cycle: 20   F: -657.016432468586231   dF: -1.979e-05   |Residual|: 1.484e-03   |deigs|: 1.426e-03  t[s]:  13409.54
	FillingsUpdate:  mu: -0.128207209  nElectrons: 330.000000
SCF: Cycle: 21   F: -657.016454856504538   dF: -2.239e-05   |Residual|: 1.202e-03   |deigs|: 1.163e-03  t[s]:  13890.10
	FillingsUpdate:  mu: -0.127810378  nElectrons: 330.000000
SCF: Cycle: 22   F: -657.016469215670213   dF: -1.436e-05   |Residual|: 8.731e-04   |deigs|: 3.984e-04  t[s]:  14370.35
	FillingsUpdate:  mu: -0.127483176  nElectrons: 330.000000
SCF: Cycle: 23   F: -657.016476547188972   dF: -7.332e-06   |Residual|: 5.422e-04   |deigs|: 5.175e-04  t[s]:  14850.67
	FillingsUpdate:  mu: -0.127300039  nElectrons: 330.000000
SCF: Cycle: 24   F: -657.016479281268630   dF: -2.734e-06   |Residual|: 3.570e-04   |deigs|: 3.325e-04  t[s]:  15330.71
	FillingsUpdate:  mu: -0.127211034  nElectrons: 330.000000
SCF: Cycle: 25   F: -657.016480343019225   dF: -1.062e-06   |Residual|: 2.384e-04   |deigs|: 2.503e-04  t[s]:  15808.17
	FillingsUpdate:  mu: -0.127182720  nElectrons: 330.000000
SCF: Cycle: 26   F: -657.016480489724245   dF: -1.467e-07   |Residual|: 3.304e-04   |deigs|: 2.320e-04  t[s]:  16286.94
	FillingsUpdate:  mu: -0.127189615  nElectrons: 330.000000
SCF: Cycle: 27   F: -657.016480625494864   dF: -1.358e-07   |Residual|: 2.824e-04   |deigs|: 8.169e-05  t[s]:  16763.82
	FillingsUpdate:  mu: -0.127179356  nElectrons: 330.000000
SCF: Cycle: 28   F: -657.016480903570709   dF: -2.781e-07   |Residual|: 1.513e-04   |deigs|: 2.007e-04  t[s]:  17242.09
	FillingsUpdate:  mu: -0.127173047  nElectrons: 330.000000
SCF: Cycle: 29   F: -657.016481037520975   dF: -1.340e-07   |Residual|: 8.510e-05   |deigs|: 2.301e-04  t[s]:  17718.57
	FillingsUpdate:  mu: -0.127188132  nElectrons: 330.000000
SCF: Cycle: 30   F: -657.016481124948655   dF: -8.743e-08   |Residual|: 5.350e-05   |deigs|: 1.584e-04  t[s]:  18200.07
	FillingsUpdate:  mu: -0.127197724  nElectrons: 330.000000
SCF: Cycle: 31   F: -657.016481191809703   dF: -6.686e-08   |Residual|: 3.780e-05   |deigs|: 2.023e-04  t[s]:  18678.35
	FillingsUpdate:  mu: -0.127206548  nElectrons: 330.000000
SCF: Cycle: 32   F: -657.016481206381059   dF: -1.457e-08   |Residual|: 3.065e-05   |deigs|: 5.003e-05  t[s]:  19157.45
	FillingsUpdate:  mu: -0.127209491  nElectrons: 330.000000
SCF: Cycle: 33   F: -657.016481222813809   dF: -1.643e-08   |Residual|: 1.640e-05   |deigs|: 3.254e-05  t[s]:  19636.59
	FillingsUpdate:  mu: -0.127209246  nElectrons: 330.000000
SCF: Cycle: 34   F: -657.016481231277226   dF: -8.463e-09   |Residual|: 1.288e-05   |deigs|: 3.241e-05  t[s]:  20116.06
	FillingsUpdate:  mu: -0.127206282  nElectrons: 330.000000
SCF: Cycle: 35   F: -657.016481241479369   dF: -1.020e-08   |Residual|: 9.032e-06   |deigs|: 3.861e-05  t[s]:  20596.80
	FillingsUpdate:  mu: -0.127203320  nElectrons: 330.000000
SCF: Cycle: 36   F: -657.016481246337321   dF: -4.858e-09   |Residual|: 7.658e-06   |deigs|: 4.030e-05  t[s]:  21078.38
	FillingsUpdate:  mu: -0.127199914  nElectrons: 330.000000
SCF: Cycle: 37   F: -657.016481248502032   dF: -2.165e-09   |Residual|: 7.147e-06   |deigs|: 4.660e-05  t[s]:  21558.90
SCF: Converged (|Delta E|<1.000000e-08 for 2 iters).

Setting wave functions to eigenvectors of Hamiltonian

# Ionic positions in cartesian coordinates:
ion C   0.000000000000000   0.000000000000000   1.000001652210000 0
ion C  -2.333831667840000   4.042310104620000   1.000001652210000 0
ion C  11.669128103520002  20.211535405260001   1.000001652210000 0
ion C   4.667680343250000   0.000000000000000   1.000001652210000 0
ion C  23.338288332449999   0.000000000000000   1.000001652210000 0
ion C   2.333822219190000   4.042310104620000   1.000001652210000 0
ion C -11.669150780279999  20.211535405260001   1.000001652210000 0
ion C  -4.667665225410000   8.084622098970000   1.000001652210000 0
ion C   9.335305884329998  16.169223410910003   1.000001652210000 0
ion C   9.335322891900001   0.000000000000000   1.000001652210000 0
ion C  18.670626886499999   0.000000000000000   1.000001652210000 0
ion C  -9.335317222710001  16.169223410910003   1.000001652210000 0
ion C  -7.001485554870001  12.126913306290001   1.000001652210000 0
ion C  14.002984337850000   0.000000000000000   1.000001652210000 0
ion C   0.000000000000000   8.084622098970000   1.000001652210000 0
ion C   7.001485554870005  20.211535405260001   1.000001652210000 0
ion C  -7.001481775409998  20.211535405260001   1.000001652210000 0
ion C  -2.333822219190001  12.126913306290001   1.000001652210000 0
ion C   4.667663335680000  16.169223410910003   1.000001652210000 0
ion C  -2.333820329459998  20.211535405260001   1.000001652210000 0
ion C   2.333824108920002  20.211535405260001   1.000001652210000 0
ion C  -4.667659556220002  16.169223410910003   1.000001652210000 0
ion C   7.001483665139999   4.042310104620000   1.000001652210000 0
ion C  21.004430208390001   4.042310104620000   1.000001652210000 0
ion C  14.002948432979998  16.169223410910003   1.000001652210000 0
ion C   0.000001889729997  16.169223410910003   1.000001652210000 0
ion C  11.669126213789999   4.042310104620000   1.000001652210000 0
ion C  18.670609878930001   8.084622098970000   1.000001652210000 0
ion C  11.669126213789998  12.126913306290001   1.000001652210000 0
ion C  16.336787659739997  12.126913306290001   1.000001652210000 0
ion C  16.336789549470002   4.042310104620000   1.000001652210000 0
ion C   9.335303994600000   8.084622098970000   1.000001652210000 0
ion C  14.002948432980002   8.084622098970000   1.000001652210000 0
ion C   0.000000000000000   2.694874032990001   1.000001652210000 0
ion C  11.669128103520000  22.906390540950003   1.000001652210000 0
ion C -11.669124324059998  22.906390540950003   1.000001652210000 0
ion C  -2.333822219189999   6.737165240310001   1.000001652210000 0
ion C   9.335305884330001  18.864097443900004   1.000001652210000 0
ion C  -7.001481775409998  22.906390540950003   1.000001652210000 0
ion C   7.001485554870003  22.906390540950003   1.000001652210000 0
ion C   2.333822219190001   6.737165240310001   1.000001652210000 0
ion C  -9.335302104869999  18.864097443900004   1.000001652210000 0
ion C  -4.667661445950000  10.779477234660002   1.000001652210000 0
ion C  -2.333820329460000  22.906390540950003   1.000001652210000 0
ion C   2.333824108920002  22.906390540950003   1.000001652210000 0
ion C  -7.001483665140000  14.821787339280002   1.000001652210000 0
ion C   4.667661445950001   2.694874032990001   1.000001652210000 0
ion C  23.338269435150000   2.694874032990001   1.000001652210000 0
ion C  14.002967330280001  18.864097443900004   1.000001652210000 0
ion C   0.000000000000000  10.779477234660002   1.000001652210000 0
ion C   4.667663335679999  18.864097443900004   1.000001652210000 0
ion C  -4.667640658920000  18.864097443900004   1.000001652210000 0
ion C  -2.333822219190001  14.821787339280002   1.000001652210000 0
ion C   2.333824108919998  14.821787339280002   1.000001652210000 0
ion C   0.000001889729999  18.864097443900004   1.000001652210000 0
ion C   9.335303994599998   2.694874032990001   1.000001652210000 0
ion C  21.004430208390005   6.737165240310001   1.000001652210000 0
ion C  11.669126213790001  14.821787339280002   1.000001652210000 0
ion C  16.336789549469998  14.821787339280002   1.000001652210000 0
ion C  18.670609878930001   2.694874032990001   1.000001652210000 0
ion C   7.001483665140000   6.737165240310001   1.000001652210000 0
ion C  14.002946543249999   2.694874032990001   1.000001652210000 0
ion C  18.670607989200004  10.779477234660002   1.000001652210000 0
ion C  11.669126213789999   6.737165240310001   1.000001652210000 0
ion C  16.336787659740004   6.737165240310001   1.000001652210000 0
ion C  14.002946543250001  10.779477234660002   1.000001652210000 0
ion N   4.667661445950002   8.084622098970000   1.000001652210000 0
ion N   2.333822219190000  12.126913306290001   1.000001652210000 0
ion N   7.001485554869999  14.821787339280002   1.000001652210000 0
ion N   9.335305884330001  10.779477234660002   1.000001652210000 0
ion Fe   5.837109518070000  11.454309266310000   1.000001652210000 0
ion S   9.402875070210001  10.246681089270000   4.861882226160001 1
ion S   5.921463285809999  12.589061895630003   4.783942202040001 1
ion Na   9.852901041599996  14.733716472630002   6.654514119300001 1
ion Na   5.365079530560000   8.061060945330002   6.438623805180001 1

# Forces in Cartesian coordinates:
force C   0.004231401667678  -0.000528098746792  -0.000015239083456 0
force C   0.001674039786271  -0.000213462235465  -0.000058189079953 0
force C   0.003003570725137  -0.001176962192143  -0.000006568631275 0
force C   0.000821469196266   0.002370110929135   0.000105899070609 0
force C   0.001827048784550  -0.000133566660766   0.000070006974832 0
force C   0.003677757917173   0.001490902382493   0.000020782134000 0
force C   0.000757909804953  -0.000174058309306   0.000140611624995 0
force C  -0.000242454603656   0.001335083582266  -0.000004500537486 0
force C  -0.038312841880757  -0.013132148769090   0.000129339048826 0
force C  -0.000809813126784  -0.001098268245881  -0.000172378500342 0
force C  -0.001448280164782  -0.000170469678291   0.000027072987495 0
force C   0.000957371187371   0.001377711327245  -0.000061915046742 0
force C   0.001537383142829   0.003181657608636   0.000039723975301 0
force C  -0.000017014942951   0.000352931570721  -0.000002230992324 0
force C   0.012153429278785   0.006480084115773   0.000840250249242 0
force C   0.001214468259101   0.003018498977981  -0.000215358789095 0
force C   0.001910157404587   0.000451374031426   0.000026834798214 0
force C   0.002927786642254   0.003635278947800   0.000180364541614 0
force C   0.028635195994805   0.010438380003117  -0.004192519056428 0
force C  -0.000459058279726  -0.000162229979723  -0.000033312339747 0
force C  -0.001669266325635  -0.000273792630406  -0.000054007139902 0
force C   0.002105633608281  -0.000450091107715   0.000016776133836 0
force C   0.007056660252724   0.001969607599195   0.000958533439657 0
force C   0.001999211420942   0.000443955701655  -0.000008958702542 0
force C   0.002719286751386   0.000829046783212   0.000813791460649 0
force C   0.005206452291157   0.003167833255958   0.000354475558856 0
force C  -0.002445857206199  -0.000618313533535   0.000077539908248 0
force C   0.001601313013280   0.001915315984154  -0.000015031147157 0
force C  -0.004409318637396  -0.006990621125044  -0.029000930435594 0
force C  -0.000590954293845   0.004228700920131   0.000531874647917 0
force C  -0.000989698246509  -0.001779299328421   0.000008721092317 0
force C   0.022191831460874  -0.014546715092677  -0.024727919469438 0
force C   0.005769312094137  -0.001376354779392   0.001212735568908 0
force C  -0.003480401670295   0.002174633741251  -0.000067729456003 0
force C  -0.003932719757734   0.000058795635470   0.000055060792091 0
force C  -0.002482568830419   0.000231224249643   0.000005273529544 0
force C   0.000023917314140  -0.000221997775365   0.000082583556524 0
force C  -0.004647569241603  -0.001040292873931   0.001713071209020 0
force C   0.001346858947368   0.000697214705714  -0.000043749250583 0
force C  -0.000354314543790  -0.002663896206462  -0.000051607443128 0
force C   0.028298090651879   0.012158349803441   0.000364829799717 0
force C  -0.001632780304450  -0.001356035793986  -0.000041247018943 0
force C   0.000857440699111  -0.003527685625614   0.000028363334087 0
force C  -0.000169616942873  -0.000220642162860  -0.000007012595667 0
force C   0.000995745900141   0.000433995224800  -0.000040467766895 0
force C  -0.000723717158872  -0.001532234073108   0.000023072822581 0
force C  -0.002194933486334  -0.003137983304602   0.000043113388106 0
force C  -0.001521863822508   0.000205716452466   0.000051292031724 0
force C  -0.000455195125061   0.000762782511945  -0.000070437282895 0
force C   0.032138780484262   0.023093905128965  -0.000314344209939 0
force C  -0.005124654525587  -0.004219398662558   0.000497605813786 0
force C   0.000150328388162   0.000684715294361   0.000025817961261 0
force C  -0.002437561426074  -0.001081817908261  -0.000173343810547 0
force C  -0.021243310018266  -0.021396055478390   0.001185000851336 0
force C   0.001031596804548   0.001052564595005  -0.000162610079426 0
force C   0.002372064141063   0.000646165381531   0.000759683511942 0
force C  -0.000447526637123  -0.000054968582211   0.000026079232006 0
force C  -0.011140918020176  -0.015063573809003   0.000819588150052 0
force C  -0.000521990404366  -0.001926856793226   0.000182393221877 0
force C  -0.001761347309472  -0.000690768027159  -0.000002346043925 0
force C  -0.022014615007085  -0.007706947632196  -0.007982624014870 0
force C   0.001726130336668   0.000182373588753   0.000152500949285 0
force C  -0.001432313555471  -0.003480842729045   0.000072474576279 0
force C  -0.008250943169730  -0.003683256510580  -0.005421106720727 0
force C  -0.005052999971336   0.002257832583117  -0.000151133494584 0
force C  -0.008347110338352   0.000816854513270  -0.001078343901294 0
force N   0.025744323893290  -0.028803237393664  -0.003450120114825 0
force N  -0.022333384881844   0.037689884289931  -0.013731259842785 0
force N  -0.019264034671038   0.049521695338150  -0.040697091698413 0
force N   0.017869677205709  -0.020728883453259  -0.038108399989955 0
force Fe  -0.021426395510254   0.005504629302693   0.000899644344142 0
force S  -0.009837096079604   0.000930562909890   0.108208819223175 1
force S   0.006246762777267  -0.020288105340614   0.046403376524490 1
force Na   0.008794837880486   0.011065226449302   0.001833010912528 1
force Na  -0.007387023864225  -0.011052735852392   0.000282430474682 1

# Energy components:
   Eewald =    -1181.1247623450383344
       EH =     -659.6740201497166254
     Eloc =     1123.8657709468322992
      Enl =      -62.2136326756749867
      Exc =     -167.9932031379125874
 Exc_core =        6.8981128710578492
       KE =      283.3018223969529004
-------------------------------------
     Etot =     -656.9399120934995153
       TS =        0.0765691550025244
-------------------------------------
        F =     -657.0164812485020320

IonicMinimize: Iter:   0  F: -657.016481248502032  |grad|_K:  3.511e-02  alpha:  1.000e+00

#--- Lowdin population analysis ---
# oxidation-state C +0.034 +0.030 +0.022 +0.028 +0.032 +0.007 +0.030 +0.029 +0.096 +0.034 +0.035 +0.032 +0.039 +0.035 -0.006 +0.036 +0.037 +0.021 +0.109 +0.036 +0.030 +0.032 +0.010 +0.042 +0.028 +0.031 +0.031 +0.034 +0.115 +0.032 +0.034 +0.107 +0.033 +0.029 +0.036 +0.031 +0.043 +0.006 +0.035 +0.031 +0.114 +0.041 +0.034 +0.036 +0.037 +0.036 +0.030 +0.033 +0.020 +0.137 +0.030 +0.037 +0.043 +0.113 +0.032 +0.028 +0.035 -0.030 +0.028 +0.040 +0.100 +0.036 +0.039 +0.023 +0.035 +0.016
# oxidation-state N -0.164 -0.125 -0.129 -0.116
# oxidation-state Fe -0.092
# oxidation-state S -0.226 -0.058
# oxidation-state Na +0.768 +0.789


-------- Electronic minimization -----------
Will mix electronic density at each iteration.
	FillingsUpdate:  mu: -0.127199914  nElectrons: 330.000000
	FillingsUpdate:  mu: -0.117387475  nElectrons: 330.000000
SCF: Cycle:  0   F: -656.458715430777033   dF: +5.366e-01   |Residual|: 3.623e-01   |deigs|: 3.421e-04  t[s]:  22393.51
	FillingsUpdate:  mu: -0.139456168  nElectrons: 330.000000
SCF: Cycle:  1   F: -652.017580680548804   dF: +4.441e+00   |Residual|: 1.465e+00   |deigs|: 2.579e-02  t[s]:  22955.36
	FillingsUpdate:  mu: -0.127640764  nElectrons: 330.000000
SCF: Cycle:  2   F: -656.662838695179971   dF: -4.645e+00   |Residual|: 3.644e-01   |deigs|: 2.103e-02  t[s]:  23513.78
	FillingsUpdate:  mu: -0.122722313  nElectrons: 330.000000
SCF: Cycle:  3   F: -657.007628210071630   dF: -3.448e-01   |Residual|: 8.470e-02   |deigs|: 5.135e-03  t[s]:  24070.83
	FillingsUpdate:  mu: -0.124024827  nElectrons: 330.000000
SCF: Cycle:  4   F: -657.025847841797372   dF: -1.822e-02   |Residual|: 3.383e-02   |deigs|: 1.151e-03  t[s]:  24627.68
	FillingsUpdate:  mu: -0.124052479  nElectrons: 330.000000
SCF: Cycle:  5   F: -657.028715195554810   dF: -2.867e-03   |Residual|: 1.176e-02   |deigs|: 5.904e-04  t[s]:  25113.42
	FillingsUpdate:  mu: -0.124226705  nElectrons: 330.000000
SCF: Cycle:  6   F: -657.028846109778101   dF: -1.309e-04   |Residual|: 1.432e-02   |deigs|: 3.229e-04  t[s]:  25430.91
	FillingsUpdate:  mu: -0.124330827  nElectrons: 330.000000
SCF: Cycle:  7   F: -657.029393740771638   dF: -5.476e-04   |Residual|: 3.185e-03   |deigs|: 3.967e-04  t[s]:  25747.97
	FillingsUpdate:  mu: -0.124439331  nElectrons: 330.000000
SCF: Cycle:  8   F: -657.029473606006377   dF: -7.987e-05   |Residual|: 5.818e-03   |deigs|: 3.453e-04  t[s]:  26218.37
	FillingsUpdate:  mu: -0.124860643  nElectrons: 330.000000
SCF: Cycle:  9   F: -657.029645849579765   dF: -1.722e-04   |Residual|: 4.636e-03   |deigs|: 6.075e-04  t[s]:  26700.26
	FillingsUpdate:  mu: -0.125204238  nElectrons: 330.000000
SCF: Cycle: 10   F: -657.029760478696744   dF: -1.146e-04   |Residual|: 1.527e-03   |deigs|: 4.173e-04  t[s]:  27178.59
	FillingsUpdate:  mu: -0.125693604  nElectrons: 330.000000
SCF: Cycle: 11   F: -657.029795912066447   dF: -3.543e-05   |Residual|: 2.719e-03   |deigs|: 5.884e-04  t[s]:  27655.80
	FillingsUpdate:  mu: -0.125976106  nElectrons: 330.000000
SCF: Cycle: 12   F: -657.029827805369791   dF: -3.189e-05   |Residual|: 8.549e-04   |deigs|: 3.491e-04  t[s]:  28133.85
	FillingsUpdate:  mu: -0.126230978  nElectrons: 330.000000
SCF: Cycle: 13   F: -657.029837279891353   dF: -9.475e-06   |Residual|: 7.944e-04   |deigs|: 2.719e-04  t[s]:  28610.50
	FillingsUpdate:  mu: -0.126506765  nElectrons: 330.000000
SCF: Cycle: 14   F: -657.029844522173335   dF: -7.242e-06   |Residual|: 5.141e-04   |deigs|: 3.499e-04  t[s]:  29087.75
	FillingsUpdate:  mu: -0.126697621  nElectrons: 330.000000
SCF: Cycle: 15   F: -657.029846783885432   dF: -2.262e-06   |Residual|: 4.451e-04   |deigs|: 3.969e-04  t[s]:  29565.37
	FillingsUpdate:  mu: -0.126857235  nElectrons: 330.000000
SCF: Cycle: 16   F: -657.029847858083713   dF: -1.074e-06   |Residual|: 2.699e-04   |deigs|: 3.065e-04  t[s]:  30041.14
	FillingsUpdate:  mu: -0.126968154  nElectrons: 330.000000
SCF: Cycle: 17   F: -657.029848135040652   dF: -2.770e-07   |Residual|: 2.662e-04   |deigs|: 2.063e-04  t[s]:  30520.03
	FillingsUpdate:  mu: -0.127055308  nElectrons: 330.000000
SCF: Cycle: 18   F: -657.029848199396156   dF: -6.436e-08   |Residual|: 3.491e-04   |deigs|: 1.648e-04  t[s]:  30995.67
	FillingsUpdate:  mu: -0.127138497  nElectrons: 330.000000
SCF: Cycle: 19   F: -657.029848578228325   dF: -3.788e-07   |Residual|: 1.782e-04   |deigs|: 1.462e-04  t[s]:  31474.98
	FillingsUpdate:  mu: -0.127228874  nElectrons: 330.000000
SCF: Cycle: 20   F: -657.029848672155595   dF: -9.393e-08   |Residual|: 1.323e-04   |deigs|: 2.080e-04  t[s]:  31950.77
	FillingsUpdate:  mu: -0.127353414  nElectrons: 330.000000
SCF: Cycle: 21   F: -657.029848558653384   dF: +1.135e-07   |Residual|: 1.022e-04   |deigs|: 2.675e-04  t[s]:  32427.85
	FillingsUpdate:  mu: -0.127426462  nElectrons: 330.000000
SCF: Cycle: 22   F: -657.029848564519170   dF: -5.866e-09   |Residual|: 8.254e-05   |deigs|: 1.610e-04  t[s]:  32904.62
	FillingsUpdate:  mu: -0.127489266  nElectrons: 330.000000
SCF: Cycle: 23   F: -657.029848633046186   dF: -6.853e-08   |Residual|: 6.309e-05   |deigs|: 9.700e-05  t[s]:  33385.22
	FillingsUpdate:  mu: -0.127539450  nElectrons: 330.000000
SCF: Cycle: 24   F: -657.029848743076627   dF: -1.100e-07   |Residual|: 4.004e-05   |deigs|: 9.651e-05  t[s]:  33861.29
	FillingsUpdate:  mu: -0.127564004  nElectrons: 330.000000
SCF: Cycle: 25   F: -657.029848814490379   dF: -7.141e-08   |Residual|: 2.713e-05   |deigs|: 6.953e-05  t[s]:  34334.36
	FillingsUpdate:  mu: -0.127576982  nElectrons: 330.000000
SCF: Cycle: 26   F: -657.029848854887632   dF: -4.040e-08   |Residual|: 1.779e-05   |deigs|: 5.564e-05  t[s]:  34811.64
	FillingsUpdate:  mu: -0.127584469  nElectrons: 330.000000
SCF: Cycle: 27   F: -657.029848877481527   dF: -2.259e-08   |Residual|: 1.311e-05   |deigs|: 4.599e-05  t[s]:  35287.60
	FillingsUpdate:  mu: -0.127589854  nElectrons: 330.000000
SCF: Cycle: 28   F: -657.029848888649099   dF: -1.117e-08   |Residual|: 1.581e-05   |deigs|: 5.198e-05  t[s]:  35764.00
	FillingsUpdate:  mu: -0.127594623  nElectrons: 330.000000
SCF: Cycle: 29   F: -657.029848894391307   dF: -5.742e-09   |Residual|: 1.094e-05   |deigs|: 4.501e-05  t[s]:  36244.85
	FillingsUpdate:  mu: -0.127598116  nElectrons: 330.000000
SCF: Cycle: 30   F: -657.029848895581381   dF: -1.190e-09   |Residual|: 1.254e-05   |deigs|: 1.969e-05  t[s]:  36700.61
SCF: Converged (|Delta E|<1.000000e-08 for 2 iters).

Setting wave functions to eigenvectors of Hamiltonian
IonicMinimize: 	Predicted alpha/alphaT>3.000000, increasing alphaT to 2.760930e+00.

-------- Electronic minimization -----------
Will mix electronic density at each iteration.
	FillingsUpdate:  mu: -0.127598116  nElectrons: 330.000000
	FillingsUpdate:  mu: -0.106934333  nElectrons: 330.000000
SCF: Cycle:  0   F: -653.707295465440666   dF: +3.210e+00   |Residual|: 8.736e-01   |deigs|: 1.356e-03  t[s]:  37448.77
	FillingsUpdate:  mu: -0.144600623  nElectrons: 330.000000
SCF: Cycle:  1   F: -646.908205776305181   dF: +6.799e+00   |Residual|: 2.297e+00   |deigs|: 6.419e-02  t[s]:  38005.60
	FillingsUpdate:  mu: -0.132119226  nElectrons: 330.000000
SCF: Cycle:  2   F: -654.098839890879276   dF: -7.191e+00   |Residual|: 1.054e+00   |deigs|: 4.564e-02  t[s]:  38560.49
	FillingsUpdate:  mu: -0.116089029  nElectrons: 330.000000
SCF: Cycle:  3   F: -656.636145487442832   dF: -2.537e+00   |Residual|: 4.085e-01   |deigs|: 1.915e-02  t[s]:  39115.81
	FillingsUpdate:  mu: -0.122491610  nElectrons: 330.000000
SCF: Cycle:  4   F: -657.007264878838214   dF: -3.711e-01   |Residual|: 1.433e-01   |deigs|: 4.659e-03  t[s]:  39673.72
	FillingsUpdate:  mu: -0.122826754  nElectrons: 330.000000
SCF: Cycle:  5   F: -657.003204021076385   dF: +4.061e-03   |Residual|: 1.312e-01   |deigs|: 3.926e-04  t[s]:  40233.97
	FillingsUpdate:  mu: -0.121264628  nElectrons: 330.000000
SCF: Cycle:  6   F: -657.049718735094189   dF: -4.651e-02   |Residual|: 3.508e-02   |deigs|: 1.935e-03  t[s]:  40789.50
	FillingsUpdate:  mu: -0.121372285  nElectrons: 330.000000
SCF: Cycle:  7   F: -657.049327632734048   dF: +3.911e-04   |Residual|: 3.060e-02   |deigs|: 3.281e-04  t[s]:  41274.59
	FillingsUpdate:  mu: -0.122236634  nElectrons: 330.000000
SCF: Cycle:  8   F: -657.052572343554402   dF: -3.245e-03   |Residual|: 1.615e-02   |deigs|: 6.399e-04  t[s]:  41746.43
	FillingsUpdate:  mu: -0.122103252  nElectrons: 330.000000
SCF: Cycle:  9   F: -657.051518502211707   dF: +1.054e-03   |Residual|: 2.455e-02   |deigs|: 6.062e-04  t[s]:  42223.23
	FillingsUpdate:  mu: -0.123043348  nElectrons: 330.000000
SCF: Cycle: 10   F: -657.054022733103125   dF: -2.504e-03   |Residual|: 5.049e-03   |deigs|: 7.888e-04  t[s]:  42701.82
	FillingsUpdate:  mu: -0.124069957  nElectrons: 330.000000
SCF: Cycle: 11   F: -657.053807229379345   dF: +2.155e-04   |Residual|: 1.356e-02   |deigs|: 9.536e-04  t[s]:  43182.05
	FillingsUpdate:  mu: -0.124412887  nElectrons: 330.000000
SCF: Cycle: 12   F: -657.054365256895039   dF: -5.580e-04   |Residual|: 4.847e-03   |deigs|: 6.341e-04  t[s]:  43662.98
	FillingsUpdate:  mu: -0.125118896  nElectrons: 330.000000
SCF: Cycle: 13   F: -657.054493819397635   dF: -1.286e-04   |Residual|: 2.702e-03   |deigs|: 6.838e-04  t[s]:  44142.27
	FillingsUpdate:  mu: -0.125891257  nElectrons: 330.000000
SCF: Cycle: 14   F: -657.054558791618547   dF: -6.497e-05   |Residual|: 1.307e-03   |deigs|: 7.078e-04  t[s]:  44623.77
	FillingsUpdate:  mu: -0.126297469  nElectrons: 330.000000
SCF: Cycle: 15   F: -657.054572776674718   dF: -1.399e-05   |Residual|: 1.179e-03   |deigs|: 4.012e-04  t[s]:  45103.40
	FillingsUpdate:  mu: -0.126776075  nElectrons: 330.000000
SCF: Cycle: 16   F: -657.054581913695301   dF: -9.137e-06   |Residual|: 7.920e-04   |deigs|: 6.173e-04  t[s]:  45581.77
	FillingsUpdate:  mu: -0.127079306  nElectrons: 330.000000
SCF: Cycle: 17   F: -657.054583642192142   dF: -1.728e-06   |Residual|: 5.931e-04   |deigs|: 4.294e-04  t[s]:  46058.41
	FillingsUpdate:  mu: -0.127308343  nElectrons: 330.000000
SCF: Cycle: 18   F: -657.054584240453778   dF: -5.983e-07   |Residual|: 5.466e-04   |deigs|: 3.096e-04  t[s]:  46538.27
	FillingsUpdate:  mu: -0.127494203  nElectrons: 330.000000
SCF: Cycle: 19   F: -657.054585139879123   dF: -8.994e-07   |Residual|: 3.008e-04   |deigs|: 2.599e-04  t[s]:  47016.56
	FillingsUpdate:  mu: -0.127691130  nElectrons: 330.000000
SCF: Cycle: 20   F: -657.054585650781974   dF: -5.109e-07   |Residual|: 2.570e-04   |deigs|: 2.855e-04  t[s]:  47496.85
	FillingsUpdate:  mu: -0.127815858  nElectrons: 330.000000
SCF: Cycle: 21   F: -657.054585835316630   dF: -1.845e-07   |Residual|: 3.186e-04   |deigs|: 1.963e-04  t[s]:  47977.34
	FillingsUpdate:  mu: -0.127965161  nElectrons: 330.000000
SCF: Cycle: 22   F: -657.054586031761119   dF: -1.964e-07   |Residual|: 2.002e-04   |deigs|: 3.102e-04  t[s]:  48455.63
	FillingsUpdate:  mu: -0.128108831  nElectrons: 330.000000
SCF: Cycle: 23   F: -657.054586071564017   dF: -3.980e-08   |Residual|: 1.868e-04   |deigs|: 2.239e-04  t[s]:  48934.20
	FillingsUpdate:  mu: -0.128260599  nElectrons: 330.000000
SCF: Cycle: 24   F: -657.054586263116903   dF: -1.916e-07   |Residual|: 1.122e-04   |deigs|: 2.068e-04  t[s]:  49410.44
	FillingsUpdate:  mu: -0.128367362  nElectrons: 330.000000
SCF: Cycle: 25   F: -657.054586436974887   dF: -1.739e-07   |Residual|: 7.558e-05   |deigs|: 1.413e-04  t[s]:  49889.27
	FillingsUpdate:  mu: -0.128417656  nElectrons: 330.000000
SCF: Cycle: 26   F: -657.054586537169939   dF: -1.002e-07   |Residual|: 5.016e-05   |deigs|: 9.273e-05  t[s]:  50369.82
	FillingsUpdate:  mu: -0.128435643  nElectrons: 330.000000
SCF: Cycle: 27   F: -657.054586587609265   dF: -5.044e-08   |Residual|: 4.421e-05   |deigs|: 4.960e-05  t[s]:  50846.52
	FillingsUpdate:  mu: -0.128455245  nElectrons: 330.000000
SCF: Cycle: 28   F: -657.054586626504943   dF: -3.890e-08   |Residual|: 7.870e-05   |deigs|: 4.595e-05  t[s]:  51325.17
	FillingsUpdate:  mu: -0.128464486  nElectrons: 330.000000
SCF: Cycle: 29   F: -657.054586684136780   dF: -5.763e-08   |Residual|: 4.059e-05   |deigs|: 5.422e-05  t[s]:  51802.73
	FillingsUpdate:  mu: -0.128478713  nElectrons: 330.000000
SCF: Cycle: 30   F: -657.054586718912105   dF: -3.478e-08   |Residual|: 2.307e-05   |deigs|: 9.630e-05  t[s]:  52279.24
	FillingsUpdate:  mu: -0.128486769  nElectrons: 330.000000
SCF: Cycle: 31   F: -657.054586731861264   dF: -1.295e-08   |Residual|: 1.457e-05   |deigs|: 4.359e-05  t[s]:  52756.07
	FillingsUpdate:  mu: -0.128489709  nElectrons: 330.000000
SCF: Cycle: 32   F: -657.054586737245359   dF: -5.384e-09   |Residual|: 9.601e-06   |deigs|: 2.584e-05  t[s]:  53218.90
	FillingsUpdate:  mu: -0.128490023  nElectrons: 330.000000
SCF: Cycle: 33   F: -657.054586741321145   dF: -4.076e-09   |Residual|: 9.459e-06   |deigs|: 2.930e-05  t[s]:  53684.97
SCF: Converged (|Delta E|<1.000000e-08 for 2 iters).

Setting wave functions to eigenvectors of Hamiltonian
IonicMinimize: 	Predicted alpha/alphaT>3.000000, increasing alphaT to 8.282791e+00.

-------- Electronic minimization -----------
Will mix electronic density at each iteration.
	FillingsUpdate:  mu: -0.128490023  nElectrons: 330.000000
	FillingsUpdate:  mu: -0.090029171  nElectrons: 330.000000
SCF: Cycle:  0   F: -638.513033829474807   dF: +1.739e+01   |Residual|: 1.794e+00   |deigs|: 1.155e-02  t[s]:  54438.92
	FillingsUpdate:  mu: -0.134781291  nElectrons: 330.000000
SCF: Cycle:  1   F: -641.920273912061816   dF: -3.407e+00   |Residual|: 3.132e+00   |deigs|: 1.294e-01  t[s]:  54994.68
	FillingsUpdate:  mu: -0.131493354  nElectrons: 330.000000
SCF: Cycle:  2   F: -649.218171319867338   dF: -7.298e+00   |Residual|: 1.752e+00   |deigs|: 8.785e-02  t[s]:  55551.32
	FillingsUpdate:  mu: -0.083637515  nElectrons: 330.000000
SCF: Cycle:  3   F: -644.112702940853637   dF: +5.105e+00   |Residual|: 2.016e+00   |deigs|: 6.656e-02  t[s]:  56107.99
	FillingsUpdate:  mu: -0.103562271  nElectrons: 330.000000
SCF: Cycle:  4   F: -656.368344927447083   dF: -1.226e+01   |Residual|: 6.217e-01   |deigs|: 3.380e-02  t[s]:  56665.96
	FillingsUpdate:  mu: -0.116601717  nElectrons: 330.000000
SCF: Cycle:  5   F: -656.358185550953294   dF: +1.016e-02   |Residual|: 4.803e-01   |deigs|: 9.714e-03  t[s]:  57226.04
	FillingsUpdate:  mu: -0.115064342  nElectrons: 330.000000
SCF: Cycle:  6   F: -656.714503301237073   dF: -3.563e-01   |Residual|: 3.615e-01   |deigs|: 2.416e-03  t[s]:  57787.73
	FillingsUpdate:  mu: -0.112587021  nElectrons: 330.000000
SCF: Cycle:  7   F: -657.030388838742169   dF: -3.159e-01   |Residual|: 2.106e-01   |deigs|: 2.853e-03  t[s]:  58345.50
	FillingsUpdate:  mu: -0.112504684  nElectrons: 330.000000
SCF: Cycle:  8   F: -657.093744127612354   dF: -6.336e-02   |Residual|: 8.428e-02   |deigs|: 2.586e-03  t[s]:  58900.84
	FillingsUpdate:  mu: -0.111185323  nElectrons: 330.000000
SCF: Cycle:  9   F: -657.034970027830923   dF: +5.877e-02   |Residual|: 1.497e-01   |deigs|: 1.147e-03  t[s]:  59458.68
	FillingsUpdate:  mu: -0.115357793  nElectrons: 330.000000
SCF: Cycle: 10   F: -657.066860885144592   dF: -3.189e-02   |Residual|: 1.062e-01   |deigs|: 2.625e-03  t[s]:  60015.11
	FillingsUpdate:  mu: -0.113446794  nElectrons: 330.000000
SCF: Cycle: 11   F: -657.087643495031784   dF: -2.078e-02   |Residual|: 6.792e-02   |deigs|: 1.811e-03  t[s]:  60574.95
	FillingsUpdate:  mu: -0.117054694  nElectrons: 330.000000
SCF: Cycle: 12   F: -657.074263181807396   dF: +1.338e-02   |Residual|: 1.009e-01   |deigs|: 2.137e-03  t[s]:  61130.85
	FillingsUpdate:  mu: -0.117132191  nElectrons: 330.000000
SCF: Cycle: 13   F: -657.104459635835383   dF: -3.020e-02   |Residual|: 3.610e-02   |deigs|: 1.498e-03  t[s]:  61617.82
	FillingsUpdate:  mu: -0.119221544  nElectrons: 330.000000
SCF: Cycle: 14   F: -657.105768900222529   dF: -1.309e-03   |Residual|: 1.759e-02   |deigs|: 2.293e-03  t[s]:  62108.84
	FillingsUpdate:  mu: -0.120768069  nElectrons: 330.000000
SCF: Cycle: 15   F: -657.106741075040532   dF: -9.722e-04   |Residual|: 1.244e-02   |deigs|: 1.351e-03  t[s]:  62586.64
	FillingsUpdate:  mu: -0.122564567  nElectrons: 330.000000
SCF: Cycle: 16   F: -657.107305441404606   dF: -5.644e-04   |Residual|: 7.258e-03   |deigs|: 1.519e-03  t[s]:  63065.62
	FillingsUpdate:  mu: -0.124420278  nElectrons: 330.000000
SCF: Cycle: 17   F: -657.107457384238501   dF: -1.519e-04   |Residual|: 6.004e-03   |deigs|: 1.438e-03  t[s]:  63542.42
	FillingsUpdate:  mu: -0.125803234  nElectrons: 330.000000
SCF: Cycle: 18   F: -657.107560525351460   dF: -1.031e-04   |Residual|: 3.002e-03   |deigs|: 1.196e-03  t[s]:  64022.71
	FillingsUpdate:  mu: -0.126705047  nElectrons: 330.000000
SCF: Cycle: 19   F: -657.107571684748791   dF: -1.116e-05   |Residual|: 1.935e-03   |deigs|: 8.902e-04  t[s]:  64503.09
	FillingsUpdate:  mu: -0.127509801  nElectrons: 330.000000
SCF: Cycle: 20   F: -657.107572185394929   dF: -5.006e-07   |Residual|: 1.552e-03   |deigs|: 7.554e-04  t[s]:  64981.34
	FillingsUpdate:  mu: -0.128152160  nElectrons: 330.000000
SCF: Cycle: 21   F: -657.107576021783871   dF: -3.836e-06   |Residual|: 9.880e-04   |deigs|: 7.108e-04  t[s]:  65462.55
	FillingsUpdate:  mu: -0.128630565  nElectrons: 330.000000
SCF: Cycle: 22   F: -657.107579466060429   dF: -3.444e-06   |Residual|: 7.542e-04   |deigs|: 5.218e-04  t[s]:  65940.56
	FillingsUpdate:  mu: -0.129065516  nElectrons: 330.000000
SCF: Cycle: 23   F: -657.107584054397989   dF: -4.588e-06   |Residual|: 7.141e-04   |deigs|: 5.420e-04  t[s]:  66417.03
	FillingsUpdate:  mu: -0.129497642  nElectrons: 330.000000
SCF: Cycle: 24   F: -657.107586879017049   dF: -2.825e-06   |Residual|: 6.248e-04   |deigs|: 6.320e-04  t[s]:  66894.30
	FillingsUpdate:  mu: -0.129998990  nElectrons: 330.000000
SCF: Cycle: 25   F: -657.107587943169960   dF: -1.064e-06   |Residual|: 4.376e-04   |deigs|: 5.720e-04  t[s]:  67372.86
	FillingsUpdate:  mu: -0.130485882  nElectrons: 330.000000
SCF: Cycle: 26   F: -657.107588328420434   dF: -3.853e-07   |Residual|: 3.495e-04   |deigs|: 4.909e-04  t[s]:  67851.70
	FillingsUpdate:  mu: -0.130722723  nElectrons: 330.000000
SCF: Cycle: 27   F: -657.107588918619399   dF: -5.902e-07   |Residual|: 2.704e-04   |deigs|: 2.519e-04  t[s]:  68330.21
	FillingsUpdate:  mu: -0.130866250  nElectrons: 330.000000
SCF: Cycle: 28   F: -657.107588950199670   dF: -3.158e-08   |Residual|: 3.752e-04   |deigs|: 1.721e-04  t[s]:  68807.18
	FillingsUpdate:  mu: -0.130929770  nElectrons: 330.000000
SCF: Cycle: 29   F: -657.107589595678860   dF: -6.455e-07   |Residual|: 1.315e-04   |deigs|: 1.355e-04  t[s]:  69289.40
	FillingsUpdate:  mu: -0.130969036  nElectrons: 330.000000
SCF: Cycle: 30   F: -657.107589690860323   dF: -9.518e-08   |Residual|: 1.182e-04   |deigs|: 9.926e-05  t[s]:  69768.63
	FillingsUpdate:  mu: -0.130984352  nElectrons: 330.000000
SCF: Cycle: 31   F: -657.107589794664477   dF: -1.038e-07   |Residual|: 5.585e-05   |deigs|: 1.635e-04  t[s]:  70247.40
	FillingsUpdate:  mu: -0.131001254  nElectrons: 330.000000
SCF: Cycle: 32   F: -657.107589861896372   dF: -6.723e-08   |Residual|: 3.958e-05   |deigs|: 1.015e-04  t[s]:  70724.63
	FillingsUpdate:  mu: -0.131018633  nElectrons: 330.000000
SCF: Cycle: 33   F: -657.107589937031548   dF: -7.514e-08   |Residual|: 3.947e-05   |deigs|: 8.522e-05  t[s]:  71202.58
	FillingsUpdate:  mu: -0.131026795  nElectrons: 330.000000
SCF: Cycle: 34   F: -657.107589983239222   dF: -4.621e-08   |Residual|: 2.309e-05   |deigs|: 6.159e-05  t[s]:  71679.73
	FillingsUpdate:  mu: -0.131031497  nElectrons: 330.000000
SCF: Cycle: 35   F: -657.107590006285136   dF: -2.305e-08   |Residual|: 1.911e-05   |deigs|: 6.646e-05  t[s]:  72158.43
	FillingsUpdate:  mu: -0.131032053  nElectrons: 330.000000
SCF: Cycle: 36   F: -657.107590018254655   dF: -1.197e-08   |Residual|: 1.172e-05   |deigs|: 6.038e-05  t[s]:  72639.81
	FillingsUpdate:  mu: -0.131036810  nElectrons: 330.000000
SCF: Cycle: 37   F: -657.107590023839748   dF: -5.585e-09   |Residual|: 9.938e-06   |deigs|: 4.983e-05  t[s]:  73114.85
	FillingsUpdate:  mu: -0.131043241  nElectrons: 330.000000
SCF: Cycle: 38   F: -657.107590027127230   dF: -3.287e-09   |Residual|: 8.048e-06   |deigs|: 6.635e-05  t[s]:  73595.16
SCF: Converged (|Delta E|<1.000000e-08 for 2 iters).

Setting wave functions to eigenvectors of Hamiltonian

-------- Electronic minimization -----------
Will mix electronic density at each iteration.
	FillingsUpdate:  mu: -0.131043241  nElectrons: 330.000000
	FillingsUpdate:  mu: -0.077919297  nElectrons: 330.000000
SCF: Cycle:  0   F: -626.457799498731902   dF: +2.831e+01   |Residual|: 2.032e+00   |deigs|: 2.604e-02  t[s]:  74345.26
	FillingsUpdate:  mu: -0.128348083  nElectrons: 330.000000
SCF: Cycle:  1   F: -641.002672932822293   dF: -1.454e+01   |Residual|: 3.243e+00   |deigs|: 1.381e-01  t[s]:  74901.96
	FillingsUpdate:  mu: -0.123891178  nElectrons: 330.000000
SCF: Cycle:  2   F: -649.187231256383029   dF: -8.185e+00   |Residual|: 1.716e+00   |deigs|: 9.656e-02  t[s]:  75459.05
	FillingsUpdate:  mu: -0.075620106  nElectrons: 330.000000
SCF: Cycle:  3   F: -642.629486653741196   dF: +6.558e+00   |Residual|: 2.162e+00   |deigs|: 7.751e-02  t[s]:  76015.24
	FillingsUpdate:  mu: -0.081898436  nElectrons: 330.000000
SCF: Cycle:  4   F: -650.864608955958943   dF: -8.235e+00   |Residual|: 1.405e+00   |deigs|: 4.194e-02  t[s]:  76571.83
	FillingsUpdate:  mu: -0.115128646  nElectrons: 330.000000
SCF: Cycle:  5   F: -653.705436958176506   dF: -2.841e+00   |Residual|: 1.067e+00   |deigs|: 2.824e-02  t[s]:  77125.89
	FillingsUpdate:  mu: -0.112646243  nElectrons: 330.000000
SCF: Cycle:  6   F: -655.423859406600855   dF: -1.718e+00   |Residual|: 7.205e-01   |deigs|: 1.135e-02  t[s]:  77679.93
	FillingsUpdate:  mu: -0.112695498  nElectrons: 330.000000
SCF: Cycle:  7   F: -655.444004451033379   dF: -2.015e-02   |Residual|: 7.149e-01   |deigs|: 1.716e-04  t[s]:  78219.86
	FillingsUpdate:  mu: -0.093274970  nElectrons: 330.000000
SCF: Cycle:  8   F: -655.108843380280518   dF: +3.352e-01   |Residual|: 7.719e-01   |deigs|: 1.425e-02  t[s]:  78778.55
	FillingsUpdate:  mu: -0.095307787  nElectrons: 330.000000
SCF: Cycle:  9   F: -655.661724364882389   dF: -5.529e-01   |Residual|: 6.647e-01   |deigs|: 9.933e-04  t[s]:  79335.21
	FillingsUpdate:  mu: -0.099475804  nElectrons: 330.000000
SCF: Cycle: 10   F: -656.508097669169274   dF: -8.464e-01   |Residual|: 4.756e-01   |deigs|: 2.166e-03  t[s]:  79895.88
	FillingsUpdate:  mu: -0.113595445  nElectrons: 330.000000
SCF: Cycle: 11   F: -656.295445216178791   dF: +2.127e-01   |Residual|: 5.526e-01   |deigs|: 7.872e-03  t[s]:  80452.15
	FillingsUpdate:  mu: -0.103755278  nElectrons: 330.000000
SCF: Cycle: 12   F: -656.977979216679387   dF: -6.825e-01   |Residual|: 2.138e-01   |deigs|: 6.567e-03  t[s]:  81006.08
	FillingsUpdate:  mu: -0.107194570  nElectrons: 330.000000
SCF: Cycle: 13   F: -657.123467195331045   dF: -1.455e-01   |Residual|: 1.513e-01   |deigs|: 1.793e-03  t[s]:  81566.03
	FillingsUpdate:  mu: -0.108089784  nElectrons: 330.000000
SCF: Cycle: 14   F: -657.113025093777992   dF: +1.044e-02   |Residual|: 1.520e-01   |deigs|: 4.497e-04  t[s]:  81884.73
	FillingsUpdate:  mu: -0.113097685  nElectrons: 330.000000
SCF: Cycle: 15   F: -656.818018986573861   dF: +2.950e-01   |Residual|: 3.432e-01   |deigs|: 2.745e-03  t[s]:  82445.60
	FillingsUpdate:  mu: -0.111498307  nElectrons: 330.000000
SCF: Cycle: 16   F: -657.120258713214866   dF: -3.022e-01   |Residual|: 6.357e-02   |deigs|: 2.712e-03  t[s]:  83000.10
	FillingsUpdate:  mu: -0.112831220  nElectrons: 330.000000
SCF: Cycle: 17   F: -657.135351572359696   dF: -1.509e-02   |Residual|: 1.243e-02   |deigs|: 2.148e-03  t[s]:  83491.54
	FillingsUpdate:  mu: -0.115751196  nElectrons: 330.000000
SCF: Cycle: 18   F: -657.114182759209370   dF: +2.117e-02   |Residual|: 8.333e-02   |deigs|: 3.779e-03  t[s]:  83983.70
	FillingsUpdate:  mu: -0.118014054  nElectrons: 330.000000
SCF: Cycle: 19   F: -657.129347075675469   dF: -1.516e-02   |Residual|: 5.163e-02   |deigs|: 1.570e-03  t[s]:  84461.94
	FillingsUpdate:  mu: -0.122791734  nElectrons: 330.000000
SCF: Cycle: 20   F: -657.137937924280209   dF: -8.591e-03   |Residual|: 1.729e-02   |deigs|: 3.311e-03  t[s]:  84944.55
	FillingsUpdate:  mu: -0.124518958  nElectrons: 330.000000
SCF: Cycle: 21   F: -657.138738154245402   dF: -8.002e-04   |Residual|: 6.434e-03   |deigs|: 1.626e-03  t[s]:  85422.73
	FillingsUpdate:  mu: -0.126313264  nElectrons: 330.000000
SCF: Cycle: 22   F: -657.138770212250392   dF: -3.206e-05   |Residual|: 4.480e-03   |deigs|: 1.368e-03  t[s]:  85900.01
	FillingsUpdate:  mu: -0.127724348  nElectrons: 330.000000
SCF: Cycle: 23   F: -657.138778886973114   dF: -8.675e-06   |Residual|: 3.759e-03   |deigs|: 1.176e-03  t[s]:  86376.54
	FillingsUpdate:  mu: -0.128974948  nElectrons: 330.000000
SCF: Cycle: 24   F: -657.138812697929438   dF: -3.381e-05   |Residual|: 1.795e-03   |deigs|: 1.116e-03  t[s]:  86853.74
	FillingsUpdate:  mu: -0.130398214  nElectrons: 330.000000
SCF: Cycle: 25   F: -657.138816674368968   dF: -3.976e-06   |Residual|: 1.535e-03   |deigs|: 1.521e-03  t[s]:  87330.56
	FillingsUpdate:  mu: -0.131021576  nElectrons: 330.000000
SCF: Cycle: 26   F: -657.138821968756019   dF: -5.294e-06   |Residual|: 2.021e-03   |deigs|: 7.139e-04  t[s]:  87807.37
	FillingsUpdate:  mu: -0.131702541  nElectrons: 330.000000
SCF: Cycle: 27   F: -657.138839625144783   dF: -1.766e-05   |Residual|: 1.175e-03   |deigs|: 7.888e-04  t[s]:  88284.71
	FillingsUpdate:  mu: -0.132449113  nElectrons: 330.000000
SCF: Cycle: 28   F: -657.138843791630848   dF: -4.166e-06   |Residual|: 1.179e-03   |deigs|: 9.483e-04  t[s]:  88763.86
	FillingsUpdate:  mu: -0.132973036  nElectrons: 330.000000
SCF: Cycle: 29   F: -657.138847724484322   dF: -3.933e-06   |Residual|: 6.555e-04   |deigs|: 6.182e-04  t[s]:  89241.95
	FillingsUpdate:  mu: -0.133480381  nElectrons: 330.000000
SCF: Cycle: 30   F: -657.138849597676654   dF: -1.873e-06   |Residual|: 5.993e-04   |deigs|: 4.542e-04  t[s]:  89719.26
	FillingsUpdate:  mu: -0.133800677  nElectrons: 330.000000
SCF: Cycle: 31   F: -657.138849979308816   dF: -3.816e-07   |Residual|: 6.985e-04   |deigs|: 2.797e-04  t[s]:  90194.93
	FillingsUpdate:  mu: -0.134013307  nElectrons: 330.000000
SCF: Cycle: 32   F: -657.138850401712375   dF: -4.224e-07   |Residual|: 6.135e-04   |deigs|: 2.865e-04  t[s]:  90671.36
	FillingsUpdate:  mu: -0.134052553  nElectrons: 330.000000
SCF: Cycle: 33   F: -657.138851769891858   dF: -1.368e-06   |Residual|: 1.503e-04   |deigs|: 1.500e-04  t[s]:  91148.47
	FillingsUpdate:  mu: -0.134082101  nElectrons: 330.000000
SCF: Cycle: 34   F: -657.138851985987912   dF: -2.161e-07   |Residual|: 1.213e-04   |deigs|: 1.333e-04  t[s]:  91629.05
	FillingsUpdate:  mu: -0.134123953  nElectrons: 330.000000
SCF: Cycle: 35   F: -657.138852233112971   dF: -2.471e-07   |Residual|: 6.933e-05   |deigs|: 1.641e-04  t[s]:  92108.84
	FillingsUpdate:  mu: -0.134158042  nElectrons: 330.000000
SCF: Cycle: 36   F: -657.138852351644573   dF: -1.185e-07   |Residual|: 7.330e-05   |deigs|: 1.126e-04  t[s]:  92584.93
	FillingsUpdate:  mu: -0.134189173  nElectrons: 330.000000
SCF: Cycle: 37   F: -657.138852430278916   dF: -7.863e-08   |Residual|: 7.307e-05   |deigs|: 1.354e-04  t[s]:  93062.82
	FillingsUpdate:  mu: -0.134212095  nElectrons: 330.000000
SCF: Cycle: 38   F: -657.138852471886253   dF: -4.161e-08   |Residual|: 4.204e-05   |deigs|: 1.704e-04  t[s]:  93541.41
	FillingsUpdate:  mu: -0.134229534  nElectrons: 330.000000
SCF: Cycle: 39   F: -657.138852487441000   dF: -1.555e-08   |Residual|: 2.139e-05   |deigs|: 1.282e-04  t[s]:  94022.89
	FillingsUpdate:  mu: -0.134235823  nElectrons: 330.000000
SCF: Cycle: 40   F: -657.138852494627145   dF: -7.186e-09   |Residual|: 2.542e-05   |deigs|: 6.556e-05  t[s]:  94502.29
	FillingsUpdate:  mu: -0.134238033  nElectrons: 330.000000
SCF: Cycle: 41   F: -657.138852500703592   dF: -6.076e-09   |Residual|: 1.259e-05   |deigs|: 4.815e-05  t[s]:  94979.66
SCF: Converged (|Delta E|<1.000000e-08 for 2 iters).

Setting wave functions to eigenvectors of Hamiltonian

# Ionic positions in cartesian coordinates:
ion C   0.000000000000000   0.000000000000000   1.000001652210000 0
ion C  -2.333831667840000   4.042310104620000   1.000001652210000 0
ion C  11.669128103520002  20.211535405260001   1.000001652210000 0
ion C   4.667680343250000   0.000000000000000   1.000001652210000 0
ion C  23.338288332449999   0.000000000000000   1.000001652210000 0
ion C   2.333822219190000   4.042310104620000   1.000001652210000 0
ion C -11.669150780279999  20.211535405260001   1.000001652210000 0
ion C  -4.667665225410000   8.084622098970000   1.000001652210000 0
ion C   9.335305884329998  16.169223410910003   1.000001652210000 0
ion C   9.335322891900001   0.000000000000000   1.000001652210000 0
ion C  18.670626886499999   0.000000000000000   1.000001652210000 0
ion C  -9.335317222710001  16.169223410910003   1.000001652210000 0
ion C  -7.001485554870001  12.126913306290001   1.000001652210000 0
ion C  14.002984337850000   0.000000000000000   1.000001652210000 0
ion C   0.000000000000000   8.084622098970000   1.000001652210000 0
ion C   7.001485554870005  20.211535405260001   1.000001652210000 0
ion C  -7.001481775409998  20.211535405260001   1.000001652210000 0
ion C  -2.333822219190001  12.126913306290001   1.000001652210000 0
ion C   4.667663335680000  16.169223410910003   1.000001652210000 0
ion C  -2.333820329459998  20.211535405260001   1.000001652210000 0
ion C   2.333824108920002  20.211535405260001   1.000001652210000 0
ion C  -4.667659556220002  16.169223410910003   1.000001652210000 0
ion C   7.001483665139999   4.042310104620000   1.000001652210000 0
ion C  21.004430208390001   4.042310104620000   1.000001652210000 0
ion C  14.002948432979998  16.169223410910003   1.000001652210000 0
ion C   0.000001889729997  16.169223410910003   1.000001652210000 0
ion C  11.669126213789999   4.042310104620000   1.000001652210000 0
ion C  18.670609878930001   8.084622098970000   1.000001652210000 0
ion C  11.669126213789998  12.126913306290001   1.000001652210000 0
ion C  16.336787659739997  12.126913306290001   1.000001652210000 0
ion C  16.336789549470002   4.042310104620000   1.000001652210000 0
ion C   9.335303994600000   8.084622098970000   1.000001652210000 0
ion C  14.002948432980002   8.084622098970000   1.000001652210000 0
ion C   0.000000000000000   2.694874032990001   1.000001652210000 0
ion C  11.669128103520000  22.906390540950003   1.000001652210000 0
ion C -11.669124324059998  22.906390540950003   1.000001652210000 0
ion C  -2.333822219189999   6.737165240310001   1.000001652210000 0
ion C   9.335305884330001  18.864097443900004   1.000001652210000 0
ion C  -7.001481775409998  22.906390540950003   1.000001652210000 0
ion C   7.001485554870003  22.906390540950003   1.000001652210000 0
ion C   2.333822219190001   6.737165240310001   1.000001652210000 0
ion C  -9.335302104869999  18.864097443900004   1.000001652210000 0
ion C  -4.667661445950000  10.779477234660002   1.000001652210000 0
ion C  -2.333820329460000  22.906390540950003   1.000001652210000 0
ion C   2.333824108920002  22.906390540950003   1.000001652210000 0
ion C  -7.001483665140000  14.821787339280002   1.000001652210000 0
ion C   4.667661445950001   2.694874032990001   1.000001652210000 0
ion C  23.338269435150000   2.694874032990001   1.000001652210000 0
ion C  14.002967330280001  18.864097443900004   1.000001652210000 0
ion C   0.000000000000000  10.779477234660002   1.000001652210000 0
ion C   4.667663335679999  18.864097443900004   1.000001652210000 0
ion C  -4.667640658920000  18.864097443900004   1.000001652210000 0
ion C  -2.333822219190001  14.821787339280002   1.000001652210000 0
ion C   2.333824108919998  14.821787339280002   1.000001652210000 0
ion C   0.000001889729999  18.864097443900004   1.000001652210000 0
ion C   9.335303994599998   2.694874032990001   1.000001652210000 0
ion C  21.004430208390005   6.737165240310001   1.000001652210000 0
ion C  11.669126213790001  14.821787339280002   1.000001652210000 0
ion C  16.336789549469998  14.821787339280002   1.000001652210000 0
ion C  18.670609878930001   2.694874032990001   1.000001652210000 0
ion C   7.001483665140000   6.737165240310001   1.000001652210000 0
ion C  14.002946543249999   2.694874032990001   1.000001652210000 0
ion C  18.670607989200004  10.779477234660002   1.000001652210000 0
ion C  11.669126213789999   6.737165240310001   1.000001652210000 0
ion C  16.336787659740004   6.737165240310001   1.000001652210000 0
ion C  14.002946543250001  10.779477234660002   1.000001652210000 0
ion N   4.667661445950002   8.084622098970000   1.000001652210000 0
ion N   2.333822219190000  12.126913306290001   1.000001652210000 0
ion N   7.001485554869999  14.821787339280002   1.000001652210000 0
ion N   9.335305884330001  10.779477234660002   1.000001652210000 0
ion Fe   5.837109518070000  11.454309266310000   1.000001652210000 0
ion S   9.243924892657944  10.261717349824282   6.610346497428394 1
ion S   6.022399989542194  12.261241782866071   5.533739182561055 1
ion Na   9.995010159100966  14.912511077718477   6.684132352937588 1
ion Na   5.245718212413030   7.882468166327240   6.443187385095609 1

# Forces in Cartesian coordinates:
force C   0.004024187218711  -0.000188002575809  -0.000046005110798 0
force C   0.000998521090911  -0.001017438414550  -0.000080800997523 0
force C   0.003470226388783  -0.001264236349044  -0.000040845392406 0
force C   0.001057308578108   0.002561602244875   0.000062281997127 0
force C   0.001911445106066   0.000103359515962   0.000010092224181 0
force C   0.004252028941028   0.001375463735755   0.000280900586265 0
force C   0.000752719312727  -0.000144880339277   0.000095838806289 0
force C  -0.000461643869220   0.001676683322274  -0.000018962190673 0
force C  -0.037580877618104  -0.014553756647879   0.000990197190164 0
force C  -0.001153315653873   0.000225238775148  -0.000040099439163 0
force C  -0.000915130697665  -0.000188456758557  -0.000005223909646 0
force C   0.000088966413417   0.001237493200439  -0.000018211020346 0
force C   0.001765116074781   0.003398218259795  -0.000021905590686 0
force C  -0.000705702521069  -0.000223613458363  -0.000028659059666 0
force C   0.010736328091179   0.006492011882555   0.000614995255642 0
force C   0.001851944967418   0.002793322260488  -0.000195062484159 0
force C   0.001322689185928   0.000804499196099  -0.000014543820171 0
force C   0.003679112571087   0.003614562050985   0.000202808878523 0
force C   0.031138217709416   0.008813764597847  -0.000913444325901 0
force C  -0.000314529209089  -0.000811562530579  -0.000047299022527 0
force C  -0.002602697758708   0.000519757127225  -0.000017952882729 0
force C   0.002435620026643  -0.000053762450488  -0.000017780990387 0
force C   0.005959858438080   0.004688160382070   0.000312521493717 0
force C   0.001167795338127   0.001046396565534  -0.000034505505265 0
force C   0.000385041483898  -0.000281363131192   0.000365977437880 0
force C   0.006903445603673   0.001836006151076   0.000267520292607 0
force C  -0.000881863057315  -0.001592789354255  -0.000145314115985 0
force C   0.000557391506526   0.001954388963135  -0.000015173213561 0
force C  -0.031195295826676  -0.026077130296279  -0.002417782277483 0
force C  -0.000381700909434   0.003428167966292  -0.000069086971378 0
force C  -0.000975879628399  -0.000019767183871  -0.000017733591375 0
force C   0.024277013786093   0.025028890619123  -0.000628226648122 0
force C   0.002233379982379   0.001116845780245   0.000193483448746 0
force C  -0.003783432173583   0.001744650161208   0.000000613878580 0
force C  -0.003922128193322   0.000379818947717   0.000042598020608 0
force C  -0.002262522675398  -0.000030512253892  -0.000024655742840 0
force C   0.001084396361073   0.000606591534978   0.000009738645654 0
force C  -0.005300241505484  -0.000180686088846   0.001136407880398 0
force C   0.001050697204841   0.000199487994805  -0.000039049718061 0
force C  -0.000949892646319  -0.002343221756290  -0.000062577125816 0
force C   0.029960717627880   0.012683101936798   0.000347893482552 0
force C  -0.001259119775294  -0.001232909720238  -0.000051783535858 0
force C   0.000193357521900  -0.003804487596983  -0.000062012735380 0
force C   0.000833212060105   0.000191137108845  -0.000033013174631 0
force C   0.001024988345926  -0.000298716380288  -0.000053418186440 0
force C  -0.000588906717094  -0.002011868623797  -0.000002321794478 0
force C  -0.002680920429853  -0.003800486679220  -0.000088246718984 0
force C  -0.000515666631093   0.000263326420688   0.000036412359394 0
force C  -0.000515091275234   0.001578106397018  -0.000045343623531 0
force C   0.030057335967112   0.023327973100694  -0.000015868866712 0
force C  -0.005220825797428  -0.005322127612655   0.000576157009701 0
force C   0.000779487277196   0.000115645355684  -0.000002157964579 0
force C  -0.002986746712202  -0.001331388628589  -0.000118217594059 0
force C  -0.023026457688286  -0.022233793534726   0.000550592048357 0
force C   0.000982005232296   0.002298272998761  -0.000071204029060 0
force C   0.003113280776286  -0.000821249445031   0.000232617733572 0
force C   0.000238783133124  -0.000941976472404  -0.000005902482856 0
force C  -0.009727836666763  -0.008222151544452   0.002293580073038 0
force C   0.000673202529489  -0.001844486450747   0.000021266473053 0
force C  -0.000999291296915  -0.000821778497900  -0.000029493252218 0
force C  -0.025628538229942  -0.010636500433086  -0.000145359549474 0
force C   0.000524493103317   0.000749988771818  -0.000007978275869 0
force C  -0.001614274850503  -0.003462510731884   0.000034337228772 0
force C  -0.006612368661070  -0.002104077780826  -0.000276914408075 0
force C  -0.002474492014892   0.000025124668504  -0.000087510174507 0
force C  -0.004120105819381  -0.003258667651753   0.000349589821302 0
force N   0.025641003499618  -0.028726565018313  -0.003576292558357 0
force N  -0.016480810672342   0.038486061229036  -0.008759951428035 0
force N  -0.025545960627837   0.037085340561150  -0.020053250486542 0
force N   0.017013319119546  -0.039402951060195  -0.017252267574096 0
force Fe   0.000058563173640   0.010577077743663   0.040991021984258 0
force S   0.011556731693703  -0.005433161663437   0.020575986889288 1
force S  -0.004285049019429   0.007553374496295  -0.012922926800594 1
force Na   0.006678575590822   0.012054160979747  -0.003688131075907 1
force Na  -0.014157843536290  -0.027802652445730  -0.000566309416748 1

# Energy components:
   Eewald =    -1226.0509025545677559
       EH =     -705.4925070663174438
     Eloc =     1214.8684303712466317
      Enl =      -62.2672954474263634
      Exc =     -167.8669845515094323
 Exc_core =        6.8981144537920009
       KE =      282.8454322464700681
-------------------------------------
     Etot =     -657.0657125483121490
       TS =        0.0731399523914253
-------------------------------------
        F =     -657.1388525007035923

IonicMinimize: Iter:   1  F: -657.138852500703592  |grad|_K:  1.293e-02  alpha:  1.616e+01  linmin: -1.056e-01  t[s]:  95081.24

#--- Lowdin population analysis ---
[...]
force C   0.003923702041940   0.003612565534017   0.000208369289121 0
force C   0.029408232860168   0.009522105361201   0.000301865281817 0
force C  -0.000396091767730  -0.000587817685989  -0.000034781564350 0
force C  -0.002595837432226   0.000244537239962  -0.000008319555943 0
force C   0.001957469109806  -0.000219478542611  -0.000008818721636 0
force C   0.007307625398368   0.003173599504461   0.000357075689938 0
force C   0.001287527130979   0.001126281700789  -0.000019850611484 0
force C   0.003030036331234   0.001436079997028   0.000400522651521 0
force C   0.006235322281266   0.002145260297543   0.000307096067974 0
force C  -0.000801563419355  -0.001222157576990  -0.000105378666130 0
force C   0.000858156607635   0.002081588305757   0.000003973272430 0
force C  -0.027202400749111  -0.025670107181730  -0.001976229747006 0
force C  -0.000160848150443   0.003220481399508  -0.000095609863107 0
force C  -0.001218236450939  -0.000139592034202  -0.000011806099503 0
force C   0.023101536702484   0.022023815581054   0.000784864309998 0
force C   0.002967403005961   0.000363540622594  -0.000124873213980 0
force C  -0.005050984066568   0.001097937445393   0.000257835694337 0
force C  -0.004047809738493   0.000190226126243   0.000040783259669 0
force C  -0.002302736874967  -0.000431059246013  -0.000060956465933 0
force C   0.000821727711174   0.000738730479586  -0.000039315467685 0
force C  -0.004703145435146   0.000243807981349   0.000529642840049 0
force C   0.001047493458817   0.000382024485717  -0.000072532621910 0
force C  -0.000611900868417  -0.002438734630932  -0.000024922553003 0
force C   0.029527198759121   0.015110848725975  -0.001248855582584 0
force C  -0.001433942717669  -0.001339348959634  -0.000032332181192 0
force C   0.000164338274423  -0.003751717703112  -0.000059295843551 0
force C   0.000621903137977   0.000001161827761  -0.000019847072495 0
force C   0.000970469559551  -0.000158125003319  -0.000041640295120 0
force C  -0.000348608186972  -0.001708470623070   0.000005389855059 0
force C  -0.001528462786378  -0.005021535089632   0.000215462276477 0
force C  -0.000546703794838   0.000148454042561   0.000041795662685 0
force C  -0.000867974506774   0.000956905172295  -0.000120839641838 0
force C   0.030630561636556   0.023500730770432   0.000030997278353 0
force C  -0.005473941469645  -0.005558009720782   0.000206684883771 0
force C   0.000673192354223   0.000257957876507   0.000005204406542 0
force C  -0.002508853858703  -0.001363274466065  -0.000101125324470 0
force C  -0.022666643369396  -0.022858668153707   0.000596549227516 0
force C   0.001192953632651   0.002049918285142  -0.000038360963869 0
force C   0.003014219232651  -0.000782346878376   0.000396583506554 0
force C   0.000168852856668  -0.000902615762515   0.000002333829253 0
force C  -0.010636291551419  -0.006273354373761   0.000839906681621 0
force C  -0.000061559190519  -0.001165003299156  -0.000158170920429 0
force C  -0.001000920433666  -0.001115367018939  -0.000021737110493 0
force C  -0.025294461671183  -0.006735653893869  -0.001481802638497 0
force C   0.000675121726651   0.000765498885761  -0.000047636511201 0
force C  -0.001503517026157  -0.003766543876210   0.000045242364983 0
force C  -0.006888272170168  -0.002443846587199  -0.000058602388510 0
force C  -0.002744330892700   0.000211297165545  -0.000054417458589 0
force C  -0.002016314646601  -0.003856939644089   0.000582682528624 0
force N   0.026765294479748  -0.031801446776603  -0.013243597458738 0
force N  -0.018553113639816   0.040708072134980  -0.012470254709766 0
force N  -0.026287562046669   0.033043546976160  -0.011168933828650 0
force N   0.013850374221191  -0.039981202448971  -0.009338660759500 0
force Fe  -0.001693843663087  -0.001614457495480   0.044339728839309 0
force S   0.000117901570754   0.000102873459157   0.000109389217789 1
force S  -0.000097606380837   0.000137936162104  -0.000244286679769 1
force Na  -0.000013277287781   0.000023526755931  -0.000061100401402 1
force Na  -0.000084758628435  -0.000092977302102  -0.000003763006870 1

# Energy components:
   Eewald =    -1197.6125437259113369
       EH =     -680.0082058974343227
     Eloc =     1160.9131250164141420
      Enl =      -62.2447959677886757
      Exc =     -167.8561141206298544
 Exc_core =        6.8981127512516904
       KE =      282.8135022833415064
-------------------------------------
     Etot =     -657.0969196607568392
       TS =        0.0715148893559765
-------------------------------------
        F =     -657.1684345501128064

IonicMinimize: Iter:  30  F: -657.168434550112806  |grad|_K:  1.099e-04  alpha:  7.036e+00  linmin:  2.947e-05  t[s]: 672164.09

#--- Lowdin population analysis ---
# oxidation-state C +0.038 +0.029 +0.029 +0.027 +0.035 -0.016 +0.032 +0.031 +0.095 +0.036 +0.037 +0.034 +0.042 +0.039 -0.003 +0.042 +0.040 +0.026 +0.123 +0.039 +0.033 +0.034 +0.002 +0.044 +0.032 +0.035 +0.033 +0.036 +0.093 +0.030 +0.037 +0.127 +0.043 +0.025 +0.039 +0.031 +0.044 +0.013 +0.034 +0.033 +0.091 +0.044 +0.036 +0.038 +0.038 +0.036 +0.010 +0.034 +0.025 +0.143 +0.032 +0.037 +0.047 +0.124 +0.034 +0.029 +0.036 -0.051 +0.026 +0.042 +0.087 +0.039 +0.041 +0.037 +0.036 +0.016
# oxidation-state N -0.157 -0.122 -0.144 -0.145
# oxidation-state Fe -0.009
# oxidation-state S -0.522 -0.099
# oxidation-state Na +0.847 +0.846


-------- Electronic minimization -----------
Will mix electronic density at each iteration.
	FillingsUpdate:  mu: -0.143190125  nElectrons: 330.000000
	FillingsUpdate:  mu: -0.143229473  nElectrons: 330.000000
SCF: Cycle:  0   F: -657.168424558243714   dF: +9.402e-06   |Residual|: 1.768e-03   |deigs|: 6.925e-08  t[s]: 672685.10
	FillingsUpdate:  mu: -0.142983295  nElectrons: 330.000000
SCF: Cycle:  1   F: -657.167777373116337   dF: +6.472e-04   |Residual|: 1.470e-02   |deigs|: 1.557e-04  t[s]: 673004.40
	FillingsUpdate:  mu: -0.143199814  nElectrons: 330.000000
SCF: Cycle:  2   F: -657.168435005017386   dF: -6.576e-04   |Residual|: 3.225e-04   |deigs|: 1.373e-04  t[s]: 673325.01
	FillingsUpdate:  mu: -0.143202072  nElectrons: 330.000000
SCF: Cycle:  3   F: -657.168435228774342   dF: -2.238e-07   |Residual|: 5.394e-05   |deigs|: 2.881e-06  t[s]: 673639.41
	FillingsUpdate:  mu: -0.143202412  nElectrons: 330.000000
SCF: Cycle:  4   F: -657.168435231965645   dF: -3.191e-09   |Residual|: 5.029e-05   |deigs|: 2.381e-06  t[s]: 673962.11
	FillingsUpdate:  mu: -0.143201516  nElectrons: 330.000000
SCF: Cycle:  5   F: -657.168435238632128   dF: -6.666e-09   |Residual|: 1.917e-05   |deigs|: 2.890e-06  t[s]: 674433.66
SCF: Converged (|Delta E|<1.000000e-08 for 2 iters).

Setting wave functions to eigenvectors of Hamiltonian

-------- Electronic minimization -----------
Will mix electronic density at each iteration.
	FillingsUpdate:  mu: -0.143201516  nElectrons: 330.000000
	FillingsUpdate:  mu: -0.143211907  nElectrons: 330.000000
SCF: Cycle:  0   F: -657.168433308759404   dF: +1.590e-06   |Residual|: 7.672e-04   |deigs|: 1.994e-08  t[s]: 674973.49
	FillingsUpdate:  mu: -0.143106893  nElectrons: 330.000000
SCF: Cycle:  1   F: -657.168315697003777   dF: +1.176e-04   |Residual|: 6.277e-03   |deigs|: 6.678e-05  t[s]: 675294.89
	FillingsUpdate:  mu: -0.143199033  nElectrons: 330.000000
SCF: Cycle:  2   F: -657.168435294146775   dF: -1.196e-04   |Residual|: 1.537e-04   |deigs|: 5.875e-05  t[s]: 675614.87
	FillingsUpdate:  mu: -0.143200334  nElectrons: 330.000000
SCF: Cycle:  3   F: -657.168435337918709   dF: -4.377e-08   |Residual|: 2.778e-05   |deigs|: 1.188e-06  t[s]: 675918.06
	FillingsUpdate:  mu: -0.143200364  nElectrons: 330.000000
SCF: Cycle:  4   F: -657.168435338228051   dF: -3.093e-10   |Residual|: 2.261e-05   |deigs|: 5.701e-07  t[s]: 676236.29
	FillingsUpdate:  mu: -0.143199991  nElectrons: 330.000000
SCF: Cycle:  5   F: -657.168435340001452   dF: -1.773e-09   |Residual|: 6.803e-06   |deigs|: 5.935e-07  t[s]: 676707.43
SCF: Converged (|Delta E|<1.000000e-08 for 2 iters).

Setting wave functions to eigenvectors of Hamiltonian

# Ionic positions in cartesian coordinates:
ion C   0.000000000000000   0.000000000000000   1.000001652210000 0
ion C  -2.333831667840000   4.042310104620000   1.000001652210000 0
ion C  11.669128103520002  20.211535405260001   1.000001652210000 0
ion C   4.667680343250000   0.000000000000000   1.000001652210000 0
ion C  23.338288332449999   0.000000000000000   1.000001652210000 0
ion C   2.333822219190000   4.042310104620000   1.000001652210000 0
ion C -11.669150780279999  20.211535405260001   1.000001652210000 0
ion C  -4.667665225410000   8.084622098970000   1.000001652210000 0
ion C   9.335305884329998  16.169223410910003   1.000001652210000 0
ion C   9.335322891900001   0.000000000000000   1.000001652210000 0
ion C  18.670626886499999   0.000000000000000   1.000001652210000 0
ion C  -9.335317222710001  16.169223410910003   1.000001652210000 0
ion C  -7.001485554870001  12.126913306290001   1.000001652210000 0
ion C  14.002984337850000   0.000000000000000   1.000001652210000 0
ion C   0.000000000000000   8.084622098970000   1.000001652210000 0
ion C   7.001485554870005  20.211535405260001   1.000001652210000 0
ion C  -7.001481775409998  20.211535405260001   1.000001652210000 0
ion C  -2.333822219190001  12.126913306290001   1.000001652210000 0
ion C   4.667663335680000  16.169223410910003   1.000001652210000 0
ion C  -2.333820329459998  20.211535405260001   1.000001652210000 0
ion C   2.333824108920002  20.211535405260001   1.000001652210000 0
ion C  -4.667659556220002  16.169223410910003   1.000001652210000 0
ion C   7.001483665139999   4.042310104620000   1.000001652210000 0
ion C  21.004430208390001   4.042310104620000   1.000001652210000 0
ion C  14.002948432979998  16.169223410910003   1.000001652210000 0
ion C   0.000001889729997  16.169223410910003   1.000001652210000 0
ion C  11.669126213789999   4.042310104620000   1.000001652210000 0
ion C  18.670609878930001   8.084622098970000   1.000001652210000 0
ion C  11.669126213789998  12.126913306290001   1.000001652210000 0
ion C  16.336787659739997  12.126913306290001   1.000001652210000 0
ion C  16.336789549470002   4.042310104620000   1.000001652210000 0
ion C   9.335303994600000   8.084622098970000   1.000001652210000 0
ion C  14.002948432980002   8.084622098970000   1.000001652210000 0
ion C   0.000000000000000   2.694874032990001   1.000001652210000 0
ion C  11.669128103520000  22.906390540950003   1.000001652210000 0
ion C -11.669124324059998  22.906390540950003   1.000001652210000 0
ion C  -2.333822219189999   6.737165240310001   1.000001652210000 0
ion C   9.335305884330001  18.864097443900004   1.000001652210000 0
ion C  -7.001481775409998  22.906390540950003   1.000001652210000 0
ion C   7.001485554870003  22.906390540950003   1.000001652210000 0
ion C   2.333822219190001   6.737165240310001   1.000001652210000 0
ion C  -9.335302104869999  18.864097443900004   1.000001652210000 0
ion C  -4.667661445950000  10.779477234660002   1.000001652210000 0
ion C  -2.333820329460000  22.906390540950003   1.000001652210000 0
ion C   2.333824108920002  22.906390540950003   1.000001652210000 0
ion C  -7.001483665140000  14.821787339280002   1.000001652210000 0
ion C   4.667661445950001   2.694874032990001   1.000001652210000 0
ion C  23.338269435150000   2.694874032990001   1.000001652210000 0
ion C  14.002967330280001  18.864097443900004   1.000001652210000 0
ion C   0.000000000000000  10.779477234660002   1.000001652210000 0
ion C   4.667663335679999  18.864097443900004   1.000001652210000 0
ion C  -4.667640658920000  18.864097443900004   1.000001652210000 0
ion C  -2.333822219190001  14.821787339280002   1.000001652210000 0
ion C   2.333824108919998  14.821787339280002   1.000001652210000 0
ion C   0.000001889729999  18.864097443900004   1.000001652210000 0
ion C   9.335303994599998   2.694874032990001   1.000001652210000 0
ion C  21.004430208390005   6.737165240310001   1.000001652210000 0
ion C  11.669126213790001  14.821787339280002   1.000001652210000 0
ion C  16.336789549469998  14.821787339280002   1.000001652210000 0
ion C  18.670609878930001   2.694874032990001   1.000001652210000 0
ion C   7.001483665140000   6.737165240310001   1.000001652210000 0
ion C  14.002946543249999   2.694874032990001   1.000001652210000 0
ion C  18.670607989200004  10.779477234660002   1.000001652210000 0
ion C  11.669126213789999   6.737165240310001   1.000001652210000 0
ion C  16.336787659740004   6.737165240310001   1.000001652210000 0
ion C  14.002946543250001  10.779477234660002   1.000001652210000 0
ion N   4.667661445950002   8.084622098970000   1.000001652210000 0
ion N   2.333822219190000  12.126913306290001   1.000001652210000 0
ion N   7.001485554869999  14.821787339280002   1.000001652210000 0
ion N   9.335305884330001  10.779477234660002   1.000001652210000 0
ion Fe   5.837109518070000  11.454309266310000   1.000001652210000 0
ion S   7.957604673169124   9.423868455096345   7.495348778892334 1
ion S   5.308434964707287  11.504392524866081   5.410570763127735 1
ion Na   9.967039672232293  13.622734525507777   5.646456644863497 1
ion Na   4.547646257979581   6.275969280048051   5.672060951751368 1

# Forces in Cartesian coordinates:
force C   0.003885448971360  -0.000276747292958  -0.000080203657975 0
force C   0.000950376358951  -0.001033193942197  -0.000183874791926 0
force C   0.003013035787735  -0.001510212953595  -0.000071349469386 0
force C   0.001133146800971   0.001470631779427   0.000233797064726 0
force C   0.001763340990225  -0.000093679970962   0.000004209413939 0
force C   0.003082954747796   0.001064230809461   0.001244355392930 0
force C   0.000880348734353  -0.000059124061232   0.000051309369298 0
force C  -0.000398913072781   0.001693372086057   0.000011732913097 0
force C  -0.036338764285907  -0.011456744342338  -0.000768516282317 0
force C  -0.000984500870670  -0.000075774314700  -0.000095170863671 0
force C  -0.001036004491017  -0.000034381383944  -0.000003002877314 0
force C   0.000367761282213   0.001436685596284   0.000031778638287 0
force C   0.001906694477331   0.003247688785713  -0.000014617818618 0
force C  -0.000427184042848  -0.000170419734043  -0.000014260259564 0
force C   0.009949058579908   0.007280465164130   0.001021689646931 0
force C   0.002316501244440   0.002514347213506  -0.000207143700774 0
force C   0.001480728917247   0.000542935784734  -0.000004712117231 0
force C   0.003919279861411   0.003611850248745   0.000209806155697 0
force C   0.029416447284065   0.009517675473087   0.000296967250646 0
force C  -0.000398486176440  -0.000586136088926  -0.000035464020701 0
force C  -0.002594944257775   0.000245862934161  -0.000010590089108 0
force C   0.001953501782280  -0.000221131155043  -0.000009187441390 0
force C   0.007311889583560   0.003170821976014   0.000357586258300 0
force C   0.001285726164576   0.001128630446546  -0.000019423642326 0
force C   0.003033912311879   0.001433778540219   0.000398829434259 0
force C   0.006228082185534   0.002147353443461   0.000306772215768 0
force C  -0.000800051091922  -0.001217759473945  -0.000102827512012 0
force C   0.000856178856947   0.002081120509411   0.000005788351281 0
force C  -0.027189693654763  -0.025672458269961  -0.001994410935028 0
force C  -0.000161368174547   0.003218051002491  -0.000093928676976 0
force C  -0.001220441718256  -0.000136947532627  -0.000010100345825 0
force C   0.023099295847638   0.022016635125172   0.000785662030020 0
force C   0.002967662809646   0.000361181491204  -0.000120661179606 0
force C  -0.005050585727889   0.001099594966430   0.000257294249815 0
force C  -0.004046233586510   0.000191460397978   0.000038381828876 0
force C  -0.002301078685805  -0.000431482101080  -0.000062224141497 0
force C   0.000815453155309   0.000736697264640  -0.000039019271607 0
force C  -0.004700497732267   0.000244695142394   0.000527274386177 0
force C   0.001049648106507   0.000383138703110  -0.000072804431661 0
force C  -0.000611632494279  -0.002433657725192  -0.000027180559751 0
force C   0.029522396432000   0.015110024838302  -0.001244025006681 0
force C  -0.001433221323002  -0.001340769561509  -0.000033162398786 0
force C   0.000162982238462  -0.003751752361238  -0.000058812499592 0
force C   0.000619964103863   0.000003152515782  -0.000019684148611 0
force C   0.000968571635661  -0.000153290566295  -0.000042641854524 0
force C  -0.000349525634400  -0.001709318659025   0.000005479856668 0
force C  -0.001524140719332  -0.005021739580534   0.000216327434412 0
force C  -0.000548703780529   0.000150472336226   0.000041377394976 0
force C  -0.000865785596208   0.000954161927083  -0.000123187131697 0
force C   0.030633502285854   0.023500387752560   0.000031195219148 0
force C  -0.005473795590989  -0.005550536380755   0.000204999133666 0
force C   0.000672454770102   0.000258771123795   0.000004766921963 0
force C  -0.002509756289387  -0.001363383137292  -0.000101768610181 0
force C  -0.022669114795116  -0.022858658727422   0.000592472174303 0
force C   0.001190317880256   0.002048826368295  -0.000039939402435 0
force C   0.003013597735867  -0.000778892129122   0.000397916683394 0
force C   0.000165876316637  -0.000900352643210   0.000003393231264 0
force C  -0.010629751524169  -0.006273542185600   0.000826092114660 0
force C  -0.000061569078972  -0.001167128049130  -0.000158554559014 0
force C  -0.001002657729327  -0.001111896073805  -0.000021228753049 0
force C  -0.025285264651636  -0.006735305159735  -0.001476106453559 0
force C   0.000676120651570   0.000767826258813  -0.000045919968175 0
force C  -0.001504957669147  -0.003768072890188   0.000046641146702 0
force C  -0.006882611005997  -0.002446858610869  -0.000055377665621 0
force C  -0.002744472745042   0.000213360627638  -0.000051829406645 0
force C  -0.002013140083299  -0.003858692069111   0.000586022065787 0
force N   0.026770542660991  -0.031808840686705  -0.013232069936512 0
force N  -0.018589130598897   0.040716814869099  -0.012515660970047 0
force N  -0.026275020377046   0.033080821833169  -0.011233050254136 0
force N   0.013869048148561  -0.039992527681332  -0.009351564075637 0
force Fe  -0.001678283168946  -0.001594692325160   0.044312735159418 0
force S  -0.000004516796069   0.000050790383347   0.000063674086477 1
force S  -0.000090070706827  -0.000050805016955  -0.000058163014188 1
force Na   0.000081581103938   0.000106485285962  -0.000055279459373 1
force Na  -0.000045654455833  -0.000028295458806  -0.000007074164394 1

# Energy components:
   Eewald =    -1197.4678722957503396
       EH =     -679.8648470788104987
     Eloc =     1160.6249302427265775
      Enl =      -62.2451509635735789
      Exc =     -167.8564271093177922
 Exc_core =        6.8981127230923933
       KE =      282.8142971594986079
-------------------------------------
     Etot =     -657.0969573221345854
       TS =        0.0714780178668285
-------------------------------------
        F =     -657.1684353400014516

IonicMinimize: Iter:  31  F: -657.168435340001452  |grad|_K:  6.104e-05  alpha:  1.117e+01  linmin:  4.613e-05  t[s]: 676809.59
IonicMinimize: Converged (|grad|_K<1.000000e-04).

#--- Lowdin population analysis ---
# oxidation-state C +0.038 +0.029 +0.029 +0.027 +0.035 -0.016 +0.032 +0.031 +0.095 +0.036 +0.037 +0.034 +0.042 +0.039 -0.003 +0.042 +0.040 +0.026 +0.123 +0.039 +0.033 +0.034 +0.002 +0.044 +0.032 +0.035 +0.033 +0.036 +0.093 +0.030 +0.037 +0.127 +0.043 +0.025 +0.039 +0.031 +0.044 +0.013 +0.034 +0.033 +0.091 +0.044 +0.036 +0.038 +0.038 +0.036 +0.010 +0.034 +0.025 +0.143 +0.032 +0.037 +0.047 +0.124 +0.034 +0.029 +0.036 -0.051 +0.026 +0.042 +0.087 +0.039 +0.041 +0.037 +0.036 +0.016
# oxidation-state N -0.157 -0.122 -0.144 -0.145
# oxidation-state Fe -0.009
# oxidation-state S -0.522 -0.098
# oxidation-state Na +0.846 +0.846


Dumping 'Na2S2@FeN4.fillings' ... done
Dumping 'Na2S2@FeN4.wfns' ... done
Dumping 'Na2S2@FeN4.ionpos' ... done
Dumping 'Na2S2@FeN4.eigenvals' ... done
End date and time: Sat Dec 23 13:08:06 2023  (Duration: 7-20:01:08.08)
Done!
