
*************** JDFTx 1.7.0  ***************

Start date and time: Thu Sep 26 10:43:49 2024
Executable jdftx_gpu with command-line: -i /home/akim2/JDFTx/Na2S2@FeN4-PC/Na2S2@FeN4-PC.in -o /home/akim2/JDFTx/Na2S2@FeN4-PC/Na2S2@FeN4-PC.out
Running on hosts (process indices):  exp-5-59 (0)
Divided in process groups (process indices):  0 (0)
gpuInit: Found compatible cuda device 0 'Tesla V100-SXM2-32GB'
gpuInit: Selected device 0
Resource initialization completed at t[s]:      0.68
Run totals: 1 processes, 1 threads, 1 GPUs


Input parsed successfully to the following command list (including defaults):

basis kpoint-dependent
coords-type Cartesian
core-overlap-check vector
coulomb-interaction Slab 001
coulomb-truncation-embed 0 0 3
davidson-band-ratio 1.1
dump End State
dump-name Na2S2@FeN4-PC.$VAR
elec-cutoff 20 100
elec-eigen-algo Davidson
elec-ex-corr gga-PBE
elec-smearing Fermi 0.01
electronic-minimize  \
	dirUpdateScheme      FletcherReeves \
	linminMethod         DirUpdateRecommended \
	nIterations          100 \
	history              15 \
	knormThreshold       0 \
	energyDiffThreshold  1e-08 \
	nEnergyDiff          2 \
	alphaTstart          1 \
	alphaTmin            1e-10 \
	updateTestStepSize   yes \
	alphaTreduceFactor   0.1 \
	alphaTincreaseFactor 3 \
	nAlphaAdjustMax      3 \
	wolfeEnergy          0.0001 \
	wolfeGradient        0.9 \
	fdTest               no
exchange-regularization WignerSeitzTruncated
fluid LinearPCM 298.000000 1.013250
fluid-ex-corr lda-TF lda-PZ
fluid-gummel-loop 10 1.000000e-05
fluid-minimize  \
	dirUpdateScheme      PolakRibiere \
	linminMethod         DirUpdateRecommended \
	nIterations          400 \
	history              15 \
	knormThreshold       1e-11 \
	energyDiffThreshold  0 \
	nEnergyDiff          2 \
	alphaTstart          1 \
	alphaTmin            1e-10 \
	updateTestStepSize   yes \
	alphaTreduceFactor   0.1 \
	alphaTincreaseFactor 3 \
	nAlphaAdjustMax      6 \
	wolfeEnergy          0.0001 \
	wolfeGradient        0.9 \
	fdTest               no
fluid-solvent PC 11.6429 ScalarEOS \
	epsBulk 64 \
	pMol 2.95 \
	epsInf 2.02 \
	Pvap 1.53277e-13 \
	sigmaBulk 2.88e-05 \
	Rvdw 0 \
	Res 0 \
	tauNuc 343133
forces-output-coords Positions
ion C  28.005857181630002   0.000000000000000   1.000001652210000 0
ion C  25.672025513790000   4.042310104620000   1.000001652210000 0
ion C  11.669128103520009  20.211535405260001   1.000001652210000 0
ion C   4.667680343250000   0.000000000000000   1.000001652210000 0
ion C  23.338288332449999   0.000000000000000   1.000001652210000 0
ion C   2.333822219190000   4.042310104620000   1.000001652210000 0
ion C  16.336708291080008  20.211535405260001   1.000001652210000 0
ion C  23.338191956219998   8.084622098970000   1.000001652210000 0
ion C   9.335305884330001  16.169223410910011   1.000001652210000 0
ion C   9.335322891900001   0.000000000000000   1.000001652210000 0
ion C  18.670626886499999   0.000000000000000   1.000001652210000 0
ion C  18.670539958920003  16.169223410910011   1.000001652210000 0
ion C  21.004371626759990  12.126913306290001   1.000001652210000 0
ion C  14.002984337850000   0.000000000000000   1.000001652210000 0
ion C   0.000000000000000   8.084622098970000   1.000001652210000 0
ion C   7.001485554870008  20.211535405260001   1.000001652210000 0
ion C  -7.001481775409991  20.211535405260001   1.000001652210000 0
ion C  -2.333822219189998  12.126913306290001   1.000001652210000 0
ion C   4.667663335679999  16.169223410910011   1.000001652210000 0
ion C  -2.333820329459993  20.211535405260001   1.000001652210000 0
ion C   2.333824108920002  20.211535405260001   1.000001652210000 0
ion C  -4.667659556220000  16.169223410910011   1.000001652210000 0
ion C   7.001483665139999   4.042310104620000   1.000001652210000 0
ion C  21.004430208389998   4.042310104620000   1.000001652210000 0
ion C  14.002948432980006  16.169223410910011   1.000001652210000 0
ion C   0.000001889729997  16.169223410910011   1.000001652210000 0
ion C  11.669126213789999   4.042310104620000   1.000001652210000 0
ion C  18.670609878929998   8.084622098970000   1.000001652210000 0
ion C  11.669126213789998  12.126913306290001   1.000001652210000 0
ion C  16.336787659739997  12.126913306290001   1.000001652210000 0
ion C  16.336789549470002   4.042310104620000   1.000001652210000 0
ion C   9.335303994600004   8.084622098970000   1.000001652210000 0
ion C  14.002948432980002   8.084622098970000   1.000001652210000 0
ion C   0.000000000000000   2.694874032990001   1.000001652210000 0
ion C  11.669128103519999  22.906390540950017   1.000001652210000 0
ion C -11.669124324059998  22.906390540950017   1.000001652210000 0
ion C  -2.333822219190000   6.737165240310007   1.000001652210000 0
ion C   9.335305884330001  18.864097443900004   1.000001652210000 0
ion C  -7.001481775409996  22.906390540950017   1.000001652210000 0
ion C   7.001485554870008  22.906390540950017   1.000001652210000 0
ion C   2.333822219189996   6.737165240310007   1.000001652210000 0
ion C  -9.335302104869994  18.864097443900004   1.000001652210000 0
ion C  -4.667661445950001  10.779477234660009   1.000001652210000 0
ion C  -2.333820329460000  22.906390540950017   1.000001652210000 0
ion C   2.333824108919998  22.906390540950017   1.000001652210000 0
ion C  -7.001483665140000  14.821787339280013   1.000001652210000 0
ion C   4.667661445950001   2.694874032990001   1.000001652210000 0
ion C  23.338269435150011   2.694874032990001   1.000001652210000 0
ion C  14.002967330279997  18.864097443900004   1.000001652210000 0
ion C   0.000000000000000  10.779477234660009   1.000001652210000 0
ion C   4.667663335679999  18.864097443900004   1.000001652210000 0
ion C  -4.667640658919993  18.864097443900004   1.000001652210000 0
ion C  -2.333822219190001  14.821787339280013   1.000001652210000 0
ion C   2.333824108919995  14.821787339280013   1.000001652210000 0
ion C   0.000001889729999  18.864097443900004   1.000001652210000 0
ion C   9.335303994599997   2.694874032990001   1.000001652210000 0
ion C  21.004430208390001   6.737165240310007   1.000001652210000 0
ion C  11.669126213790003  14.821787339280013   1.000001652210000 0
ion C  16.336789549469998  14.821787339280013   1.000001652210000 0
ion C  18.670609878930012   2.694874032990001   1.000001652210000 0
ion C   7.001483665139997   6.737165240310007   1.000001652210000 0
ion C  14.002946543250001   2.694874032990001   1.000001652210000 0
ion C  18.670607989199997  10.779477234660009   1.000001652210000 0
ion C  11.669126213789998   6.737165240310007   1.000001652210000 0
ion C  16.336787659740001   6.737165240310007   1.000001652210000 0
ion C  14.002946543250001  10.779477234660009   1.000001652210000 0
ion N   4.667661445950002   8.084622098970000   1.000001652210000 0
ion N   2.333822219190005  12.126913306290001   1.000001652210000 0
ion N   7.001485554869994  14.821787339280013   1.000001652210000 0
ion N   9.335305884329998  10.779477234660009   1.000001652210000 0
ion Fe   5.837109518069997  11.454309266310007   1.000001652210000 0
ion S   7.947743613481268   9.434780167700977   5.503482059153304 1
ion S   5.315184851011422  11.497731789571944   5.398376577584131 1
ion Na  10.003185551079463  13.663671887147864   5.682709266101545 1
ion Na   4.517266082178249   6.234391681576700   5.710450705027357 1
ion-species GBRV/$ID_pbe.uspp
ion-width Ecut
ionic-minimize  \
	dirUpdateScheme      FletcherReeves \
	linminMethod         DirUpdateRecommended \
	nIterations          200 \
	history              15 \
	knormThreshold       0.0001 \
	energyDiffThreshold  1e-06 \
	nEnergyDiff          2 \
	alphaTstart          1 \
	alphaTmin            1e-10 \
	updateTestStepSize   yes \
	alphaTreduceFactor   0.1 \
	alphaTincreaseFactor 3 \
	nAlphaAdjustMax      3 \
	wolfeEnergy          0.0001 \
	wolfeGradient        0.9 \
	fdTest               no
kpoint   0.000000000000   0.000000000000   0.000000000000  1.00000000000000
kpoint-folding 1 1 1 
latt-move-scale 1 1 1
latt-scale 1 1 1 
lattice Triclinic 28.0058 28.0058 32.1253 90 90 120
lattice-minimize  \
	dirUpdateScheme      L-BFGS \
	linminMethod         DirUpdateRecommended \
	nIterations          0 \
	history              15 \
	knormThreshold       0 \
	energyDiffThreshold  1e-06 \
	nEnergyDiff          2 \
	alphaTstart          1 \
	alphaTmin            1e-10 \
	updateTestStepSize   yes \
	alphaTreduceFactor   0.1 \
	alphaTincreaseFactor 3 \
	nAlphaAdjustMax      3 \
	wolfeEnergy          0.0001 \
	wolfeGradient        0.9 \
	fdTest               no
lcao-params -1 1e-06 0.01
pcm-variant GLSSA13
spintype no-spin
subspace-rotation-factor 1 yes
symmetries automatic
symmetry-threshold 0.0001



---------- Setting up symmetries ----------

Found 24 point-group symmetries of the bravais lattice
Found 1 space-group symmetries with basis
Applied RMS atom displacement 0 bohrs to make symmetries exact.

---------- Initializing the Grid ----------
R = 
[      28.0058     -14.0029            0  ]
[            0      24.2537            0  ]
[            0            0      32.1253  ]
unit cell volume = 21821
G =
[   0.224353    0.12953         -0  ]
[          0   0.259061          0  ]
[          0         -0   0.195584  ]
Minimum fftbox size, Smin = [  128  128  148  ]
Chosen fftbox size, S = [  128  128  150  ]

---------- Initializing tighter grid for wavefunction operations ----------
R = 
[      28.0058     -14.0029            0  ]
[            0      24.2537            0  ]
[            0            0      32.1253  ]
unit cell volume = 21821
G =
[   0.224353    0.12953         -0  ]
[          0   0.259061          0  ]
[          0         -0   0.195584  ]
Minimum fftbox size, Smin = [  116  116  132  ]
Chosen fftbox size, S = [  120  120  140  ]

---------- Exchange Correlation functional ----------
Initalized PBE GGA exchange.
Initalized PBE GGA correlation.

---------- Setting up pseudopotentials ----------
Width of ionic core gaussian charges (only for fluid interactions / plotting) set to 0.397384

Reading pseudopotential file '/home/akim2/jdftx_install/build/pseudopotentials/GBRV/c_pbe.uspp':
  Title: C.  Created by USPP 7.3.6 on 3-2-2014
  Reference state energy: -5.406344.  4 valence electrons in orbitals:
    |200>  occupation: 2  eigenvalue: -0.504890
    |210>  occupation: 2  eigenvalue: -0.194356
  lMax: 1  lLocal: 2  QijEcut: 5
  4 projectors sampled on a log grid with 503 points:
    l: 0  eig: -0.504890  rCut: 1.3
    l: 0  eig: 0.000000  rCut: 1.3
    l: 1  eig: -0.194357  rCut: 1.3
    l: 1  eig: 0.000000  rCut: 1.3
  Partial core density with radius 1.1
  Transforming core density to a uniform radial grid of dG=0.02 with 1618 points.
  Transforming local potential to a uniform radial grid of dG=0.02 with 1618 points.
  Transforming nonlocal projectors to a uniform radial grid of dG=0.02 with 432 points.
  Transforming density augmentations to a uniform radial grid of dG=0.02 with 1618 points.
  Transforming atomic orbitals to a uniform radial grid of dG=0.02 with 432 points.
  Core radius for overlap checks: 1.30 bohrs.

Reading pseudopotential file '/home/akim2/jdftx_install/build/pseudopotentials/GBRV/n_pbe.uspp':
  Title: N.  Created by USPP 7.3.6 on 3-2-2014
  Reference state energy: -9.763716.  5 valence electrons in orbitals:
    |200>  occupation: 2  eigenvalue: -0.681964
    |210>  occupation: 3  eigenvalue: -0.260726
  lMax: 1  lLocal: 2  QijEcut: 6
  4 projectors sampled on a log grid with 491 points:
    l: 0  eig: -0.681964  rCut: 1.15
    l: 0  eig: 0.000000  rCut: 1.15
    l: 1  eig: -0.260729  rCut: 1.2
    l: 1  eig: 0.500000  rCut: 1.2
  Partial core density with radius 0.8
  Transforming core density to a uniform radial grid of dG=0.02 with 1618 points.
  Transforming local potential to a uniform radial grid of dG=0.02 with 1618 points.
  Transforming nonlocal projectors to a uniform radial grid of dG=0.02 with 432 points.
  Transforming density augmentations to a uniform radial grid of dG=0.02 with 1618 points.
  Transforming atomic orbitals to a uniform radial grid of dG=0.02 with 432 points.
  Core radius for overlap checks: 1.20 bohrs.

Reading pseudopotential file '/home/akim2/jdftx_install/build/pseudopotentials/GBRV/fe_pbe.uspp':
  Title: Fe.  Created by USPP 7.3.6 on 15-6-15
  Reference state energy: -124.316937.  16 valence electrons in orbitals:
    |300>  occupation: 2  eigenvalue: -4.008817
    |310>  occupation: 6  eigenvalue: -2.753096
    |320>  occupation: 5  eigenvalue: -0.791264
    |400>  occupation: 2  eigenvalue: -0.516384
    |410>  occupation: 0  eigenvalue: -0.312222
  lMax: 2  lLocal: 3  QijEcut: 6
  6 projectors sampled on a log grid with 607 points:
    l: 0  eig: -4.008819  rCut: 1.55
    l: 0  eig: -0.516386  rCut: 1.55
    l: 1  eig: -2.753096  rCut: 1.55
    l: 1  eig: -0.312226  rCut: 1.55
    l: 2  eig: -0.791264  rCut: 1.65
    l: 2  eig: -0.450000  rCut: 1.65
  Partial core density with radius 0.65
  Transforming core density to a uniform radial grid of dG=0.02 with 1618 points.
  Transforming local potential to a uniform radial grid of dG=0.02 with 1618 points.
  Transforming nonlocal projectors to a uniform radial grid of dG=0.02 with 432 points.
  Transforming density augmentations to a uniform radial grid of dG=0.02 with 1618 points.
  Transforming atomic orbitals to a uniform radial grid of dG=0.02 with 432 points.
  Core radius for overlap checks: 1.65 bohrs.

Reading pseudopotential file '/home/akim2/jdftx_install/build/pseudopotentials/GBRV/s_pbe.uspp':
  Title: S.  Created by USPP 7.3.6 on 1-4-15
  Reference state energy: -11.898476.  6 valence electrons in orbitals:
    |300>  occupation: 2  eigenvalue: -0.634167
    |310>  occupation: 4  eigenvalue: -0.257568
  lMax: 2  lLocal: 3  QijEcut: 6
  6 projectors sampled on a log grid with 635 points:
    l: 0  eig: -0.634161  rCut: 1.5
    l: 0  eig: 1.500000  rCut: 1.5
    l: 1  eig: -0.257567  rCut: 1.5
    l: 1  eig: 1.500000  rCut: 1.5
    l: 2  eig: -1.000000  rCut: 1.5
    l: 2  eig: 1.500000  rCut: 1.5
  Partial core density with radius 1.15
  Transforming core density to a uniform radial grid of dG=0.02 with 1618 points.
  Transforming local potential to a uniform radial grid of dG=0.02 with 1618 points.
  Transforming nonlocal projectors to a uniform radial grid of dG=0.02 with 432 points.
  Transforming density augmentations to a uniform radial grid of dG=0.02 with 1618 points.
  Transforming atomic orbitals to a uniform radial grid of dG=0.02 with 432 points.
  Core radius for overlap checks: 1.50 bohrs.

Reading pseudopotential file '/home/akim2/jdftx_install/build/pseudopotentials/GBRV/na_pbe.uspp':
  Title: Na.  Created by USPP 7.3.6 on 23-9-15
  Reference state energy: -47.625620.  9 valence electrons in orbitals:
    |200>  occupation: 2  eigenvalue: -2.085638
    |210>  occupation: 6  eigenvalue: -1.053708
    |300>  occupation: 1  eigenvalue: -0.100838
  lMax: 2  lLocal: 0  QijEcut: 6
  5 projectors sampled on a log grid with 657 points:
    l: 0  eig: -2.085640  rCut: 1.37
    l: 0  eig: -0.100839  rCut: 1.37
    l: 1  eig: -1.053708  rCut: 1.47
    l: 1  eig: 0.500000  rCut: 1.47
    l: 2  eig: 0.750000  rCut: 2
  Transforming local potential to a uniform radial grid of dG=0.02 with 1618 points.
  Transforming nonlocal projectors to a uniform radial grid of dG=0.02 with 432 points.
  Transforming density augmentations to a uniform radial grid of dG=0.02 with 1618 points.
  Transforming atomic orbitals to a uniform radial grid of dG=0.02 with 432 points.
  Core radius for overlap checks: 2.00 bohrs.

Initialized 5 species with 75 total atoms.

Folded 1 k-points by 1x1x1 to 1 k-points.

---------- Setting up k-points, bands, fillings ----------
No reducable k-points. 
Computing the number of bands and number of electrons
Calculating initial fillings.
nElectrons: 330.000000   nBands: 311   nStates: 1

----- Setting up reduced wavefunction bases (one per k-point) -----
average nbasis = 93173.000 , ideal nbasis = 93220.781

---------- Setting up coulomb interaction ----------
Fluid mode embedding: using embedded box, but periodic Coulomb kernel.
(Fluid response is responsible for (approximate) separation between periodic images.)
Setting up double-sized grid for truncated Coulomb potentials:
R = 
[      28.0058     -14.0029            0  ]
[            0      24.2537            0  ]
[            0            0      64.2506  ]
unit cell volume = 43641.9
G =
[   0.224353    0.12953         -0  ]
[          0   0.259061          0  ]
[          0         -0  0.0977919  ]
Chosen fftbox size, S = [  128  128  300  ]
Integer grid location selected as the embedding center:
   Grid: [  0  0  14  ]
   Lattice: [  0  0  0.0933843  ]
   Cartesian: [  0  0  3  ]
Constructing Wigner-Seitz cell: 8 faces (6 quadrilaterals, 2 hexagons)
Range-separation parameter for embedded mesh potentials due to point charges: 0.590105 bohrs.

---------- Setting up ewald sum ----------
Optimum gaussian width for ewald sums = 6.839659 bohr.
Real space sum over 567 unit cells with max indices [  4  4  3  ]
Reciprocal space sum over 9537 terms with max indices [  8  8  16  ]

---------- Allocating electronic variables ----------
Initializing wave functions:  linear combination of atomic orbitals
C pseudo-atom occupations:   s ( 2 )  p ( 2 )
N pseudo-atom occupations:   s ( 2 )  p ( 3 )
Fe pseudo-atom occupations:   s ( 2 0 )  p ( 6 0 )  d ( 8 )
S pseudo-atom occupations:   s ( 2 )  p ( 4 )
Na pseudo-atom occupations:   s ( 2 1 )  p ( 6 )
	FillingsUpdate:  mu: -0.169668858  nElectrons: 330.000000
LCAOMinimize: Iter:   0  F: -635.4576227410342426  |grad|_K:  3.140e-02  alpha:  1.000e+00
	FillingsUpdate:  mu: -0.249909940  nElectrons: 330.000000
LCAOMinimize: Iter:   1  F: -642.4527008901609406  |grad|_K:  1.946e-02  alpha:  1.742e-01  linmin: -1.716e-01  cgtest:  3.323e-01  t[s]:      8.10
	FillingsUpdate:  mu: -0.139755465  nElectrons: 330.000000
LCAOMinimize: Iter:   2  F: -645.7718617287911229  |grad|_K:  5.155e-02  alpha:  6.516e-02  linmin:  2.369e-01  cgtest: -1.991e-01  t[s]:      9.50
LCAOMinimize: 	Bad step direction: g.d > 0.
LCAOMinimize: 	Undoing step.
LCAOMinimize: 	Step failed: resetting search direction.
	FillingsUpdate:  mu: -0.139755465  nElectrons: 330.000000
LCAOMinimize: Iter:   3  F: -645.7718617287911229  |grad|_K:  5.155e-02  alpha:  0.000e+00
	FillingsUpdate:  mu: -0.128370026  nElectrons: 330.000000
LCAOMinimize: Iter:   4  F: -651.6747600064661583  |grad|_K:  2.062e-02  alpha:  3.712e-02  linmin: -2.379e-01  cgtest:  8.061e-01  t[s]:     11.87
LCAOMinimize: Encountered beta<0, resetting CG.
	FillingsUpdate:  mu: -0.183059904  nElectrons: 330.000000
LCAOMinimize: Iter:   5  F: -652.3008411633138621  |grad|_K:  7.342e-03  alpha:  2.828e-02  linmin:  3.554e-02  cgtest: -3.336e-03  t[s]:     13.28
LCAOMinimize: 	Predicted alpha/alphaT>3.000000, increasing alphaT to 8.484623e-02.
LCAOMinimize: 	Step increased F by 6.548388e-02, reducing alpha to 2.109240e-02.
	FillingsUpdate:  mu: -0.183329890  nElectrons: 330.000000
LCAOMinimize: Iter:   6  F: -652.4022423444650940  |grad|_K:  6.449e-03  alpha:  2.109e-02  linmin: -2.333e-01  cgtest:  9.663e-01  t[s]:     16.07
LCAOMinimize: Encountered beta<0, resetting CG.
LCAOMinimize: 	Predicted alpha/alphaT>3.000000, increasing alphaT to 6.327720e-02.
	FillingsUpdate:  mu: -0.154474874  nElectrons: 330.000000
LCAOMinimize: Iter:   7  F: -652.5688792611787221  |grad|_K:  8.449e-03  alpha:  8.712e-02  linmin:  2.525e-02  cgtest: -1.528e-01  t[s]:     17.90
	FillingsUpdate:  mu: -0.146668769  nElectrons: 330.000000
LCAOMinimize: Iter:   8  F: -652.6484114996297876  |grad|_K:  7.145e-03  alpha:  2.652e-02  linmin: -1.311e-03  cgtest:  9.050e-01  t[s]:     19.31
LCAOMinimize: Encountered beta<0, resetting CG.
	FillingsUpdate:  mu: -0.205519253  nElectrons: 330.000000
LCAOMinimize: Iter:   9  F: -652.7124548047543158  |grad|_K:  1.459e-03  alpha:  2.572e-02  linmin:  5.441e-02  cgtest: -1.178e-01  t[s]:     20.73
LCAOMinimize: 	Predicted alpha/alphaT>3.000000, increasing alphaT to 7.715779e-02.
	FillingsUpdate:  mu: -0.190045488  nElectrons: 330.000000
LCAOMinimize: Iter:  10  F: -652.7301821059855911  |grad|_K:  7.345e-04  alpha:  1.758e-01  linmin: -2.107e-02  cgtest: -7.416e-02  t[s]:     22.53
	FillingsUpdate:  mu: -0.206816595  nElectrons: 330.000000
LCAOMinimize: Iter:  11  F: -652.7334090595179532  |grad|_K:  9.814e-04  alpha:  1.166e-01  linmin:  1.129e-05  cgtest: -5.868e-02  t[s]:     23.92
	FillingsUpdate:  mu: -0.200375076  nElectrons: 330.000000
LCAOMinimize: Iter:  12  F: -652.7355791110152268  |grad|_K:  3.420e-04  alpha:  4.482e-02  linmin: -8.203e-03  cgtest:  2.215e-01  t[s]:     25.33
LCAOMinimize: 	Predicted alpha/alphaT>3.000000, increasing alphaT to 1.344634e-01.
	FillingsUpdate:  mu: -0.192305639  nElectrons: 330.000000
LCAOMinimize: Iter:  13  F: -652.7372155801908775  |grad|_K:  3.929e-04  alpha:  2.853e-01  linmin:  1.040e-04  cgtest: -8.452e-03  t[s]:     27.13
	FillingsUpdate:  mu: -0.198990917  nElectrons: 330.000000
LCAOMinimize: Iter:  14  F: -652.7374590623679751  |grad|_K:  1.876e-04  alpha:  3.116e-02  linmin: -8.284e-03  cgtest:  8.515e-02  t[s]:     28.53
LCAOMinimize: 	Predicted alpha/alphaT>3.000000, increasing alphaT to 9.347210e-02.
	FillingsUpdate:  mu: -0.199501077  nElectrons: 330.000000
LCAOMinimize: Iter:  15  F: -652.7378681203922497  |grad|_K:  1.103e-04  alpha:  2.329e-01  linmin:  1.911e-03  cgtest: -1.629e-01  t[s]:     30.34
	FillingsUpdate:  mu: -0.199295508  nElectrons: 330.000000
LCAOMinimize: Iter:  16  F: -652.7379808007322026  |grad|_K:  4.424e-05  alpha:  1.935e-01  linmin: -8.293e-04  cgtest:  9.304e-02  t[s]:     31.75
	FillingsUpdate:  mu: -0.198100441  nElectrons: 330.000000
LCAOMinimize: Iter:  17  F: -652.7379954377767035  |grad|_K:  6.548e-05  alpha:  1.533e-01  linmin:  4.221e-06  cgtest: -2.304e-03  t[s]:     33.14
	FillingsUpdate:  mu: -0.199035535  nElectrons: 330.000000
LCAOMinimize: Iter:  18  F: -652.7380037734619691  |grad|_K:  1.617e-05  alpha:  3.981e-02  linmin: -7.312e-04  cgtest:  1.714e-02  t[s]:     34.56
LCAOMinimize: 	Predicted alpha/alphaT>3.000000, increasing alphaT to 1.194205e-01.
	FillingsUpdate:  mu: -0.199143668  nElectrons: 330.000000
LCAOMinimize: Iter:  19  F: -652.7380063242585493  |grad|_K:  1.076e-05  alpha:  2.000e-01  linmin:  2.241e-04  cgtest: -6.776e-03  t[s]:     36.36
	FillingsUpdate:  mu: -0.199024532  nElectrons: 330.000000
LCAOMinimize: Iter:  20  F: -652.7380078911718329  |grad|_K:  8.289e-06  alpha:  2.783e-01  linmin: -3.484e-05  cgtest:  6.691e-03  t[s]:     37.75
	FillingsUpdate:  mu: -0.199180467  nElectrons: 330.000000
LCAOMinimize: Iter:  21  F: -652.7380080384267558  |grad|_K:  6.977e-06  alpha:  4.399e-02  linmin: -4.073e-05  cgtest: -2.144e-04  t[s]:     39.16
LCAOMinimize: 	Predicted alpha/alphaT>3.000000, increasing alphaT to 1.319567e-01.
	FillingsUpdate:  mu: -0.199108804  nElectrons: 330.000000
LCAOMinimize: Iter:  22  F: -652.7380083976178184  |grad|_K:  1.940e-06  alpha:  1.515e-01  linmin: -8.367e-06  cgtest: -3.227e-03  t[s]:     41.00
LCAOMinimize: Converged (|Delta F|<1.000000e-06 for 2 iters).
----- createFluidSolver() ----- (Fluid-side solver setup)
   Initializing fluid molecule 'PC'
     Net charge: 0   dipole magnitude: 0
     Initializing spherical shell mfKernel with radius 0 Bohr
     deltaS corrections:

Correction to mu due to finite nuclear width = -0.00750257
   Cavity determined by nc: 0.00098 and sigma: 0.6
   Effective cavity tension: 9.53e-06 Eh/bohr^2 to account for cavitation and dispersion.


---- Citations for features of the code used in this run ----

   Software package:
      R. Sundararaman, K. Letchworth-Weaver, K.A. Schwarz, D. Gunceler, Y. Ozhabes and T.A. Arias, 'JDFTx: software for joint density-functional theory', SoftwareX 6, 278 (2017)

   gga-PBE exchange-correlation functional:
      J.P. Perdew, K. Burke and M. Ernzerhof, Phys. Rev. Lett. 77, 3865 (1996)

   Pseudopotentials:
      KF Garrity, JW Bennett, KM Rabe and D Vanderbilt, Comput. Mater. Sci. 81, 446 (2014)

   Truncated Coulomb potentials:
      R. Sundararaman and T.A. Arias, Phys. Rev. B 87, 165122 (2013)

   Linear/nonlinear dielectric/ionic fluid model with effective cavity tension:
      D. Gunceler, K. Letchworth-Weaver, R. Sundararaman, K.A. Schwarz and T.A. Arias, Modelling Simul. Mater. Sci. Eng. 21, 074005 (2013)

   Total energy minimization with Auxiliary Hamiltonian:
      C. Freysoldt, S. Boeck, and J. Neugebauer, Phys. Rev. B 79, 241103(R) (2009)

This list may not be complete. Please suggest additional citations or
report any other bugs at https://github.com/shankar1729/jdftx/issues

Initialization completed successfully at t[s]:     41.16

Fluid solver invoked on fresh (random / LCAO) wavefunctions
Running a vacuum solve first:

-------- Initial electronic minimization -----------
	FillingsUpdate:  mu: -0.199108804  nElectrons: 330.000000
ElecMinimize: Iter:   0  F: -652.738008397611793  |grad|_K:  4.432e-04  alpha:  1.000e+00
	FillingsUpdate:  mu: -0.122369380  nElectrons: 330.000000
	SubspaceRotationAdjust: set factor to 0.64
ElecMinimize: Iter:   1  F: -656.488570020687803  |grad|_K:  3.878e-04  alpha:  6.660e-01  linmin:  9.305e-05  t[s]:     44.54
ElecMinimize: 	Step increased F by 4.872086e-01, reducing alpha to 1.302164e-02.
	FillingsUpdate:  mu: -0.105582626  nElectrons: 330.000000
	SubspaceRotationAdjust: set factor to 0.726
ElecMinimize: Iter:   2  F: -656.576525184996058  |grad|_K:  2.116e-04  alpha:  1.302e-02  linmin: -3.354e-03  t[s]:     47.58
	FillingsUpdate:  mu: -0.045900793  nElectrons: 330.000000
	SubspaceRotationAdjust: set factor to 0.506
ElecMinimize: Iter:   3  F: -656.651163210367599  |grad|_K:  1.566e-04  alpha:  3.522e-02  linmin: -3.157e-04  t[s]:     49.45
ElecMinimize: 	Predicted alpha/alphaT>3.000000, increasing alphaT to 1.056621e-01.
	FillingsUpdate:  mu: -0.041131289  nElectrons: 330.000000
	SubspaceRotationAdjust: set factor to 0.316
ElecMinimize: Iter:   4  F: -656.753029140146737  |grad|_K:  2.406e-04  alpha:  1.298e-01  linmin:  2.878e-06  t[s]:     51.90
	FillingsUpdate:  mu: -0.046136524  nElectrons: 330.000000
	SubspaceRotationAdjust: set factor to 0.376
ElecMinimize: Iter:   5  F: -656.879725934631324  |grad|_K:  1.625e-04  alpha:  7.675e-02  linmin:  4.743e-06  t[s]:     53.78
	FillingsUpdate:  mu: -0.089961076  nElectrons: 330.000000
	SubspaceRotationAdjust: set factor to 0.335
ElecMinimize: Iter:   6  F: -656.924417740334434  |grad|_K:  1.000e-04  alpha:  5.787e-02  linmin:  8.759e-06  t[s]:     55.72
	FillingsUpdate:  mu: -0.105233456  nElectrons: 330.000000
	SubspaceRotationAdjust: set factor to 0.206
ElecMinimize: Iter:   7  F: -656.954851138692220  |grad|_K:  1.224e-04  alpha:  1.056e-01  linmin:  3.314e-06  t[s]:     57.59
	FillingsUpdate:  mu: -0.101662158  nElectrons: 330.000000
	SubspaceRotationAdjust: set factor to 0.164
ElecMinimize: Iter:   8  F: -657.004980880761309  |grad|_K:  9.501e-05  alpha:  1.157e-01  linmin:  2.009e-05  t[s]:     59.46
	FillingsUpdate:  mu: -0.089754776  nElectrons: 330.000000
	SubspaceRotationAdjust: set factor to 0.218
ElecMinimize: Iter:   9  F: -657.028657454757536  |grad|_K:  5.271e-05  alpha:  9.252e-02  linmin: -1.664e-05  t[s]:     61.32
	FillingsUpdate:  mu: -0.057345455  nElectrons: 330.000000
	SubspaceRotationAdjust: set factor to 0.202
ElecMinimize: Iter:  10  F: -657.038639020907226  |grad|_K:  4.658e-05  alpha:  1.221e-01  linmin: -3.504e-05  t[s]:     63.19
	FillingsUpdate:  mu: -0.052715499  nElectrons: 330.000000
	SubspaceRotationAdjust: set factor to 0.16
ElecMinimize: Iter:  11  F: -657.052952207252702  |grad|_K:  5.059e-05  alpha:  2.245e-01  linmin:  4.191e-06  t[s]:     65.06
	FillingsUpdate:  mu: -0.081752601  nElectrons: 330.000000
	SubspaceRotationAdjust: set factor to 0.228
ElecMinimize: Iter:  12  F: -657.061637274552368  |grad|_K:  2.775e-05  alpha:  1.156e-01  linmin: -1.199e-05  t[s]:     66.92
	FillingsUpdate:  mu: -0.093759793  nElectrons: 330.000000
	SubspaceRotationAdjust: set factor to 0.207
ElecMinimize: Iter:  13  F: -657.064632836992928  |grad|_K:  2.454e-05  alpha:  1.335e-01  linmin:  1.477e-05  t[s]:     68.80
	FillingsUpdate:  mu: -0.094046442  nElectrons: 330.000000
	SubspaceRotationAdjust: set factor to 0.24
ElecMinimize: Iter:  14  F: -657.068423794412183  |grad|_K:  2.408e-05  alpha:  2.180e-01  linmin:  6.822e-06  t[s]:     70.68
	FillingsUpdate:  mu: -0.086382795  nElectrons: 330.000000
	SubspaceRotationAdjust: set factor to 0.225
ElecMinimize: Iter:  15  F: -657.070610682085999  |grad|_K:  1.550e-05  alpha:  1.312e-01  linmin:  8.546e-06  t[s]:     72.57
	FillingsUpdate:  mu: -0.081254067  nElectrons: 330.000000
	SubspaceRotationAdjust: set factor to 0.211
ElecMinimize: Iter:  16  F: -657.071711810014563  |grad|_K:  1.260e-05  alpha:  1.584e-01  linmin:  1.281e-07  t[s]:     74.45
	FillingsUpdate:  mu: -0.086724362  nElectrons: 330.000000
	SubspaceRotationAdjust: set factor to 0.261
ElecMinimize: Iter:  17  F: -657.072423316068466  |grad|_K:  1.021e-05  alpha:  1.544e-01  linmin:  3.141e-06  t[s]:     76.33
	FillingsUpdate:  mu: -0.091843404  nElectrons: 330.000000
	SubspaceRotationAdjust: set factor to 0.251
ElecMinimize: Iter:  18  F: -657.073129023573301  |grad|_K:  1.246e-05  alpha:  2.342e-01  linmin:  5.047e-06  t[s]:     78.21
	FillingsUpdate:  mu: -0.090418179  nElectrons: 330.000000
	SubspaceRotationAdjust: set factor to 0.321
ElecMinimize: Iter:  19  F: -657.073852383739677  |grad|_K:  8.154e-06  alpha:  1.619e-01  linmin:  4.663e-06  t[s]:     80.09
	FillingsUpdate:  mu: -0.086420553  nElectrons: 330.000000
	SubspaceRotationAdjust: set factor to 0.283
ElecMinimize: Iter:  20  F: -657.074132012864766  |grad|_K:  7.550e-06  alpha:  1.457e-01  linmin:  6.337e-07  t[s]:     82.01
	FillingsUpdate:  mu: -0.085635237  nElectrons: 330.000000
	SubspaceRotationAdjust: set factor to 0.353
ElecMinimize: Iter:  21  F: -657.074523366771587  |grad|_K:  6.286e-06  alpha:  2.369e-01  linmin:  4.351e-06  t[s]:     83.90
	FillingsUpdate:  mu: -0.088537903  nElectrons: 330.000000
	SubspaceRotationAdjust: set factor to 0.313
ElecMinimize: Iter:  22  F: -657.074678850363398  |grad|_K:  5.319e-06  alpha:  1.367e-01  linmin:  8.050e-07  t[s]:     85.80
	FillingsUpdate:  mu: -0.089250896  nElectrons: 330.000000
	SubspaceRotationAdjust: set factor to 0.387
ElecMinimize: Iter:  23  F: -657.074927767173790  |grad|_K:  5.344e-06  alpha:  3.057e-01  linmin:  4.101e-06  t[s]:     87.72
	FillingsUpdate:  mu: -0.087302578  nElectrons: 330.000000
	SubspaceRotationAdjust: set factor to 0.319
ElecMinimize: Iter:  24  F: -657.075024344871167  |grad|_K:  3.636e-06  alpha:  1.197e-01  linmin:  3.208e-07  t[s]:     89.60
	FillingsUpdate:  mu: -0.087478388  nElectrons: 330.000000
	SubspaceRotationAdjust: set factor to 0.414
ElecMinimize: Iter:  25  F: -657.075110387734412  |grad|_K:  3.004e-06  alpha:  2.253e-01  linmin:  1.940e-06  t[s]:     91.48
	FillingsUpdate:  mu: -0.088975477  nElectrons: 330.000000
	SubspaceRotationAdjust: set factor to 0.349
ElecMinimize: Iter:  26  F: -657.075153545942044  |grad|_K:  2.932e-06  alpha:  1.663e-01  linmin:  3.718e-07  t[s]:     93.35
	FillingsUpdate:  mu: -0.088458766  nElectrons: 330.000000
	SubspaceRotationAdjust: set factor to 0.471
ElecMinimize: Iter:  27  F: -657.075203933540706  |grad|_K:  1.893e-06  alpha:  2.030e-01  linmin:  1.384e-06  t[s]:     95.23
	FillingsUpdate:  mu: -0.087712921  nElectrons: 330.000000
	SubspaceRotationAdjust: set factor to 0.446
ElecMinimize: Iter:  28  F: -657.075227071970858  |grad|_K:  1.975e-06  alpha:  2.254e-01  linmin:  4.735e-07  t[s]:     97.11
	FillingsUpdate:  mu: -0.088432327  nElectrons: 330.000000
	SubspaceRotationAdjust: set factor to 0.422
ElecMinimize: Iter:  29  F: -657.075241170392360  |grad|_K:  1.413e-06  alpha:  1.238e-01  linmin: -2.021e-07  t[s]:     98.98
	FillingsUpdate:  mu: -0.088429120  nElectrons: 330.000000
	SubspaceRotationAdjust: set factor to 0.543
ElecMinimize: Iter:  30  F: -657.075255908841882  |grad|_K:  1.207e-06  alpha:  2.563e-01  linmin:  1.508e-06  t[s]:    100.84
	FillingsUpdate:  mu: -0.087977967  nElectrons: 330.000000
	SubspaceRotationAdjust: set factor to 0.513
ElecMinimize: Iter:  31  F: -657.075263675561246  |grad|_K:  1.330e-06  alpha:  1.877e-01  linmin:  2.055e-07  t[s]:    102.73
	FillingsUpdate:  mu: -0.088395972  nElectrons: 330.000000
	SubspaceRotationAdjust: set factor to 0.568
ElecMinimize: Iter:  32  F: -657.075270055934652  |grad|_K:  9.248e-07  alpha:  1.227e-01  linmin:  2.191e-09  t[s]:    104.60
	FillingsUpdate:  mu: -0.088422952  nElectrons: 330.000000
	SubspaceRotationAdjust: set factor to 0.602
ElecMinimize: Iter:  33  F: -657.075275603295495  |grad|_K:  8.870e-07  alpha:  2.287e-01  linmin:  2.192e-06  t[s]:    106.49
	FillingsUpdate:  mu: -0.088125307  nElectrons: 330.000000
	SubspaceRotationAdjust: set factor to 0.601
ElecMinimize: Iter:  34  F: -657.075278253904003  |grad|_K:  8.691e-07  alpha:  1.165e-01  linmin: -1.070e-06  t[s]:    108.36
	FillingsUpdate:  mu: -0.088214010  nElectrons: 330.000000
	SubspaceRotationAdjust: set factor to 0.608
ElecMinimize: Iter:  35  F: -657.075281134086936  |grad|_K:  7.005e-07  alpha:  1.290e-01  linmin:  3.138e-06  t[s]:    110.23
	FillingsUpdate:  mu: -0.088324562  nElectrons: 330.000000
	SubspaceRotationAdjust: set factor to 0.55
ElecMinimize: Iter:  36  F: -657.075282421111638  |grad|_K:  7.166e-07  alpha:  9.556e-02  linmin:  3.280e-07  t[s]:    112.10
	FillingsUpdate:  mu: -0.088276988  nElectrons: 330.000000
	SubspaceRotationAdjust: set factor to 0.487
ElecMinimize: Iter:  37  F: -657.075283570962938  |grad|_K:  6.452e-07  alpha:  7.545e-02  linmin:  6.787e-07  t[s]:    113.99
	FillingsUpdate:  mu: -0.088195434  nElectrons: 330.000000
	SubspaceRotationAdjust: set factor to 0.39
ElecMinimize: Iter:  38  F: -657.075284309539256  |grad|_K:  6.009e-07  alpha:  6.192e-02  linmin:  5.056e-07  t[s]:    115.86
	FillingsUpdate:  mu: -0.088168948  nElectrons: 330.000000
	SubspaceRotationAdjust: set factor to 0.292
ElecMinimize: Iter:  39  F: -657.075284968254664  |grad|_K:  5.545e-07  alpha:  6.423e-02  linmin:  8.036e-07  t[s]:    117.73
	FillingsUpdate:  mu: -0.088212280  nElectrons: 330.000000
	SubspaceRotationAdjust: set factor to 0.226
ElecMinimize: Iter:  40  F: -657.075285523477532  |grad|_K:  4.771e-07  alpha:  6.400e-02  linmin:  4.574e-07  t[s]:    119.63
	FillingsUpdate:  mu: -0.088278743  nElectrons: 330.000000
	SubspaceRotationAdjust: set factor to 0.182
ElecMinimize: Iter:  41  F: -657.075286029820063  |grad|_K:  4.381e-07  alpha:  7.801e-02  linmin:  2.753e-07  t[s]:    121.50
	FillingsUpdate:  mu: -0.088319945  nElectrons: 330.000000
	SubspaceRotationAdjust: set factor to 0.152
ElecMinimize: Iter:  42  F: -657.075286561369467  |grad|_K:  4.225e-07  alpha:  9.652e-02  linmin:  1.392e-07  t[s]:    123.39
	FillingsUpdate:  mu: -0.088304185  nElectrons: 330.000000
	SubspaceRotationAdjust: set factor to 0.135
	SubspaceRotationAdjust: resetting CG because factor has changed by 0.134825
ElecMinimize: 	State modified externally: resetting search direction.
ElecMinimize: Iter:  43  F: -657.075287095218414  |grad|_K:  3.719e-07  alpha:  1.037e-01
ElecMinimize: 	Predicted alpha/alphaT>3.000000, increasing alphaT to 3.110819e-01.
	FillingsUpdate:  mu: -0.088115413  nElectrons: 330.000000
	SubspaceRotationAdjust: set factor to 0.169
ElecMinimize: Iter:  44  F: -657.075289264131243  |grad|_K:  4.017e-07  alpha:  5.375e-01  linmin: -2.359e-06  t[s]:    128.80
	FillingsUpdate:  mu: -0.088272263  nElectrons: 330.000000
	SubspaceRotationAdjust: set factor to 0.192
ElecMinimize: Iter:  45  F: -657.075291634621522  |grad|_K:  3.647e-07  alpha:  5.022e-01  linmin: -2.030e-06  t[s]:    130.69
	FillingsUpdate:  mu: -0.088111822  nElectrons: 330.000000
	SubspaceRotationAdjust: set factor to 0.199
ElecMinimize: Iter:  46  F: -657.075293340746498  |grad|_K:  3.176e-07  alpha:  4.365e-01  linmin: -1.373e-06  t[s]:    132.64
	FillingsUpdate:  mu: -0.088325077  nElectrons: 330.000000
	SubspaceRotationAdjust: set factor to 0.151
ElecMinimize: Iter:  47  F: -657.075294273043937  |grad|_K:  2.365e-07  alpha:  3.157e-01  linmin: -1.479e-07  t[s]:    134.55
	FillingsUpdate:  mu: -0.088191924  nElectrons: 330.000000
	SubspaceRotationAdjust: set factor to 0.127
ElecMinimize: Iter:  48  F: -657.075294894005197  |grad|_K:  1.622e-07  alpha:  3.803e-01  linmin: -4.616e-07  t[s]:    136.47
	FillingsUpdate:  mu: -0.088263021  nElectrons: 330.000000
	SubspaceRotationAdjust: set factor to 0.123
ElecMinimize: Iter:  49  F: -657.075295193302281  |grad|_K:  1.246e-07  alpha:  3.872e-01  linmin: -8.530e-08  t[s]:    138.35
	FillingsUpdate:  mu: -0.088204833  nElectrons: 330.000000
	SubspaceRotationAdjust: set factor to 0.117
ElecMinimize: Iter:  50  F: -657.075295362449083  |grad|_K:  8.020e-08  alpha:  3.744e-01  linmin: -3.863e-08  t[s]:    140.26
	FillingsUpdate:  mu: -0.088249099  nElectrons: 330.000000
	SubspaceRotationAdjust: set factor to 0.112
ElecMinimize: Iter:  51  F: -657.075295476659107  |grad|_K:  5.935e-08  alpha:  6.096e-01  linmin: -6.653e-08  t[s]:    142.15
	FillingsUpdate:  mu: -0.088214942  nElectrons: 330.000000
	SubspaceRotationAdjust: set factor to 0.112
ElecMinimize: Iter:  52  F: -657.075295536989756  |grad|_K:  5.375e-08  alpha:  5.883e-01  linmin:  9.227e-09  t[s]:    144.04
	FillingsUpdate:  mu: -0.088240017  nElectrons: 330.000000
	SubspaceRotationAdjust: set factor to 0.114
ElecMinimize: Iter:  53  F: -657.075295573152630  |grad|_K:  4.619e-08  alpha:  4.325e-01  linmin:  2.990e-08  t[s]:    145.94
	FillingsUpdate:  mu: -0.088212824  nElectrons: 330.000000
	SubspaceRotationAdjust: set factor to 0.109
ElecMinimize: Iter:  54  F: -657.075295605577708  |grad|_K:  4.022e-08  alpha:  5.247e-01  linmin:  3.491e-08  t[s]:    147.82
	FillingsUpdate:  mu: -0.088241423  nElectrons: 330.000000
	SubspaceRotationAdjust: set factor to 0.104
ElecMinimize: Iter:  55  F: -657.075295637354998  |grad|_K:  4.246e-08  alpha:  6.793e-01  linmin:  5.065e-08  t[s]:    149.70
	FillingsUpdate:  mu: -0.088224096  nElectrons: 330.000000
	SubspaceRotationAdjust: set factor to 0.106
ElecMinimize: Iter:  56  F: -657.075295668430272  |grad|_K:  4.288e-08  alpha:  5.968e-01  linmin:  1.258e-07  t[s]:    151.59
	FillingsUpdate:  mu: -0.088232227  nElectrons: 330.000000
	SubspaceRotationAdjust: set factor to 0.113
ElecMinimize: Iter:  57  F: -657.075295690345911  |grad|_K:  2.615e-08  alpha:  3.666e-01  linmin: -2.907e-07  t[s]:    153.48
	FillingsUpdate:  mu: -0.088229972  nElectrons: 330.000000
	SubspaceRotationAdjust: set factor to 0.129
ElecMinimize: Iter:  58  F: -657.075295698629247  |grad|_K:  2.227e-08  alpha:  3.978e-01  linmin:  3.110e-07  t[s]:    155.43
	FillingsUpdate:  mu: -0.088224820  nElectrons: 330.000000
	SubspaceRotationAdjust: set factor to 0.15
ElecMinimize: Iter:  59  F: -657.075295703325423  |grad|_K:  2.063e-08  alpha:  3.447e-01  linmin:  1.282e-07  t[s]:    157.35
ElecMinimize: Converged (|Delta F|<1.000000e-08 for 2 iters).
Setting wave functions to eigenvectors of Hamiltonian
Vacuum energy after initial minimize, F = -657.075295703325423


-------- Electronic minimization -----------
	Linear fluid (dielectric constant: 64) occupying 0.877039 of unit cell:	Completed after 44 iterations at t[s]:    158.20
	FillingsUpdate:  mu: -0.082927164  nElectrons: 330.000000
ElecMinimize: Iter:   0  F: -657.178789791133340  |grad|_K:  2.912e-05  alpha:  1.000e+00
	Linear fluid (dielectric constant: 64) occupying 0.877048 of unit cell:	Completed after 32 iterations at t[s]:    160.06
	Linear fluid (dielectric constant: 64) occupying 0.877041 of unit cell:	Completed after 23 iterations at t[s]:    161.00
	FillingsUpdate:  mu: -0.089880120  nElectrons: 330.000000
	SubspaceRotationAdjust: set factor to 0.195
ElecMinimize: Iter:   1  F: -657.198535246984875  |grad|_K:  2.120e-05  alpha:  8.035e-01  linmin: -2.299e-04  t[s]:    161.92
	Linear fluid (dielectric constant: 64) occupying 0.877017 of unit cell:	Completed after 27 iterations at t[s]:    162.78
	Linear fluid (dielectric constant: 64) occupying 0.877031 of unit cell:	Completed after 22 iterations at t[s]:    163.66
	FillingsUpdate:  mu: -0.075702196  nElectrons: 330.000000
	SubspaceRotationAdjust: set factor to 0.195
ElecMinimize: Iter:   2  F: -657.204982946557834  |grad|_K:  2.444e-05  alpha:  4.884e-01  linmin: -5.174e-05  t[s]:    164.51
	Linear fluid (dielectric constant: 64) occupying 0.876965 of unit cell:	Completed after 24 iterations at t[s]:    165.34
	Linear fluid (dielectric constant: 64) occupying 0.876992 of unit cell:	Completed after 19 iterations at t[s]:    166.20
	FillingsUpdate:  mu: -0.091240203  nElectrons: 330.000000
	SubspaceRotationAdjust: set factor to 0.183
ElecMinimize: Iter:   3  F: -657.210538107798129  |grad|_K:  1.734e-05  alpha:  3.201e-01  linmin: -4.087e-05  t[s]:    167.07
	Linear fluid (dielectric constant: 64) occupying 0.876993 of unit cell:	Completed after 19 iterations at t[s]:    167.86
	Linear fluid (dielectric constant: 64) occupying 0.876988 of unit cell:	Completed after 17 iterations at t[s]:    168.69
	FillingsUpdate:  mu: -0.085426163  nElectrons: 330.000000
	SubspaceRotationAdjust: set factor to 0.199
ElecMinimize: Iter:   4  F: -657.215321215810604  |grad|_K:  1.235e-05  alpha:  5.360e-01  linmin: -9.724e-05  t[s]:    169.53
	Linear fluid (dielectric constant: 64) occupying 0.877029 of unit cell:	Completed after 20 iterations at t[s]:    170.34
	Linear fluid (dielectric constant: 64) occupying 0.877030 of unit cell:	Completed after 4 iterations at t[s]:    171.05
	FillingsUpdate:  mu: -0.090995313  nElectrons: 330.000000
	SubspaceRotationAdjust: set factor to 0.194
ElecMinimize: Iter:   5  F: -657.217839470446165  |grad|_K:  1.170e-05  alpha:  5.509e-01  linmin: -2.711e-05  t[s]:    171.87
	Linear fluid (dielectric constant: 64) occupying 0.877115 of unit cell:	Completed after 23 iterations at t[s]:    172.71
	Linear fluid (dielectric constant: 64) occupying 0.877077 of unit cell:	Completed after 17 iterations at t[s]:    173.54
	FillingsUpdate:  mu: -0.084188045  nElectrons: 330.000000
	SubspaceRotationAdjust: set factor to 0.162
ElecMinimize: Iter:   6  F: -657.219006556551449  |grad|_K:  9.450e-06  alpha:  2.925e-01  linmin:  2.229e-06  t[s]:    174.38
	Linear fluid (dielectric constant: 64) occupying 0.877118 of unit cell:	Completed after 15 iterations at t[s]:    175.14
	Linear fluid (dielectric constant: 64) occupying 0.877132 of unit cell:	Completed after 10 iterations at t[s]:    175.89
	FillingsUpdate:  mu: -0.087924357  nElectrons: 330.000000
	SubspaceRotationAdjust: set factor to 0.156
ElecMinimize: Iter:   7  F: -657.220060952888730  |grad|_K:  5.586e-06  alpha:  4.066e-01  linmin: -1.149e-05  t[s]:    176.74
	Linear fluid (dielectric constant: 64) occupying 0.877158 of unit cell:	Completed after 11 iterations at t[s]:    177.46
	Linear fluid (dielectric constant: 64) occupying 0.877171 of unit cell:	Completed after 10 iterations at t[s]:    178.22
	FillingsUpdate:  mu: -0.085494345  nElectrons: 330.000000
	SubspaceRotationAdjust: set factor to 0.15
ElecMinimize: Iter:   8  F: -657.220627559118498  |grad|_K:  4.433e-06  alpha:  6.213e-01  linmin: -7.903e-06  t[s]:    179.06
	Linear fluid (dielectric constant: 64) occupying 0.877202 of unit cell:	Completed after 13 iterations at t[s]:    179.80
	Linear fluid (dielectric constant: 64) occupying 0.877189 of unit cell:	Completed after 10 iterations at t[s]:    180.57
	FillingsUpdate:  mu: -0.087744815  nElectrons: 330.000000
	SubspaceRotationAdjust: set factor to 0.13
ElecMinimize: Iter:   9  F: -657.220821514741942  |grad|_K:  3.172e-06  alpha:  3.391e-01  linmin:  1.022e-06  t[s]:    181.45
	Linear fluid (dielectric constant: 64) occupying 0.877203 of unit cell:	Completed after 10 iterations at t[s]:    182.17
	Linear fluid (dielectric constant: 64) occupying 0.877203 of unit cell:	Completed after 2 iterations at t[s]:    182.87
	FillingsUpdate:  mu: -0.086299144  nElectrons: 330.000000
	SubspaceRotationAdjust: set factor to 0.123
ElecMinimize: Iter:  10  F: -657.220925372648139  |grad|_K:  2.213e-06  alpha:  3.558e-01  linmin: -9.716e-06  t[s]:    183.70
	Linear fluid (dielectric constant: 64) occupying 0.877210 of unit cell:	Completed after 5 iterations at t[s]:    184.37
	Linear fluid (dielectric constant: 64) occupying 0.877213 of unit cell:	Completed after 4 iterations at t[s]:    185.11
	FillingsUpdate:  mu: -0.087015345  nElectrons: 330.000000
	SubspaceRotationAdjust: set factor to 0.129
ElecMinimize: Iter:  11  F: -657.220999984385230  |grad|_K:  1.579e-06  alpha:  5.235e-01  linmin:  9.247e-06  t[s]:    185.93
	Linear fluid (dielectric constant: 64) occupying 0.877215 of unit cell:	Completed after 7 iterations at t[s]:    186.63
	Linear fluid (dielectric constant: 64) occupying 0.877214 of unit cell:	Completed after 3 iterations at t[s]:    187.33
	FillingsUpdate:  mu: -0.086652527  nElectrons: 330.000000
	SubspaceRotationAdjust: set factor to 0.144
ElecMinimize: Iter:  12  F: -657.221025799460904  |grad|_K:  1.166e-06  alpha:  3.615e-01  linmin: -6.567e-07  t[s]:    188.21
	Linear fluid (dielectric constant: 64) occupying 0.877212 of unit cell:	Completed after 3 iterations at t[s]:    188.86
	Linear fluid (dielectric constant: 64) occupying 0.877211 of unit cell:	Completed after 3 iterations at t[s]:    189.53
	FillingsUpdate:  mu: -0.086624158  nElectrons: 330.000000
	SubspaceRotationAdjust: set factor to 0.174
ElecMinimize: Iter:  13  F: -657.221050941890439  |grad|_K:  7.690e-07  alpha:  6.391e-01  linmin:  4.167e-06  t[s]:    190.36
	Linear fluid (dielectric constant: 64) occupying 0.877211 of unit cell:	Completed after 4 iterations at t[s]:    191.01
	Linear fluid (dielectric constant: 64) occupying 0.877211 of unit cell:	Completed after 0 iterations at t[s]:    191.65
	FillingsUpdate:  mu: -0.086678987  nElectrons: 330.000000
	SubspaceRotationAdjust: set factor to 0.199
ElecMinimize: Iter:  14  F: -657.221060709537596  |grad|_K:  7.042e-07  alpha:  5.717e-01  linmin:  3.069e-06  t[s]:    192.45
	Linear fluid (dielectric constant: 64) occupying 0.877212 of unit cell:	Completed after 4 iterations at t[s]:    193.12
	Linear fluid (dielectric constant: 64) occupying 0.877212 of unit cell:	Completed after 0 iterations at t[s]:    193.77
	FillingsUpdate:  mu: -0.086581078  nElectrons: 330.000000
	SubspaceRotationAdjust: set factor to 0.233
ElecMinimize: Iter:  15  F: -657.221067513069443  |grad|_K:  5.272e-07  alpha:  4.786e-01  linmin:  1.875e-06  t[s]:    194.58
	Linear fluid (dielectric constant: 64) occupying 0.877212 of unit cell:	Completed after 3 iterations at t[s]:    195.22
	Linear fluid (dielectric constant: 64) occupying 0.877212 of unit cell:	Completed after 0 iterations at t[s]:    195.87
	FillingsUpdate:  mu: -0.086828490  nElectrons: 330.000000
	SubspaceRotationAdjust: set factor to 0.235
ElecMinimize: Iter:  16  F: -657.221071294548096  |grad|_K:  5.737e-07  alpha:  4.718e-01  linmin: -7.483e-06  t[s]:    196.67
	Linear fluid (dielectric constant: 64) occupying 0.877212 of unit cell:	Completed after 5 iterations at t[s]:    197.34
	Linear fluid (dielectric constant: 64) occupying 0.877212 of unit cell:	Completed after 3 iterations at t[s]:    198.03
	FillingsUpdate:  mu: -0.086499144  nElectrons: 330.000000
	SubspaceRotationAdjust: set factor to 0.177
ElecMinimize: Iter:  17  F: -657.221073496402596  |grad|_K:  4.076e-07  alpha:  2.353e-01  linmin:  1.823e-06  t[s]:    198.85
	Linear fluid (dielectric constant: 64) occupying 0.877211 of unit cell:	Completed after 2 iterations at t[s]:    199.49
	Linear fluid (dielectric constant: 64) occupying 0.877211 of unit cell:	Completed after 2 iterations at t[s]:    200.14
	FillingsUpdate:  mu: -0.086649898  nElectrons: 330.000000
	SubspaceRotationAdjust: set factor to 0.189
ElecMinimize: Iter:  18  F: -657.221075552008301  |grad|_K:  3.203e-07  alpha:  4.291e-01  linmin: -3.683e-06  t[s]:    200.96
	Linear fluid (dielectric constant: 64) occupying 0.877210 of unit cell:	Completed after 2 iterations at t[s]:    201.59
	Linear fluid (dielectric constant: 64) occupying 0.877210 of unit cell:	Completed after 0 iterations at t[s]:    202.23
	FillingsUpdate:  mu: -0.086652153  nElectrons: 330.000000
	SubspaceRotationAdjust: set factor to 0.229
ElecMinimize: Iter:  19  F: -657.221076945854520  |grad|_K:  2.205e-07  alpha:  4.537e-01  linmin: -4.156e-06  t[s]:    203.03
	Linear fluid (dielectric constant: 64) occupying 0.877210 of unit cell:	Completed after 2 iterations at t[s]:    203.67
	Linear fluid (dielectric constant: 64) occupying 0.877210 of unit cell:	Completed after 0 iterations at t[s]:    204.30
	FillingsUpdate:  mu: -0.086588660  nElectrons: 330.000000
	SubspaceRotationAdjust: set factor to 0.247
ElecMinimize: Iter:  20  F: -657.221077750881250  |grad|_K:  1.921e-07  alpha:  5.386e-01  linmin: -1.548e-05  t[s]:    205.11
	Linear fluid (dielectric constant: 64) occupying 0.877210 of unit cell:	Completed after 3 iterations at t[s]:    205.75
	Linear fluid (dielectric constant: 64) occupying 0.877210 of unit cell:	Completed after 0 iterations at t[s]:    206.39
	FillingsUpdate:  mu: -0.086698667  nElectrons: 330.000000
	SubspaceRotationAdjust: set factor to 0.228
ElecMinimize: Iter:  21  F: -657.221078275191417  |grad|_K:  2.320e-07  alpha:  4.177e-01  linmin:  1.076e-05  t[s]:    207.23
	Linear fluid (dielectric constant: 64) occupying 0.877211 of unit cell:	Completed after 3 iterations at t[s]:    207.90
	Linear fluid (dielectric constant: 64) occupying 0.877211 of unit cell:	Completed after 1 iterations at t[s]:    208.58
	FillingsUpdate:  mu: -0.086550505  nElectrons: 330.000000
	SubspaceRotationAdjust: set factor to 0.158
ElecMinimize: Iter:  22  F: -657.221078563967581  |grad|_K:  1.884e-07  alpha:  2.339e-01  linmin:  1.031e-05  t[s]:    209.41
	Linear fluid (dielectric constant: 64) occupying 0.877211 of unit cell:	Completed after 2 iterations at t[s]:    210.07
	Linear fluid (dielectric constant: 64) occupying 0.877211 of unit cell:	Completed after 0 iterations at t[s]:    210.71
	FillingsUpdate:  mu: -0.086627811  nElectrons: 330.000000
	SubspaceRotationAdjust: set factor to 0.167
ElecMinimize: Iter:  23  F: -657.221078787851184  |grad|_K:  1.236e-07  alpha:  2.425e-01  linmin: -1.949e-05  t[s]:    211.53
	Linear fluid (dielectric constant: 64) occupying 0.877211 of unit cell:	Completed after 0 iterations at t[s]:    212.15
	Linear fluid (dielectric constant: 64) occupying 0.877212 of unit cell:	Completed after 1 iterations at t[s]:    212.81
	FillingsUpdate:  mu: -0.086628458  nElectrons: 330.000000
	SubspaceRotationAdjust: set factor to 0.186
ElecMinimize: Iter:  24  F: -657.221079043941813  |grad|_K:  1.332e-07  alpha:  6.084e-01  linmin:  1.132e-05  t[s]:    213.64
	Linear fluid (dielectric constant: 64) occupying 0.877213 of unit cell:	Completed after 3 iterations at t[s]:    214.30
	Linear fluid (dielectric constant: 64) occupying 0.877212 of unit cell:	Completed after 0 iterations at t[s]:    214.95
	FillingsUpdate:  mu: -0.086590322  nElectrons: 330.000000
	SubspaceRotationAdjust: set factor to 0.193
ElecMinimize: Iter:  25  F: -657.221079132529667  |grad|_K:  1.616e-07  alpha:  2.922e-01  linmin:  3.191e-06  t[s]:    215.80
	Linear fluid (dielectric constant: 64) occupying 0.877213 of unit cell:	Completed after 2 iterations at t[s]:    216.43
	Linear fluid (dielectric constant: 64) occupying 0.877213 of unit cell:	Completed after 0 iterations at t[s]:    217.06
	FillingsUpdate:  mu: -0.086644928  nElectrons: 330.000000
	SubspaceRotationAdjust: set factor to 0.19
ElecMinimize: Iter:  26  F: -657.221079254704478  |grad|_K:  1.375e-07  alpha:  1.834e-01  linmin:  3.887e-06  t[s]:    217.87
	Linear fluid (dielectric constant: 64) occupying 0.877213 of unit cell:	Completed after 0 iterations at t[s]:    218.48
	Linear fluid (dielectric constant: 64) occupying 0.877213 of unit cell:	Completed after 1 iterations at t[s]:    219.12
	FillingsUpdate:  mu: -0.086607459  nElectrons: 330.000000
	SubspaceRotationAdjust: set factor to 0.215
ElecMinimize: Iter:  27  F: -657.221079369081167  |grad|_K:  1.179e-07  alpha:  4.114e-01  linmin:  1.192e-05  t[s]:    219.94
	Linear fluid (dielectric constant: 64) occupying 0.877214 of unit cell:	Completed after 2 iterations at t[s]:    220.58
	Linear fluid (dielectric constant: 64) occupying 0.877213 of unit cell:	Completed after 1 iterations at t[s]:    221.24
ElecMinimize: 	Step increased F by 2.982836e-08, reducing alpha to 1.118804e-02.
	Linear fluid (dielectric constant: 64) occupying 0.877213 of unit cell:	Completed after 0 iterations at t[s]:    222.52
	FillingsUpdate:  mu: -0.086500377  nElectrons: 330.000000
	SubspaceRotationAdjust: set factor to 0.163
ElecMinimize: Iter:  28  F: -657.221079373570547  |grad|_K:  1.985e-07  alpha:  1.119e-02  linmin:  1.362e-05  t[s]:    223.35
	Linear fluid (dielectric constant: 64) occupying 0.877213 of unit cell:	Completed after 0 iterations at t[s]:    223.96
ElecMinimize: 	Predicted alpha/alphaT>3.000000, increasing alphaT to 3.356411e-02.
	Linear fluid (dielectric constant: 64) occupying 0.877213 of unit cell:	Completed after 0 iterations at t[s]:    224.59
ElecMinimize: 	Predicted alpha/alphaT>3.000000, increasing alphaT to 1.006923e-01.
	Linear fluid (dielectric constant: 64) occupying 0.877214 of unit cell:	Completed after 0 iterations at t[s]:    225.21
	Linear fluid (dielectric constant: 64) occupying 0.877214 of unit cell:	Completed after 0 iterations at t[s]:    225.84
	FillingsUpdate:  mu: -0.086497837  nElectrons: 330.000000
	SubspaceRotationAdjust: set factor to 0.129
ElecMinimize: Iter:  29  F: -657.221079460267333  |grad|_K:  1.794e-07  alpha:  1.178e-01  linmin:  2.896e-08  t[s]:    226.66
	Linear fluid (dielectric constant: 64) occupying 0.877214 of unit cell:	Completed after 3 iterations at t[s]:    227.30
	Linear fluid (dielectric constant: 64) occupying 0.877214 of unit cell:	Completed after 0 iterations at t[s]:    227.95
ElecMinimize: 	Step increased F by 9.575501e-09, reducing alpha to 4.697617e-03.
	Linear fluid (dielectric constant: 64) occupying 0.877214 of unit cell:	Completed after 0 iterations at t[s]:    229.23
	FillingsUpdate:  mu: -0.086606496  nElectrons: 330.000000
	SubspaceRotationAdjust: set factor to 0.109
ElecMinimize: Iter:  30  F: -657.221079463050273  |grad|_K:  1.195e-07  alpha:  4.698e-03  linmin:  2.452e-06  t[s]:    236.16
	Linear fluid (dielectric constant: 64) occupying 0.877214 of unit cell:	Completed after 0 iterations at t[s]:    236.78
ElecMinimize: 	Predicted alpha/alphaT>3.000000, increasing alphaT to 1.409285e-02.
	Linear fluid (dielectric constant: 64) occupying 0.877214 of unit cell:	Completed after 0 iterations at t[s]:    237.40
ElecMinimize: 	Predicted alpha/alphaT>3.000000, increasing alphaT to 4.227856e-02.
	Linear fluid (dielectric constant: 64) occupying 0.877214 of unit cell:	Completed after 0 iterations at t[s]:    238.02
ElecMinimize: 	Predicted alpha/alphaT>3.000000, increasing alphaT to 1.268357e-01.
	Linear fluid (dielectric constant: 64) occupying 0.877214 of unit cell:	Completed after 0 iterations at t[s]:    238.65
	FillingsUpdate:  mu: -0.086604375  nElectrons: 330.000000
	SubspaceRotationAdjust: set factor to 0.123
ElecMinimize: Iter:  31  F: -657.221079553364916  |grad|_K:  7.844e-08  alpha:  2.389e-01  linmin:  1.691e-07  t[s]:    239.45
	Linear fluid (dielectric constant: 64) occupying 0.877214 of unit cell:	Completed after 0 iterations at t[s]:    244.22
	Linear fluid (dielectric constant: 64) occupying 0.877214 of unit cell:	Completed after 0 iterations at t[s]:    248.56
	FillingsUpdate:  mu: -0.086604114  nElectrons: 330.000000
	SubspaceRotationAdjust: set factor to 0.14
ElecMinimize: Iter:  32  F: -657.221079611131245  |grad|_K:  6.672e-08  alpha:  3.246e-01  linmin:  4.019e-08  t[s]:    249.37
	Linear fluid (dielectric constant: 64) occupying 0.877214 of unit cell:	Completed after 2 iterations at t[s]:    250.01
	Linear fluid (dielectric constant: 64) occupying 0.877214 of unit cell:	Completed after 0 iterations at t[s]:    250.64
ElecMinimize: 	Step increased F by 1.239073e-07, reducing alpha to 4.036289e-03.
	Linear fluid (dielectric constant: 64) occupying 0.877214 of unit cell:	Completed after 0 iterations at t[s]:    251.95
ElecMinimize: 	Step increased F by 1.123822e-07, reducing alpha to 4.036289e-04.
	Linear fluid (dielectric constant: 64) occupying 0.877214 of unit cell:	Completed after 0 iterations at t[s]:    253.24
ElecMinimize: 	Step increased F by 1.113051e-07, reducing alpha to 4.036289e-05.
ElecMinimize: 	Step failed to reduce F after 3 attempts. Quitting step.
ElecMinimize: 	Undoing step.
	Linear fluid (dielectric constant: 64) occupying 0.877214 of unit cell:	Completed after 0 iterations at t[s]:    254.53
ElecMinimize: 	Step failed: resetting search direction.
	FillingsUpdate:  mu: -0.086510753  nElectrons: 330.000000
	SubspaceRotationAdjust: set factor to 0.135
ElecMinimize: Iter:  33  F: -657.221079499861730  |grad|_K:  2.093e-07  alpha:  4.036e-05
	Linear fluid (dielectric constant: 64) occupying 0.877214 of unit cell:	Completed after 3 iterations at t[s]:    255.95
	Linear fluid (dielectric constant: 64) occupying 0.877214 of unit cell:	Completed after 3 iterations at t[s]:    256.63
	FillingsUpdate:  mu: -0.086613875  nElectrons: 330.000000
	SubspaceRotationAdjust: set factor to 0.0676
ElecMinimize: Iter:  34  F: -657.221079568916934  |grad|_K:  6.119e-08  alpha:  1.181e-01  linmin:  2.064e-04  t[s]:    257.45
	Linear fluid (dielectric constant: 64) occupying 0.877214 of unit cell:	Completed after 0 iterations at t[s]:    258.07
ElecMinimize: 	Predicted alpha/alphaT>3.000000, increasing alphaT to 3.541702e-01.
	Linear fluid (dielectric constant: 64) occupying 0.877214 of unit cell:	Completed after 0 iterations at t[s]:    258.69
	Linear fluid (dielectric constant: 64) occupying 0.877214 of unit cell:	Completed after 0 iterations at t[s]:    259.31
	FillingsUpdate:  mu: -0.086615740  nElectrons: 330.000000
	SubspaceRotationAdjust: set factor to 0.0893
ElecMinimize: Iter:  35  F: -657.221079644709903  |grad|_K:  7.444e-08  alpha:  7.708e-01  linmin:  6.846e-08  t[s]:    260.13
	Linear fluid (dielectric constant: 64) occupying 0.877213 of unit cell:	Completed after 3 iterations at t[s]:    260.78
	Linear fluid (dielectric constant: 64) occupying 0.877214 of unit cell:	Completed after 3 iterations at t[s]:    261.46
ElecMinimize: 	Step increased F by 1.087861e-07, reducing alpha to 8.862731e-03.
	Linear fluid (dielectric constant: 64) occupying 0.877214 of unit cell:	Completed after 0 iterations at t[s]:    262.76
ElecMinimize: 	Step increased F by 7.883989e-08, reducing alpha to 8.862731e-04.
	Linear fluid (dielectric constant: 64) occupying 0.877214 of unit cell:	Completed after 0 iterations at t[s]:    264.05
ElecMinimize: 	Step increased F by 7.604660e-08, reducing alpha to 8.862731e-05.
ElecMinimize: 	Step failed to reduce F after 3 attempts. Quitting step.
ElecMinimize: 	Undoing step.
	Linear fluid (dielectric constant: 64) occupying 0.877214 of unit cell:	Completed after 0 iterations at t[s]:    265.34
ElecMinimize: 	Step failed: resetting search direction.
	FillingsUpdate:  mu: -0.086511869  nElectrons: 330.000000
	SubspaceRotationAdjust: set factor to 0.081
ElecMinimize: Iter:  36  F: -657.221079568706955  |grad|_K:  1.355e-07  alpha:  8.863e-05
	Linear fluid (dielectric constant: 64) occupying 0.877213 of unit cell:	Completed after 3 iterations at t[s]:    266.77
	Linear fluid (dielectric constant: 64) occupying 0.877214 of unit cell:	Completed after 3 iterations at t[s]:    267.44
	FillingsUpdate:  mu: -0.086597932  nElectrons: 330.000000
	SubspaceRotationAdjust: set factor to 0.0606
ElecMinimize: Iter:  37  F: -657.221079613124402  |grad|_K:  5.563e-08  alpha:  1.679e-01  linmin:  1.833e-04  t[s]:    268.26
	Linear fluid (dielectric constant: 64) occupying 0.877214 of unit cell:	Completed after 0 iterations at t[s]:    268.88
	Linear fluid (dielectric constant: 64) occupying 0.877213 of unit cell:	Completed after 0 iterations at t[s]:    269.52
	FillingsUpdate:  mu: -0.086598611  nElectrons: 330.000000
	SubspaceRotationAdjust: set factor to 0.0728
ElecMinimize: Iter:  38  F: -657.221079647763418  |grad|_K:  3.949e-08  alpha:  4.714e-01  linmin:  1.553e-07  t[s]:    270.33
	Linear fluid (dielectric constant: 64) occupying 0.877213 of unit cell:	Completed after 0 iterations at t[s]:    270.95
	Linear fluid (dielectric constant: 64) occupying 0.877213 of unit cell:	Completed after 0 iterations at t[s]:    271.61
	FillingsUpdate:  mu: -0.086599225  nElectrons: 330.000000
	SubspaceRotationAdjust: set factor to 0.0952
ElecMinimize: Iter:  39  F: -657.221079662310217  |grad|_K:  2.843e-08  alpha:  3.217e-01  linmin:  6.829e-08  t[s]:    272.42
	Linear fluid (dielectric constant: 64) occupying 0.877213 of unit cell:	Completed after 0 iterations at t[s]:    273.04
	Linear fluid (dielectric constant: 64) occupying 0.877213 of unit cell:	Completed after 2 iterations at t[s]:    273.70
ElecMinimize: 	Step increased F by 2.124365e-07, reducing alpha to 9.433308e-02.
	Linear fluid (dielectric constant: 64) occupying 0.877213 of unit cell:	Completed after 0 iterations at t[s]:    275.01
ElecMinimize: 	Step increased F by 5.477193e-08, reducing alpha to 9.433308e-03.
	Linear fluid (dielectric constant: 64) occupying 0.877213 of unit cell:	Completed after 0 iterations at t[s]:    276.35
ElecMinimize: 	Step increased F by 4.097342e-08, reducing alpha to 9.433308e-04.
ElecMinimize: 	Step failed to reduce F after 3 attempts. Quitting step.
ElecMinimize: 	Undoing step.
	Linear fluid (dielectric constant: 64) occupying 0.877213 of unit cell:	Completed after 0 iterations at t[s]:    277.65
ElecMinimize: 	Step failed: resetting search direction.
	FillingsUpdate:  mu: -0.086503560  nElectrons: 330.000000
	SubspaceRotationAdjust: set factor to 0.0924
ElecMinimize: Iter:  40  F: -657.221079621504032  |grad|_K:  1.835e-07  alpha:  9.433e-04
	Linear fluid (dielectric constant: 64) occupying 0.877213 of unit cell:	Completed after 2 iterations at t[s]:    279.14
	Linear fluid (dielectric constant: 64) occupying 0.877213 of unit cell:	Completed after 2 iterations at t[s]:    279.80
	FillingsUpdate:  mu: -0.086632648  nElectrons: 330.000000
	SubspaceRotationAdjust: set factor to 0.0474
ElecMinimize: Iter:  41  F: -657.221079661848307  |grad|_K:  7.178e-08  alpha:  1.116e-01  linmin:  6.646e-04  t[s]:    280.62
	Linear fluid (dielectric constant: 64) occupying 0.877213 of unit cell:	Completed after 0 iterations at t[s]:    281.23
	Linear fluid (dielectric constant: 64) occupying 0.877213 of unit cell:	Completed after 0 iterations at t[s]:    281.86
ElecMinimize: 	Step increased F by 5.592483e-09, reducing alpha to 6.387326e-03.
	Linear fluid (dielectric constant: 64) occupying 0.877213 of unit cell:	Completed after 0 iterations at t[s]:    283.16
ElecMinimize: 	Step increased F by 1.597573e-08, reducing alpha to 6.387326e-04.
	Linear fluid (dielectric constant: 64) occupying 0.877213 of unit cell:	Completed after 0 iterations at t[s]:    284.44
ElecMinimize: 	Step increased F by 1.703302e-08, reducing alpha to 6.387326e-05.
ElecMinimize: 	Step failed to reduce F after 3 attempts. Quitting step.
ElecMinimize: 	Undoing step.
	Linear fluid (dielectric constant: 64) occupying 0.877213 of unit cell:	Completed after 0 iterations at t[s]:    285.75
ElecMinimize: 	Step failed: resetting search direction.
	FillingsUpdate:  mu: -0.086627177  nElectrons: 330.000000
	SubspaceRotationAdjust: set factor to 0.0703
ElecMinimize: Iter:  42  F: -657.221079644813244  |grad|_K:  5.845e-08  alpha:  6.387e-05
	Linear fluid (dielectric constant: 64) occupying 0.877213 of unit cell:	Completed after 0 iterations at t[s]:    287.15
ElecMinimize: 	Predicted alpha/alphaT>3.000000, increasing alphaT to 3.348832e-01.
	Linear fluid (dielectric constant: 64) occupying 0.877213 of unit cell:	Completed after 0 iterations at t[s]:    287.77
	Linear fluid (dielectric constant: 64) occupying 0.877213 of unit cell:	Completed after 2 iterations at t[s]:    288.42
ElecMinimize: 	Step increased F by 3.387876e-07, reducing alpha to 9.544587e-02.
	Linear fluid (dielectric constant: 64) occupying 0.877213 of unit cell:	Completed after 3 iterations at t[s]:    289.75
ElecMinimize: 	Step increased F by 7.137601e-09, reducing alpha to 9.544587e-03.
	Linear fluid (dielectric constant: 64) occupying 0.877213 of unit cell:	Completed after 0 iterations at t[s]:    291.06
ElecMinimize: 	Step increased F by 4.416165e-09, reducing alpha to 9.544587e-04.
ElecMinimize: 	Step failed to reduce F after 3 attempts. Quitting step.
ElecMinimize: 	Undoing step.
	Linear fluid (dielectric constant: 64) occupying 0.877213 of unit cell:	Completed after 0 iterations at t[s]:    292.34
ElecMinimize: 	Step failed along negative gradient direction.
ElecMinimize: Probably at roundoff error limit. (Stopping)
Setting wave functions to eigenvectors of Hamiltonian
Single-point solvation energy estimate, DeltaF = -0.145783937093825

# Ionic positions in cartesian coordinates:
ion C  28.005857181630002   0.000000000000000   1.000001652210000 0
ion C  25.672025513790000   4.042310104620000   1.000001652210000 0
ion C  11.669128103520009  20.211535405260001   1.000001652210000 0
ion C   4.667680343250000   0.000000000000000   1.000001652210000 0
ion C  23.338288332449999   0.000000000000000   1.000001652210000 0
ion C   2.333822219190000   4.042310104620000   1.000001652210000 0
ion C  16.336708291080008  20.211535405260001   1.000001652210000 0
ion C  23.338191956219998   8.084622098970000   1.000001652210000 0
ion C   9.335305884330001  16.169223410910011   1.000001652210000 0
ion C   9.335322891900001   0.000000000000000   1.000001652210000 0
ion C  18.670626886499999   0.000000000000000   1.000001652210000 0
ion C  18.670539958920003  16.169223410910011   1.000001652210000 0
ion C  21.004371626759990  12.126913306290001   1.000001652210000 0
ion C  14.002984337850000   0.000000000000000   1.000001652210000 0
ion C   0.000000000000000   8.084622098970000   1.000001652210000 0
ion C   7.001485554870008  20.211535405260001   1.000001652210000 0
ion C  -7.001481775409991  20.211535405260001   1.000001652210000 0
ion C  -2.333822219189998  12.126913306290001   1.000001652210000 0
ion C   4.667663335679999  16.169223410910011   1.000001652210000 0
ion C  -2.333820329459993  20.211535405260001   1.000001652210000 0
ion C   2.333824108920002  20.211535405260001   1.000001652210000 0
ion C  -4.667659556220000  16.169223410910011   1.000001652210000 0
ion C   7.001483665139999   4.042310104620000   1.000001652210000 0
ion C  21.004430208389998   4.042310104620000   1.000001652210000 0
ion C  14.002948432980006  16.169223410910011   1.000001652210000 0
ion C   0.000001889729997  16.169223410910011   1.000001652210000 0
ion C  11.669126213789999   4.042310104620000   1.000001652210000 0
ion C  18.670609878929998   8.084622098970000   1.000001652210000 0
ion C  11.669126213789998  12.126913306290001   1.000001652210000 0
ion C  16.336787659739997  12.126913306290001   1.000001652210000 0
ion C  16.336789549470002   4.042310104620000   1.000001652210000 0
ion C   9.335303994600004   8.084622098970000   1.000001652210000 0
ion C  14.002948432980002   8.084622098970000   1.000001652210000 0
ion C   0.000000000000000   2.694874032990001   1.000001652210000 0
ion C  11.669128103519999  22.906390540950017   1.000001652210000 0
ion C -11.669124324059998  22.906390540950017   1.000001652210000 0
ion C  -2.333822219190000   6.737165240310007   1.000001652210000 0
ion C   9.335305884330001  18.864097443900004   1.000001652210000 0
ion C  -7.001481775409996  22.906390540950017   1.000001652210000 0
ion C   7.001485554870008  22.906390540950017   1.000001652210000 0
ion C   2.333822219189996   6.737165240310007   1.000001652210000 0
ion C  -9.335302104869994  18.864097443900004   1.000001652210000 0
ion C  -4.667661445950001  10.779477234660009   1.000001652210000 0
ion C  -2.333820329460000  22.906390540950017   1.000001652210000 0
ion C   2.333824108919998  22.906390540950017   1.000001652210000 0
ion C  -7.001483665140000  14.821787339280013   1.000001652210000 0
ion C   4.667661445950001   2.694874032990001   1.000001652210000 0
ion C  23.338269435150011   2.694874032990001   1.000001652210000 0
ion C  14.002967330279997  18.864097443900004   1.000001652210000 0
ion C   0.000000000000000  10.779477234660009   1.000001652210000 0
ion C   4.667663335679999  18.864097443900004   1.000001652210000 0
ion C  -4.667640658919993  18.864097443900004   1.000001652210000 0
ion C  -2.333822219190001  14.821787339280013   1.000001652210000 0
ion C   2.333824108919995  14.821787339280013   1.000001652210000 0
ion C   0.000001889729999  18.864097443900004   1.000001652210000 0
ion C   9.335303994599997   2.694874032990001   1.000001652210000 0
ion C  21.004430208390001   6.737165240310007   1.000001652210000 0
ion C  11.669126213790003  14.821787339280013   1.000001652210000 0
ion C  16.336789549469998  14.821787339280013   1.000001652210000 0
ion C  18.670609878930012   2.694874032990001   1.000001652210000 0
ion C   7.001483665139997   6.737165240310007   1.000001652210000 0
ion C  14.002946543250001   2.694874032990001   1.000001652210000 0
ion C  18.670607989199997  10.779477234660009   1.000001652210000 0
ion C  11.669126213789998   6.737165240310007   1.000001652210000 0
ion C  16.336787659740001   6.737165240310007   1.000001652210000 0
ion C  14.002946543250001  10.779477234660009   1.000001652210000 0
ion N   4.667661445950002   8.084622098970000   1.000001652210000 0
ion N   2.333822219190005  12.126913306290001   1.000001652210000 0
ion N   7.001485554869994  14.821787339280013   1.000001652210000 0
ion N   9.335305884329998  10.779477234660009   1.000001652210000 0
ion Fe   5.837109518069997  11.454309266310007   1.000001652210000 0
ion S   7.947743613481268   9.434780167700977   5.503482059153304 1
ion S   5.315184851011422  11.497731789571944   5.398376577584131 1
ion Na  10.003185551079463  13.663671887147864   5.682709266101545 1
ion Na   4.517266082178249   6.234391681576700   5.710450705027357 1

# Forces in Cartesian coordinates:
force C   0.003011975265129   0.000192569401320   0.000036286643851 0
force C   0.001166969800387  -0.000126958243474   0.000010554627352 0
force C   0.002047055662039  -0.002077298637151   0.000035757116100 0
force C   0.000403966811632   0.002562898347484   0.000095302438816 0
force C   0.001636393766582   0.000075370588791   0.000017663825876 0
force C   0.003199122134953   0.002402024330338  -0.002196536840476 0
force C   0.000831593274244  -0.000118478159384  -0.000003483717862 0
force C  -0.000001176905984   0.000950503784007  -0.000006717973581 0
force C  -0.034595338579205  -0.013154920649845  -0.004212344968469 0
force C  -0.000607981209098  -0.000011553399581  -0.000086184659310 0
force C  -0.000661855826736  -0.000007073218786   0.000029511241892 0
force C   0.000395007678742   0.000934528832677   0.000006083500592 0
force C   0.001612851031537   0.002807269229708  -0.000016683642420 0
force C   0.000445788921991   0.000219136319624  -0.000009344524451 0
force C   0.012606994685483   0.006415364554730   0.000382878734241 0
force C   0.002239884705091   0.002130851185133  -0.000130596447690 0
force C   0.001661964119659   0.001044850010909   0.000007875542545 0
force C   0.003915872263226   0.002849399642988   0.000368360315313 0
force C   0.029150002615534   0.008280431025116   0.000287658261635 0
force C  -0.000544889375366  -0.000205818484869  -0.000009007513152 0
force C  -0.001780723484996   0.000097737929683  -0.000000668149669 0
force C   0.002379309394438  -0.000642737982672   0.000004354821308 0
force C   0.005182167377212   0.001978493894040  -0.003211297092513 0
force C   0.001873091445578   0.001199452509695   0.000001535697664 0
force C   0.000586039120620   0.000246903908641   0.000141783072526 0
force C   0.005608279108362   0.002482679047389   0.000476137895959 0
force C  -0.000777470314945  -0.001802699915546   0.000282836736513 0
force C   0.000532919311712   0.001554661457264   0.000008559263524 0
force C  -0.029006830376257  -0.023658752587678  -0.008940965586220 0
force C  -0.001029969644119   0.002749139044365   0.000201082511833 0
force C  -0.000379031444308  -0.000431762894443  -0.000035115543191 0
force C   0.027540771517755   0.018833563452889  -0.007705703824638 0
force C   0.002491173909370   0.001324654543227   0.000792822756330 0
force C  -0.002705991383775   0.001752064141308   0.000046180999705 0
force C  -0.003256141085088   0.000127190785264  -0.000044377076651 0
force C  -0.001474634674008  -0.000086550401781   0.000029353078663 0
force C   0.000329906120049  -0.000075476995282   0.000020565491446 0
force C  -0.004049646306528  -0.001460048713688   0.000444299188936 0
force C   0.000901810008887   0.000050678435541  -0.000004290871104 0
force C  -0.000706468282414  -0.002634026663662   0.000012350992513 0
force C   0.029799593992061   0.012429934230032  -0.004904965000136 0
force C  -0.001781642436315  -0.001095179068003  -0.000008806265387 0
force C   0.000587438855473  -0.003117580782283  -0.000028098065934 0
force C  -0.000188102475304  -0.000380526790461  -0.000012754158280 0
force C   0.000442888702186   0.000065703323735  -0.000008838862433 0
force C  -0.000680810782532  -0.001304393255534   0.000037277737544 0
force C  -0.001018077911822  -0.002270571360854  -0.001797795175053 0
force C  -0.000961118912689   0.000021165453267   0.000021539651312 0
force C  -0.000783380300631  -0.000063719898173   0.000036703713268 0
force C   0.030401059836034   0.022945336485730   0.000128469777777 0
force C  -0.005184448875063  -0.004767044959167   0.000102215536572 0
force C   0.000386604549701   0.000504469101125   0.000026220708056 0
force C  -0.002535399234596  -0.000672789207080  -0.000149708136756 0
force C  -0.021043431033341  -0.022330311808707   0.000510825065831 0
force C   0.001048534805574   0.001204458178278  -0.000032893290589 0
force C   0.001697201207802   0.000095088661329   0.000379639508836 0
force C   0.000086299267005  -0.000877294721396   0.000029940042002 0
force C  -0.011619671445879  -0.006696640072829  -0.004322133034912 0
force C  -0.000605396682476  -0.000751649381679  -0.000019104672621 0
force C  -0.001771734589737  -0.000977219523544   0.000009084709372 0
force C  -0.030627435994435  -0.009299902875319  -0.004641007857379 0
force C   0.000105768697862   0.000301460094715  -0.000046570761929 0
force C  -0.001403723329533  -0.002884105167197   0.000035190060071 0
force C  -0.007416086902816  -0.001558140637360  -0.002043910312234 0
force C  -0.002409786387931   0.000658442692597  -0.000070496096361 0
force C  -0.002667525718016  -0.002587028045389   0.000688107322720 0
force N   0.024708771819829  -0.035106793218027  -0.014590165557849 0
force N  -0.020724272646805   0.040599514922285  -0.014470932125311 0
force N  -0.023251693762581   0.034924884772951  -0.011585741685974 0
force N   0.027264083392082  -0.030144669299553  -0.023193039261189 0
force Fe  -0.019181502142081   0.009174266572540   0.031970046827253 0
force S   0.122829226653154  -0.104498196225384   0.061129405055514 1
force S  -0.112460312495026   0.090200162363099  -0.022809379846884 1
force Na   0.016871656551134   0.022984900634740   0.016713893224551 1
force Na  -0.017445517920570  -0.021347199413853   0.017367744604986 1

# Energy components:
   A_diel =       -0.2124303016761078
   Eewald =     4260.0192811971946867
       EH =     4795.1345795848010312
     Eloc =    -9771.9467424987487902
      Enl =      -62.4814820012518197
      Exc =     -168.1408034168285894
 Exc_core =        6.8981261154223326
       KE =      283.5836000990016146
-------------------------------------
     Etot =     -657.1458712220858160
       TS =        0.0752084183334866
-------------------------------------
        F =     -657.2210796404192479

IonicMinimize: Iter:   0  F: -657.221079640419248  |grad|_K:  6.658e-02  alpha:  1.000e+00

#--- Lowdin population analysis ---
# oxidation-state C +0.023 +0.016 +0.019 +0.018 +0.019 +0.002 +0.020 +0.016 +0.122 +0.021 +0.021 +0.020 +0.025 +0.020 -0.011 +0.029 +0.025 +0.010 +0.110 +0.022 +0.016 +0.019 +0.008 +0.028 +0.032 +0.018 +0.015 +0.019 +0.115 +0.020 +0.021 +0.117 +0.027 +0.020 +0.026 +0.018 +0.032 +0.009 +0.021 +0.019 +0.119 +0.028 +0.020 +0.021 +0.022 +0.020 +0.028 +0.020 +0.014 +0.129 +0.018 +0.021 +0.030 +0.108 +0.017 +0.017 +0.021 -0.024 +0.014 +0.026 +0.108 +0.021 +0.025 +0.013 +0.019 +0.006
# oxidation-state N -0.161 -0.132 -0.144 -0.153
# oxidation-state Fe +0.006
# oxidation-state S -0.167 +0.089
# oxidation-state Na +0.902 +0.904


-------- Electronic minimization -----------
	Linear fluid (dielectric constant: 64) occupying 0.877206 of unit cell:	Completed after 29 iterations at t[s]:    295.33
	FillingsUpdate:  mu: -0.077971192  nElectrons: 330.000000
ElecMinimize: Iter:   0  F: -657.182497261741446  |grad|_K:  5.544e-05  alpha:  1.000e+00
	Linear fluid (dielectric constant: 64) occupying 0.877261 of unit cell:	Completed after 32 iterations at t[s]:    297.14
	Linear fluid (dielectric constant: 64) occupying 0.877234 of unit cell:	Completed after 29 iterations at t[s]:    298.16
	FillingsUpdate:  mu: -0.087008490  nElectrons: 330.000000
	SubspaceRotationAdjust: set factor to 0.0766
ElecMinimize: Iter:   1  F: -657.225271340293261  |grad|_K:  2.475e-05  alpha:  4.808e-01  linmin: -2.073e-05  t[s]:    299.05
	Linear fluid (dielectric constant: 64) occupying 0.877225 of unit cell:	Completed after 21 iterations at t[s]:    299.87
	Linear fluid (dielectric constant: 64) occupying 0.877223 of unit cell:	Completed after 13 iterations at t[s]:    300.70
	FillingsUpdate:  mu: -0.086031990  nElectrons: 330.000000
	SubspaceRotationAdjust: set factor to 0.0912
ElecMinimize: Iter:   2  F: -657.235661265152999  |grad|_K:  1.160e-05  alpha:  5.839e-01  linmin: -3.240e-04  t[s]:    301.54
	Linear fluid (dielectric constant: 64) occupying 0.877203 of unit cell:	Completed after 15 iterations at t[s]:    302.30
	Linear fluid (dielectric constant: 64) occupying 0.877206 of unit cell:	Completed after 7 iterations at t[s]:    303.04
	FillingsUpdate:  mu: -0.090224336  nElectrons: 330.000000
	SubspaceRotationAdjust: set factor to 0.103
ElecMinimize: Iter:   3  F: -657.237622666606399  |grad|_K:  1.094e-05  alpha:  5.001e-01  linmin: -1.356e-05  t[s]:    303.88
	Linear fluid (dielectric constant: 64) occupying 0.877176 of unit cell:	Completed after 17 iterations at t[s]:    304.66
	Linear fluid (dielectric constant: 64) occupying 0.877178 of unit cell:	Completed after 4 iterations at t[s]:    305.37
	FillingsUpdate:  mu: -0.084431094  nElectrons: 330.000000
	SubspaceRotationAdjust: set factor to 0.114
ElecMinimize: Iter:   4  F: -657.239232451528096  |grad|_K:  8.686e-06  alpha:  4.632e-01  linmin: -2.695e-06  t[s]:    306.20
	Linear fluid (dielectric constant: 64) occupying 0.877146 of unit cell:	Completed after 16 iterations at t[s]:    306.97
	Linear fluid (dielectric constant: 64) occupying 0.877142 of unit cell:	Completed after 4 iterations at t[s]:    307.69
	FillingsUpdate:  mu: -0.088208935  nElectrons: 330.000000
	SubspaceRotationAdjust: set factor to 0.136
ElecMinimize: Iter:   5  F: -657.240378366519508  |grad|_K:  7.821e-06  alpha:  5.232e-01  linmin: -1.656e-05  t[s]:    308.54
	Linear fluid (dielectric constant: 64) occupying 0.877110 of unit cell:	Completed after 13 iterations at t[s]:    309.28
	Linear fluid (dielectric constant: 64) occupying 0.877086 of unit cell:	Completed after 11 iterations at t[s]:    310.05
	FillingsUpdate:  mu: -0.087116578  nElectrons: 330.000000
	SubspaceRotationAdjust: set factor to 0.156
[...]
	Linear fluid (dielectric constant: 64) occupying 0.873413 of unit cell:	Completed after 0 iterations at t[s]:   9263.26
	Linear fluid (dielectric constant: 64) occupying 0.873413 of unit cell:	Completed after 1 iterations at t[s]:   9263.90
	FillingsUpdate:  mu: -0.086554617  nElectrons: 330.000000
	SubspaceRotationAdjust: set factor to 0.0903
ElecMinimize: Iter:   3  F: -657.363574885366347  |grad|_K:  6.881e-08  alpha:  9.701e-01  linmin:  9.327e-03  t[s]:   9264.71
	Linear fluid (dielectric constant: 64) occupying 0.873413 of unit cell:	Completed after 3 iterations at t[s]:   9265.36
	Linear fluid (dielectric constant: 64) occupying 0.873413 of unit cell:	Completed after 1 iterations at t[s]:   9266.02
ElecMinimize: 	Step increased F by 1.276987e-08, reducing alpha to 2.364632e-02.
	Linear fluid (dielectric constant: 64) occupying 0.873413 of unit cell:	Completed after 0 iterations at t[s]:   9267.32
ElecMinimize: 	Step increased F by 4.239496e-09, reducing alpha to 2.364632e-03.
	Linear fluid (dielectric constant: 64) occupying 0.873413 of unit cell:	Completed after 0 iterations at t[s]:   9268.62
ElecMinimize: 	Step increased F by 4.065555e-09, reducing alpha to 2.364632e-04.
ElecMinimize: 	Step failed to reduce F after 3 attempts. Quitting step.
ElecMinimize: 	Undoing step.
	Linear fluid (dielectric constant: 64) occupying 0.873413 of unit cell:	Completed after 0 iterations at t[s]:   9269.91
ElecMinimize: 	Step failed: resetting search direction.
	FillingsUpdate:  mu: -0.086583517  nElectrons: 330.000000
	SubspaceRotationAdjust: set factor to 0.0902
ElecMinimize: Iter:   4  F: -657.363574881313752  |grad|_K:  1.216e-07  alpha:  2.365e-04
	Linear fluid (dielectric constant: 64) occupying 0.873413 of unit cell:	Completed after 7 iterations at t[s]:   9271.37
	Linear fluid (dielectric constant: 64) occupying 0.873413 of unit cell:	Completed after 5 iterations at t[s]:   9272.08
	FillingsUpdate:  mu: -0.086534485  nElectrons: 330.000000
	SubspaceRotationAdjust: set factor to 0.0848
ElecMinimize: Iter:   5  F: -657.363574924821592  |grad|_K:  1.088e-07  alpha:  2.038e-01  linmin:  3.249e-02  t[s]:   9272.92
	Linear fluid (dielectric constant: 64) occupying 0.873413 of unit cell:	Completed after 0 iterations at t[s]:   9273.52
	Linear fluid (dielectric constant: 64) occupying 0.873413 of unit cell:	Completed after 1 iterations at t[s]:   9274.17
ElecMinimize: 	Step increased F by 8.112806e-09, reducing alpha to 4.175375e-02.
	Linear fluid (dielectric constant: 64) occupying 0.873413 of unit cell:	Completed after 0 iterations at t[s]:   9275.47
ElecMinimize: 	Step increased F by 2.085699e-09, reducing alpha to 4.175375e-03.
	Linear fluid (dielectric constant: 64) occupying 0.873413 of unit cell:	Completed after 0 iterations at t[s]:   9276.76
ElecMinimize: 	Step increased F by 9.318228e-09, reducing alpha to 4.175375e-04.
ElecMinimize: 	Step failed to reduce F after 3 attempts. Quitting step.
ElecMinimize: 	Undoing step.
	Linear fluid (dielectric constant: 64) occupying 0.873413 of unit cell:	Completed after 0 iterations at t[s]:   9278.04
ElecMinimize: 	Step failed: resetting search direction.
	FillingsUpdate:  mu: -0.086539272  nElectrons: 330.000000
	SubspaceRotationAdjust: set factor to 0.101
ElecMinimize: Iter:   6  F: -657.363574915417075  |grad|_K:  7.397e-08  alpha:  4.175e-04
	Linear fluid (dielectric constant: 64) occupying 0.873413 of unit cell:	Completed after 0 iterations at t[s]:   9279.44
ElecMinimize: 	Wrong curvature in test step, increasing alphaT to 6.112710e-01.
	Linear fluid (dielectric constant: 64) occupying 0.873413 of unit cell:	Completed after 0 iterations at t[s]:   9279.91
	FillingsUpdate:  mu: -0.086539462  nElectrons: 330.000000
	SubspaceRotationAdjust: set factor to 0.107
ElecMinimize: Iter:   7  F: -657.363574991724704  |grad|_K:  1.141e-07  alpha: -5.685e-01  linmin: -3.073e-02  t[s]:   9280.72
	Linear fluid (dielectric constant: 64) occupying 0.873412 of unit cell:	Completed after 17 iterations at t[s]:   9281.49
	Linear fluid (dielectric constant: 64) occupying 0.873413 of unit cell:	Completed after 14 iterations at t[s]:   9282.29
	FillingsUpdate:  mu: -0.086598856  nElectrons: 330.000000
	SubspaceRotationAdjust: set factor to 0.103
ElecMinimize: Iter:   8  F: -657.363575003563710  |grad|_K:  1.448e-07  alpha:  6.492e-02  linmin:  3.503e-02  t[s]:   9283.13
ElecMinimize: 	Bad step direction: g.d > 0.
ElecMinimize: 	Undoing step.
	Linear fluid (dielectric constant: 64) occupying 0.873413 of unit cell:	Completed after 0 iterations at t[s]:   9283.73
ElecMinimize: 	Step failed: resetting search direction.
	FillingsUpdate:  mu: -0.086598856  nElectrons: 330.000000
	SubspaceRotationAdjust: set factor to 0.113
ElecMinimize: Iter:   9  F: -657.363575003567348  |grad|_K:  1.445e-07  alpha:  0.000e+00
	Linear fluid (dielectric constant: 64) occupying 0.873413 of unit cell:	Completed after 0 iterations at t[s]:   9285.13
	Linear fluid (dielectric constant: 64) occupying 0.873413 of unit cell:	Completed after 1 iterations at t[s]:   9285.77
	FillingsUpdate:  mu: -0.086580843  nElectrons: 330.000000
	SubspaceRotationAdjust: set factor to 0.133
ElecMinimize: Iter:  10  F: -657.363575096759746  |grad|_K:  7.588e-08  alpha:  1.478e-01  linmin: -3.830e-02  t[s]:   9286.59
	Linear fluid (dielectric constant: 64) occupying 0.873413 of unit cell:	Completed after 2 iterations at t[s]:   9287.22
	Linear fluid (dielectric constant: 64) occupying 0.873413 of unit cell:	Completed after 1 iterations at t[s]:   9287.88
ElecMinimize: 	Step increased F by 6.616142e-08, reducing alpha to 4.940228e-03.
	Linear fluid (dielectric constant: 64) occupying 0.873413 of unit cell:	Completed after 0 iterations at t[s]:   9289.18
ElecMinimize: 	Step increased F by 6.722814e-08, reducing alpha to 4.940228e-04.
	Linear fluid (dielectric constant: 64) occupying 0.873413 of unit cell:	Completed after 0 iterations at t[s]:   9290.47
ElecMinimize: 	Step increased F by 6.708206e-08, reducing alpha to 4.940228e-05.
ElecMinimize: 	Step failed to reduce F after 3 attempts. Quitting step.
ElecMinimize: 	Undoing step.
	Linear fluid (dielectric constant: 64) occupying 0.873413 of unit cell:	Completed after 0 iterations at t[s]:   9291.76
ElecMinimize: 	Step failed: resetting search direction.
	FillingsUpdate:  mu: -0.086552324  nElectrons: 330.000000
	SubspaceRotationAdjust: set factor to 0.119
ElecMinimize: Iter:  11  F: -657.363575029686217  |grad|_K:  4.105e-08  alpha:  4.940e-05
	Linear fluid (dielectric constant: 64) occupying 0.873413 of unit cell:	Completed after 0 iterations at t[s]:   9293.15
ElecMinimize: 	Predicted alpha/alphaT>3.000000, increasing alphaT to 4.433012e-01.
	Linear fluid (dielectric constant: 64) occupying 0.873413 of unit cell:	Completed after 0 iterations at t[s]:   9293.77
	Linear fluid (dielectric constant: 64) occupying 0.873413 of unit cell:	Completed after 2 iterations at t[s]:   9294.43
ElecMinimize: 	Step increased F by 1.793578e-07, reducing alpha to 9.823946e-02.
	Linear fluid (dielectric constant: 64) occupying 0.873413 of unit cell:	Completed after 3 iterations at t[s]:   9295.76
ElecMinimize: 	Step increased F by 5.509764e-08, reducing alpha to 9.823946e-03.
	Linear fluid (dielectric constant: 64) occupying 0.873413 of unit cell:	Completed after 0 iterations at t[s]:   9297.06
ElecMinimize: 	Step increased F by 5.704396e-08, reducing alpha to 9.823946e-04.
ElecMinimize: 	Step failed to reduce F after 3 attempts. Quitting step.
ElecMinimize: 	Undoing step.
	Linear fluid (dielectric constant: 64) occupying 0.873413 of unit cell:	Completed after 0 iterations at t[s]:   9298.35
ElecMinimize: 	Step failed along negative gradient direction.
ElecMinimize: Probably at roundoff error limit. (Stopping)
Setting wave functions to eigenvectors of Hamiltonian

# Ionic positions in cartesian coordinates:
ion C  28.005857181630002   0.000000000000000   1.000001652210000 0
ion C  25.672025513790000   4.042310104620000   1.000001652210000 0
ion C  11.669128103520009  20.211535405260001   1.000001652210000 0
ion C   4.667680343250000   0.000000000000000   1.000001652210000 0
ion C  23.338288332449999   0.000000000000000   1.000001652210000 0
ion C   2.333822219190000   4.042310104620000   1.000001652210000 0
ion C  16.336708291080008  20.211535405260001   1.000001652210000 0
ion C  23.338191956219998   8.084622098970000   1.000001652210000 0
ion C   9.335305884330001  16.169223410910011   1.000001652210000 0
ion C   9.335322891900001   0.000000000000000   1.000001652210000 0
ion C  18.670626886499999   0.000000000000000   1.000001652210000 0
ion C  18.670539958920003  16.169223410910011   1.000001652210000 0
ion C  21.004371626759990  12.126913306290001   1.000001652210000 0
ion C  14.002984337850000   0.000000000000000   1.000001652210000 0
ion C   0.000000000000000   8.084622098970000   1.000001652210000 0
ion C   7.001485554870008  20.211535405260001   1.000001652210000 0
ion C  -7.001481775409991  20.211535405260001   1.000001652210000 0
ion C  -2.333822219189998  12.126913306290001   1.000001652210000 0
ion C   4.667663335679999  16.169223410910011   1.000001652210000 0
ion C  -2.333820329459993  20.211535405260001   1.000001652210000 0
ion C   2.333824108920002  20.211535405260001   1.000001652210000 0
ion C  -4.667659556220000  16.169223410910011   1.000001652210000 0
ion C   7.001483665139999   4.042310104620000   1.000001652210000 0
ion C  21.004430208389998   4.042310104620000   1.000001652210000 0
ion C  14.002948432980006  16.169223410910011   1.000001652210000 0
ion C   0.000001889729997  16.169223410910011   1.000001652210000 0
ion C  11.669126213789999   4.042310104620000   1.000001652210000 0
ion C  18.670609878929998   8.084622098970000   1.000001652210000 0
ion C  11.669126213789998  12.126913306290001   1.000001652210000 0
ion C  16.336787659739997  12.126913306290001   1.000001652210000 0
ion C  16.336789549470002   4.042310104620000   1.000001652210000 0
ion C   9.335303994600004   8.084622098970000   1.000001652210000 0
ion C  14.002948432980002   8.084622098970000   1.000001652210000 0
ion C   0.000000000000000   2.694874032990001   1.000001652210000 0
ion C  11.669128103519999  22.906390540950017   1.000001652210000 0
ion C -11.669124324059998  22.906390540950017   1.000001652210000 0
ion C  -2.333822219190000   6.737165240310007   1.000001652210000 0
ion C   9.335305884330001  18.864097443900004   1.000001652210000 0
ion C  -7.001481775409996  22.906390540950017   1.000001652210000 0
ion C   7.001485554870008  22.906390540950017   1.000001652210000 0
ion C   2.333822219189996   6.737165240310007   1.000001652210000 0
ion C  -9.335302104869994  18.864097443900004   1.000001652210000 0
ion C  -4.667661445950001  10.779477234660009   1.000001652210000 0
ion C  -2.333820329460000  22.906390540950017   1.000001652210000 0
ion C   2.333824108919998  22.906390540950017   1.000001652210000 0
ion C  -7.001483665140000  14.821787339280013   1.000001652210000 0
ion C   4.667661445950001   2.694874032990001   1.000001652210000 0
ion C  23.338269435150011   2.694874032990001   1.000001652210000 0
ion C  14.002967330279997  18.864097443900004   1.000001652210000 0
ion C   0.000000000000000  10.779477234660009   1.000001652210000 0
ion C   4.667663335679999  18.864097443900004   1.000001652210000 0
ion C  -4.667640658919993  18.864097443900004   1.000001652210000 0
ion C  -2.333822219190001  14.821787339280013   1.000001652210000 0
ion C   2.333824108919995  14.821787339280013   1.000001652210000 0
ion C   0.000001889729999  18.864097443900004   1.000001652210000 0
ion C   9.335303994599997   2.694874032990001   1.000001652210000 0
ion C  21.004430208390001   6.737165240310007   1.000001652210000 0
ion C  11.669126213790003  14.821787339280013   1.000001652210000 0
ion C  16.336789549469998  14.821787339280013   1.000001652210000 0
ion C  18.670609878930012   2.694874032990001   1.000001652210000 0
ion C   7.001483665139997   6.737165240310007   1.000001652210000 0
ion C  14.002946543250001   2.694874032990001   1.000001652210000 0
ion C  18.670607989199997  10.779477234660009   1.000001652210000 0
ion C  11.669126213789998   6.737165240310007   1.000001652210000 0
ion C  16.336787659740001   6.737165240310007   1.000001652210000 0
ion C  14.002946543250001  10.779477234660009   1.000001652210000 0
ion N   4.667661445950002   8.084622098970000   1.000001652210000 0
ion N   2.333822219190005  12.126913306290001   1.000001652210000 0
ion N   7.001485554869994  14.821787339280013   1.000001652210000 0
ion N   9.335305884329998  10.779477234660009   1.000001652210000 0
ion Fe   5.837109518069997  11.454309266310007   1.000001652210000 0
ion S   8.057735751107327   9.556940151631556   7.278423157127735 1
ion S   5.453378937279890  11.565510609539983   5.240654243225645 1
ion Na  11.776584453713037  16.122135181318615   8.396453375483057 1
ion Na   2.503501782675374   4.073383336726640   8.307418762635265 1

# Forces in Cartesian coordinates:
force C   0.003486784332989   0.000270814298917  -0.000022461568746 0
force C   0.000687179083330  -0.000660818765213   0.000016723442250 0
force C   0.002484409475575  -0.001986098921904   0.000037375733824 0
force C   0.000636902186534   0.002288651614963   0.000041745592695 0
force C   0.001681418116235  -0.000186644338047   0.000021820668844 0
force C   0.004744657617158   0.001716188428278   0.000215753254249 0
force C   0.000665763574502  -0.000476992857989   0.000029516855281 0
force C  -0.000183238606023   0.000933342245979   0.000025426214074 0
force C  -0.036387953448412  -0.016367895811234   0.000142877938395 0
force C  -0.000537017784687  -0.000115563120498  -0.000025992266516 0
force C  -0.000735649453413  -0.000232692798223   0.000022040587904 0
force C  -0.000063475477145   0.000827754409897   0.000021717512954 0
force C   0.001903366077958   0.003022597138272  -0.000013016413009 0
force C   0.000328604827879   0.000324585812948  -0.000003027632909 0
force C   0.010844331301647   0.006420629988247   0.000562300801280 0
force C   0.002348273470666   0.001936658121944  -0.000057766379747 0
force C   0.001645886940725   0.000937481305777  -0.000001348801142 0
force C   0.003746980588412   0.003129986843211   0.000209133640611 0
force C   0.032838693734411   0.007137660830960  -0.000411146709999 0
force C  -0.000406379626830  -0.000428436616155   0.000006847348941 0
force C  -0.001565672499221   0.000159054861420  -0.000003432930624 0
force C   0.002534693735662  -0.000579770135905   0.000024852180002 0
force C   0.005368134465828   0.004042634908045   0.000055181571102 0
force C   0.001731895545536   0.001049707909349   0.000000836819717 0
force C  -0.001084082070481  -0.000592497357033  -0.000044591489922 0
force C   0.006256785348548   0.002729175045683   0.000194184564643 0
force C  -0.000793311505877  -0.001323392540408   0.000098840395131 0
force C   0.000527676875100   0.001538574414470   0.000025202942366 0
force C  -0.032154969520577  -0.023249346993613   0.000083030148386 0
force C  -0.000290825615883   0.003227934979829  -0.000011171733377 0
force C  -0.000547083649968  -0.000428906513835   0.000002996665645 0
force C   0.022929100948874   0.025570111941188  -0.000416327591904 0
force C   0.002510841412976   0.001083150236119   0.000076034069545 0
force C  -0.002726291959146   0.001801434482109  -0.000034054460778 0
force C  -0.003590562614936  -0.000131239751688  -0.000018174798132 0
force C  -0.001516268622437   0.000214038168155   0.000024993591968 0
force C   0.001140881935949   0.000776477434383  -0.000070549095137 0
force C  -0.004511847572361  -0.001417865949244   0.000320590535555 0
force C   0.000775157842941   0.000168931758057   0.000009759994666 0
force C  -0.000820996024464  -0.002462407039279   0.000021545337672 0
force C   0.036192804316440   0.016151985564155   0.000383065719308 0
force C  -0.001694545816058  -0.001053111991617  -0.000006870092431 0
force C   0.000469029137971  -0.003187975943944  -0.000009483797287 0
force C  -0.000313380211230  -0.000225925292572  -0.000002738335669 0
force C   0.000597208244160   0.000059630269046  -0.000010876323488 0
force C  -0.000629039493334  -0.001605861006734   0.000028706766956 0
force C  -0.002142435251955  -0.001685293504963  -0.000075187017070 0
force C  -0.000641731358071   0.000525789932573   0.000025578463089 0
force C  -0.000707764562105   0.000535225809256   0.000040809691228 0
force C   0.031560950066943   0.022893263155407   0.000386550679273 0
force C  -0.005545191652810  -0.004300939289005   0.000166845866295 0
force C   0.000564378011947   0.000486999507869   0.000021754233343 0
force C  -0.002877965011656  -0.001015935209776  -0.000035411310777 0
force C  -0.022542084619040  -0.023814808845310   0.000201709026733 0
force C   0.000723694580156   0.001300437072741  -0.000017111377491 0
force C   0.001614406802388   0.000021891842520   0.000115691357809 0
force C   0.000160627650097  -0.000818025501686   0.000029267549250 0
force C  -0.010816026235892  -0.006472210233152   0.000317108183168 0
force C   0.000163830944504  -0.000998312650231   0.000021255893249 0
force C  -0.001626259140093  -0.000897174665408  -0.000000740681252 0
force C  -0.033116307621328  -0.006392517863502  -0.000357504755223 0
force C   0.000377010797043   0.000309698639012   0.000012662217858 0
force C  -0.001920595009225  -0.002992137381377  -0.000008916691678 0
force C  -0.006775555659157  -0.002254184183681  -0.000433189538871 0
force C  -0.002341607680095   0.000531364610884   0.000024098890867 0
force C  -0.003837889201892  -0.003269207975088   0.000337355161898 0
force N   0.025092549976893  -0.042335260656851  -0.010169270640247 0
force N  -0.023992887390762   0.041747819985347  -0.009426897727971 0
force N  -0.022994355655529   0.041402379579116  -0.010660659789898 0
force N   0.021459623869205  -0.041044296729947  -0.007484373121304 0
force Fe   0.001829008246082  -0.001581299378523   0.030363598405365 0
force S   0.000094273329597  -0.000168066129965   0.000899192605497 1
force S   0.000192921667015  -0.000316982466781  -0.000446143117747 1
force Na   0.000010076047923   0.000019558212201   0.000070307832858 1
force Na  -0.000006258386463   0.000084383813648   0.000279841018487 1

# Energy components:
   A_diel =       -0.3787974134536778
   Eewald =     4102.8469522770465119
       EH =     4646.3301569520081102
     Eloc =    -9465.4067206682029791
      Enl =      -62.5620849481480263
      Exc =     -167.8894054567703051
 Exc_core =        6.8981118082175623
       KE =      282.8666203579962826
-------------------------------------
     Etot =     -657.2951670913066664
       TS =        0.0684078813154251
-------------------------------------
        F =     -657.3635749726221320

IonicMinimize: Iter:  62  F: -657.363574972622132  |grad|_K:  3.257e-04  alpha:  9.954e-01  linmin:  3.782e-04  t[s]:   9300.09
IonicMinimize: Converged (|Delta F|<1.000000e-06 for 2 iters).

#--- Lowdin population analysis ---
# oxidation-state C +0.024 +0.014 +0.018 +0.016 +0.019 +0.007 +0.019 +0.015 +0.128 +0.021 +0.020 +0.019 +0.026 +0.020 -0.015 +0.031 +0.025 +0.010 +0.110 +0.021 +0.016 +0.018 +0.017 +0.028 +0.031 +0.018 +0.016 +0.019 +0.130 +0.019 +0.021 +0.120 +0.032 +0.018 +0.025 +0.018 +0.033 +0.008 +0.020 +0.018 +0.128 +0.027 +0.020 +0.020 +0.021 +0.019 +0.030 +0.019 +0.013 +0.129 +0.018 +0.020 +0.032 +0.109 +0.016 +0.016 +0.020 -0.016 +0.014 +0.026 +0.116 +0.021 +0.026 +0.020 +0.018 +0.009
# oxidation-state N -0.134 -0.137 -0.136 -0.131
# oxidation-state Fe +0.183
# oxidation-state S -0.575 -0.023
# oxidation-state Na +0.979 +0.982


Dumping 'Na2S2@FeN4-PC.fillings' ... done
Dumping 'Na2S2@FeN4-PC.wfns' ... done
Dumping 'Na2S2@FeN4-PC.fluidState' ... done
Dumping 'Na2S2@FeN4-PC.ionpos' ... done
Dumping 'Na2S2@FeN4-PC.eigenvals' ... done
End date and time: Thu Sep 26 13:18:50 2024  (Duration: 0-2:35:01.69)
Done!
