
*************** JDFTx 1.7.0  ***************

Start date and time: Tue Jan 16 16:23:29 2024
Executable jdftx with command-line: -i Na2S@FeN4-glyme.in -o Na2S@FeN4-glyme.out
Running on hosts (process indices):  SimSlave (0)
Divided in process groups (process indices):  0 (0)
Resource initialization completed at t[s]:      0.00
Run totals: 1 processes, 2 threads, 0 GPUs


Input parsed successfully to the following command list (including defaults):

basis kpoint-dependent
coords-type Cartesian
core-overlap-check vector
coulomb-interaction Slab 001
coulomb-truncation-embed 0 0 3
davidson-band-ratio 1.1
dump End State
dump-name Na2S@FeN4-glyme.$VAR
elec-cutoff 20 100
elec-eigen-algo Davidson
elec-ex-corr gga-PBE
elec-smearing Fermi 0.01
electronic-minimize  \
	dirUpdateScheme      FletcherReeves \
	linminMethod         DirUpdateRecommended \
	nIterations          100 \
	history              15 \
	knormThreshold       0 \
	energyDiffThreshold  1e-08 \
	nEnergyDiff          2 \
	alphaTstart          1 \
	alphaTmin            1e-10 \
	updateTestStepSize   yes \
	alphaTreduceFactor   0.1 \
	alphaTincreaseFactor 3 \
	nAlphaAdjustMax      3 \
	wolfeEnergy          0.0001 \
	wolfeGradient        0.9 \
	fdTest               no
electronic-scf  \
	nIterations	50 \
	energyDiffThreshold	1e-08 \
	residualThreshold	1e-07 \
	mixFraction	0.5 \
	qMetric	0.8 \
	history	10 \
	nEigSteps	2 \
	eigDiffThreshold	1e-08 \
	mixedVariable	Density \
	qKerker	0.8 \
	qKappa	-1 \
	verbose	no \
	mixFractionMag	1.5
exchange-regularization WignerSeitzTruncated
fluid LinearPCM 298.000000 1.013250
fluid-ex-corr lda-TF lda-PZ
fluid-gummel-loop 10 1.000000e-05
fluid-minimize  \
	dirUpdateScheme      PolakRibiere \
	linminMethod         DirUpdateRecommended \
	nIterations          400 \
	history              15 \
	knormThreshold       1e-11 \
	energyDiffThreshold  0 \
	nEnergyDiff          2 \
	alphaTstart          1 \
	alphaTmin            1e-10 \
	updateTestStepSize   yes \
	alphaTreduceFactor   0.1 \
	alphaTincreaseFactor 3 \
	nAlphaAdjustMax      6 \
	wolfeEnergy          0.0001 \
	wolfeGradient        0.9 \
	fdTest               no
fluid-solvent Glyme 9.62137 ScalarEOS \
	epsBulk 7.2 \
	pMol 0 \
	epsInf 1.9 \
	Pvap 0 \
	sigmaBulk 0 \
	Rvdw 0 \
	Res 0 \
	tauNuc 343133
forces-output-coords Positions
ion C  28.005857181630002   0.000000000000000   1.000001652210000 0
ion C  25.672025513790000   4.042310104620000   1.000001652210000 0
ion C  11.669128103520002  20.211535405260001   1.000001652210000 0
ion C   4.667680343250000   0.000000000000000   1.000001652210000 0
ion C  23.338288332449999   0.000000000000000   1.000001652210000 0
ion C   2.333822219190000   4.042310104620000   1.000001652210000 0
ion C  16.336708291080008  20.211535405260001   1.000001652210000 0
ion C  23.338191956219998   8.084622098970000   1.000001652210000 0
ion C   9.335305884329996  16.169223410910011   1.000001652210000 0
ion C   9.335322891900001   0.000000000000000   1.000001652210000 0
ion C  18.670626886499999   0.000000000000000   1.000001652210000 0
ion C  18.670539958920003  16.169223410910011   1.000001652210000 0
ion C  21.004371626759990  12.126913306290001   1.000001652210000 0
ion C  14.002984337850000   0.000000000000000   1.000001652210000 0
ion C   0.000000000000000   8.084622098970000   1.000001652210000 0
ion C   7.001485554870005  20.211535405260001   1.000001652210000 0
ion C  -7.001481775409994  20.211535405260001   1.000001652210000 0
ion C  -2.333822219189999  12.126913306290001   1.000001652210000 0
ion C   4.667663335679999  16.169223410910011   1.000001652210000 0
ion C  -2.333820329459996  20.211535405260001   1.000001652210000 0
ion C   2.333824108920002  20.211535405260001   1.000001652210000 0
ion C  -4.667659556220002  16.169223410910011   1.000001652210000 0
ion C   7.001483665139999   4.042310104620000   1.000001652210000 0
ion C  21.004430208389998   4.042310104620000   1.000001652210000 0
ion C  14.002948432980000  16.169223410910011   1.000001652210000 0
ion C   0.000001889729997  16.169223410910011   1.000001652210000 0
ion C  11.669126213789999   4.042310104620000   1.000001652210000 0
ion C  18.670609878929998   8.084622098970000   1.000001652210000 0
ion C  11.669126213789998  12.126913306290001   1.000001652210000 0
ion C  16.336787659739997  12.126913306290001   1.000001652210000 0
ion C  16.336789549470002   4.042310104620000   1.000001652210000 0
ion C   9.335303994600004   8.084622098970000   1.000001652210000 0
ion C  14.002948432980002   8.084622098970000   1.000001652210000 0
ion C   0.000000000000000   2.694874032990001   1.000001652210000 0
ion C  11.669128103519999  22.906390540950010   1.000001652210000 0
ion C -11.669124324059998  22.906390540950010   1.000001652210000 0
ion C  -2.333822219190000   6.737165240310004   1.000001652210000 0
ion C   9.335305884330001  18.864097443900004   1.000001652210000 0
ion C  -7.001481775409996  22.906390540950010   1.000001652210000 0
ion C   7.001485554870005  22.906390540950010   1.000001652210000 0
ion C   2.333822219189997   6.737165240310004   1.000001652210000 0
ion C  -9.335302104869998  18.864097443900004   1.000001652210000 0
ion C  -4.667661445950000  10.779477234660005   1.000001652210000 0
ion C  -2.333820329460000  22.906390540950010   1.000001652210000 0
ion C   2.333824108920002  22.906390540950010   1.000001652210000 0
ion C  -7.001483665140000  14.821787339280007   1.000001652210000 0
ion C   4.667661445950001   2.694874032990001   1.000001652210000 0
ion C  23.338269435150004   2.694874032990001   1.000001652210000 0
ion C  14.002967330279997  18.864097443900004   1.000001652210000 0
ion C   0.000000000000000  10.779477234660005   1.000001652210000 0
ion C   4.667663335679999  18.864097443900004   1.000001652210000 0
ion C  -4.667640658919996  18.864097443900004   1.000001652210000 0
ion C  -2.333822219190001  14.821787339280007   1.000001652210000 0
ion C   2.333824108919998  14.821787339280007   1.000001652210000 0
ion C   0.000001889729999  18.864097443900004   1.000001652210000 0
ion C   9.335303994599997   2.694874032990001   1.000001652210000 0
ion C  21.004430208390001   6.737165240310004   1.000001652210000 0
ion C  11.669126213790003  14.821787339280007   1.000001652210000 0
ion C  16.336789549469998  14.821787339280007   1.000001652210000 0
ion C  18.670609878930005   2.694874032990001   1.000001652210000 0
ion C   7.001483665139999   6.737165240310004   1.000001652210000 0
ion C  14.002946543250001   2.694874032990001   1.000001652210000 0
ion C  18.670607989199997  10.779477234660005   1.000001652210000 0
ion C  11.669126213789998   6.737165240310004   1.000001652210000 0
ion C  16.336787659740001   6.737165240310004   1.000001652210000 0
ion C  14.002946543250001  10.779477234660005   1.000001652210000 0
ion N   4.667661445950002   8.084622098970000   1.000001652210000 0
ion N   2.333822219190004  12.126913306290001   1.000001652210000 0
ion N   7.001485554869998  14.821787339280007   1.000001652210000 0
ion N   9.335305884330001  10.779477234660005   1.000001652210000 0
ion Fe   5.837109518069999  11.454309266310004   1.000001652210000 0
ion S  11.996321958307306  13.080363808714907   8.869696466513297 1
ion Na   8.177817050167437  12.403054816466332   5.947606613126949 1
ion Na  15.895421543116431  13.800966413369199   6.147004302818918 1
ion-species GBRV/$ID_pbe.uspp
ion-width Ecut
ionic-minimize  \
	dirUpdateScheme      FletcherReeves \
	linminMethod         DirUpdateRecommended \
	nIterations          200 \
	history              15 \
	knormThreshold       0.0001 \
	energyDiffThreshold  1e-06 \
	nEnergyDiff          2 \
	alphaTstart          1 \
	alphaTmin            1e-10 \
	updateTestStepSize   yes \
	alphaTreduceFactor   0.1 \
	alphaTincreaseFactor 3 \
	nAlphaAdjustMax      3 \
	wolfeEnergy          0.0001 \
	wolfeGradient        0.9 \
	fdTest               no
kpoint   0.000000000000   0.000000000000   0.000000000000  1.00000000000000
kpoint-folding 1 1 1 
latt-move-scale 1 1 1
latt-scale 1 1 1 
lattice Triclinic 28.0058 28.0058 32.1253 90 90 120
lattice-minimize  \
	dirUpdateScheme      L-BFGS \
	linminMethod         DirUpdateRecommended \
	nIterations          0 \
	history              15 \
	knormThreshold       0 \
	energyDiffThreshold  1e-06 \
	nEnergyDiff          2 \
	alphaTstart          1 \
	alphaTmin            1e-10 \
	updateTestStepSize   yes \
	alphaTreduceFactor   0.1 \
	alphaTincreaseFactor 3 \
	nAlphaAdjustMax      3 \
	wolfeEnergy          0.0001 \
	wolfeGradient        0.9 \
	fdTest               no
lcao-params -1 1e-06 0.01
pcm-variant GLSSA13
spintype no-spin
subspace-rotation-factor 1 yes
symmetries automatic
symmetry-threshold 0.0001



---------- Setting up symmetries ----------

Found 24 point-group symmetries of the bravais lattice
Found 1 space-group symmetries with basis
Applied RMS atom displacement 0 bohrs to make symmetries exact.

---------- Initializing the Grid ----------
R = 
[      28.0058     -14.0029            0  ]
[            0      24.2537            0  ]
[            0            0      32.1253  ]
unit cell volume = 21821
G =
[   0.224353    0.12953         -0  ]
[          0   0.259061          0  ]
[          0         -0   0.195584  ]
Minimum fftbox size, Smin = [  128  128  148  ]
Chosen fftbox size, S = [  128  128  150  ]

---------- Initializing tighter grid for wavefunction operations ----------
R = 
[      28.0058     -14.0029            0  ]
[            0      24.2537            0  ]
[            0            0      32.1253  ]
unit cell volume = 21821
G =
[   0.224353    0.12953         -0  ]
[          0   0.259061          0  ]
[          0         -0   0.195584  ]
Minimum fftbox size, Smin = [  116  116  132  ]
Chosen fftbox size, S = [  120  120  140  ]

---------- Exchange Correlation functional ----------
Initalized PBE GGA exchange.
Initalized PBE GGA correlation.

---------- Setting up pseudopotentials ----------
Width of ionic core gaussian charges (only for fluid interactions / plotting) set to 0.397384

Reading pseudopotential file '/home/simslave2427/jdftx_install/build/pseudopotentials/GBRV/c_pbe.uspp':
  Title: C.  Created by USPP 7.3.6 on 3-2-2014
  Reference state energy: -5.406344.  4 valence electrons in orbitals:
    |200>  occupation: 2  eigenvalue: -0.504890
    |210>  occupation: 2  eigenvalue: -0.194356
  lMax: 1  lLocal: 2  QijEcut: 5
  4 projectors sampled on a log grid with 503 points:
    l: 0  eig: -0.504890  rCut: 1.3
    l: 0  eig: 0.000000  rCut: 1.3
    l: 1  eig: -0.194357  rCut: 1.3
    l: 1  eig: 0.000000  rCut: 1.3
  Partial core density with radius 1.1
  Transforming core density to a uniform radial grid of dG=0.02 with 1618 points.
  Transforming local potential to a uniform radial grid of dG=0.02 with 1618 points.
  Transforming nonlocal projectors to a uniform radial grid of dG=0.02 with 432 points.
  Transforming density augmentations to a uniform radial grid of dG=0.02 with 1618 points.
  Transforming atomic orbitals to a uniform radial grid of dG=0.02 with 432 points.
  Core radius for overlap checks: 1.30 bohrs.

Reading pseudopotential file '/home/simslave2427/jdftx_install/build/pseudopotentials/GBRV/n_pbe.uspp':
  Title: N.  Created by USPP 7.3.6 on 3-2-2014
  Reference state energy: -9.763716.  5 valence electrons in orbitals:
    |200>  occupation: 2  eigenvalue: -0.681964
    |210>  occupation: 3  eigenvalue: -0.260726
  lMax: 1  lLocal: 2  QijEcut: 6
  4 projectors sampled on a log grid with 491 points:
    l: 0  eig: -0.681964  rCut: 1.15
    l: 0  eig: 0.000000  rCut: 1.15
    l: 1  eig: -0.260729  rCut: 1.2
    l: 1  eig: 0.500000  rCut: 1.2
  Partial core density with radius 0.8
  Transforming core density to a uniform radial grid of dG=0.02 with 1618 points.
  Transforming local potential to a uniform radial grid of dG=0.02 with 1618 points.
  Transforming nonlocal projectors to a uniform radial grid of dG=0.02 with 432 points.
  Transforming density augmentations to a uniform radial grid of dG=0.02 with 1618 points.
  Transforming atomic orbitals to a uniform radial grid of dG=0.02 with 432 points.
  Core radius for overlap checks: 1.20 bohrs.

Reading pseudopotential file '/home/simslave2427/jdftx_install/build/pseudopotentials/GBRV/fe_pbe.uspp':
  Title: Fe.  Created by USPP 7.3.6 on 15-6-15
  Reference state energy: -124.316937.  16 valence electrons in orbitals:
    |300>  occupation: 2  eigenvalue: -4.008817
    |310>  occupation: 6  eigenvalue: -2.753096
    |320>  occupation: 5  eigenvalue: -0.791264
    |400>  occupation: 2  eigenvalue: -0.516384
    |410>  occupation: 0  eigenvalue: -0.312222
  lMax: 2  lLocal: 3  QijEcut: 6
  6 projectors sampled on a log grid with 607 points:
    l: 0  eig: -4.008819  rCut: 1.55
    l: 0  eig: -0.516386  rCut: 1.55
    l: 1  eig: -2.753096  rCut: 1.55
    l: 1  eig: -0.312226  rCut: 1.55
    l: 2  eig: -0.791264  rCut: 1.65
    l: 2  eig: -0.450000  rCut: 1.65
  Partial core density with radius 0.65
  Transforming core density to a uniform radial grid of dG=0.02 with 1618 points.
  Transforming local potential to a uniform radial grid of dG=0.02 with 1618 points.
  Transforming nonlocal projectors to a uniform radial grid of dG=0.02 with 432 points.
  Transforming density augmentations to a uniform radial grid of dG=0.02 with 1618 points.
  Transforming atomic orbitals to a uniform radial grid of dG=0.02 with 432 points.
  Core radius for overlap checks: 1.65 bohrs.

Reading pseudopotential file '/home/simslave2427/jdftx_install/build/pseudopotentials/GBRV/s_pbe.uspp':
  Title: S.  Created by USPP 7.3.6 on 1-4-15
  Reference state energy: -11.898476.  6 valence electrons in orbitals:
    |300>  occupation: 2  eigenvalue: -0.634167
    |310>  occupation: 4  eigenvalue: -0.257568
  lMax: 2  lLocal: 3  QijEcut: 6
  6 projectors sampled on a log grid with 635 points:
    l: 0  eig: -0.634161  rCut: 1.5
    l: 0  eig: 1.500000  rCut: 1.5
    l: 1  eig: -0.257567  rCut: 1.5
    l: 1  eig: 1.500000  rCut: 1.5
    l: 2  eig: -1.000000  rCut: 1.5
    l: 2  eig: 1.500000  rCut: 1.5
  Partial core density with radius 1.15
  Transforming core density to a uniform radial grid of dG=0.02 with 1618 points.
  Transforming local potential to a uniform radial grid of dG=0.02 with 1618 points.
  Transforming nonlocal projectors to a uniform radial grid of dG=0.02 with 432 points.
  Transforming density augmentations to a uniform radial grid of dG=0.02 with 1618 points.
  Transforming atomic orbitals to a uniform radial grid of dG=0.02 with 432 points.
  Core radius for overlap checks: 1.50 bohrs.

Reading pseudopotential file '/home/simslave2427/jdftx_install/build/pseudopotentials/GBRV/na_pbe.uspp':
  Title: Na.  Created by USPP 7.3.6 on 23-9-15
  Reference state energy: -47.625620.  9 valence electrons in orbitals:
    |200>  occupation: 2  eigenvalue: -2.085638
    |210>  occupation: 6  eigenvalue: -1.053708
    |300>  occupation: 1  eigenvalue: -0.100838
  lMax: 2  lLocal: 0  QijEcut: 6
  5 projectors sampled on a log grid with 657 points:
    l: 0  eig: -2.085640  rCut: 1.37
    l: 0  eig: -0.100839  rCut: 1.37
    l: 1  eig: -1.053708  rCut: 1.47
    l: 1  eig: 0.500000  rCut: 1.47
    l: 2  eig: 0.750000  rCut: 2
  Transforming local potential to a uniform radial grid of dG=0.02 with 1618 points.
  Transforming nonlocal projectors to a uniform radial grid of dG=0.02 with 432 points.
  Transforming density augmentations to a uniform radial grid of dG=0.02 with 1618 points.
  Transforming atomic orbitals to a uniform radial grid of dG=0.02 with 432 points.
  Core radius for overlap checks: 2.00 bohrs.

Initialized 5 species with 74 total atoms.

Folded 1 k-points by 1x1x1 to 1 k-points.

---------- Setting up k-points, bands, fillings ----------
No reducable k-points. 
Computing the number of bands and number of electrons
Calculating initial fillings.
nElectrons: 324.000000   nBands: 307   nStates: 1

----- Setting up reduced wavefunction bases (one per k-point) -----
average nbasis = 93173.000 , ideal nbasis = 93220.781

---------- Setting up coulomb interaction ----------
Fluid mode embedding: using embedded box, but periodic Coulomb kernel.
(Fluid response is responsible for (approximate) separation between periodic images.)
Setting up double-sized grid for truncated Coulomb potentials:
R = 
[      28.0058     -14.0029            0  ]
[            0      24.2537            0  ]
[            0            0      64.2506  ]
unit cell volume = 43641.9
G =
[   0.224353    0.12953         -0  ]
[          0   0.259061          0  ]
[          0         -0  0.0977919  ]
Chosen fftbox size, S = [  128  128  300  ]
Integer grid location selected as the embedding center:
   Grid: [  0  0  14  ]
   Lattice: [  0  0  0.0933843  ]
   Cartesian: [  0  0  3  ]
Constructing Wigner-Seitz cell: 8 faces (6 quadrilaterals, 2 hexagons)
Range-separation parameter for embedded mesh potentials due to point charges: 0.590105 bohrs.

---------- Setting up ewald sum ----------
Optimum gaussian width for ewald sums = 6.854977 bohr.
Real space sum over 567 unit cells with max indices [  4  4  3  ]
Reciprocal space sum over 9537 terms with max indices [  8  8  16  ]

---------- Allocating electronic variables ----------
Initializing wave functions:  linear combination of atomic orbitals
C pseudo-atom occupations:   s ( 2 )  p ( 2 )
N pseudo-atom occupations:   s ( 2 )  p ( 3 )
Fe pseudo-atom occupations:   s ( 2 0 )  p ( 6 0 )  d ( 8 )
S pseudo-atom occupations:   s ( 2 )  p ( 4 )
Na pseudo-atom occupations:   s ( 2 1 )  p ( 6 )
	FillingsUpdate:  mu: -0.240524657  nElectrons: 324.000000
LCAOMinimize: Iter:   0  F: -625.6232351025438447  |grad|_K:  2.432e-02  alpha:  1.000e+00
	FillingsUpdate:  mu: -0.226265501  nElectrons: 324.000000
LCAOMinimize: Iter:   1  F: -630.5218528077054998  |grad|_K:  1.471e-02  alpha:  1.383e-01  linmin: -9.756e-02  cgtest:  8.971e-01  t[s]:    528.05
LCAOMinimize: Encountered beta<0, resetting CG.
	FillingsUpdate:  mu: -0.073862153  nElectrons: 324.000000
LCAOMinimize: Iter:   2  F: -641.0345993794340984  |grad|_K:  2.708e-02  alpha:  8.762e-02  linmin:  2.224e-01  cgtest:  2.076e-01  t[s]:    686.31
LCAOMinimize: 	Bad step direction: g.d > 0.
LCAOMinimize: 	Undoing step.
LCAOMinimize: 	Step failed: resetting search direction.
	FillingsUpdate:  mu: -0.073862153  nElectrons: 324.000000
LCAOMinimize: Iter:   3  F: -641.0345993794340984  |grad|_K:  2.708e-02  alpha:  0.000e+00
	FillingsUpdate:  mu: -0.220102382  nElectrons: 324.000000
LCAOMinimize: Iter:   4  F: -641.5026878052329948  |grad|_K:  2.897e-02  alpha:  3.780e-02  linmin:  1.319e-01  cgtest: -5.869e-01  t[s]:    957.32
LCAOMinimize: 	Wrong curvature in test step, increasing alphaT to 1.133986e-01.
	FillingsUpdate:  mu: -0.236737409  nElectrons: 324.000000
LCAOMinimize: Iter:   5  F: -642.1136455661826403  |grad|_K:  6.511e-03  alpha: -1.181e-01  linmin: -8.218e-02  cgtest:  1.734e+00  t[s]:   1103.13
LCAOMinimize: Encountered beta<0, resetting CG.
LCAOMinimize: 	Step increased F by 8.026843e-01, reducing alpha to 1.081560e-02.
	FillingsUpdate:  mu: -0.234946409  nElectrons: 324.000000
LCAOMinimize: Iter:   6  F: -642.1564788746746899  |grad|_K:  5.950e-03  alpha:  1.082e-02  linmin: -3.732e-01  cgtest:  8.182e-01  t[s]:   1377.25
LCAOMinimize: 	Wrong curvature in test step, increasing alphaT to 3.244680e-02.
	FillingsUpdate:  mu: -0.231697691  nElectrons: 324.000000
LCAOMinimize: Iter:   7  F: -642.2014391548782442  |grad|_K:  6.406e-03  alpha: -4.424e-02  linmin: -4.629e-01  cgtest:  8.000e-01  t[s]:   1523.31
LCAOMinimize: 	Step increased F by 3.188647e+00, reducing alpha to 1.259704e-02.
	FillingsUpdate:  mu: -0.219246982  nElectrons: 324.000000
LCAOMinimize: Iter:   8  F: -642.2824735753057439  |grad|_K:  7.207e-03  alpha:  1.260e-02  linmin: -4.477e-01  cgtest:  7.500e-01  t[s]:   1799.52
LCAOMinimize: 	Wrong curvature in test step, increasing alphaT to 3.779112e-02.
	FillingsUpdate:  mu: -0.197787784  nElectrons: 324.000000
LCAOMinimize: Iter:   9  F: -642.3965766136468574  |grad|_K:  6.916e-03  alpha: -5.469e-02  linmin: -3.755e-01  cgtest:  7.916e-01  t[s]:   1940.55
LCAOMinimize: 	Step increased F by 5.394464e-01, reducing alpha to 9.709301e-03.
	FillingsUpdate:  mu: -0.188894512  nElectrons: 324.000000
LCAOMinimize: Iter:  10  F: -642.4537081242503973  |grad|_K:  6.045e-03  alpha:  9.709e-03  linmin: -2.627e-01  cgtest:  9.388e-01  t[s]:   2214.92
LCAOMinimize: Encountered beta<0, resetting CG.
LCAOMinimize: 	Predicted alpha/alphaT>3.000000, increasing alphaT to 2.912790e-02.
	FillingsUpdate:  mu: -0.156012690  nElectrons: 324.000000
LCAOMinimize: Iter:  11  F: -642.5234624160696058  |grad|_K:  6.883e-03  alpha:  8.547e-02  linmin:  1.312e-01  cgtest: -4.251e-01  t[s]:   2416.64
LCAOMinimize: 	Bad step direction: g.d > 0.
LCAOMinimize: 	Undoing step.
LCAOMinimize: 	Step failed: resetting search direction.
	FillingsUpdate:  mu: -0.156012690  nElectrons: 324.000000
LCAOMinimize: Iter:  12  F: -642.5234624160696058  |grad|_K:  6.883e-03  alpha:  0.000e+00
	FillingsUpdate:  mu: -0.230013539  nElectrons: 324.000000
LCAOMinimize: Iter:  13  F: -642.5697739080259225  |grad|_K:  3.925e-03  alpha:  2.539e-02  linmin:  1.055e-01  cgtest: -2.849e-01  t[s]:   2678.99
	FillingsUpdate:  mu: -0.202601897  nElectrons: 324.000000
LCAOMinimize: Iter:  14  F: -642.5904658677882253  |grad|_K:  2.019e-03  alpha:  3.786e-02  linmin:  8.849e-04  cgtest:  5.858e-01  t[s]:   2837.24
LCAOMinimize: Encountered beta<0, resetting CG.
	FillingsUpdate:  mu: -0.194067821  nElectrons: 324.000000
LCAOMinimize: Iter:  15  F: -642.5958449010696540  |grad|_K:  1.406e-03  alpha:  2.758e-02  linmin:  1.567e-03  cgtest: -5.044e-03  t[s]:   2995.51
	FillingsUpdate:  mu: -0.222576988  nElectrons: 324.000000
LCAOMinimize: Iter:  16  F: -642.6029868980677975  |grad|_K:  1.065e-03  alpha:  7.588e-02  linmin: -2.077e-03  cgtest:  6.256e-02  t[s]:   3153.72
	FillingsUpdate:  mu: -0.217100979  nElectrons: 324.000000
LCAOMinimize: Iter:  17  F: -642.6092592834227162  |grad|_K:  8.076e-04  alpha:  1.162e-01  linmin:  3.317e-03  cgtest:  5.841e-03  t[s]:   3312.21
	FillingsUpdate:  mu: -0.210601963  nElectrons: 324.000000
LCAOMinimize: Iter:  18  F: -642.6099157242543924  |grad|_K:  4.106e-04  alpha:  2.199e-02  linmin:  5.103e-03  cgtest:  1.875e-02  t[s]:   3470.44
LCAOMinimize: 	Predicted alpha/alphaT>3.000000, increasing alphaT to 6.597355e-02.
LCAOMinimize: 	Predicted alpha/alphaT>3.000000, increasing alphaT to 1.979206e-01.
	FillingsUpdate:  mu: -0.216998765  nElectrons: 324.000000
LCAOMinimize: Iter:  19  F: -642.6116159328186086  |grad|_K:  3.910e-04  alpha:  2.159e-01  linmin:  1.006e-03  cgtest: -2.539e-02  t[s]:   3713.72
	FillingsUpdate:  mu: -0.216717778  nElectrons: 324.000000
LCAOMinimize: Iter:  20  F: -642.6120814920551538  |grad|_K:  3.775e-04  alpha:  6.641e-02  linmin:  1.718e-03  cgtest: -5.752e-03  t[s]:   3872.05
	FillingsUpdate:  mu: -0.211989789  nElectrons: 324.000000
LCAOMinimize: Iter:  21  F: -642.6122470701744760  |grad|_K:  1.631e-04  alpha:  2.490e-02  linmin: -4.452e-04  cgtest:  5.631e-02  t[s]:   4030.01
LCAOMinimize: 	Predicted alpha/alphaT>3.000000, increasing alphaT to 7.470499e-02.
LCAOMinimize: 	Predicted alpha/alphaT>3.000000, increasing alphaT to 2.241150e-01.
	FillingsUpdate:  mu: -0.213933031  nElectrons: 324.000000
LCAOMinimize: Iter:  22  F: -642.6125378058104616  |grad|_K:  1.513e-04  alpha:  2.301e-01  linmin:  4.280e-05  cgtest: -3.266e-02  t[s]:   4273.01
	FillingsUpdate:  mu: -0.215220402  nElectrons: 324.000000
LCAOMinimize: Iter:  23  F: -642.6125668702507028  |grad|_K:  9.895e-05  alpha:  2.679e-02  linmin:  5.072e-05  cgtest:  3.402e-03  t[s]:   4431.17
	FillingsUpdate:  mu: -0.213544205  nElectrons: 324.000000
LCAOMinimize: Iter:  24  F: -642.6125887789604576  |grad|_K:  3.487e-05  alpha:  4.719e-02  linmin: -9.508e-05  cgtest: -8.231e-03  t[s]:   4589.42
LCAOMinimize: 	Predicted alpha/alphaT>3.000000, increasing alphaT to 1.415740e-01.
	FillingsUpdate:  mu: -0.213317101  nElectrons: 324.000000
LCAOMinimize: Iter:  25  F: -642.6126011020688793  |grad|_K:  6.481e-05  alpha:  2.134e-01  linmin: -1.382e-04  cgtest: -2.658e-03  t[s]:   4790.31
	FillingsUpdate:  mu: -0.214005511  nElectrons: 324.000000
LCAOMinimize: Iter:  26  F: -642.6126056948066889  |grad|_K:  1.799e-05  alpha:  2.244e-02  linmin: -4.558e-03  cgtest:  8.369e-02  t[s]:   4948.76
LCAOMinimize: 	Predicted alpha/alphaT>3.000000, increasing alphaT to 6.731931e-02.
	FillingsUpdate:  mu: -0.213740348  nElectrons: 324.000000
LCAOMinimize: Iter:  27  F: -642.6126068663435262  |grad|_K:  1.083e-05  alpha:  7.517e-02  linmin: -1.101e-05  cgtest: -3.201e-02  t[s]:   5149.53
	FillingsUpdate:  mu: -0.213553038  nElectrons: 324.000000
LCAOMinimize: Iter:  28  F: -642.6126073734892543  |grad|_K:  2.039e-05  alpha:  9.126e-02  linmin:  4.096e-05  cgtest:  3.701e-03  t[s]:   5307.56
	FillingsUpdate:  mu: -0.213862392  nElectrons: 324.000000
LCAOMinimize: Iter:  29  F: -642.6126086413470375  |grad|_K:  5.246e-06  alpha:  6.432e-02  linmin:  6.290e-05  cgtest:  1.316e-02  t[s]:   5466.36
	FillingsUpdate:  mu: -0.213837999  nElectrons: 324.000000
LCAOMinimize: Iter:  30  F: -642.6126088023271450  |grad|_K:  7.354e-06  alpha:  1.251e-01  linmin:  1.029e-03  cgtest: -1.209e-02  t[s]:   5624.51
LCAOMinimize: None of the convergence criteria satisfied after 30 iterations.
----- createFluidSolver() ----- (Fluid-side solver setup)
   Initializing fluid molecule 'Glyme'
     Net charge: 0   dipole magnitude: 0
     Initializing spherical shell mfKernel with radius 0 Bohr
     deltaS corrections:

Correction to mu due to finite nuclear width = -0.00736616
   Cavity determined by nc: 8.36e-05 and sigma: 0.6
   Effective cavity tension: -8.03e-06 Eh/bohr^2 to account for cavitation and dispersion.


---- Citations for features of the code used in this run ----

   Software package:
      R. Sundararaman, K. Letchworth-Weaver, K.A. Schwarz, D. Gunceler, Y. Ozhabes and T.A. Arias, 'JDFTx: software for joint density-functional theory', SoftwareX 6, 278 (2017)

   gga-PBE exchange-correlation functional:
      J.P. Perdew, K. Burke and M. Ernzerhof, Phys. Rev. Lett. 77, 3865 (1996)

   Pseudopotentials:
      KF Garrity, JW Bennett, KM Rabe and D Vanderbilt, Comput. Mater. Sci. 81, 446 (2014)

   Truncated Coulomb potentials:
      R. Sundararaman and T.A. Arias, Phys. Rev. B 87, 165122 (2013)

   Linear/nonlinear dielectric/ionic fluid model with effective cavity tension:
      D. Gunceler, K. Letchworth-Weaver, R. Sundararaman, K.A. Schwarz and T.A. Arias, Modelling Simul. Mater. Sci. Eng. 21, 074005 (2013)

This list may not be complete. Please suggest additional citations or
report any other bugs at https://github.com/shankar1729/jdftx/issues

Initialization completed successfully at t[s]:   5707.53

Fluid solver invoked on fresh (random / LCAO) wavefunctions
Running a vacuum solve first:

-------- Initial electronic minimization -----------
Will mix electronic density at each iteration.
	FillingsUpdate:  mu: -0.213837999  nElectrons: 324.000000
	FillingsUpdate:  mu: -0.225574676  nElectrons: 324.000000
SCF: Cycle:  0   F: -645.895502561069520   dF: -3.283e+00   |Residual|: 9.504e-01   |deigs|: 1.158e-01  t[s]:   6387.05
	FillingsUpdate:  mu: -0.213608556  nElectrons: 324.000000
SCF: Cycle:  1   F: -645.561647839579678   dF: +3.339e-01   |Residual|: 6.568e-01   |deigs|: 3.314e-02  t[s]:   6987.43
	FillingsUpdate:  mu: -0.147821656  nElectrons: 324.000000
SCF: Cycle:  2   F: -635.049098630697927   dF: +1.051e+01   |Residual|: 1.946e+00   |deigs|: 3.417e-02  t[s]:   7587.55
	FillingsUpdate:  mu: -0.175628643  nElectrons: 324.000000
SCF: Cycle:  3   F: -646.194615114672843   dF: -1.115e+01   |Residual|: 3.269e-01   |deigs|: 2.750e-02  t[s]:   8188.94
	FillingsUpdate:  mu: -0.165253503  nElectrons: 324.000000
SCF: Cycle:  4   F: -646.681295674937473   dF: -4.867e-01   |Residual|: 2.243e-01   |deigs|: 1.262e-02  t[s]:   8787.56
	FillingsUpdate:  mu: -0.165483245  nElectrons: 324.000000
SCF: Cycle:  5   F: -646.758462450921684   dF: -7.717e-02   |Residual|: 1.252e-01   |deigs|: 1.662e-03  t[s]:   9386.36
	FillingsUpdate:  mu: -0.154780942  nElectrons: 324.000000
SCF: Cycle:  6   F: -646.764092298742526   dF: -5.630e-03   |Residual|: 1.143e-01   |deigs|: 7.313e-03  t[s]:   9987.07
	FillingsUpdate:  mu: -0.151184266  nElectrons: 324.000000
SCF: Cycle:  7   F: -646.815562447448201   dF: -5.147e-02   |Residual|: 7.970e-02   |deigs|: 6.237e-03  t[s]:  10586.39
	FillingsUpdate:  mu: -0.144135095  nElectrons: 324.000000
SCF: Cycle:  8   F: -646.836510169510348   dF: -2.095e-02   |Residual|: 3.070e-02   |deigs|: 4.798e-03  t[s]:  11186.42
	FillingsUpdate:  mu: -0.139379596  nElectrons: 324.000000
SCF: Cycle:  9   F: -646.840006750492648   dF: -3.497e-03   |Residual|: 2.336e-02   |deigs|: 3.981e-03  t[s]:  11734.79
	FillingsUpdate:  mu: -0.134983193  nElectrons: 324.000000
SCF: Cycle: 10   F: -646.833267222233530   dF: +6.740e-03   |Residual|: 4.839e-02   |deigs|: 4.953e-03  t[s]:  12297.17
	FillingsUpdate:  mu: -0.133609629  nElectrons: 324.000000
SCF: Cycle: 11   F: -646.830513336841477   dF: +2.754e-03   |Residual|: 5.690e-02   |deigs|: 2.096e-03  t[s]:  12894.73
	FillingsUpdate:  mu: -0.131089249  nElectrons: 324.000000
SCF: Cycle: 12   F: -646.841993436996631   dF: -1.148e-02   |Residual|: 9.426e-03   |deigs|: 2.362e-03  t[s]:  13411.36
	FillingsUpdate:  mu: -0.127532346  nElectrons: 324.000000
SCF: Cycle: 13   F: -646.837967770026921   dF: +4.026e-03   |Residual|: 2.309e-02   |deigs|: 2.896e-03  t[s]:  13929.22
	FillingsUpdate:  mu: -0.125779670  nElectrons: 324.000000
SCF: Cycle: 14   F: -646.842408708942912   dF: -4.441e-03   |Residual|: 9.134e-03   |deigs|: 1.856e-03  t[s]:  14446.58
	FillingsUpdate:  mu: -0.122649458  nElectrons: 324.000000
SCF: Cycle: 15   F: -646.842409694062781   dF: -9.851e-07   |Residual|: 4.731e-03   |deigs|: 3.003e-03  t[s]:  14952.26
	FillingsUpdate:  mu: -0.120395747  nElectrons: 324.000000
SCF: Cycle: 16   F: -646.842540962911698   dF: -1.313e-04   |Residual|: 7.000e-03   |deigs|: 2.304e-03  t[s]:  15469.09
	FillingsUpdate:  mu: -0.117503580  nElectrons: 324.000000
SCF: Cycle: 17   F: -646.842665470790052   dF: -1.245e-04   |Residual|: 4.102e-03   |deigs|: 2.807e-03  t[s]:  15975.80
	FillingsUpdate:  mu: -0.116080779  nElectrons: 324.000000
SCF: Cycle: 18   F: -646.842710992261345   dF: -4.552e-05   |Residual|: 1.834e-03   |deigs|: 1.684e-03  t[s]:  16480.35
	FillingsUpdate:  mu: -0.115074259  nElectrons: 324.000000
SCF: Cycle: 19   F: -646.842713423673331   dF: -2.431e-06   |Residual|: 1.443e-03   |deigs|: 1.728e-03  t[s]:  16986.16
	FillingsUpdate:  mu: -0.114798092  nElectrons: 324.000000
SCF: Cycle: 20   F: -646.842720211634514   dF: -6.788e-06   |Residual|: 1.082e-03   |deigs|: 4.058e-04  t[s]:  17491.55
	FillingsUpdate:  mu: -0.114749145  nElectrons: 324.000000
SCF: Cycle: 21   F: -646.842724980912976   dF: -4.769e-06   |Residual|: 6.834e-04   |deigs|: 4.480e-04  t[s]:  17996.76
	FillingsUpdate:  mu: -0.114751005  nElectrons: 324.000000
SCF: Cycle: 22   F: -646.842726696283876   dF: -1.715e-06   |Residual|: 4.129e-04   |deigs|: 3.529e-04  t[s]:  18502.19
	FillingsUpdate:  mu: -0.114691193  nElectrons: 324.000000
SCF: Cycle: 23   F: -646.842726945743379   dF: -2.495e-07   |Residual|: 3.886e-04   |deigs|: 4.358e-04  t[s]:  19007.32
	FillingsUpdate:  mu: -0.114660946  nElectrons: 324.000000
SCF: Cycle: 24   F: -646.842727461109803   dF: -5.154e-07   |Residual|: 2.028e-04   |deigs|: 2.894e-04  t[s]:  19513.26
	FillingsUpdate:  mu: -0.114605425  nElectrons: 324.000000
SCF: Cycle: 25   F: -646.842727637017788   dF: -1.759e-07   |Residual|: 1.066e-04   |deigs|: 3.757e-04  t[s]:  20017.37
	FillingsUpdate:  mu: -0.114574740  nElectrons: 324.000000
SCF: Cycle: 26   F: -646.842727706345727   dF: -6.933e-08   |Residual|: 8.432e-05   |deigs|: 1.707e-04  t[s]:  20523.87
	FillingsUpdate:  mu: -0.114559314  nElectrons: 324.000000
SCF: Cycle: 27   F: -646.842727797992893   dF: -9.165e-08   |Residual|: 5.442e-05   |deigs|: 1.884e-04  t[s]:  21031.21
	FillingsUpdate:  mu: -0.114562346  nElectrons: 324.000000
SCF: Cycle: 28   F: -646.842727820018240   dF: -2.203e-08   |Residual|: 4.667e-05   |deigs|: 1.210e-04  t[s]:  21536.32
	FillingsUpdate:  mu: -0.114568639  nElectrons: 324.000000
SCF: Cycle: 29   F: -646.842727838743940   dF: -1.873e-08   |Residual|: 3.154e-05   |deigs|: 8.445e-05  t[s]:  22041.60
	FillingsUpdate:  mu: -0.114568798  nElectrons: 324.000000
SCF: Cycle: 30   F: -646.842727848651293   dF: -9.907e-09   |Residual|: 2.176e-05   |deigs|: 5.046e-05  t[s]:  22546.61
	FillingsUpdate:  mu: -0.114565234  nElectrons: 324.000000
SCF: Cycle: 31   F: -646.842727855290150   dF: -6.639e-09   |Residual|: 1.613e-05   |deigs|: 5.863e-05  t[s]:  23051.95
SCF: Converged (|Delta E|<1.000000e-08 for 2 iters).

Setting wave functions to eigenvectors of Hamiltonian
Vacuum energy after initial minimize, F = -646.842727855290150


-------- Electronic minimization -----------
Will mix electronic density at each iteration.
	FillingsUpdate:  mu: -0.114565234  nElectrons: 324.000000
	Linear fluid (dielectric constant: 7.2) occupying 0.824036 of unit cell:	Completed after 13 iterations at t[s]:  23120.48
	FillingsUpdate:  mu: -0.116916426  nElectrons: 324.000000
	Linear fluid (dielectric constant: 7.2) occupying 0.824939 of unit cell:	Completed after 10 iterations at t[s]:  23770.18
SCF: Cycle:  0   F: -646.844154260009645   dF: +2.692e-02   |Residual|: 6.993e-02   |deigs|: 3.019e-03  t[s]:  23771.75
	Linear fluid (dielectric constant: 7.2) occupying 0.824866 of unit cell:	Completed after 10 iterations at t[s]:  23778.87
	FillingsUpdate:  mu: -0.119313320  nElectrons: 324.000000
	Linear fluid (dielectric constant: 7.2) occupying 0.826140 of unit cell:	Completed after 13 iterations at t[s]:  24388.13
SCF: Cycle:  1   F: -646.007758479385870   dF: +8.364e-01   |Residual|: 5.169e-01   |deigs|: 5.004e-03  t[s]:  24389.72
	Linear fluid (dielectric constant: 7.2) occupying 0.824558 of unit cell:	Completed after 12 iterations at t[s]:  24398.35
	FillingsUpdate:  mu: -0.114792765  nElectrons: 324.000000
	Linear fluid (dielectric constant: 7.2) occupying 0.825125 of unit cell:	Completed after 10 iterations at t[s]:  25006.15
SCF: Cycle:  2   F: -646.867345642014811   dF: -8.596e-01   |Residual|: 5.510e-02   |deigs|: 5.367e-03  t[s]:  25007.78
	Linear fluid (dielectric constant: 7.2) occupying 0.824537 of unit cell:	Completed after 10 iterations at t[s]:  25015.07
	FillingsUpdate:  mu: -0.116739013  nElectrons: 324.000000
	Linear fluid (dielectric constant: 7.2) occupying 0.825379 of unit cell:	Completed after 10 iterations at t[s]:  25584.69
SCF: Cycle:  3   F: -646.875840859960363   dF: -8.495e-03   |Residual|: 2.053e-02   |deigs|: 8.899e-04  t[s]:  25586.24
	Linear fluid (dielectric constant: 7.2) occupying 0.824715 of unit cell:	Completed after 9 iterations at t[s]:  25593.27
	FillingsUpdate:  mu: -0.115746275  nElectrons: 324.000000
	Linear fluid (dielectric constant: 7.2) occupying 0.825468 of unit cell:	Completed after 10 iterations at t[s]:  26117.61
SCF: Cycle:  4   F: -646.876331266321131   dF: -4.904e-04   |Residual|: 2.150e-02   |deigs|: 5.124e-04  t[s]:  26119.22
	Linear fluid (dielectric constant: 7.2) occupying 0.824872 of unit cell:	Completed after 9 iterations at t[s]:  26126.19
	FillingsUpdate:  mu: -0.115582587  nElectrons: 324.000000
	Linear fluid (dielectric constant: 7.2) occupying 0.825828 of unit cell:	Completed after 10 iterations at t[s]:  26727.85
SCF: Cycle:  5   F: -646.878330282916068   dF: -1.999e-03   |Residual|: 4.910e-03   |deigs|: 5.770e-04  t[s]:  26729.47
	Linear fluid (dielectric constant: 7.2) occupying 0.824953 of unit cell:	Completed after 9 iterations at t[s]:  26736.66
	FillingsUpdate:  mu: -0.115257922  nElectrons: 324.000000
	Linear fluid (dielectric constant: 7.2) occupying 0.825873 of unit cell:	Completed after 10 iterations at t[s]:  27337.53
SCF: Cycle:  6   F: -646.878663213833079   dF: -3.329e-04   |Residual|: 6.148e-03   |deigs|: 3.576e-04  t[s]:  27339.24
	Linear fluid (dielectric constant: 7.2) occupying 0.825093 of unit cell:	Completed after 9 iterations at t[s]:  27346.83
	FillingsUpdate:  mu: -0.114723710  nElectrons: 324.000000
	Linear fluid (dielectric constant: 7.2) occupying 0.826118 of unit cell:	Completed after 10 iterations at t[s]:  27949.51
SCF: Cycle:  7   F: -646.879034796764017   dF: -3.716e-04   |Residual|: 5.213e-03   |deigs|: 7.167e-04  t[s]:  27951.26
	Linear fluid (dielectric constant: 7.2) occupying 0.825234 of unit cell:	Completed after 8 iterations at t[s]:  27957.94
	FillingsUpdate:  mu: -0.114306765  nElectrons: 324.000000
	Linear fluid (dielectric constant: 7.2) occupying 0.826079 of unit cell:	Completed after 9 iterations at t[s]:  28559.89
SCF: Cycle:  8   F: -646.879416193970997   dF: -3.814e-04   |Residual|: 6.462e-03   |deigs|: 5.036e-04  t[s]:  28561.68
	Linear fluid (dielectric constant: 7.2) occupying 0.825300 of unit cell:	Completed after 8 iterations at t[s]:  28568.37
	FillingsUpdate:  mu: -0.113917481  nElectrons: 324.000000
	Linear fluid (dielectric constant: 7.2) occupying 0.826028 of unit cell:	Completed after 8 iterations at t[s]:  29170.14
SCF: Cycle:  9   F: -646.880024199493960   dF: -6.080e-04   |Residual|: 2.669e-03   |deigs|: 6.582e-04  t[s]:  29171.81
	Linear fluid (dielectric constant: 7.2) occupying 0.825209 of unit cell:	Completed after 8 iterations at t[s]:  29178.39
	FillingsUpdate:  mu: -0.113776708  nElectrons: 324.000000
	Linear fluid (dielectric constant: 7.2) occupying 0.826117 of unit cell:	Completed after 8 iterations at t[s]:  29778.59
SCF: Cycle: 10   F: -646.880098799552570   dF: -7.460e-05   |Residual|: 2.545e-03   |deigs|: 5.109e-04  t[s]:  29780.31
	Linear fluid (dielectric constant: 7.2) occupying 0.825211 of unit cell:	Completed after 7 iterations at t[s]:  29786.73
	FillingsUpdate:  mu: -0.113706027  nElectrons: 324.000000
	Linear fluid (dielectric constant: 7.2) occupying 0.826088 of unit cell:	Completed after 8 iterations at t[s]:  30387.26
SCF: Cycle: 11   F: -646.880220352699666   dF: -1.216e-04   |Residual|: 7.834e-04   |deigs|: 3.313e-04  t[s]:  30389.03
	Linear fluid (dielectric constant: 7.2) occupying 0.825476 of unit cell:	Completed after 7 iterations at t[s]:  30395.37
	FillingsUpdate:  mu: -0.113528643  nElectrons: 324.000000
	Linear fluid (dielectric constant: 7.2) occupying 0.825868 of unit cell:	Completed after 7 iterations at t[s]:  30995.78
SCF: Cycle: 12   F: -646.880186926940382   dF: +3.343e-05   |Residual|: 2.103e-03   |deigs|: 6.991e-04  t[s]:  30997.36
	Linear fluid (dielectric constant: 7.2) occupying 0.825442 of unit cell:	Completed after 7 iterations at t[s]:  31003.70
	FillingsUpdate:  mu: -0.113551759  nElectrons: 324.000000
	Linear fluid (dielectric constant: 7.2) occupying 0.826086 of unit cell:	Completed after 7 iterations at t[s]:  31526.88
SCF: Cycle: 13   F: -646.880236475565198   dF: -4.955e-05   |Residual|: 6.902e-04   |deigs|: 6.392e-04  t[s]:  31528.55
	Linear fluid (dielectric constant: 7.2) occupying 0.825795 of unit cell:	Completed after 7 iterations at t[s]:  31534.71
	FillingsUpdate:  mu: -0.113540365  nElectrons: 324.000000
	Linear fluid (dielectric constant: 7.2) occupying 0.825922 of unit cell:	Completed after 6 iterations at t[s]:  32057.25
SCF: Cycle: 14   F: -646.880289909078101   dF: -5.343e-05   |Residual|: 1.064e-03   |deigs|: 7.352e-04  t[s]:  32058.91
	Linear fluid (dielectric constant: 7.2) occupying 0.825910 of unit cell:	Completed after 6 iterations at t[s]:  32064.52
	FillingsUpdate:  mu: -0.113528114  nElectrons: 324.000000
	Linear fluid (dielectric constant: 7.2) occupying 0.825992 of unit cell:	Completed after 6 iterations at t[s]:  32587.34
SCF: Cycle: 15   F: -646.880329148325814   dF: -3.924e-05   |Residual|: 4.371e-04   |deigs|: 2.607e-04  t[s]:  32588.90
	Linear fluid (dielectric constant: 7.2) occupying 0.825995 of unit cell:	Completed after 6 iterations at t[s]:  32594.34
	FillingsUpdate:  mu: -0.113585444  nElectrons: 324.000000
	Linear fluid (dielectric constant: 7.2) occupying 0.825915 of unit cell:	Completed after 6 iterations at t[s]:  33115.60
SCF: Cycle: 16   F: -646.880283572210146   dF: +4.558e-05   |Residual|: 7.601e-04   |deigs|: 3.387e-04  t[s]:  33117.11
	Linear fluid (dielectric constant: 7.2) occupying 0.826013 of unit cell:	Completed after 6 iterations at t[s]:  33122.95
	FillingsUpdate:  mu: -0.113558982  nElectrons: 324.000000
	Linear fluid (dielectric constant: 7.2) occupying 0.826015 of unit cell:	Completed after 6 iterations at t[s]:  33644.47
SCF: Cycle: 17   F: -646.880321740724753   dF: -3.817e-05   |Residual|: 4.761e-04   |deigs|: 3.636e-04  t[s]:  33645.92
	Linear fluid (dielectric constant: 7.2) occupying 0.825986 of unit cell:	Completed after 6 iterations at t[s]:  33651.08
	FillingsUpdate:  mu: -0.113551134  nElectrons: 324.000000
	Linear fluid (dielectric constant: 7.2) occupying 0.825947 of unit cell:	Completed after 6 iterations at t[s]:  34173.35
SCF: Cycle: 18   F: -646.880328241512302   dF: -6.501e-06   |Residual|: 4.313e-04   |deigs|: 1.696e-04  t[s]:  34174.94
	Linear fluid (dielectric constant: 7.2) occupying 0.825958 of unit cell:	Completed after 5 iterations at t[s]:  34179.84
	FillingsUpdate:  mu: -0.113601534  nElectrons: 324.000000
	Linear fluid (dielectric constant: 7.2) occupying 0.826006 of unit cell:	Completed after 5 iterations at t[s]:  34700.21
SCF: Cycle: 19   F: -646.880341552643131   dF: -1.331e-05   |Residual|: 4.860e-04   |deigs|: 3.487e-04  t[s]:  34701.69
	Linear fluid (dielectric constant: 7.2) occupying 0.825949 of unit cell:	Completed after 5 iterations at t[s]:  34706.65
	FillingsUpdate:  mu: -0.113623127  nElectrons: 324.000000
	Linear fluid (dielectric constant: 7.2) occupying 0.826016 of unit cell:	Completed after 5 iterations at t[s]:  35228.37
SCF: Cycle: 20   F: -646.880335970642818   dF: +5.582e-06   |Residual|: 4.193e-04   |deigs|: 3.772e-04  t[s]:  35229.97
	Linear fluid (dielectric constant: 7.2) occupying 0.825948 of unit cell:	Completed after 5 iterations at t[s]:  35234.95
	FillingsUpdate:  mu: -0.113654066  nElectrons: 324.000000
	Linear fluid (dielectric constant: 7.2) occupying 0.825961 of unit cell:	Completed after 4 iterations at t[s]:  35755.22
SCF: Cycle: 21   F: -646.880342852734543   dF: -6.882e-06   |Residual|: 1.933e-04   |deigs|: 2.445e-04  t[s]:  35756.79
	Linear fluid (dielectric constant: 7.2) occupying 0.825953 of unit cell:	Completed after 5 iterations at t[s]:  35761.75
	FillingsUpdate:  mu: -0.113667947  nElectrons: 324.000000
	Linear fluid (dielectric constant: 7.2) occupying 0.825990 of unit cell:	Completed after 5 iterations at t[s]:  36271.02
SCF: Cycle: 22   F: -646.880348022133035   dF: -5.169e-06   |Residual|: 2.313e-04   |deigs|: 8.637e-05  t[s]:  36272.61
	Linear fluid (dielectric constant: 7.2) occupying 0.825965 of unit cell:	Completed after 2 iterations at t[s]:  36275.78
	FillingsUpdate:  mu: -0.113658609  nElectrons: 324.000000
	Linear fluid (dielectric constant: 7.2) occupying 0.825959 of unit cell:	Completed after 3 iterations at t[s]:  36796.25
SCF: Cycle: 23   F: -646.880344819394168   dF: +3.203e-06   |Residual|: 1.367e-04   |deigs|: 1.112e-04  t[s]:  36797.87
	Linear fluid (dielectric constant: 7.2) occupying 0.825976 of unit cell:	Completed after 3 iterations at t[s]:  36801.92
	FillingsUpdate:  mu: -0.113660890  nElectrons: 324.000000
	Linear fluid (dielectric constant: 7.2) occupying 0.825961 of unit cell:	Completed after 3 iterations at t[s]:  37322.62
SCF: Cycle: 24   F: -646.880345118501168   dF: -2.991e-07   |Residual|: 1.870e-04   |deigs|: 9.236e-05  t[s]:  37324.17
	Linear fluid (dielectric constant: 7.2) occupying 0.825969 of unit cell:	Completed after 2 iterations at t[s]:  37327.61
	FillingsUpdate:  mu: -0.113662125  nElectrons: 324.000000
	Linear fluid (dielectric constant: 7.2) occupying 0.825964 of unit cell:	Completed after 2 iterations at t[s]:  37845.74
SCF: Cycle: 25   F: -646.880348968094609   dF: -3.850e-06   |Residual|: 7.251e-05   |deigs|: 5.108e-05  t[s]:  37847.34
	Linear fluid (dielectric constant: 7.2) occupying 0.825975 of unit cell:	Completed after 3 iterations at t[s]:  37851.21
	FillingsUpdate:  mu: -0.113666940  nElectrons: 324.000000
	Linear fluid (dielectric constant: 7.2) occupying 0.825968 of unit cell:	Completed after 3 iterations at t[s]:  38359.26
SCF: Cycle: 26   F: -646.880350728192298   dF: -1.760e-06   |Residual|: 1.939e-04   |deigs|: 9.080e-05  t[s]:  38360.89
	Linear fluid (dielectric constant: 7.2) occupying 0.825979 of unit cell:	Completed after 2 iterations at t[s]:  38364.16
	FillingsUpdate:  mu: -0.113659842  nElectrons: 324.000000
	Linear fluid (dielectric constant: 7.2) occupying 0.825970 of unit cell:	Completed after 2 iterations at t[s]:  38871.07
SCF: Cycle: 27   F: -646.880350852278980   dF: -1.241e-07   |Residual|: 8.883e-05   |deigs|: 6.241e-05  t[s]:  38872.72
	Linear fluid (dielectric constant: 7.2) occupying 0.825973 of unit cell:	Completed after 2 iterations at t[s]:  38876.00
	FillingsUpdate:  mu: -0.113667521  nElectrons: 324.000000
	Linear fluid (dielectric constant: 7.2) occupying 0.825973 of unit cell:	Completed after 2 iterations at t[s]:  39395.31
SCF: Cycle: 28   F: -646.880350310091671   dF: +5.422e-07   |Residual|: 6.876e-05   |deigs|: 5.641e-05  t[s]:  39396.85
	Linear fluid (dielectric constant: 7.2) occupying 0.825971 of unit cell:	Completed after 2 iterations at t[s]:  39400.18
	FillingsUpdate:  mu: -0.113667591  nElectrons: 324.000000
	Linear fluid (dielectric constant: 7.2) occupying 0.825973 of unit cell:	Completed after 1 iterations at t[s]:  39906.68
SCF: Cycle: 29   F: -646.880351036506340   dF: -7.264e-07   |Residual|: 4.807e-05   |deigs|: 5.468e-05  t[s]:  39908.29
	Linear fluid (dielectric constant: 7.2) occupying 0.825965 of unit cell:	Completed after 2 iterations at t[s]:  39911.59
	FillingsUpdate:  mu: -0.113670041  nElectrons: 324.000000
	Linear fluid (dielectric constant: 7.2) occupying 0.825978 of unit cell:	Completed after 1 iterations at t[s]:  40420.22
SCF: Cycle: 30   F: -646.880350835581680   dF: +2.009e-07   |Residual|: 3.813e-05   |deigs|: 5.911e-05  t[s]:  40421.94
	Linear fluid (dielectric constant: 7.2) occupying 0.825963 of unit cell:	Completed after 1 iterations at t[s]:  40424.76
	FillingsUpdate:  mu: -0.113676127  nElectrons: 324.000000
	Linear fluid (dielectric constant: 7.2) occupying 0.825976 of unit cell:	Completed after 2 iterations at t[s]:  40932.67
SCF: Cycle: 31   F: -646.880350791799628   dF: +4.378e-08   |Residual|: 1.337e-04   |deigs|: 1.589e-05  t[s]:  40934.22
	Linear fluid (dielectric constant: 7.2) occupying 0.825964 of unit cell:	Completed after 2 iterations at t[s]:  40937.45
	FillingsUpdate:  mu: -0.113670487  nElectrons: 324.000000
	Linear fluid (dielectric constant: 7.2) occupying 0.825977 of unit cell:	Completed after 2 iterations at t[s]:  41445.75
SCF: Cycle: 32   F: -646.880350706442414   dF: +8.536e-08   |Residual|: 1.930e-04   |deigs|: 3.063e-05  t[s]:  41447.41
	Linear fluid (dielectric constant: 7.2) occupying 0.825963 of unit cell:	Completed after 2 iterations at t[s]:  41450.47
	FillingsUpdate:  mu: -0.113672041  nElectrons: 324.000000
	Linear fluid (dielectric constant: 7.2) occupying 0.825976 of unit cell:	Completed after 1 iterations at t[s]:  41957.47
SCF: Cycle: 33   F: -646.880350746271461   dF: -3.983e-08   |Residual|: 1.798e-04   |deigs|: 3.327e-05  t[s]:  41959.03
	Linear fluid (dielectric constant: 7.2) occupying 0.825963 of unit cell:	Completed after 2 iterations at t[s]:  41962.38
	FillingsUpdate:  mu: -0.113673131  nElectrons: 324.000000
	Linear fluid (dielectric constant: 7.2) occupying 0.825975 of unit cell:	Completed after 1 iterations at t[s]:  42469.62
SCF: Cycle: 34   F: -646.880350864464731   dF: -1.182e-07   |Residual|: 1.189e-04   |deigs|: 1.514e-05  t[s]:  42471.26
	Linear fluid (dielectric constant: 7.2) occupying 0.825964 of unit cell:	Completed after 1 iterations at t[s]:  42473.96
	FillingsUpdate:  mu: -0.113677413  nElectrons: 324.000000
	Linear fluid (dielectric constant: 7.2) occupying 0.825977 of unit cell:	Completed after 1 iterations at t[s]:  42989.77
SCF: Cycle: 35   F: -646.880351016170721   dF: -1.517e-07   |Residual|: 8.057e-05   |deigs|: 1.895e-05  t[s]:  42991.25
	Linear fluid (dielectric constant: 7.2) occupying 0.825968 of unit cell:	Completed after 1 iterations at t[s]:  42994.04
	FillingsUpdate:  mu: -0.113673106  nElectrons: 324.000000
	Linear fluid (dielectric constant: 7.2) occupying 0.825973 of unit cell:	Completed after 2 iterations at t[s]:  43499.79
SCF: Cycle: 36   F: -646.880350893762511   dF: +1.224e-07   |Residual|: 2.345e-04   |deigs|: 1.871e-05  t[s]:  43501.39
	Linear fluid (dielectric constant: 7.2) occupying 0.825972 of unit cell:	Completed after 2 iterations at t[s]:  43504.78
	FillingsUpdate:  mu: -0.113674854  nElectrons: 324.000000
	Linear fluid (dielectric constant: 7.2) occupying 0.825975 of unit cell:	Completed after 1 iterations at t[s]:  44012.01
SCF: Cycle: 37   F: -646.880350955842232   dF: -6.208e-08   |Residual|: 6.632e-05   |deigs|: 3.820e-05  t[s]:  44013.54
	Linear fluid (dielectric constant: 7.2) occupying 0.825975 of unit cell:	Completed after 1 iterations at t[s]:  44016.32
	FillingsUpdate:  mu: -0.113677669  nElectrons: 324.000000
	Linear fluid (dielectric constant: 7.2) occupying 0.825974 of unit cell:	Completed after 1 iterations at t[s]:  44512.78
SCF: Cycle: 38   F: -646.880351001591976   dF: -4.575e-08   |Residual|: 4.297e-05   |deigs|: 2.669e-05  t[s]:  44514.26
	Linear fluid (dielectric constant: 7.2) occupying 0.825975 of unit cell:	Completed after 0 iterations at t[s]:  44516.59
	FillingsUpdate:  mu: -0.113668634  nElectrons: 324.000000
	Linear fluid (dielectric constant: 7.2) occupying 0.825974 of unit cell:	Completed after 2 iterations at t[s]:  45025.22
SCF: Cycle: 39   F: -646.880349607053745   dF: +1.395e-06   |Residual|: 6.317e-04   |deigs|: 1.972e-05  t[s]:  45027.03
	Linear fluid (dielectric constant: 7.2) occupying 0.825974 of unit cell:	Completed after 2 iterations at t[s]:  45030.39
	FillingsUpdate:  mu: -0.113676937  nElectrons: 324.000000
	Linear fluid (dielectric constant: 7.2) occupying 0.825975 of unit cell:	Completed after 1 iterations at t[s]:  45375.91
SCF: Cycle: 40   F: -646.880351014927101   dF: -1.408e-06   |Residual|: 8.987e-05   |deigs|: 9.538e-06  t[s]:  45377.48
	Linear fluid (dielectric constant: 7.2) occupying 0.825974 of unit cell:	Completed after 1 iterations at t[s]:  45380.30
	FillingsUpdate:  mu: -0.113677244  nElectrons: 324.000000
	Linear fluid (dielectric constant: 7.2) occupying 0.825975 of unit cell:	Completed after 1 iterations at t[s]:  45709.64
SCF: Cycle: 41   F: -646.880351009884748   dF: +5.042e-09   |Residual|: 5.033e-05   |deigs|: 1.156e-05  t[s]:  45711.19
	Linear fluid (dielectric constant: 7.2) occupying 0.825974 of unit cell:	Completed after 1 iterations at t[s]:  45713.95
	FillingsUpdate:  mu: -0.113678282  nElectrons: 324.000000
	Linear fluid (dielectric constant: 7.2) occupying 0.825975 of unit cell:	Completed after 1 iterations at t[s]:  46208.52
SCF: Cycle: 42   F: -646.880350969206120   dF: +4.068e-08   |Residual|: 7.229e-05   |deigs|: 8.125e-06  t[s]:  46210.22
	Linear fluid (dielectric constant: 7.2) occupying 0.825974 of unit cell:	Completed after 1 iterations at t[s]:  46212.99
	FillingsUpdate:  mu: -0.113680176  nElectrons: 324.000000
	Linear fluid (dielectric constant: 7.2) occupying 0.825975 of unit cell:	Completed after 1 iterations at t[s]:  46682.78
SCF: Cycle: 43   F: -646.880351025416417   dF: -5.621e-08   |Residual|: 1.058e-04   |deigs|: 8.688e-06  t[s]:  46684.33
	Linear fluid (dielectric constant: 7.2) occupying 0.825973 of unit cell:	Completed after 1 iterations at t[s]:  46687.26
	FillingsUpdate:  mu: -0.113679993  nElectrons: 324.000000
	Linear fluid (dielectric constant: 7.2) occupying 0.825976 of unit cell:	Completed after 1 iterations at t[s]:  47171.98
SCF: Cycle: 44   F: -646.880351004951194   dF: +2.047e-08   |Residual|: 1.157e-04   |deigs|: 1.530e-05  t[s]:  47173.76
	Linear fluid (dielectric constant: 7.2) occupying 0.825973 of unit cell:	Completed after 1 iterations at t[s]:  47176.49
	FillingsUpdate:  mu: -0.113679937  nElectrons: 324.000000
	Linear fluid (dielectric constant: 7.2) occupying 0.825975 of unit cell:	Completed after 0 iterations at t[s]:  47646.93
SCF: Cycle: 45   F: -646.880351047316140   dF: -4.236e-08   |Residual|: 6.427e-05   |deigs|: 4.969e-06  t[s]:  47648.57
	Linear fluid (dielectric constant: 7.2) occupying 0.825973 of unit cell:	Completed after 1 iterations at t[s]:  47651.59
	FillingsUpdate:  mu: -0.113679115  nElectrons: 324.000000
	Linear fluid (dielectric constant: 7.2) occupying 0.825975 of unit cell:	Completed after 0 iterations at t[s]:  48110.53
SCF: Cycle: 46   F: -646.880351076369720   dF: -2.905e-08   |Residual|: 3.862e-05   |deigs|: 6.601e-06  t[s]:  48112.17
	Linear fluid (dielectric constant: 7.2) occupying 0.825973 of unit cell:	Completed after 0 iterations at t[s]:  48114.37
	FillingsUpdate:  mu: -0.113671735  nElectrons: 324.000000
	Linear fluid (dielectric constant: 7.2) occupying 0.825975 of unit cell:	Completed after 2 iterations at t[s]:  48618.43
SCF: Cycle: 47   F: -646.880349996927748   dF: +1.079e-06   |Residual|: 5.335e-04   |deigs|: 1.060e-05  t[s]:  48620.12
	Linear fluid (dielectric constant: 7.2) occupying 0.825973 of unit cell:	Completed after 2 iterations at t[s]:  48623.78
	FillingsUpdate:  mu: -0.113678792  nElectrons: 324.000000
	Linear fluid (dielectric constant: 7.2) occupying 0.825976 of unit cell:	Completed after 1 iterations at t[s]:  48966.64
SCF: Cycle: 48   F: -646.880351002389943   dF: -1.005e-06   |Residual|: 1.205e-04   |deigs|: 5.237e-06  t[s]:  48968.33
	Linear fluid (dielectric constant: 7.2) occupying 0.825973 of unit cell:	Completed after 1 iterations at t[s]:  48971.15
	FillingsUpdate:  mu: -0.113678330  nElectrons: 324.000000
	Linear fluid (dielectric constant: 7.2) occupying 0.825975 of unit cell:	Completed after 0 iterations at t[s]:  49301.55
SCF: Cycle: 49   F: -646.880351083084975   dF: -8.070e-08   |Residual|: 2.349e-05   |deigs|: 1.195e-05  t[s]:  49303.24
	Linear fluid (dielectric constant: 7.2) occupying 0.825974 of unit cell:	Completed after 0 iterations at t[s]:  49305.62
Setting wave functions to eigenvectors of Hamiltonian
Single-point solvation energy estimate, DeltaF = -0.037554664778895

# Ionic positions in cartesian coordinates:
ion C  28.005857181630002   0.000000000000000   1.000001652210000 0
ion C  25.672025513790000   4.042310104620000   1.000001652210000 0
ion C  11.669128103520002  20.211535405260001   1.000001652210000 0
ion C   4.667680343250000   0.000000000000000   1.000001652210000 0
ion C  23.338288332449999   0.000000000000000   1.000001652210000 0
ion C   2.333822219190000   4.042310104620000   1.000001652210000 0
ion C  16.336708291080008  20.211535405260001   1.000001652210000 0
ion C  23.338191956219998   8.084622098970000   1.000001652210000 0
ion C   9.335305884329996  16.169223410910011   1.000001652210000 0
ion C   9.335322891900001   0.000000000000000   1.000001652210000 0
ion C  18.670626886499999   0.000000000000000   1.000001652210000 0
ion C  18.670539958920003  16.169223410910011   1.000001652210000 0
ion C  21.004371626759990  12.126913306290001   1.000001652210000 0
ion C  14.002984337850000   0.000000000000000   1.000001652210000 0
ion C   0.000000000000000   8.084622098970000   1.000001652210000 0
ion C   7.001485554870005  20.211535405260001   1.000001652210000 0
ion C  -7.001481775409994  20.211535405260001   1.000001652210000 0
ion C  -2.333822219189999  12.126913306290001   1.000001652210000 0
ion C   4.667663335679999  16.169223410910011   1.000001652210000 0
ion C  -2.333820329459996  20.211535405260001   1.000001652210000 0
ion C   2.333824108920002  20.211535405260001   1.000001652210000 0
ion C  -4.667659556220002  16.169223410910011   1.000001652210000 0
ion C   7.001483665139999   4.042310104620000   1.000001652210000 0
ion C  21.004430208389998   4.042310104620000   1.000001652210000 0
ion C  14.002948432980000  16.169223410910011   1.000001652210000 0
ion C   0.000001889729997  16.169223410910011   1.000001652210000 0
ion C  11.669126213789999   4.042310104620000   1.000001652210000 0
ion C  18.670609878929998   8.084622098970000   1.000001652210000 0
ion C  11.669126213789998  12.126913306290001   1.000001652210000 0
ion C  16.336787659739997  12.126913306290001   1.000001652210000 0
ion C  16.336789549470002   4.042310104620000   1.000001652210000 0
ion C   9.335303994600004   8.084622098970000   1.000001652210000 0
ion C  14.002948432980002   8.084622098970000   1.000001652210000 0
ion C   0.000000000000000   2.694874032990001   1.000001652210000 0
ion C  11.669128103519999  22.906390540950010   1.000001652210000 0
ion C -11.669124324059998  22.906390540950010   1.000001652210000 0
ion C  -2.333822219190000   6.737165240310004   1.000001652210000 0
ion C   9.335305884330001  18.864097443900004   1.000001652210000 0
ion C  -7.001481775409996  22.906390540950010   1.000001652210000 0
ion C   7.001485554870005  22.906390540950010   1.000001652210000 0
ion C   2.333822219189997   6.737165240310004   1.000001652210000 0
ion C  -9.335302104869998  18.864097443900004   1.000001652210000 0
ion C  -4.667661445950000  10.779477234660005   1.000001652210000 0
ion C  -2.333820329460000  22.906390540950010   1.000001652210000 0
ion C   2.333824108920002  22.906390540950010   1.000001652210000 0
ion C  -7.001483665140000  14.821787339280007   1.000001652210000 0
ion C   4.667661445950001   2.694874032990001   1.000001652210000 0
ion C  23.338269435150004   2.694874032990001   1.000001652210000 0
ion C  14.002967330279997  18.864097443900004   1.000001652210000 0
ion C   0.000000000000000  10.779477234660005   1.000001652210000 0
ion C   4.667663335679999  18.864097443900004   1.000001652210000 0
ion C  -4.667640658919996  18.864097443900004   1.000001652210000 0
ion C  -2.333822219190001  14.821787339280007   1.000001652210000 0
ion C   2.333824108919998  14.821787339280007   1.000001652210000 0
ion C   0.000001889729999  18.864097443900004   1.000001652210000 0
ion C   9.335303994599997   2.694874032990001   1.000001652210000 0
ion C  21.004430208390001   6.737165240310004   1.000001652210000 0
ion C  11.669126213790003  14.821787339280007   1.000001652210000 0
ion C  16.336789549469998  14.821787339280007   1.000001652210000 0
ion C  18.670609878930005   2.694874032990001   1.000001652210000 0
ion C   7.001483665139999   6.737165240310004   1.000001652210000 0
ion C  14.002946543250001   2.694874032990001   1.000001652210000 0
ion C  18.670607989199997  10.779477234660005   1.000001652210000 0
ion C  11.669126213789998   6.737165240310004   1.000001652210000 0
ion C  16.336787659740001   6.737165240310004   1.000001652210000 0
ion C  14.002946543250001  10.779477234660005   1.000001652210000 0
ion N   4.667661445950002   8.084622098970000   1.000001652210000 0
ion N   2.333822219190004  12.126913306290001   1.000001652210000 0
ion N   7.001485554869998  14.821787339280007   1.000001652210000 0
ion N   9.335305884330001  10.779477234660005   1.000001652210000 0
ion Fe   5.837109518069999  11.454309266310004   1.000001652210000 0
ion S  11.996321958307306  13.080363808714907   8.869696466513297 1
ion Na   8.177817050167437  12.403054816466332   5.947606613126949 1
ion Na  15.895421543116431  13.800966413369199   6.147004302818918 1

# Forces in Cartesian coordinates:
force C   0.004062089460868   0.000030045277832  -0.000335701066512 0
force C   0.001317690368500  -0.001239528727861  -0.000330236160715 0
force C   0.003261645440108  -0.001835795021431  -0.000571288352276 0
force C   0.001535781270328   0.002723548786377  -0.000322447184309 0
force C   0.002420313879340  -0.000534224345366  -0.000325679544984 0
force C   0.005091928436004   0.002035248662181  -0.000398794182167 0
force C   0.001062050033562  -0.000479426495354  -0.000515296680503 0
force C  -0.000514195433225   0.001700629453506  -0.000325500373796 0
force C  -0.031021162851522  -0.011297187504554  -0.001171142913404 0
force C  -0.000674849129452   0.000343515698701  -0.000326514676850 0
force C  -0.000745189161039   0.000053373196764  -0.000326137163321 0
force C   0.002035933708342   0.002407525977772  -0.000772328023393 0
force C   0.002763407443748   0.003265843324455  -0.000667688530619 0
force C  -0.000705961221272  -0.000528225647411  -0.000316906891864 0
force C   0.011006210181829   0.006282449849959  -0.000274935546616 0
force C   0.003344593651340   0.003125489967801  -0.000377181916186 0
force C   0.002062037131132   0.000937654910678  -0.000348469360147 0
force C   0.004581739347500   0.003530669149193  -0.000339097933988 0
force C   0.026635272073127   0.012555868385882  -0.000979757617590 0
force C   0.000021748498422  -0.000952104835191  -0.000340858788519 0
force C  -0.003434958657223   0.000631590331130  -0.000346080406057 0
force C   0.003127193399357  -0.000052537958237  -0.000303062909826 0
force C   0.005579227858892   0.006271512290149  -0.000338659795709 0
force C   0.001849372372349   0.000860074508745  -0.000322900039080 0
force C  -0.002902986723274   0.000885367440558  -0.000404715165826 0
force C   0.008442174941807   0.001387303211359  -0.000338120323080 0
force C  -0.000903185252618  -0.003256884586823  -0.000383711526010 0
force C   0.001115253250701   0.002249629514239  -0.000452392791249 0
force C  -0.025763553667691  -0.021297292720936  -0.001605916740569 0
force C   0.000118651627412   0.001520686184782  -0.000612011615776 0
force C  -0.000449056232956  -0.000580388111274  -0.000318172374101 0
force C   0.023948774934701   0.015331501474365  -0.001249185583232 0
force C   0.004698029876559   0.000442420163323  -0.000542824745719 0
force C  -0.003473293743313   0.001830573930256  -0.000326027984683 0
force C  -0.004120934702713  -0.000021430928296  -0.000354812568075 0
force C  -0.002509712858358   0.000427381877067  -0.000291265882215 0
force C   0.002074735055358   0.001109020413786  -0.000314583184578 0
force C  -0.004868925558860  -0.002054972234446  -0.000818956747555 0
force C   0.000296623815366   0.000292026299736  -0.000336624276686 0
force C  -0.001112346687997  -0.003142085243870  -0.000286013265156 0
force C   0.033192634239862   0.013946631495946  -0.000404805235013 0
force C  -0.002048615983478  -0.000495031404482  -0.000495449553193 0
force C  -0.000291952448653  -0.004095546249243  -0.000236169486994 0
force C   0.000619443327194   0.000505093211123  -0.000324039564107 0
force C   0.000893550407773  -0.000432068766183  -0.000327835400117 0
force C  -0.000300869116469  -0.002069385586681  -0.000693050759399 0
force C  -0.003207751378573  -0.002450088275868  -0.000338054757280 0
force C  -0.000854789999399   0.000885596476748  -0.000318690853687 0
force C  -0.001575936149531   0.001405566116944  -0.000725538113336 0
force C   0.028754669674443   0.021944429686578  -0.000381037107250 0
force C  -0.005315531502702  -0.007679201873570  -0.000531677874917 0
force C   0.000269777551953   0.000403620257684  -0.000332795534368 0
force C  -0.003753966699372  -0.001677399391510  -0.000340338016973 0
force C  -0.023547835757936  -0.020322908350971  -0.000549694754745 0
force C   0.001141685234309   0.003118672069590  -0.000327689707609 0
force C   0.002958424847283  -0.000422153087340  -0.000312715945706 0
force C   0.000373764691832  -0.000893772421931  -0.000350133934135 0
force C  -0.012291295041566  -0.006585143243888  -0.000575809643385 0
force C   0.000120471124458  -0.000023610944305  -0.000911023651680 0
force C  -0.001635195558180  -0.001016850420955  -0.000341196435798 0
force C  -0.028860161094368  -0.009933584861494  -0.000688862654458 0
force C  -0.000013033455852   0.001265919205617  -0.000331969807346 0
force C  -0.000572772111786  -0.004983397006536  -0.000813163853392 0
force C  -0.009362222612162  -0.000761169284535  -0.000839238684896 0
force C  -0.003938411776990   0.000417444076103  -0.000485753356234 0
force C  -0.005833150523475  -0.004097002293519  -0.000570933747570 0
force N   0.026128374479952  -0.026337792262989  -0.000336820793765 0
force N  -0.009839811059267   0.035860662013539  -0.000186491123161 0
force N  -0.025775309584227   0.025058890915501   0.001443256084863 0
force N   0.009355141885730  -0.034254184027093   0.002001992121053 0
force Fe  -0.003036037353101  -0.001479943629903  -0.019576091201486 0
force S  -0.001608488124823  -0.000375951481792   0.004009081270326 1
force Na  -0.003383784742200  -0.000093206231231   0.001838808631981 1
force Na   0.005196146339487   0.000991699048851   0.001959904090650 1

# Energy components:
   A_diel =       -0.0489709429686112
   Eewald =     4053.8525705445022140
       EH =     4573.5547879266123346
     Eloc =    -9330.5054407993175118
      Enl =      -64.0466243024975910
      Exc =     -163.5349290344691155
 Exc_core =        5.1303974300831081
       KE =      278.8143951704602728
-------------------------------------
     Etot =     -646.7838140075950832
       TS =        0.0964685124740081
-------------------------------------
        F =     -646.8802825200690449

IonicMinimize: Iter:   0  F: -646.880282520069045  |grad|_K:  2.697e-03  alpha:  1.000e+00

#--- Lowdin population analysis ---
# oxidation-state C +0.043 +0.034 +0.037 +0.035 +0.037 +0.025 +0.034 +0.033 +0.134 +0.038 +0.036 +0.021 +0.036 +0.039 +0.010 +0.045 +0.040 +0.025 +0.124 +0.037 +0.033 +0.032 +0.032 +0.044 +0.030 +0.031 +0.035 +0.034 +0.130 -0.003 +0.036 +0.122 +0.045 +0.037 +0.043 +0.036 +0.049 +0.026 +0.036 +0.035 +0.149 +0.040 +0.036 +0.039 +0.038 +0.030 +0.047 +0.037 +0.030 +0.148 +0.032 +0.036 +0.046 +0.128 +0.034 +0.035 +0.036 -0.002 -0.014 +0.042 +0.127 +0.039 +0.032 +0.033 +0.034 +0.013
# oxidation-state N -0.136 -0.135 -0.155 -0.161
# oxidation-state Fe +0.048
# oxidation-state S -0.957
# oxidation-state Na +0.803 +0.855


-------- Electronic minimization -----------
Will mix electronic density at each iteration.
	FillingsUpdate:  mu: -0.113678330  nElectrons: 324.000000
	Linear fluid (dielectric constant: 7.2) occupying 0.825961 of unit cell:	Completed after 4 iterations at t[s]:  49738.50
	FillingsUpdate:  mu: -0.113617444  nElectrons: 324.000000
	Linear fluid (dielectric constant: 7.2) occupying 0.825971 of unit cell:	Completed after 5 iterations at t[s]:  50295.86
SCF: Cycle:  0   F: -646.880399416381920   dF: +1.536e-05   |Residual|: 1.168e-03   |deigs|: 7.692e-07  t[s]:  50297.11
	Linear fluid (dielectric constant: 7.2) occupying 0.825946 of unit cell:	Completed after 5 iterations at t[s]:  50300.63
	FillingsUpdate:  mu: -0.113629374  nElectrons: 324.000000
	Linear fluid (dielectric constant: 7.2) occupying 0.825962 of unit cell:	Completed after 6 iterations at t[s]:  50655.80
SCF: Cycle:  1   F: -646.880271825315958   dF: +1.276e-04   |Residual|: 6.006e-03   |deigs|: 6.235e-05  t[s]:  50657.19
	Linear fluid (dielectric constant: 7.2) occupying 0.825952 of unit cell:	Completed after 6 iterations at t[s]:  50662.23
	FillingsUpdate:  mu: -0.113754081  nElectrons: 324.000000
	Linear fluid (dielectric constant: 7.2) occupying 0.825976 of unit cell:	Completed after 5 iterations at t[s]:  51015.37
SCF: Cycle:  2   F: -646.880330518618166   dF: -5.869e-05   |Residual|: 5.238e-03   |deigs|: 8.367e-05  t[s]:  51016.98
	Linear fluid (dielectric constant: 7.2) occupying 0.825955 of unit cell:	Completed after 5 iterations at t[s]:  51021.89
	FillingsUpdate:  mu: -0.113652834  nElectrons: 324.000000
	Linear fluid (dielectric constant: 7.2) occupying 0.825965 of unit cell:	Completed after 3 iterations at t[s]:  51376.44
SCF: Cycle:  3   F: -646.880415219579618   dF: -8.470e-05   |Residual|: 1.555e-04   |deigs|: 4.916e-05  t[s]:  51377.94
	Linear fluid (dielectric constant: 7.2) occupying 0.825954 of unit cell:	Completed after 3 iterations at t[s]:  51381.94
	FillingsUpdate:  mu: -0.113654795  nElectrons: 324.000000
	Linear fluid (dielectric constant: 7.2) occupying 0.825967 of unit cell:	Completed after 2 iterations at t[s]:  51886.13
SCF: Cycle:  4   F: -646.880414850166630   dF: +3.694e-07   |Residual|: 1.706e-04   |deigs|: 1.489e-05  t[s]:  51887.83
	Linear fluid (dielectric constant: 7.2) occupying 0.825954 of unit cell:	Completed after 2 iterations at t[s]:  51891.10
	FillingsUpdate:  mu: -0.113658840  nElectrons: 324.000000
	Linear fluid (dielectric constant: 7.2) occupying 0.825959 of unit cell:	Completed after 2 iterations at t[s]:  52411.62
SCF: Cycle:  5   F: -646.880415507902512   dF: -6.577e-07   |Residual|: 5.509e-05   |deigs|: 2.690e-05  t[s]:  52413.37
	Linear fluid (dielectric constant: 7.2) occupying 0.825955 of unit cell:	Completed after 1 iterations at t[s]:  52416.44
	FillingsUpdate:  mu: -0.113656573  nElectrons: 324.000000
	Linear fluid (dielectric constant: 7.2) occupying 0.825972 of unit cell:	Completed after 2 iterations at t[s]:  52935.37
SCF: Cycle:  6   F: -646.880413761759200   dF: +1.746e-06   |Residual|: 1.509e-04   |deigs|: 3.494e-05  t[s]:  52937.02
	Linear fluid (dielectric constant: 7.2) occupying 0.825956 of unit cell:	Completed after 2 iterations at t[s]:  52940.17
	FillingsUpdate:  mu: -0.113654632  nElectrons: 324.000000
	Linear fluid (dielectric constant: 7.2) occupying 0.825962 of unit cell:	Completed after 2 iterations at t[s]:  53436.28
SCF: Cycle:  7   F: -646.880415337548357   dF: -1.576e-06   |Residual|: 1.883e-04   |deigs|: 3.064e-05  t[s]:  53437.96
	Linear fluid (dielectric constant: 7.2) occupying 0.825957 of unit cell:	Completed after 2 iterations at t[s]:  53441.49
	FillingsUpdate:  mu: -0.113658225  nElectrons: 324.000000
	Linear fluid (dielectric constant: 7.2) occupying 0.825963 of unit cell:	Completed after 2 iterations at t[s]:  53770.40
SCF: Cycle:  8   F: -646.880415437990791   dF: -1.004e-07   |Residual|: 5.127e-05   |deigs|: 9.712e-06  t[s]:  53772.08
	Linear fluid (dielectric constant: 7.2) occupying 0.825958 of unit cell:	Completed after 1 iterations at t[s]:  53775.09
	FillingsUpdate:  mu: -0.113654373  nElectrons: 324.000000
	Linear fluid (dielectric constant: 7.2) occupying 0.825965 of unit cell:	Completed after 1 iterations at t[s]:  54281.97
SCF: Cycle:  9   F: -646.880415110884883   dF: +3.271e-07   |Residual|: 1.598e-04   |deigs|: 1.398e-05  t[s]:  54283.59
	Linear fluid (dielectric constant: 7.2) occupying 0.825960 of unit cell:	Completed after 2 iterations at t[s]:  54286.93
	FillingsUpdate:  mu: -0.113660679  nElectrons: 324.000000
	Linear fluid (dielectric constant: 7.2) occupying 0.825964 of unit cell:	Completed after 2 iterations at t[s]:  54793.04
SCF: Cycle: 10   F: -646.880414827791924   dF: +2.831e-07   |Residual|: 4.040e-04   |deigs|: 2.023e-05  t[s]:  54794.74
	Linear fluid (dielectric constant: 7.2) occupying 0.825962 of unit cell:	Completed after 2 iterations at t[s]:  54798.29
	FillingsUpdate:  mu: -0.113659818  nElectrons: 324.000000
	Linear fluid (dielectric constant: 7.2) occupying 0.825963 of unit cell:	Completed after 1 iterations at t[s]:  55149.83
SCF: Cycle: 11   F: -646.880415442604431   dF: -6.148e-07   |Residual|: 1.429e-04   |deigs|: 1.239e-05  t[s]:  55151.57
	Linear fluid (dielectric constant: 7.2) occupying 0.825962 of unit cell:	Completed after 1 iterations at t[s]:  55154.40
	FillingsUpdate:  mu: -0.113654947  nElectrons: 324.000000
	Linear fluid (dielectric constant: 7.2) occupying 0.825963 of unit cell:	Completed after 1 iterations at t[s]:  55494.17
SCF: Cycle: 12   F: -646.880415517428673   dF: -7.482e-08   |Residual|: 2.594e-05   |deigs|: 4.694e-06  t[s]:  55495.91
	Linear fluid (dielectric constant: 7.2) occupying 0.825963 of unit cell:	Completed after 1 iterations at t[s]:  55498.77
	FillingsUpdate:  mu: -0.113654565  nElectrons: 324.000000
	Linear fluid (dielectric constant: 7.2) occupying 0.825963 of unit cell:	Completed after 1 iterations at t[s]:  55845.63
SCF: Cycle: 13   F: -646.880415504209054   dF: +1.322e-08   |Residual|: 6.795e-05   |deigs|: 7.462e-06  t[s]:  55847.24
	Linear fluid (dielectric constant: 7.2) occupying 0.825964 of unit cell:	Completed after 1 iterations at t[s]:  55850.02
	FillingsUpdate:  mu: -0.113651775  nElectrons: 324.000000
	Linear fluid (dielectric constant: 7.2) occupying 0.825963 of unit cell:	Completed after 1 iterations at t[s]:  56350.73
SCF: Cycle: 14   F: -646.880415473758148   dF: +3.045e-08   |Residual|: 1.429e-04   |deigs|: 6.765e-06  t[s]:  56352.31
	Linear fluid (dielectric constant: 7.2) occupying 0.825965 of unit cell:	Completed after 1 iterations at t[s]:  56355.20
	FillingsUpdate:  mu: -0.113652463  nElectrons: 324.000000
	Linear fluid (dielectric constant: 7.2) occupying 0.825963 of unit cell:	Completed after 1 iterations at t[s]:  56835.19
SCF: Cycle: 15   F: -646.880415481655518   dF: -7.897e-09   |Residual|: 1.196e-04   |deigs|: 5.290e-06  t[s]:  56836.84
	Linear fluid (dielectric constant: 7.2) occupying 0.825965 of unit cell:	Completed after 1 iterations at t[s]:  56839.83
	FillingsUpdate:  mu: -0.113652697  nElectrons: 324.000000
	Linear fluid (dielectric constant: 7.2) occupying 0.825963 of unit cell:	Completed after 1 iterations at t[s]:  57333.83
SCF: Cycle: 16   F: -646.880415581842840   dF: -1.002e-07   |Residual|: 3.353e-05   |deigs|: 1.161e-05  t[s]:  57335.61
	Linear fluid (dielectric constant: 7.2) occupying 0.825965 of unit cell:	Completed after 1 iterations at t[s]:  57338.42
	FillingsUpdate:  mu: -0.113652609  nElectrons: 324.000000
	Linear fluid (dielectric constant: 7.2) occupying 0.825963 of unit cell:	Completed after 0 iterations at t[s]:  57808.64
SCF: Cycle: 17   F: -646.880415542649644   dF: +3.919e-08   |Residual|: 5.909e-05   |deigs|: 7.610e-06  t[s]:  57810.30
	Linear fluid (dielectric constant: 7.2) occupying 0.825965 of unit cell:	Completed after 1 iterations at t[s]:  57813.23
	FillingsUpdate:  mu: -0.113653287  nElectrons: 324.000000
	Linear fluid (dielectric constant: 7.2) occupying 0.825963 of unit cell:	Completed after 1 iterations at t[s]:  58299.83
SCF: Cycle: 18   F: -646.880415573534947   dF: -3.089e-08   |Residual|: 5.984e-05   |deigs|: 1.468e-05  t[s]:  58301.55
	Linear fluid (dielectric constant: 7.2) occupying 0.825964 of unit cell:	Completed after 1 iterations at t[s]:  58304.34
	FillingsUpdate:  mu: -0.113652770  nElectrons: 324.000000
	Linear fluid (dielectric constant: 7.2) occupying 0.825963 of unit cell:	Completed after 0 iterations at t[s]:  58792.91
SCF: Cycle: 19   F: -646.880415604785867   dF: -3.125e-08   |Residual|: 3.215e-05   |deigs|: 1.507e-05  t[s]:  58794.55
	Linear fluid (dielectric constant: 7.2) occupying 0.825964 of unit cell:	Completed after 0 iterations at t[s]:  58796.76
	FillingsUpdate:  mu: -0.113657521  nElectrons: 324.000000
	Linear fluid (dielectric constant: 7.2) occupying 0.825963 of unit cell:	Completed after 2 iterations at t[s]:  59298.04
SCF: Cycle: 20   F: -646.880414873533596   dF: +7.313e-07   |Residual|: 4.326e-04   |deigs|: 8.917e-06  t[s]:  59299.59
	Linear fluid (dielectric constant: 7.2) occupying 0.825964 of unit cell:	Completed after 2 iterations at t[s]:  59302.79
	FillingsUpdate:  mu: -0.113653287  nElectrons: 324.000000
	Linear fluid (dielectric constant: 7.2) occupying 0.825962 of unit cell:	Completed after 1 iterations at t[s]:  59642.60
SCF: Cycle: 21   F: -646.880415562393409   dF: -6.889e-07   |Residual|: 5.635e-05   |deigs|: 3.808e-06  t[s]:  59644.31
	Linear fluid (dielectric constant: 7.2) occupying 0.825964 of unit cell:	Completed after 1 iterations at t[s]:  59647.00
	FillingsUpdate:  mu: -0.113653212  nElectrons: 324.000000
	Linear fluid (dielectric constant: 7.2) occupying 0.825962 of unit cell:	Completed after 0 iterations at t[s]:  59972.31
SCF: Cycle: 22   F: -646.880415591853534   dF: -2.946e-08   |Residual|: 2.476e-05   |deigs|: 1.203e-05  t[s]:  59974.00
	Linear fluid (dielectric constant: 7.2) occupying 0.825963 of unit cell:	Completed after 0 iterations at t[s]:  59976.37
	FillingsUpdate:  mu: -0.113658111  nElectrons: 324.000000
	Linear fluid (dielectric constant: 7.2) occupying 0.825963 of unit cell:	Completed after 1 iterations at t[s]:  60482.15
SCF: Cycle: 23   F: -646.880415402694211   dF: +1.892e-07   |Residual|: 2.241e-04   |deigs|: 1.198e-05  t[s]:  60483.80
	Linear fluid (dielectric constant: 7.2) occupying 0.825963 of unit cell:	Completed after 1 iterations at t[s]:  60486.63
	FillingsUpdate:  mu: -0.113652593  nElectrons: 324.000000
	Linear fluid (dielectric constant: 7.2) occupying 0.825963 of unit cell:	Completed after 1 iterations at t[s]:  60836.29
SCF: Cycle: 24   F: -646.880415554420665   dF: -1.517e-07   |Residual|: 1.191e-04   |deigs|: 3.283e-06  t[s]:  60837.81
	Linear fluid (dielectric constant: 7.2) occupying 0.825963 of unit cell:	Completed after 1 iterations at t[s]:  60840.65
	FillingsUpdate:  mu: -0.113653215  nElectrons: 324.000000
	Linear fluid (dielectric constant: 7.2) occupying 0.825962 of unit cell:	Completed after 1 iterations at t[s]:  61165.16
SCF: Cycle: 25   F: -646.880415584377147   dF: -2.996e-08   |Residual|: 6.505e-05   |deigs|: 4.208e-06  t[s]:  61166.71
	Linear fluid (dielectric constant: 7.2) occupying 0.825963 of unit cell:	Completed after 1 iterations at t[s]:  61169.31
	FillingsUpdate:  mu: -0.113652460  nElectrons: 324.000000
	Linear fluid (dielectric constant: 7.2) occupying 0.825962 of unit cell:	Completed after 1 iterations at t[s]:  61471.76
SCF: Cycle: 26   F: -646.880415579633564   dF: +4.744e-09   |Residual|: 7.617e-05   |deigs|: 7.438e-06  t[s]:  61473.27
	Linear fluid (dielectric constant: 7.2) occupying 0.825963 of unit cell:	Completed after 1 iterations at t[s]:  61475.82
	FillingsUpdate:  mu: -0.113652317  nElectrons: 324.000000
	Linear fluid (dielectric constant: 7.2) occupying 0.825963 of unit cell:	Completed after 1 iterations at t[s]:  61929.80
SCF: Cycle: 27   F: -646.880415556059575   dF: +2.357e-08   |Residual|: 8.708e-05   |deigs|: 6.634e-06  t[s]:  61931.52
	Linear fluid (dielectric constant: 7.2) occupying 0.825962 of unit cell:	Completed after 1 iterations at t[s]:  61934.17
	FillingsUpdate:  mu: -0.113652133  nElectrons: 324.000000
	Linear fluid (dielectric constant: 7.2) occupying 0.825962 of unit cell:	Completed after 1 iterations at t[s]:  62231.53
SCF: Cycle: 28   F: -646.880415562229814   dF: -6.170e-09   |Residual|: 9.209e-05   |deigs|: 3.633e-06  t[s]:  62233.11
	Linear fluid (dielectric constant: 7.2) occupying 0.825962 of unit cell:	Completed after 1 iterations at t[s]:  62235.77
	FillingsUpdate:  mu: -0.113652201  nElectrons: 324.000000
	Linear fluid (dielectric constant: 7.2) occupying 0.825963 of unit cell:	Completed after 1 iterations at t[s]:  62677.06
SCF: Cycle: 29   F: -646.880415554681690   dF: +7.548e-09   |Residual|: 8.726e-05   |deigs|: 3.884e-06  t[s]:  62678.78
	Linear fluid (dielectric constant: 7.2) occupying 0.825962 of unit cell:	Completed after 1 iterations at t[s]:  62681.51
	FillingsUpdate:  mu: -0.113652197  nElectrons: 324.000000
	Linear fluid (dielectric constant: 7.2) occupying 0.825962 of unit cell:	Completed after 1 iterations at t[s]:  63134.51
SCF: Cycle: 30   F: -646.880415554056754   dF: +6.249e-10   |Residual|: 8.796e-05   |deigs|: 4.197e-06  t[s]:  63136.18
	Linear fluid (dielectric constant: 7.2) occupying 0.825962 of unit cell:	Completed after 1 iterations at t[s]:  63138.90
	FillingsUpdate:  mu: -0.113652078  nElectrons: 324.000000
	Linear fluid (dielectric constant: 7.2) occupying 0.825963 of unit cell:	Completed after 1 iterations at t[s]:  63593.41
SCF: Cycle: 31   F: -646.880415548917085   dF: +5.140e-09   |Residual|: 8.270e-05   |deigs|: 8.486e-06  t[s]:  63595.02
	Linear fluid (dielectric constant: 7.2) occupying 0.825962 of unit cell:	Completed after 1 iterations at t[s]:  63597.91
	FillingsUpdate:  mu: -0.113651735  nElectrons: 324.000000
[...]
	FillingsUpdate:  mu: -0.113607276  nElectrons: 324.000000
	Linear fluid (dielectric constant: 7.2) occupying 0.825942 of unit cell:	Completed after 0 iterations at t[s]: 453931.19
SCF: Cycle: 24   F: -646.880517224199366   dF: -3.482e-08   |Residual|: 2.893e-05   |deigs|: 1.268e-06  t[s]: 453932.93
	Linear fluid (dielectric constant: 7.2) occupying 0.825941 of unit cell:	Completed after 0 iterations at t[s]: 453935.41
	FillingsUpdate:  mu: -0.113612300  nElectrons: 324.000000
	Linear fluid (dielectric constant: 7.2) occupying 0.825943 of unit cell:	Completed after 2 iterations at t[s]: 454283.55
SCF: Cycle: 25   F: -646.880516334227423   dF: +8.900e-07   |Residual|: 4.893e-04   |deigs|: 4.126e-06  t[s]: 454285.28
	Linear fluid (dielectric constant: 7.2) occupying 0.825941 of unit cell:	Completed after 2 iterations at t[s]: 454289.01
	FillingsUpdate:  mu: -0.113607786  nElectrons: 324.000000
	Linear fluid (dielectric constant: 7.2) occupying 0.825942 of unit cell:	Completed after 0 iterations at t[s]: 454626.83
SCF: Cycle: 26   F: -646.880517231724298   dF: -8.975e-07   |Residual|: 1.419e-05   |deigs|: 1.025e-05  t[s]: 454628.59
	Linear fluid (dielectric constant: 7.2) occupying 0.825941 of unit cell:	Completed after 0 iterations at t[s]: 454631.08
	FillingsUpdate:  mu: -0.113608074  nElectrons: 324.000000
	Linear fluid (dielectric constant: 7.2) occupying 0.825942 of unit cell:	Completed after 1 iterations at t[s]: 454970.54
SCF: Cycle: 27   F: -646.880517070277619   dF: +1.614e-07   |Residual|: 1.842e-04   |deigs|: 2.544e-06  t[s]: 454972.30
	Linear fluid (dielectric constant: 7.2) occupying 0.825941 of unit cell:	Completed after 1 iterations at t[s]: 454975.21
	FillingsUpdate:  mu: -0.113607670  nElectrons: 324.000000
	Linear fluid (dielectric constant: 7.2) occupying 0.825941 of unit cell:	Completed after 1 iterations at t[s]: 455325.08
SCF: Cycle: 28   F: -646.880517220891875   dF: -1.506e-07   |Residual|: 2.640e-05   |deigs|: 2.277e-06  t[s]: 455326.77
	Linear fluid (dielectric constant: 7.2) occupying 0.825942 of unit cell:	Completed after 1 iterations at t[s]: 455329.59
	FillingsUpdate:  mu: -0.113607242  nElectrons: 324.000000
	Linear fluid (dielectric constant: 7.2) occupying 0.825942 of unit cell:	Completed after 1 iterations at t[s]: 455665.10
SCF: Cycle: 29   F: -646.880517214308043   dF: +6.584e-09   |Residual|: 5.845e-05   |deigs|: 2.472e-06  t[s]: 455666.69
	Linear fluid (dielectric constant: 7.2) occupying 0.825942 of unit cell:	Completed after 1 iterations at t[s]: 455669.54
	FillingsUpdate:  mu: -0.113606889  nElectrons: 324.000000
	Linear fluid (dielectric constant: 7.2) occupying 0.825942 of unit cell:	Completed after 0 iterations at t[s]: 456135.71
SCF: Cycle: 30   F: -646.880517226043821   dF: -1.174e-08   |Residual|: 1.202e-05   |deigs|: 1.597e-05  t[s]: 456137.39
	Linear fluid (dielectric constant: 7.2) occupying 0.825942 of unit cell:	Completed after 0 iterations at t[s]: 456139.05
	FillingsUpdate:  mu: -0.113606888  nElectrons: 324.000000
	Linear fluid (dielectric constant: 7.2) occupying 0.825942 of unit cell:	Completed after 0 iterations at t[s]: 456586.83
SCF: Cycle: 31   F: -646.880517216429780   dF: +9.614e-09   |Residual|: 1.217e-05   |deigs|: 6.982e-06  t[s]: 456588.42
	Linear fluid (dielectric constant: 7.2) occupying 0.825942 of unit cell:	Completed after 0 iterations at t[s]: 456590.11
	FillingsUpdate:  mu: -0.113606894  nElectrons: 324.000000
	Linear fluid (dielectric constant: 7.2) occupying 0.825942 of unit cell:	Completed after 0 iterations at t[s]: 457031.36
SCF: Cycle: 32   F: -646.880517222716435   dF: -6.287e-09   |Residual|: 1.261e-05   |deigs|: 1.337e-06  t[s]: 457032.80
	Linear fluid (dielectric constant: 7.2) occupying 0.825942 of unit cell:	Completed after 0 iterations at t[s]: 457034.40
	FillingsUpdate:  mu: -0.113606898  nElectrons: 324.000000
	Linear fluid (dielectric constant: 7.2) occupying 0.825942 of unit cell:	Completed after 0 iterations at t[s]: 457481.29
SCF: Cycle: 33   F: -646.880517213867506   dF: +8.849e-09   |Residual|: 1.269e-05   |deigs|: 4.877e-06  t[s]: 457482.85
	Linear fluid (dielectric constant: 7.2) occupying 0.825942 of unit cell:	Completed after 0 iterations at t[s]: 457484.53
	FillingsUpdate:  mu: -0.113606908  nElectrons: 324.000000
	Linear fluid (dielectric constant: 7.2) occupying 0.825942 of unit cell:	Completed after 0 iterations at t[s]: 457778.56
SCF: Cycle: 34   F: -646.880517212146515   dF: +1.721e-09   |Residual|: 1.265e-05   |deigs|: 1.202e-06  t[s]: 457780.19
	Linear fluid (dielectric constant: 7.2) occupying 0.825942 of unit cell:	Completed after 0 iterations at t[s]: 457782.04
	FillingsUpdate:  mu: -0.113608939  nElectrons: 324.000000
	Linear fluid (dielectric constant: 7.2) occupying 0.825942 of unit cell:	Completed after 2 iterations at t[s]: 458280.75
SCF: Cycle: 35   F: -646.880516881164226   dF: +3.310e-07   |Residual|: 2.783e-04   |deigs|: 3.674e-06  t[s]: 458282.33
	Linear fluid (dielectric constant: 7.2) occupying 0.825942 of unit cell:	Completed after 2 iterations at t[s]: 458285.92
	FillingsUpdate:  mu: -0.113607505  nElectrons: 324.000000
	Linear fluid (dielectric constant: 7.2) occupying 0.825941 of unit cell:	Completed after 1 iterations at t[s]: 458627.71
SCF: Cycle: 36   F: -646.880517192283833   dF: -3.111e-07   |Residual|: 4.780e-05   |deigs|: 2.872e-06  t[s]: 458629.39
	Linear fluid (dielectric constant: 7.2) occupying 0.825942 of unit cell:	Completed after 1 iterations at t[s]: 458632.38
	FillingsUpdate:  mu: -0.113606908  nElectrons: 324.000000
	Linear fluid (dielectric constant: 7.2) occupying 0.825942 of unit cell:	Completed after 0 iterations at t[s]: 458952.50
SCF: Cycle: 37   F: -646.880517205359183   dF: -1.308e-08   |Residual|: 1.169e-05   |deigs|: 1.042e-06  t[s]: 458954.36
	Linear fluid (dielectric constant: 7.2) occupying 0.825942 of unit cell:	Completed after 0 iterations at t[s]: 458956.19
	FillingsUpdate:  mu: -0.113610473  nElectrons: 324.000000
	Linear fluid (dielectric constant: 7.2) occupying 0.825942 of unit cell:	Completed after 2 iterations at t[s]: 459307.08
SCF: Cycle: 38   F: -646.880517086224245   dF: +1.191e-07   |Residual|: 1.394e-04   |deigs|: 3.896e-06  t[s]: 459308.90
	Linear fluid (dielectric constant: 7.2) occupying 0.825942 of unit cell:	Completed after 1 iterations at t[s]: 459312.01
	FillingsUpdate:  mu: -0.113608147  nElectrons: 324.000000
	Linear fluid (dielectric constant: 7.2) occupying 0.825942 of unit cell:	Completed after 1 iterations at t[s]: 459665.03
SCF: Cycle: 39   F: -646.880517206892819   dF: -1.207e-07   |Residual|: 2.757e-05   |deigs|: 5.177e-06  t[s]: 459666.53
	Linear fluid (dielectric constant: 7.2) occupying 0.825942 of unit cell:	Completed after 1 iterations at t[s]: 459669.33
	FillingsUpdate:  mu: -0.113606954  nElectrons: 324.000000
	Linear fluid (dielectric constant: 7.2) occupying 0.825942 of unit cell:	Completed after 0 iterations at t[s]: 460003.05
SCF: Cycle: 40   F: -646.880517203950149   dF: +2.943e-09   |Residual|: 1.712e-05   |deigs|: 3.389e-06  t[s]: 460004.55
	Linear fluid (dielectric constant: 7.2) occupying 0.825942 of unit cell:	Completed after 0 iterations at t[s]: 460006.15
	FillingsUpdate:  mu: -0.113606953  nElectrons: 324.000000
	Linear fluid (dielectric constant: 7.2) occupying 0.825942 of unit cell:	Completed after 0 iterations at t[s]: 460292.70
SCF: Cycle: 41   F: -646.880517204228340   dF: -2.782e-10   |Residual|: 1.714e-05   |deigs|: 4.229e-07  t[s]: 460294.11
	Linear fluid (dielectric constant: 7.2) occupying 0.825942 of unit cell:	Completed after 0 iterations at t[s]: 460295.80
	FillingsUpdate:  mu: -0.113606947  nElectrons: 324.000000
	Linear fluid (dielectric constant: 7.2) occupying 0.825942 of unit cell:	Completed after 0 iterations at t[s]: 460745.67
SCF: Cycle: 42   F: -646.880517210765561   dF: -6.537e-09   |Residual|: 1.703e-05   |deigs|: 1.400e-06  t[s]: 460747.12
SCF: Converged (|Delta E|<1.000000e-08 for 2 iters).

Setting wave functions to eigenvectors of Hamiltonian

# Ionic positions in cartesian coordinates:
ion C  28.005857181630002   0.000000000000000   1.000001652210000 0
ion C  25.672025513790000   4.042310104620000   1.000001652210000 0
ion C  11.669128103520002  20.211535405260001   1.000001652210000 0
ion C   4.667680343250000   0.000000000000000   1.000001652210000 0
ion C  23.338288332449999   0.000000000000000   1.000001652210000 0
ion C   2.333822219190000   4.042310104620000   1.000001652210000 0
ion C  16.336708291080008  20.211535405260001   1.000001652210000 0
ion C  23.338191956219998   8.084622098970000   1.000001652210000 0
ion C   9.335305884329996  16.169223410910011   1.000001652210000 0
ion C   9.335322891900001   0.000000000000000   1.000001652210000 0
ion C  18.670626886499999   0.000000000000000   1.000001652210000 0
ion C  18.670539958920003  16.169223410910011   1.000001652210000 0
ion C  21.004371626759990  12.126913306290001   1.000001652210000 0
ion C  14.002984337850000   0.000000000000000   1.000001652210000 0
ion C   0.000000000000000   8.084622098970000   1.000001652210000 0
ion C   7.001485554870005  20.211535405260001   1.000001652210000 0
ion C  -7.001481775409994  20.211535405260001   1.000001652210000 0
ion C  -2.333822219189999  12.126913306290001   1.000001652210000 0
ion C   4.667663335679999  16.169223410910011   1.000001652210000 0
ion C  -2.333820329459996  20.211535405260001   1.000001652210000 0
ion C   2.333824108920002  20.211535405260001   1.000001652210000 0
ion C  -4.667659556220002  16.169223410910011   1.000001652210000 0
ion C   7.001483665139999   4.042310104620000   1.000001652210000 0
ion C  21.004430208389998   4.042310104620000   1.000001652210000 0
ion C  14.002948432980000  16.169223410910011   1.000001652210000 0
ion C   0.000001889729997  16.169223410910011   1.000001652210000 0
ion C  11.669126213789999   4.042310104620000   1.000001652210000 0
ion C  18.670609878929998   8.084622098970000   1.000001652210000 0
ion C  11.669126213789998  12.126913306290001   1.000001652210000 0
ion C  16.336787659739997  12.126913306290001   1.000001652210000 0
ion C  16.336789549470002   4.042310104620000   1.000001652210000 0
ion C   9.335303994600004   8.084622098970000   1.000001652210000 0
ion C  14.002948432980002   8.084622098970000   1.000001652210000 0
ion C   0.000000000000000   2.694874032990001   1.000001652210000 0
ion C  11.669128103519999  22.906390540950010   1.000001652210000 0
ion C -11.669124324059998  22.906390540950010   1.000001652210000 0
ion C  -2.333822219190000   6.737165240310004   1.000001652210000 0
ion C   9.335305884330001  18.864097443900004   1.000001652210000 0
ion C  -7.001481775409996  22.906390540950010   1.000001652210000 0
ion C   7.001485554870005  22.906390540950010   1.000001652210000 0
ion C   2.333822219189997   6.737165240310004   1.000001652210000 0
ion C  -9.335302104869998  18.864097443900004   1.000001652210000 0
ion C  -4.667661445950000  10.779477234660005   1.000001652210000 0
ion C  -2.333820329460000  22.906390540950010   1.000001652210000 0
ion C   2.333824108920002  22.906390540950010   1.000001652210000 0
ion C  -7.001483665140000  14.821787339280007   1.000001652210000 0
ion C   4.667661445950001   2.694874032990001   1.000001652210000 0
ion C  23.338269435150004   2.694874032990001   1.000001652210000 0
ion C  14.002967330279997  18.864097443900004   1.000001652210000 0
ion C   0.000000000000000  10.779477234660005   1.000001652210000 0
ion C   4.667663335679999  18.864097443900004   1.000001652210000 0
ion C  -4.667640658919996  18.864097443900004   1.000001652210000 0
ion C  -2.333822219190001  14.821787339280007   1.000001652210000 0
ion C   2.333824108919998  14.821787339280007   1.000001652210000 0
ion C   0.000001889729999  18.864097443900004   1.000001652210000 0
ion C   9.335303994599997   2.694874032990001   1.000001652210000 0
ion C  21.004430208390001   6.737165240310004   1.000001652210000 0
ion C  11.669126213790003  14.821787339280007   1.000001652210000 0
ion C  16.336789549469998  14.821787339280007   1.000001652210000 0
ion C  18.670609878930005   2.694874032990001   1.000001652210000 0
ion C   7.001483665139999   6.737165240310004   1.000001652210000 0
ion C  14.002946543250001   2.694874032990001   1.000001652210000 0
ion C  18.670607989199997  10.779477234660005   1.000001652210000 0
ion C  11.669126213789998   6.737165240310004   1.000001652210000 0
ion C  16.336787659740001   6.737165240310004   1.000001652210000 0
ion C  14.002946543250001  10.779477234660005   1.000001652210000 0
ion N   4.667661445950002   8.084622098970000   1.000001652210000 0
ion N   2.333822219190004  12.126913306290001   1.000001652210000 0
ion N   7.001485554869998  14.821787339280007   1.000001652210000 0
ion N   9.335305884330001  10.779477234660005   1.000001652210000 0
ion Fe   5.837109518069999  11.454309266310004   1.000001652210000 0
ion S  11.992232895457340  13.079397938170089   8.880139463469950 1
ion Na   8.168786560466142  12.402817255590158   5.952633786275801 1
ion Na  15.909123433137303  13.803591906653173   6.152541860829037 1

# Forces in Cartesian coordinates:
force C   0.004061176095547   0.000031263137562  -0.000335909043562 0
force C   0.001316206859970  -0.001238142819654  -0.000330235201459 0
force C   0.003261046838198  -0.001834509263823  -0.000572110819921 0
force C   0.001533715705955   0.002724868207178  -0.000322410255075 0
force C   0.002420459453205  -0.000532697691140  -0.000325415722434 0
force C   0.005089917674822   0.002034776277268  -0.000398911042364 0
force C   0.001063176967540  -0.000477976318567  -0.000515820998314 0
force C  -0.000512516392635   0.001698161876718  -0.000325585973109 0
force C  -0.031012388845148  -0.011302749772626  -0.001165790697669 0
force C  -0.000673607486245   0.000342744311649  -0.000326547166865 0
force C  -0.000744592776983   0.000054226386005  -0.000326197269016 0
force C   0.002035700751060   0.002408565665514  -0.000772808256613 0
force C   0.002766489490402   0.003264601890559  -0.000671127103679 0
force C  -0.000702911860829  -0.000525988579475  -0.000316934524050 0
force C   0.011008421000451   0.006283734647303  -0.000274590316734 0
force C   0.003344266895799   0.003129278962013  -0.000377019924426 0
force C   0.002062476730183   0.000940114854005  -0.000348735609940 0
force C   0.004579973713275   0.003527707358421  -0.000339411283245 0
force C   0.026631418746906   0.012556509771130  -0.000982378972217 0
force C   0.000020719713173  -0.000951105666006  -0.000340939866267 0
force C  -0.003433248818277   0.000632970512547  -0.000346046430617 0
force C   0.003130703212312  -0.000053142725728  -0.000303018460824 0
force C   0.005579966717523   0.006272719302868  -0.000339003930571 0
force C   0.001850954916576   0.000861259736904  -0.000323478891488 0
force C  -0.002910671835084   0.000882201204697  -0.000397060173512 0
force C   0.008441818868021   0.001390574686068  -0.000338249026218 0
force C  -0.000902241333423  -0.003256723651674  -0.000383979510853 0
force C   0.001114306826854   0.002245148164642  -0.000452156343851 0
force C  -0.025770344237597  -0.021296446260228  -0.001592146267227 0
force C   0.000111235825579   0.001523020230201  -0.000593216716182 0
force C  -0.000446380088082  -0.000579781558983  -0.000318307187802 0
force C   0.023950443298266   0.015347299338429  -0.001248062688730 0
force C   0.004696063324285   0.000449560250822  -0.000544495736168 0
force C  -0.003472354521443   0.001828670356199  -0.000326038790666 0
force C  -0.004120813946342  -0.000021460743765  -0.000354709126518 0
force C  -0.002507922346713   0.000427266845198  -0.000291261891373 0
force C   0.002069216068605   0.001106182763783  -0.000314636972277 0
force C  -0.004867795124939  -0.002055546128414  -0.000820141129145 0
force C   0.000297525160881   0.000289995072350  -0.000336714554167 0
force C  -0.001113007562105  -0.003142055570289  -0.000285994967114 0
force C   0.033187108292514   0.013941977239433  -0.000405192262157 0
force C  -0.002049253517856  -0.000489171674878  -0.000496109545387 0
force C  -0.000290285840052  -0.004093930984154  -0.000236147506574 0
force C   0.000616727827168   0.000503952835101  -0.000324201268459 0
force C   0.000892174831727  -0.000430640354898  -0.000327890356348 0
force C  -0.000294620710158  -0.002069624442852  -0.000697294950979 0
force C  -0.003208453270343  -0.002453913317926  -0.000338067026915 0
force C  -0.000854828159893   0.000884303057601  -0.000319053184353 0
force C  -0.001576662345852   0.001399593552650  -0.000728420502601 0
force C   0.028747278223741   0.021941400702718  -0.000381379340951 0
force C  -0.005317982047475  -0.007673819179975  -0.000531618862024 0
force C   0.000270535047437   0.000405116400320  -0.000332934299872 0
force C  -0.003757599310239  -0.001675032509265  -0.000339921348659 0
force C  -0.023548167644887  -0.020313536067499  -0.000551782074825 0
force C   0.001140177927775   0.003117261834915  -0.000327635261449 0
force C   0.002958865701292  -0.000423512013394  -0.000312578481430 0
force C   0.000372074548950  -0.000895720764100  -0.000349772661139 0
force C  -0.012285002023177  -0.006587147794898  -0.000573009764574 0
force C   0.000110936576752  -0.000029589887179  -0.000884792790615 0
force C  -0.001637400316030  -0.001017651187320  -0.000341287795250 0
force C  -0.028856733995574  -0.009941828188554  -0.000689965336892 0
force C  -0.000013432366212   0.001262993445643  -0.000331969703335 0
force C  -0.000576863623207  -0.004979826105049  -0.000815395374344 0
force C  -0.009359087962061  -0.000763839492829  -0.000839052365614 0
force C  -0.003934291666454   0.000414595665968  -0.000485335838438 0
force C  -0.005837994655485  -0.004092669520079  -0.000566024380596 0
force N   0.026126385892544  -0.026341188617746  -0.000333825981617 0
force N  -0.009845181484591   0.035859737937716  -0.000183249700254 0
force N  -0.025773871015648   0.025061056162163   0.001448922852928 0
force N   0.009363368578605  -0.034256669519519   0.002009264955556 0
force Fe  -0.003004080585613  -0.001480126408785  -0.019578332154752 0
force S  -0.001248370597359  -0.000305136253228   0.003431367304334 1
force Na  -0.003167107898915  -0.000068360450098   0.001918700168529 1
force Na   0.004645681938955   0.000900631218537   0.002281574526880 1

# Energy components:
   A_diel =       -0.0492397858034486
   Eewald =     4053.4127344158241613
       EH =     4573.1240758810554325
     Eloc =    -9329.6342251619280432
      Enl =      -64.0462503534016889
      Exc =     -163.5340609585242362
 Exc_core =        5.1303974836916995
       KE =      278.8125503138272165
-------------------------------------
     Etot =     -646.7840181652597948
       TS =        0.0964990455057178
-------------------------------------
        F =     -646.8805172107655608

IonicMinimize: Iter:   8  F: -646.880517210765561  |grad|_K:  2.466e-03  alpha: -1.185e-10  linmin: -5.968e-02  t[s]: 460904.94
IonicMinimize: Converged (|Delta F|<1.000000e-06 for 2 iters).

#--- Lowdin population analysis ---
# oxidation-state C +0.043 +0.034 +0.037 +0.035 +0.037 +0.025 +0.034 +0.033 +0.134 +0.038 +0.036 +0.020 +0.036 +0.039 +0.010 +0.045 +0.040 +0.025 +0.124 +0.037 +0.033 +0.032 +0.032 +0.044 +0.030 +0.031 +0.035 +0.034 +0.130 -0.003 +0.036 +0.122 +0.045 +0.037 +0.043 +0.036 +0.049 +0.026 +0.036 +0.035 +0.149 +0.040 +0.035 +0.039 +0.038 +0.030 +0.047 +0.037 +0.030 +0.148 +0.032 +0.036 +0.046 +0.128 +0.034 +0.035 +0.036 -0.002 -0.014 +0.042 +0.127 +0.039 +0.032 +0.033 +0.034 +0.013
# oxidation-state N -0.136 -0.135 -0.155 -0.161
# oxidation-state Fe +0.048
# oxidation-state S -0.956
# oxidation-state Na +0.803 +0.856


Dumping 'Na2S@FeN4-glyme.fillings' ... done
Dumping 'Na2S@FeN4-glyme.wfns' ... done
Dumping 'Na2S@FeN4-glyme.fluidState' ... done
Dumping 'Na2S@FeN4-glyme.ionpos' ... done
Dumping 'Na2S@FeN4-glyme.eigenvals' ... done
End date and time: Mon Jan 22 00:26:20 2024  (Duration: 5-8:02:51.61)
Done!
