
*************** JDFTx 1.7.0  ***************

Start date and time: Thu Sep 26 04:58:57 2024
Executable jdftx_gpu with command-line: -i /home/akim2/JDFTx/Na2S4@FeN4/Na2S4@FeN4.in -o /home/akim2/JDFTx/Na2S4@FeN4/Na2S4@FeN4.out
Running on hosts (process indices):  exp-1-58 (0)
Divided in process groups (process indices):  0 (0)
gpuInit: Found compatible cuda device 0 'Tesla V100-SXM2-32GB'
gpuInit: Selected device 0
Resource initialization completed at t[s]:      0.38
Run totals: 1 processes, 1 threads, 1 GPUs


Input parsed successfully to the following command list (including defaults):

basis kpoint-dependent
coords-type Cartesian
core-overlap-check vector
coulomb-interaction Slab 001
coulomb-truncation-embed 0 0 2.00001
davidson-band-ratio 1.1
dump End State
dump-name Na2S4@FeN4.$VAR
elec-cutoff 20 100
elec-eigen-algo Davidson
elec-ex-corr gga-PBE
elec-smearing Fermi 0.01
electronic-minimize  \
	dirUpdateScheme      FletcherReeves \
	linminMethod         DirUpdateRecommended \
	nIterations          100 \
	history              15 \
	knormThreshold       0 \
	energyDiffThreshold  1e-08 \
	nEnergyDiff          2 \
	alphaTstart          1 \
	alphaTmin            1e-10 \
	updateTestStepSize   yes \
	alphaTreduceFactor   0.1 \
	alphaTincreaseFactor 3 \
	nAlphaAdjustMax      3 \
	wolfeEnergy          0.0001 \
	wolfeGradient        0.9 \
	fdTest               no
electronic-scf  \
	nIterations	50 \
	energyDiffThreshold	1e-08 \
	residualThreshold	1e-07 \
	mixFraction	0.5 \
	qMetric	0.8 \
	history	10 \
	nEigSteps	2 \
	eigDiffThreshold	1e-08 \
	mixedVariable	Density \
	qKerker	0.8 \
	qKappa	-1 \
	verbose	no \
	mixFractionMag	1.5
exchange-regularization WignerSeitzTruncated
fluid None
fluid-ex-corr lda-TF lda-PZ
fluid-gummel-loop 10 1.000000e-05
fluid-minimize  \
	dirUpdateScheme      PolakRibiere \
	linminMethod         DirUpdateRecommended \
	nIterations          100 \
	history              15 \
	knormThreshold       0 \
	energyDiffThreshold  0 \
	nEnergyDiff          2 \
	alphaTstart          1 \
	alphaTmin            1e-10 \
	updateTestStepSize   yes \
	alphaTreduceFactor   0.1 \
	alphaTincreaseFactor 3 \
	nAlphaAdjustMax      3 \
	wolfeEnergy          0.0001 \
	wolfeGradient        0.9 \
	fdTest               no
fluid-solvent H2O 55.338 ScalarEOS \
	epsBulk 78.4 \
	pMol 0.92466 \
	epsInf 1.77 \
	Pvap 1.06736e-10 \
	sigmaBulk 4.62e-05 \
	Rvdw 2.61727 \
	Res 1.42 \
	tauNuc 343133 \
	poleEl 15 7 1
forces-output-coords Positions
ion C   0.000000000000000   0.000000000000000   1.000007321400000 0
ion C  -2.333835447300000   4.042302545699999   1.000007321400000 0
ion C  11.669120544600000  20.211531625799999   1.000007321400000 0
ion C   4.667689791900001   0.000000000000000   1.000007321400000 0
ion C  23.338297781100000   0.000000000000000   1.000007321400000 0
ion C   2.333816549999999   4.042302545699999   1.000007321400000 0
ion C -11.669158339200003  20.211531625799999   1.000007321400000 0
ion C  -4.667670894600000   8.084623988700001   1.000007321400000 0
ion C   9.335303994599997  16.169229080099999   1.000007321400000 0
ion C   9.335322891900001   0.000000000000000   1.000007321400000 0
ion C  18.670626886499999   0.000000000000000   1.000007321400000 0
ion C  -9.335322891900001  16.169229080099999   1.000007321400000 0
ion C  -7.001487444600000  12.126907637100000   1.000007321400000 0
ion C  14.002993786499999   0.000000000000000   1.000007321400000 0
ion C   0.000000000000000   8.084623988700001   1.000007321400000 0
ion C   7.001487444599997  20.211531625799999   1.000007321400000 0
ion C  -7.001487444600003  20.211531625799999   1.000007321400000 0
ion C  -2.333816549999999  12.126907637100000   1.000007321400000 0
ion C   4.667670894600002  16.169229080099999   1.000007321400000 0
ion C  -2.333816550000000  20.211531625799999   1.000007321400000 0
ion C   2.333816550000000  20.211531625799999   1.000007321400000 0
ion C  -4.667651997299997  16.169229080099999   1.000007321400000 0
ion C   7.001487444600000   4.042302545699999   1.000007321400000 0
ion C  21.004424539199999   4.042302545699999   1.000007321400000 0
ion C  14.002955991899999  16.169229080099999   1.000007321400000 0
ion C   0.000000000000000  16.169229080099999   1.000007321400000 0
ion C  11.669120544600000   4.042302545699999   1.000007321400000 0
ion C  18.670607989199997   8.084623988700001   1.000007321400000 0
ion C  11.669120544599998  12.126907637100000   1.000007321400000 0
ion C  16.336791439199999  12.126907637100000   1.000007321400000 0
ion C  16.336791439199999   4.042302545699999   1.000007321400000 0
ion C   9.335303994599997   8.084623988700001   1.000007321400000 0
ion C  14.002955991899999   8.084623988700001   1.000007321400000 0
ion C   0.000000000000000   2.694868363800000   1.000007321400000 0
ion C  11.669120544600000  22.906399989600001   1.000007321400000 0
ion C -11.669120544600000  22.906399989600001   1.000007321400000 0
ion C  -2.333816550000000   6.737170909500000   1.000007321400000 0
ion C   9.335303994599995  18.864097443900000   1.000007321400000 0
ion C  -7.001487444600000  22.906399989600001   1.000007321400000 0
ion C   7.001487444600000  22.906399989600001   1.000007321400000 0
ion C   2.333816550000000   6.737170909500000   1.000007321400000 0
ion C  -9.335303994599998  18.864097443900000   1.000007321400000 0
ion C  -4.667670894599998  10.779473455200000   1.000007321400000 0
ion C  -2.333816550000000  22.906399989600001   1.000007321400000 0
ion C   2.333816550000000  22.906399989600001   1.000007321400000 0
ion C  -7.001487444600003  14.821794898200000   1.000007321400000 0
ion C   4.667670894600000   2.694868363800000   1.000007321400000 0
ion C  23.338259986499999   2.694868363800000   1.000007321400000 0
ion C  14.002974889199999  18.864097443900000   1.000007321400000 0
ion C   0.000000000000000  10.779473455200000   1.000007321400000 0
ion C   4.667670894600001  18.864097443900000   1.000007321400000 0
ion C  -4.667633100000002  18.864097443900000   1.000007321400000 0
ion C  -2.333816550000002  14.821794898200000   1.000007321400000 0
ion C   2.333816549999996  14.821794898200000   1.000007321400000 0
ion C  -0.000000000000004  18.864097443900000   1.000007321400000 0
ion C   9.335303994599998   2.694868363800000   1.000007321400000 0
ion C  21.004424539199999   6.737170909500000   1.000007321400000 0
ion C  11.669120544600000  14.821794898200000   1.000007321400000 0
ion C  16.336791439199999  14.821794898200000   1.000007321400000 0
ion C  18.670607989199997   2.694868363800000   1.000007321400000 0
ion C   7.001487444600001   6.737170909500000   1.000007321400000 0
ion C  14.002955991899999   2.694868363800000   1.000007321400000 0
ion C  18.670607989200004  10.779473455200000   1.000007321400000 0
ion C  11.669120544599998   6.737170909500000   1.000007321400000 0
ion C  16.336791439199999   6.737170909500000   1.000007321400000 0
ion C  14.002955991899999  10.779473455200000   1.000007321400000 0
ion N   4.667670894599999   8.084623988700001   1.000007321400000 0
ion N   2.333816549999999  12.126907637100000   1.000007321400000 0
ion N   7.001487444599997  14.821794898200000   1.000007321400000 0
ion N   9.335303994599997  10.779473455200000   1.000007321400000 0
ion Fe   5.837111407799997  11.454314935499999   1.000007321400000 0
ion S   4.061388818699998  13.004252584200000   4.611697092000000 1
ion S   5.194848872700001  13.272518655000001   8.402117526000000 1
ion S   7.316240873399997  10.054384054200000   9.353332018800000 1
ion S  10.435202443799998   9.785777831999999   6.917507843399999 1
ion Na   6.046890335100001   8.310163264200000   4.654707346800000 1
ion Na   9.013936510800002  14.320109377800000   5.072224293000001 1
ion-species GBRV/$ID_pbe.uspp
ion-width 0
ionic-minimize  \
	dirUpdateScheme      FletcherReeves \
	linminMethod         DirUpdateRecommended \
	nIterations          200 \
	history              15 \
	knormThreshold       0.0001 \
	energyDiffThreshold  1e-06 \
	nEnergyDiff          2 \
	alphaTstart          1 \
	alphaTmin            1e-10 \
	updateTestStepSize   yes \
	alphaTreduceFactor   0.1 \
	alphaTincreaseFactor 3 \
	nAlphaAdjustMax      3 \
	wolfeEnergy          0.0001 \
	wolfeGradient        0.9 \
	fdTest               no
kpoint   0.000000000000   0.000000000000   0.000000000000  1.00000000000000
kpoint-folding 1 1 1 
latt-move-scale 1 1 1
latt-scale 1 1 1 
lattice Triclinic 28.0058 28.0058 37.7946 90 90 120
lattice-minimize  \
	dirUpdateScheme      L-BFGS \
	linminMethod         DirUpdateRecommended \
	nIterations          0 \
	history              15 \
	knormThreshold       0 \
	energyDiffThreshold  1e-06 \
	nEnergyDiff          2 \
	alphaTstart          1 \
	alphaTmin            1e-10 \
	updateTestStepSize   yes \
	alphaTreduceFactor   0.1 \
	alphaTincreaseFactor 3 \
	nAlphaAdjustMax      3 \
	wolfeEnergy          0.0001 \
	wolfeGradient        0.9 \
	fdTest               no
lcao-params -1 1e-06 0.01
pcm-variant GLSSA13
spintype no-spin
subspace-rotation-factor 1 yes
symmetries automatic
symmetry-threshold 0.0001



---------- Setting up symmetries ----------

Found 24 point-group symmetries of the bravais lattice
Found 1 space-group symmetries with basis
Applied RMS atom displacement 0 bohrs to make symmetries exact.

---------- Initializing the Grid ----------
R = 
[      28.0058     -14.0029            0  ]
[            0      24.2537            0  ]
[            0            0      37.7946  ]
unit cell volume = 25671.8
G =
[   0.224353    0.12953         -0  ]
[          0   0.259061          0  ]
[          0         -0   0.166246  ]
Minimum fftbox size, Smin = [  128  128  172  ]
Chosen fftbox size, S = [  128  128  180  ]

---------- Initializing tighter grid for wavefunction operations ----------
R = 
[      28.0058     -14.0029            0  ]
[            0      24.2537            0  ]
[            0            0      37.7946  ]
unit cell volume = 25671.8
G =
[   0.224353    0.12953         -0  ]
[          0   0.259061          0  ]
[          0         -0   0.166246  ]
Minimum fftbox size, Smin = [  116  116  156  ]
Chosen fftbox size, S = [  120  120  160  ]

---------- Exchange Correlation functional ----------
Initalized PBE GGA exchange.
Initalized PBE GGA correlation.

---------- Setting up pseudopotentials ----------
Width of ionic core gaussian charges (only for fluid interactions / plotting) set to 0

Reading pseudopotential file '/home/akim2/jdftx_install/build/pseudopotentials/GBRV/c_pbe.uspp':
  Title: C.  Created by USPP 7.3.6 on 3-2-2014
  Reference state energy: -5.406344.  4 valence electrons in orbitals:
    |200>  occupation: 2  eigenvalue: -0.504890
    |210>  occupation: 2  eigenvalue: -0.194356
  lMax: 1  lLocal: 2  QijEcut: 5
  4 projectors sampled on a log grid with 503 points:
    l: 0  eig: -0.504890  rCut: 1.3
    l: 0  eig: 0.000000  rCut: 1.3
    l: 1  eig: -0.194357  rCut: 1.3
    l: 1  eig: 0.000000  rCut: 1.3
  Partial core density with radius 1.1
  Transforming core density to a uniform radial grid of dG=0.02 with 1625 points.
  Transforming local potential to a uniform radial grid of dG=0.02 with 1625 points.
  Transforming nonlocal projectors to a uniform radial grid of dG=0.02 with 432 points.
  Transforming density augmentations to a uniform radial grid of dG=0.02 with 1625 points.
  Transforming atomic orbitals to a uniform radial grid of dG=0.02 with 432 points.
  Core radius for overlap checks: 1.30 bohrs.

Reading pseudopotential file '/home/akim2/jdftx_install/build/pseudopotentials/GBRV/n_pbe.uspp':
  Title: N.  Created by USPP 7.3.6 on 3-2-2014
  Reference state energy: -9.763716.  5 valence electrons in orbitals:
    |200>  occupation: 2  eigenvalue: -0.681964
    |210>  occupation: 3  eigenvalue: -0.260726
  lMax: 1  lLocal: 2  QijEcut: 6
  4 projectors sampled on a log grid with 491 points:
    l: 0  eig: -0.681964  rCut: 1.15
    l: 0  eig: 0.000000  rCut: 1.15
    l: 1  eig: -0.260729  rCut: 1.2
    l: 1  eig: 0.500000  rCut: 1.2
  Partial core density with radius 0.8
  Transforming core density to a uniform radial grid of dG=0.02 with 1625 points.
  Transforming local potential to a uniform radial grid of dG=0.02 with 1625 points.
  Transforming nonlocal projectors to a uniform radial grid of dG=0.02 with 432 points.
  Transforming density augmentations to a uniform radial grid of dG=0.02 with 1625 points.
  Transforming atomic orbitals to a uniform radial grid of dG=0.02 with 432 points.
  Core radius for overlap checks: 1.20 bohrs.

Reading pseudopotential file '/home/akim2/jdftx_install/build/pseudopotentials/GBRV/fe_pbe.uspp':
  Title: Fe.  Created by USPP 7.3.6 on 15-6-15
  Reference state energy: -124.316937.  16 valence electrons in orbitals:
    |300>  occupation: 2  eigenvalue: -4.008817
    |310>  occupation: 6  eigenvalue: -2.753096
    |320>  occupation: 5  eigenvalue: -0.791264
    |400>  occupation: 2  eigenvalue: -0.516384
    |410>  occupation: 0  eigenvalue: -0.312222
  lMax: 2  lLocal: 3  QijEcut: 6
  6 projectors sampled on a log grid with 607 points:
    l: 0  eig: -4.008819  rCut: 1.55
    l: 0  eig: -0.516386  rCut: 1.55
    l: 1  eig: -2.753096  rCut: 1.55
    l: 1  eig: -0.312226  rCut: 1.55
    l: 2  eig: -0.791264  rCut: 1.65
    l: 2  eig: -0.450000  rCut: 1.65
  Partial core density with radius 0.65
  Transforming core density to a uniform radial grid of dG=0.02 with 1625 points.
  Transforming local potential to a uniform radial grid of dG=0.02 with 1625 points.
  Transforming nonlocal projectors to a uniform radial grid of dG=0.02 with 432 points.
  Transforming density augmentations to a uniform radial grid of dG=0.02 with 1625 points.
  Transforming atomic orbitals to a uniform radial grid of dG=0.02 with 432 points.
  Core radius for overlap checks: 1.65 bohrs.

Reading pseudopotential file '/home/akim2/jdftx_install/build/pseudopotentials/GBRV/s_pbe.uspp':
  Title: S.  Created by USPP 7.3.6 on 1-4-15
  Reference state energy: -11.898476.  6 valence electrons in orbitals:
    |300>  occupation: 2  eigenvalue: -0.634167
    |310>  occupation: 4  eigenvalue: -0.257568
  lMax: 2  lLocal: 3  QijEcut: 6
  6 projectors sampled on a log grid with 635 points:
    l: 0  eig: -0.634161  rCut: 1.5
    l: 0  eig: 1.500000  rCut: 1.5
    l: 1  eig: -0.257567  rCut: 1.5
    l: 1  eig: 1.500000  rCut: 1.5
    l: 2  eig: -1.000000  rCut: 1.5
    l: 2  eig: 1.500000  rCut: 1.5
  Partial core density with radius 1.15
  Transforming core density to a uniform radial grid of dG=0.02 with 1625 points.
  Transforming local potential to a uniform radial grid of dG=0.02 with 1625 points.
  Transforming nonlocal projectors to a uniform radial grid of dG=0.02 with 432 points.
  Transforming density augmentations to a uniform radial grid of dG=0.02 with 1625 points.
  Transforming atomic orbitals to a uniform radial grid of dG=0.02 with 432 points.
  Core radius for overlap checks: 1.50 bohrs.

Reading pseudopotential file '/home/akim2/jdftx_install/build/pseudopotentials/GBRV/na_pbe.uspp':
  Title: Na.  Created by USPP 7.3.6 on 23-9-15
  Reference state energy: -47.625620.  9 valence electrons in orbitals:
    |200>  occupation: 2  eigenvalue: -2.085638
    |210>  occupation: 6  eigenvalue: -1.053708
    |300>  occupation: 1  eigenvalue: -0.100838
  lMax: 2  lLocal: 0  QijEcut: 6
  5 projectors sampled on a log grid with 657 points:
    l: 0  eig: -2.085640  rCut: 1.37
    l: 0  eig: -0.100839  rCut: 1.37
    l: 1  eig: -1.053708  rCut: 1.47
    l: 1  eig: 0.500000  rCut: 1.47
    l: 2  eig: 0.750000  rCut: 2
  Transforming local potential to a uniform radial grid of dG=0.02 with 1625 points.
  Transforming nonlocal projectors to a uniform radial grid of dG=0.02 with 432 points.
  Transforming density augmentations to a uniform radial grid of dG=0.02 with 1625 points.
  Transforming atomic orbitals to a uniform radial grid of dG=0.02 with 432 points.
  Core radius for overlap checks: 2.00 bohrs.

Initialized 5 species with 77 total atoms.

Folded 1 k-points by 1x1x1 to 1 k-points.

---------- Setting up k-points, bands, fillings ----------
No reducable k-points. 
Computing the number of bands and number of electrons
Calculating initial fillings.
nElectrons: 342.000000   nBands: 319   nStates: 1

----- Setting up reduced wavefunction bases (one per k-point) -----
average nbasis = 109673.000 , ideal nbasis = 109671.883

---------- Setting up coulomb interaction ----------
Setting up double-sized grid for truncated Coulomb potentials:
R = 
[      28.0058     -14.0029            0  ]
[            0      24.2537            0  ]
[            0            0      75.5892  ]
unit cell volume = 51343.6
G =
[   0.224353    0.12953         -0  ]
[          0   0.259061          0  ]
[          0         -0  0.0831228  ]
Chosen fftbox size, S = [  128  128  360  ]
Integer grid location selected as the embedding center:
   Grid: [  0  0  10  ]
   Lattice: [  0  0  0.0529178  ]
   Cartesian: [  0  0  2.00001  ]
Constructing Wigner-Seitz cell: 8 faces (6 quadrilaterals, 2 hexagons)
Range-separation parameter for embedded mesh potentials due to point charges: 0.590105 bohrs.
Initialized slab truncation along lattice direction 001

---------- Setting up 2D ewald sum ----------
Optimum gaussian width for ewald sums = 15.547689 bohr.
Real space sums over 289 unit cells with max indices [  8  8  0  ]
Reciprocal space sums over 81 terms with max indices [  4  4  0  ]

---------- Allocating electronic variables ----------
Initializing wave functions:  linear combination of atomic orbitals
C pseudo-atom occupations:   s ( 2 )  p ( 2 )
N pseudo-atom occupations:   s ( 2 )  p ( 3 )
Fe pseudo-atom occupations:   s ( 2 0 )  p ( 6 0 )  d ( 8 )
S pseudo-atom occupations:   s ( 2 )  p ( 4 )
Na pseudo-atom occupations:   s ( 2 1 )  p ( 6 )
	FillingsUpdate:  mu: -0.264353675  nElectrons: 342.000000
LCAOMinimize: Iter:   0  F: -656.2292905294250431  |grad|_K:  2.568e-02  alpha:  1.000e+00
	FillingsUpdate:  mu: -0.321844213  nElectrons: 342.000000
LCAOMinimize: Iter:   1  F: -661.6597513324240936  |grad|_K:  1.503e-02  alpha:  1.480e-01  linmin: -1.771e-01  cgtest:  7.605e-01  t[s]:      8.42
LCAOMinimize: Encountered beta<0, resetting CG.
	FillingsUpdate:  mu: -0.122248838  nElectrons: 342.000000
LCAOMinimize: Iter:   2  F: -667.3066174443588352  |grad|_K:  5.000e-02  alpha:  1.076e-01  linmin:  2.432e-01  cgtest: -1.748e-01  t[s]:     10.10
LCAOMinimize: 	Bad step direction: g.d > 0.
LCAOMinimize: 	Undoing step.
LCAOMinimize: 	Step failed: resetting search direction.
	FillingsUpdate:  mu: -0.122248838  nElectrons: 342.000000
LCAOMinimize: Iter:   3  F: -667.3066174443588352  |grad|_K:  5.000e-02  alpha:  0.000e+00
	FillingsUpdate:  mu: -0.262614407  nElectrons: 342.000000
LCAOMinimize: Iter:   4  F: -672.7230272415351919  |grad|_K:  1.266e-02  alpha:  4.619e-02  linmin:  3.033e-01  cgtest: -4.553e-01  t[s]:     12.93
	FillingsUpdate:  mu: -0.301025757  nElectrons: 342.000000
LCAOMinimize: Iter:   5  F: -672.8470069502362776  |grad|_K:  1.571e-02  alpha:  1.126e-01  linmin: -1.912e-03  cgtest:  9.530e-01  t[s]:     14.64
	FillingsUpdate:  mu: -0.229273227  nElectrons: 342.000000
LCAOMinimize: Iter:   6  F: -673.0299555565521814  |grad|_K:  8.775e-03  alpha:  3.813e-02  linmin:  1.777e-01  cgtest: -1.089e+00  t[s]:     16.32
LCAOMinimize: 	Bad step direction: g.d > 0.
LCAOMinimize: 	Undoing step.
LCAOMinimize: 	Step failed: resetting search direction.
	FillingsUpdate:  mu: -0.229273227  nElectrons: 342.000000
LCAOMinimize: Iter:   7  F: -673.0299555565521814  |grad|_K:  8.775e-03  alpha:  0.000e+00
	FillingsUpdate:  mu: -0.279579903  nElectrons: 342.000000
LCAOMinimize: Iter:   8  F: -673.1360664801189841  |grad|_K:  1.090e-03  alpha:  2.523e-02  linmin:  9.516e-04  cgtest:  3.246e-03  t[s]:     19.14
LCAOMinimize: 	Predicted alpha/alphaT>3.000000, increasing alphaT to 7.568412e-02.
LCAOMinimize: 	Predicted alpha/alphaT>3.000000, increasing alphaT to 2.270524e-01.
	FillingsUpdate:  mu: -0.279481015  nElectrons: 342.000000
LCAOMinimize: Iter:   9  F: -673.1528521483621716  |grad|_K:  5.030e-04  alpha:  2.776e-01  linmin:  1.411e-02  cgtest: -5.444e-02  t[s]:     21.73
	FillingsUpdate:  mu: -0.277003001  nElectrons: 342.000000
LCAOMinimize: Iter:  10  F: -673.1562729937281802  |grad|_K:  3.264e-04  alpha:  2.711e-01  linmin:  6.177e-03  cgtest:  5.501e-02  t[s]:     23.39
	FillingsUpdate:  mu: -0.283403470  nElectrons: 342.000000
LCAOMinimize: Iter:  11  F: -673.1568347417457971  |grad|_K:  4.798e-04  alpha:  1.033e-01  linmin: -8.804e-04  cgtest:  1.778e-02  t[s]:     25.04
	FillingsUpdate:  mu: -0.277194466  nElectrons: 342.000000
LCAOMinimize: Iter:  12  F: -673.1576315076163155  |grad|_K:  1.600e-04  alpha:  6.660e-02  linmin: -1.431e-04  cgtest: -1.542e-01  t[s]:     26.74
	FillingsUpdate:  mu: -0.278811836  nElectrons: 342.000000
LCAOMinimize: Iter:  13  F: -673.1578347002032388  |grad|_K:  1.370e-04  alpha:  1.543e-01  linmin: -9.695e-04  cgtest:  6.076e-03  t[s]:     28.41
	FillingsUpdate:  mu: -0.276785814  nElectrons: 342.000000
LCAOMinimize: Iter:  14  F: -673.1578720568795688  |grad|_K:  8.430e-05  alpha:  3.871e-02  linmin:  4.874e-04  cgtest: -1.640e-02  t[s]:     30.08
LCAOMinimize: 	Predicted alpha/alphaT>3.000000, increasing alphaT to 1.161446e-01.
	FillingsUpdate:  mu: -0.278021816  nElectrons: 342.000000
LCAOMinimize: Iter:  15  F: -673.1579162221988781  |grad|_K:  3.603e-05  alpha:  1.217e-01  linmin:  1.574e-04  cgtest:  3.139e-02  t[s]:     32.20
	FillingsUpdate:  mu: -0.277352781  nElectrons: 342.000000
LCAOMinimize: Iter:  16  F: -673.1579221720760415  |grad|_K:  4.615e-05  alpha:  8.953e-02  linmin:  5.140e-06  cgtest:  1.042e-04  t[s]:     33.89
	FillingsUpdate:  mu: -0.278035569  nElectrons: 342.000000
LCAOMinimize: Iter:  17  F: -673.1579291571491694  |grad|_K:  2.120e-05  alpha:  6.404e-02  linmin:  2.807e-05  cgtest: -1.161e-03  t[s]:     41.19
	FillingsUpdate:  mu: -0.277699264  nElectrons: 342.000000
LCAOMinimize: Iter:  18  F: -673.1579323576166871  |grad|_K:  1.488e-05  alpha:  1.391e-01  linmin:  1.129e-05  cgtest:  8.332e-04  t[s]:     42.88
	FillingsUpdate:  mu: -0.277924369  nElectrons: 342.000000
LCAOMinimize: Iter:  19  F: -673.1579328137629545  |grad|_K:  1.083e-05  alpha:  4.025e-02  linmin: -6.879e-05  cgtest:  1.116e-04  t[s]:     44.50
LCAOMinimize: 	Predicted alpha/alphaT>3.000000, increasing alphaT to 1.207461e-01.
	FillingsUpdate:  mu: -0.277786950  nElectrons: 342.000000
LCAOMinimize: Iter:  20  F: -673.1579341786980422  |grad|_K:  7.464e-06  alpha:  2.272e-01  linmin:  1.524e-05  cgtest: -2.579e-03  t[s]:     50.93
	FillingsUpdate:  mu: -0.277941119  nElectrons: 342.000000
LCAOMinimize: Iter:  21  F: -673.1579343839981675  |grad|_K:  7.458e-06  alpha:  7.198e-02  linmin: -1.163e-05  cgtest:  2.118e-04  t[s]:     52.60
	FillingsUpdate:  mu: -0.277871477  nElectrons: 342.000000
LCAOMinimize: Iter:  22  F: -673.1579345293860115  |grad|_K:  2.880e-06  alpha:  5.104e-02  linmin:  5.509e-05  cgtest: -6.616e-04  t[s]:     54.23
LCAOMinimize: Converged (|Delta F|<1.000000e-06 for 2 iters).


---- Citations for features of the code used in this run ----

   Software package:
      R. Sundararaman, K. Letchworth-Weaver, K.A. Schwarz, D. Gunceler, Y. Ozhabes and T.A. Arias, 'JDFTx: software for joint density-functional theory', SoftwareX 6, 278 (2017)

   gga-PBE exchange-correlation functional:
      J.P. Perdew, K. Burke and M. Ernzerhof, Phys. Rev. Lett. 77, 3865 (1996)

   Pseudopotentials:
      KF Garrity, JW Bennett, KM Rabe and D Vanderbilt, Comput. Mater. Sci. 81, 446 (2014)

   Truncated Coulomb potentials:
      R. Sundararaman and T.A. Arias, Phys. Rev. B 87, 165122 (2013)

This list may not be complete. Please suggest additional citations or
report any other bugs at https://github.com/shankar1729/jdftx/issues

Initialization completed successfully at t[s]:     54.41


-------- Electronic minimization -----------
Will mix electronic density at each iteration.
	FillingsUpdate:  mu: -0.277871477  nElectrons: 342.000000
	FillingsUpdate:  mu: -0.292195120  nElectrons: 342.000000
SCF: Cycle:  0   F: -676.676238448474351   dF: -3.518e+00   |Residual|: 9.963e-01   |deigs|: 1.163e-01  t[s]:     59.38
	FillingsUpdate:  mu: -0.279264377  nElectrons: 342.000000
SCF: Cycle:  1   F: -675.148067459324125   dF: +1.528e+00   |Residual|: 9.141e-01   |deigs|: 3.249e-02  t[s]:     62.82
	FillingsUpdate:  mu: -0.223190995  nElectrons: 342.000000
SCF: Cycle:  2   F: -668.012363364174348   dF: +7.136e+00   |Residual|: 1.836e+00   |deigs|: 3.304e-02  t[s]:     66.27
	FillingsUpdate:  mu: -0.245004853  nElectrons: 342.000000
SCF: Cycle:  3   F: -676.495533125141719   dF: -8.483e+00   |Residual|: 5.211e-01   |deigs|: 2.965e-02  t[s]:     69.69
	FillingsUpdate:  mu: -0.230279064  nElectrons: 342.000000
SCF: Cycle:  4   F: -677.537128968651700   dF: -1.042e+00   |Residual|: 1.973e-01   |deigs|: 1.138e-02  t[s]:     73.10
	FillingsUpdate:  mu: -0.229467723  nElectrons: 342.000000
SCF: Cycle:  5   F: -677.477242923561221   dF: +5.989e-02   |Residual|: 1.848e-01   |deigs|: 2.041e-03  t[s]:     76.54
	FillingsUpdate:  mu: -0.213321276  nElectrons: 342.000000
SCF: Cycle:  6   F: -677.569023167894443   dF: -9.178e-02   |Residual|: 1.501e-01   |deigs|: 1.171e-02  t[s]:     79.94
	FillingsUpdate:  mu: -0.211484068  nElectrons: 342.000000
SCF: Cycle:  7   F: -677.605213613389083   dF: -3.619e-02   |Residual|: 1.092e-01   |deigs|: 4.384e-03  t[s]:     83.32
	FillingsUpdate:  mu: -0.206715149  nElectrons: 342.000000
SCF: Cycle:  8   F: -677.628776274341021   dF: -2.356e-02   |Residual|: 3.788e-02   |deigs|: 3.504e-03  t[s]:     86.73
	FillingsUpdate:  mu: -0.200067410  nElectrons: 342.000000
SCF: Cycle:  9   F: -677.628589586712451   dF: +1.867e-04   |Residual|: 4.054e-02   |deigs|: 5.290e-03  t[s]:     90.14
	FillingsUpdate:  mu: -0.195522681  nElectrons: 342.000000
SCF: Cycle: 10   F: -677.633582828486738   dF: -4.993e-03   |Residual|: 1.616e-02   |deigs|: 4.846e-03  t[s]:     93.32
	FillingsUpdate:  mu: -0.191677431  nElectrons: 342.000000
SCF: Cycle: 11   F: -677.633596889883506   dF: -1.406e-05   |Residual|: 1.351e-02   |deigs|: 3.828e-03  t[s]:     96.25
	FillingsUpdate:  mu: -0.187669593  nElectrons: 342.000000
SCF: Cycle: 12   F: -677.634394768244078   dF: -7.979e-04   |Residual|: 1.295e-02   |deigs|: 3.939e-03  t[s]:     99.20
	FillingsUpdate:  mu: -0.184668689  nElectrons: 342.000000
SCF: Cycle: 13   F: -677.634920765677634   dF: -5.260e-04   |Residual|: 9.704e-03   |deigs|: 2.651e-03  t[s]:    102.18
	FillingsUpdate:  mu: -0.181194004  nElectrons: 342.000000
SCF: Cycle: 14   F: -677.635246255214270   dF: -3.255e-04   |Residual|: 1.052e-02   |deigs|: 3.122e-03  t[s]:    105.13
	FillingsUpdate:  mu: -0.178061178  nElectrons: 342.000000
SCF: Cycle: 15   F: -677.635514380882228   dF: -2.681e-04   |Residual|: 7.795e-03   |deigs|: 2.900e-03  t[s]:    108.07
	FillingsUpdate:  mu: -0.174636574  nElectrons: 342.000000
SCF: Cycle: 16   F: -677.635591246863783   dF: -7.687e-05   |Residual|: 5.070e-03   |deigs|: 3.055e-03  t[s]:    111.03
	FillingsUpdate:  mu: -0.170296846  nElectrons: 342.000000
SCF: Cycle: 17   F: -677.635557062404587   dF: +3.418e-05   |Residual|: 3.810e-03   |deigs|: 3.983e-03  t[s]:    113.94
	FillingsUpdate:  mu: -0.166415392  nElectrons: 342.000000
SCF: Cycle: 18   F: -677.635561021883632   dF: -3.959e-06   |Residual|: 2.795e-03   |deigs|: 4.015e-03  t[s]:    116.88
	FillingsUpdate:  mu: -0.163639279  nElectrons: 342.000000
SCF: Cycle: 19   F: -677.635604538861344   dF: -4.352e-05   |Residual|: 2.289e-03   |deigs|: 3.080e-03  t[s]:    119.84
	FillingsUpdate:  mu: -0.161591033  nElectrons: 342.000000
SCF: Cycle: 20   F: -677.635644783353086   dF: -4.024e-05   |Residual|: 2.492e-03   |deigs|: 2.503e-03  t[s]:    122.76
	FillingsUpdate:  mu: -0.160316996  nElectrons: 342.000000
SCF: Cycle: 21   F: -677.635694994623350   dF: -5.021e-05   |Residual|: 1.660e-03   |deigs|: 1.300e-03  t[s]:    125.67
	FillingsUpdate:  mu: -0.159551756  nElectrons: 342.000000
SCF: Cycle: 22   F: -677.635714061804038   dF: -1.907e-05   |Residual|: 1.364e-03   |deigs|: 7.032e-04  t[s]:    128.62
	FillingsUpdate:  mu: -0.158882951  nElectrons: 342.000000
SCF: Cycle: 23   F: -677.635721581959160   dF: -7.520e-06   |Residual|: 7.657e-04   |deigs|: 7.743e-04  t[s]:    131.54
	FillingsUpdate:  mu: -0.158537338  nElectrons: 342.000000
SCF: Cycle: 24   F: -677.635723706186582   dF: -2.124e-06   |Residual|: 6.141e-04   |deigs|: 8.166e-04  t[s]:    134.49
	FillingsUpdate:  mu: -0.158385813  nElectrons: 342.000000
SCF: Cycle: 25   F: -677.635725740740554   dF: -2.035e-06   |Residual|: 4.180e-04   |deigs|: 5.280e-04  t[s]:    137.44
	FillingsUpdate:  mu: -0.158302588  nElectrons: 342.000000
SCF: Cycle: 26   F: -677.635727258395036   dF: -1.518e-06   |Residual|: 5.780e-04   |deigs|: 2.760e-04  t[s]:    140.37
	FillingsUpdate:  mu: -0.158292781  nElectrons: 342.000000
SCF: Cycle: 27   F: -677.635728635577152   dF: -1.377e-06   |Residual|: 3.853e-04   |deigs|: 1.940e-04  t[s]:    143.28
	FillingsUpdate:  mu: -0.158211444  nElectrons: 342.000000
SCF: Cycle: 28   F: -677.635729411568150   dF: -7.760e-07   |Residual|: 1.645e-04   |deigs|: 2.494e-04  t[s]:    146.24
	FillingsUpdate:  mu: -0.158163748  nElectrons: 342.000000
SCF: Cycle: 29   F: -677.635729531071206   dF: -1.195e-07   |Residual|: 1.352e-04   |deigs|: 3.249e-04  t[s]:    149.14
	FillingsUpdate:  mu: -0.158158679  nElectrons: 342.000000
SCF: Cycle: 30   F: -677.635729602517813   dF: -7.145e-08   |Residual|: 8.298e-05   |deigs|: 1.890e-04  t[s]:    152.11
	FillingsUpdate:  mu: -0.158160678  nElectrons: 342.000000
SCF: Cycle: 31   F: -677.635729647430594   dF: -4.491e-08   |Residual|: 6.815e-05   |deigs|: 1.438e-04  t[s]:    155.07
	FillingsUpdate:  mu: -0.158161086  nElectrons: 342.000000
SCF: Cycle: 32   F: -677.635729670885553   dF: -2.345e-08   |Residual|: 6.021e-05   |deigs|: 1.104e-04  t[s]:    157.96
	FillingsUpdate:  mu: -0.158152960  nElectrons: 342.000000
SCF: Cycle: 33   F: -677.635729687205981   dF: -1.632e-08   |Residual|: 3.234e-05   |deigs|: 9.324e-05  t[s]:    160.92
	FillingsUpdate:  mu: -0.158146403  nElectrons: 342.000000
SCF: Cycle: 34   F: -677.635729690493690   dF: -3.288e-09   |Residual|: 2.181e-05   |deigs|: 7.756e-05  t[s]:    163.90
	FillingsUpdate:  mu: -0.158139109  nElectrons: 342.000000
SCF: Cycle: 35   F: -677.635729691796769   dF: -1.303e-09   |Residual|: 1.622e-05   |deigs|: 6.758e-05  t[s]:    166.85
SCF: Converged (|Delta E|<1.000000e-08 for 2 iters).

Setting wave functions to eigenvectors of Hamiltonian

# Ionic positions in cartesian coordinates:
ion C   0.000000000000000   0.000000000000000   1.000007321400000 0
ion C  -2.333835447300000   4.042302545699999   1.000007321400000 0
ion C  11.669120544600000  20.211531625799999   1.000007321400000 0
ion C   4.667689791900001   0.000000000000000   1.000007321400000 0
ion C  23.338297781100000   0.000000000000000   1.000007321400000 0
ion C   2.333816549999999   4.042302545699999   1.000007321400000 0
ion C -11.669158339200003  20.211531625799999   1.000007321400000 0
ion C  -4.667670894600000   8.084623988700001   1.000007321400000 0
ion C   9.335303994599997  16.169229080099999   1.000007321400000 0
ion C   9.335322891900001   0.000000000000000   1.000007321400000 0
ion C  18.670626886499999   0.000000000000000   1.000007321400000 0
ion C  -9.335322891900001  16.169229080099999   1.000007321400000 0
ion C  -7.001487444600000  12.126907637100000   1.000007321400000 0
ion C  14.002993786499999   0.000000000000000   1.000007321400000 0
ion C   0.000000000000000   8.084623988700001   1.000007321400000 0
ion C   7.001487444599997  20.211531625799999   1.000007321400000 0
ion C  -7.001487444600003  20.211531625799999   1.000007321400000 0
ion C  -2.333816549999999  12.126907637100000   1.000007321400000 0
ion C   4.667670894600002  16.169229080099999   1.000007321400000 0
ion C  -2.333816550000000  20.211531625799999   1.000007321400000 0
ion C   2.333816550000000  20.211531625799999   1.000007321400000 0
ion C  -4.667651997299997  16.169229080099999   1.000007321400000 0
ion C   7.001487444600000   4.042302545699999   1.000007321400000 0
ion C  21.004424539199999   4.042302545699999   1.000007321400000 0
ion C  14.002955991899999  16.169229080099999   1.000007321400000 0
ion C   0.000000000000000  16.169229080099999   1.000007321400000 0
ion C  11.669120544600000   4.042302545699999   1.000007321400000 0
ion C  18.670607989199997   8.084623988700001   1.000007321400000 0
ion C  11.669120544599998  12.126907637100000   1.000007321400000 0
ion C  16.336791439199999  12.126907637100000   1.000007321400000 0
ion C  16.336791439199999   4.042302545699999   1.000007321400000 0
ion C   9.335303994599997   8.084623988700001   1.000007321400000 0
ion C  14.002955991899999   8.084623988700001   1.000007321400000 0
ion C   0.000000000000000   2.694868363800000   1.000007321400000 0
ion C  11.669120544600000  22.906399989600001   1.000007321400000 0
ion C -11.669120544600000  22.906399989600001   1.000007321400000 0
ion C  -2.333816550000000   6.737170909500000   1.000007321400000 0
ion C   9.335303994599995  18.864097443900000   1.000007321400000 0
ion C  -7.001487444600000  22.906399989600001   1.000007321400000 0
ion C   7.001487444600000  22.906399989600001   1.000007321400000 0
ion C   2.333816550000000   6.737170909500000   1.000007321400000 0
ion C  -9.335303994599998  18.864097443900000   1.000007321400000 0
ion C  -4.667670894599998  10.779473455200000   1.000007321400000 0
ion C  -2.333816550000000  22.906399989600001   1.000007321400000 0
ion C   2.333816550000000  22.906399989600001   1.000007321400000 0
ion C  -7.001487444600003  14.821794898200000   1.000007321400000 0
ion C   4.667670894600000   2.694868363800000   1.000007321400000 0
ion C  23.338259986499999   2.694868363800000   1.000007321400000 0
ion C  14.002974889199999  18.864097443900000   1.000007321400000 0
ion C   0.000000000000000  10.779473455200000   1.000007321400000 0
ion C   4.667670894600001  18.864097443900000   1.000007321400000 0
ion C  -4.667633100000002  18.864097443900000   1.000007321400000 0
ion C  -2.333816550000002  14.821794898200000   1.000007321400000 0
ion C   2.333816549999996  14.821794898200000   1.000007321400000 0
ion C  -0.000000000000004  18.864097443900000   1.000007321400000 0
ion C   9.335303994599998   2.694868363800000   1.000007321400000 0
ion C  21.004424539199999   6.737170909500000   1.000007321400000 0
ion C  11.669120544600000  14.821794898200000   1.000007321400000 0
ion C  16.336791439199999  14.821794898200000   1.000007321400000 0
ion C  18.670607989199997   2.694868363800000   1.000007321400000 0
ion C   7.001487444600001   6.737170909500000   1.000007321400000 0
ion C  14.002955991899999   2.694868363800000   1.000007321400000 0
ion C  18.670607989200004  10.779473455200000   1.000007321400000 0
ion C  11.669120544599998   6.737170909500000   1.000007321400000 0
ion C  16.336791439199999   6.737170909500000   1.000007321400000 0
ion C  14.002955991899999  10.779473455200000   1.000007321400000 0
ion N   4.667670894599999   8.084623988700001   1.000007321400000 0
ion N   2.333816549999999  12.126907637100000   1.000007321400000 0
ion N   7.001487444599997  14.821794898200000   1.000007321400000 0
ion N   9.335303994599997  10.779473455200000   1.000007321400000 0
ion Fe   5.837111407799997  11.454314935499999   1.000007321400000 0
ion S   4.061388818699998  13.004252584200000   4.611697092000000 1
ion S   5.194848872700001  13.272518655000001   8.402117526000000 1
ion S   7.316240873399997  10.054384054200000   9.353332018800000 1
ion S  10.435202443799998   9.785777831999999   6.917507843399999 1
ion Na   6.046890335100001   8.310163264200000   4.654707346800000 1
ion Na   9.013936510800002  14.320109377800000   5.072224293000001 1

# Forces in Cartesian coordinates:
force C   0.004166121674855  -0.000447721202524  -0.000004059017355 0
force C   0.001518267016673  -0.000839987550509  -0.000119927684577 0
force C   0.003616641139902  -0.001663680310049   0.000150239053915 0
force C   0.001415239333246   0.003249955378792   0.000038086675573 0
force C   0.002018496854008   0.000010028830342  -0.000010693240604 0
force C   0.003390222580227   0.002632877495443  -0.000321487268187 0
force C   0.000871343333015   0.000364819028967   0.000009296710937 0
force C  -0.000146180560685   0.001996020068656  -0.000089552816615 0
force C  -0.033431656864219  -0.006658533488706  -0.012809101836665 0
force C  -0.001458978200374  -0.000168046929557  -0.000007713316329 0
force C  -0.000888506156465   0.000148957185458  -0.000056418080794 0
force C   0.000487652453607   0.001476746089851  -0.000037405116855 0
force C   0.001670478658234   0.003604321587148  -0.000016122130984 0
force C  -0.001005958761150   0.000026832169294  -0.000005252997843 0
force C   0.012226830208990   0.008318068545745   0.001035620558994 0
force C   0.002385585658592   0.002552353843516   0.000094016689047 0
force C   0.001524257723722   0.000746658274188   0.000005229420645 0
force C   0.006023801830490   0.002716447782329   0.000902752192778 0
force C   0.032158262524110   0.020191242654701  -0.013094831569972 0
force C  -0.000088501220279  -0.000831781913298  -0.000099896655989 0
force C  -0.003701126756228   0.001342581987390   0.000236064417680 0
force C   0.002393349116343  -0.000304007582374  -0.000101927808908 0
force C   0.006123095515035   0.002217112854832  -0.000132798117661 0
force C   0.001563144002163   0.001011256519513  -0.000012037637619 0
force C   0.002174258228953   0.001186331323512   0.000528561082229 0
force C   0.005735500667644   0.001815799374414  -0.001743674867496 0
force C  -0.000974708878753  -0.000560668264487  -0.000430165838114 0
force C   0.000953900290890   0.002334663638441   0.000008673278406 0
force C  -0.026391899188351  -0.024560021310285  -0.003214404830619 0
force C  -0.001109890392426   0.003795416384308  -0.000176912014254 0
force C  -0.001361617140332  -0.000025378620325   0.000010964478566 0
force C   0.023613640057492   0.019984718431562  -0.003893256805655 0
force C   0.002403323729819   0.000485978720824  -0.000207855412535 0
force C  -0.003677444925627   0.002392536293851  -0.000008034275061 0
force C  -0.003937549092246   0.000442860834899   0.000019029254371 0
force C  -0.002785873036993  -0.000422196921684  -0.000028724998865 0
force C   0.000634831978791   0.000187650485903   0.000208490240718 0
force C  -0.004516881084590   0.001019149600669   0.001035432715787 0
force C   0.001241739410051   0.000289902135875  -0.000051284497669 0
force C  -0.000602158375426  -0.002596411993065  -0.000042697862850 0
force C   0.027323700600201   0.010361196214351  -0.001725157756207 0
force C  -0.001397446712361  -0.001523170477105  -0.000023340501603 0
force C   0.000289269336375  -0.004374868804602  -0.000089626372851 0
force C   0.000923591662044   0.000301997315394  -0.000033157364989 0
force C   0.000946218667453  -0.001143229483573  -0.000133193497920 0
force C  -0.000741517690462  -0.002056415232833   0.000001864877382 0
force C  -0.002196326750428  -0.004425906137255  -0.000235238764234 0
force C  -0.000834611979475   0.000119385026346  -0.000001402381854 0
force C  -0.001072847143667   0.000697697134805  -0.000262110435605 0
force C   0.023039935959292   0.019045949190586  -0.003776788928473 0
force C  -0.004975421294213  -0.007769298170816  -0.001357602241461 0
force C   0.000581450628140   0.000164316727323  -0.000033908143746 0
force C  -0.002196910011671  -0.000569988464773   0.000540160466698 0
force C  -0.032164231046867  -0.007487500256368  -0.018700189601873 0
force C   0.001463119136501   0.002121289897762   0.000155382993442 0
force C   0.002660280178685  -0.000553432968019   0.000296048337164 0
force C  -0.000003998066144  -0.000893874767510  -0.000029354756770 0
force C  -0.008631920073209  -0.008256554744904  -0.002096947482781 0
force C  -0.000369954505053  -0.001860880221998  -0.000072486662783 0
force C  -0.000974242150574  -0.001289733025140  -0.000020955780986 0
force C  -0.016574829383379  -0.020825293973553  -0.026941823063085 0
force C   0.001085882390144   0.000646330660787   0.000032945494874 0
force C  -0.001269038867276  -0.003971160847651   0.000081406424896 0
force C  -0.004964768292278  -0.004141492625868  -0.000669472606402 0
force C  -0.003005283574806  -0.000000032969474  -0.000046948022100 0
force C  -0.003076066088197  -0.002810543449972  -0.000136701443411 0
force N   0.014891668563596  -0.030593228850223  -0.032439089628736 0
force N  -0.031106467350704   0.033383732101935  -0.041382235209164 0
force N  -0.018588422075139   0.038853335651605  -0.030242203168014 0
force N   0.011960750670109  -0.037933876105432  -0.008076691307398 0
force Fe   0.002554484812317   0.021822003900595   0.018742507118917 0
force S  -0.015026275324974  -0.024502488564448   0.064349110475066 1
force S   0.013187232737360   0.002265922938050   0.012680985139129 1
force S   0.010267576989237  -0.003966447724267   0.000726170024007 1
force S  -0.007335297460874   0.000747809660038   0.017743846669784 1
force Na   0.004328497793867  -0.005410935832583   0.067041320946315 1
force Na   0.007219877497375  -0.001358042756808   0.017717157064653 1

# Energy components:
   Eewald =    -1377.1227321420842600
       EH =     -847.0162888186797545
     Eloc =     1480.5060645419894172
      Enl =      -58.8546430859167060
      Exc =     -176.4244164310756560
 Exc_core =       10.4335744698417585
       KE =      290.9237641462207762
-------------------------------------
     Etot =     -677.5546773197042967
       TS =        0.0810523720924865
-------------------------------------
        F =     -677.6357296917967687

IonicMinimize: Iter:   0  F: -677.635729691796769  |grad|_K:  2.439e-02  alpha:  1.000e+00

#--- Lowdin population analysis ---
# oxidation-state C +0.044 +0.036 +0.034 +0.036 +0.038 +0.017 +0.037 +0.038 +0.073 +0.041 +0.041 +0.039 +0.045 +0.042 +0.007 +0.043 +0.044 +0.030 +0.132 +0.042 +0.035 +0.038 +0.022 +0.047 +0.043 +0.034 +0.039 +0.042 +0.122 +0.039 +0.041 +0.104 +0.049 +0.036 +0.042 +0.039 +0.051 +0.009 +0.039 +0.036 +0.122 +0.047 +0.040 +0.042 +0.041 +0.039 +0.037 +0.039 +0.031 +0.143 +0.028 +0.041 +0.049 +0.127 +0.037 +0.033 +0.039 -0.039 +0.034 +0.045 +0.041 +0.042 +0.046 +0.042 +0.040 +0.027
# oxidation-state N -0.204 -0.121 -0.167 -0.147
# oxidation-state Fe -0.102
# oxidation-state S +0.009 -0.019 +0.067 -0.459
# oxidation-state Na +0.796 +0.780


-------- Electronic minimization -----------
Will mix electronic density at each iteration.
	FillingsUpdate:  mu: -0.158139109  nElectrons: 342.000000
	FillingsUpdate:  mu: -0.143159000  nElectrons: 342.000000
SCF: Cycle:  0   F: -676.780879772563480   dF: +7.564e-01   |Residual|: 4.536e-01   |deigs|: 1.345e-03  t[s]:    172.80
	FillingsUpdate:  mu: -0.172322936  nElectrons: 342.000000
SCF: Cycle:  1   F: -671.111236821574153   dF: +5.670e+00   |Residual|: 1.693e+00   |deigs|: 3.411e-02  t[s]:    176.22
	FillingsUpdate:  mu: -0.160485494  nElectrons: 342.000000
SCF: Cycle:  2   F: -676.738721492253831   dF: -5.627e+00   |Residual|: 5.620e-01   |deigs|: 2.544e-02  t[s]:    179.69
	FillingsUpdate:  mu: -0.151750783  nElectrons: 342.000000
SCF: Cycle:  3   F: -677.613442119746651   dF: -8.747e-01   |Residual|: 1.140e-01   |deigs|: 7.090e-03  t[s]:    183.16
	FillingsUpdate:  mu: -0.153060265  nElectrons: 342.000000
SCF: Cycle:  4   F: -677.639918898918154   dF: -2.648e-02   |Residual|: 4.136e-02   |deigs|: 7.497e-04  t[s]:    186.62
	FillingsUpdate:  mu: -0.154104929  nElectrons: 342.000000
SCF: Cycle:  5   F: -677.642545645578707   dF: -2.627e-03   |Residual|: 2.485e-02   |deigs|: 7.405e-04  t[s]:    190.02
	FillingsUpdate:  mu: -0.154336431  nElectrons: 342.000000
SCF: Cycle:  6   F: -677.643542491387393   dF: -9.968e-04   |Residual|: 2.010e-02   |deigs|: 4.402e-04  t[s]:    192.93
	FillingsUpdate:  mu: -0.154301475  nElectrons: 342.000000
SCF: Cycle:  7   F: -677.644905742072979   dF: -1.363e-03   |Residual|: 4.230e-03   |deigs|: 4.394e-04  t[s]:    195.89
	FillingsUpdate:  mu: -0.154685551  nElectrons: 342.000000
SCF: Cycle:  8   F: -677.645376066237304   dF: -4.703e-04   |Residual|: 5.081e-03   |deigs|: 7.318e-04  t[s]:    198.82
	FillingsUpdate:  mu: -0.154875866  nElectrons: 342.000000
SCF: Cycle:  9   F: -677.645268889103136   dF: +1.072e-04   |Residual|: 9.334e-03   |deigs|: 3.830e-04  t[s]:    201.77
	FillingsUpdate:  mu: -0.155328660  nElectrons: 342.000000
SCF: Cycle: 10   F: -677.645613133788402   dF: -3.442e-04   |Residual|: 2.009e-03   |deigs|: 5.122e-04  t[s]:    204.74
	FillingsUpdate:  mu: -0.155754901  nElectrons: 342.000000
SCF: Cycle: 11   F: -677.645658033929749   dF: -4.490e-05   |Residual|: 3.467e-03   |deigs|: 5.539e-04  t[s]:    207.71
	FillingsUpdate:  mu: -0.156021786  nElectrons: 342.000000
SCF: Cycle: 12   F: -677.645716364363807   dF: -5.833e-05   |Residual|: 1.221e-03   |deigs|: 4.405e-04  t[s]:    210.63
	FillingsUpdate:  mu: -0.156414285  nElectrons: 342.000000
SCF: Cycle: 13   F: -677.645743633850884   dF: -2.727e-05   |Residual|: 9.124e-04   |deigs|: 5.099e-04  t[s]:    213.60
	FillingsUpdate:  mu: -0.156711994  nElectrons: 342.000000
SCF: Cycle: 14   F: -677.645756388916425   dF: -1.276e-05   |Residual|: 8.976e-04   |deigs|: 3.375e-04  t[s]:    216.57
	FillingsUpdate:  mu: -0.157006350  nElectrons: 342.000000
SCF: Cycle: 15   F: -677.645764656661754   dF: -8.268e-06   |Residual|: 7.920e-04   |deigs|: 3.079e-04  t[s]:    219.51
	FillingsUpdate:  mu: -0.157163380  nElectrons: 342.000000
SCF: Cycle: 16   F: -677.645767506889456   dF: -2.850e-06   |Residual|: 4.751e-04   |deigs|: 2.597e-04  t[s]:    222.51
	FillingsUpdate:  mu: -0.157320435  nElectrons: 342.000000
SCF: Cycle: 17   F: -677.645768456221049   dF: -9.493e-07   |Residual|: 2.956e-04   |deigs|: 4.173e-04  t[s]:    225.47
	FillingsUpdate:  mu: -0.157428830  nElectrons: 342.000000
SCF: Cycle: 18   F: -677.645768578072875   dF: -1.219e-07   |Residual|: 1.984e-04   |deigs|: 5.362e-04  t[s]:    230.98
	FillingsUpdate:  mu: -0.157501405  nElectrons: 342.000000
SCF: Cycle: 19   F: -677.645768552208438   dF: +2.586e-08   |Residual|: 1.765e-04   |deigs|: 3.083e-04  t[s]:    235.20
	FillingsUpdate:  mu: -0.157570227  nElectrons: 342.000000
SCF: Cycle: 20   F: -677.645768606897491   dF: -5.469e-08   |Residual|: 1.583e-04   |deigs|: 1.830e-04  t[s]:    242.97
	FillingsUpdate:  mu: -0.157616095  nElectrons: 342.000000
SCF: Cycle: 21   F: -677.645768680454694   dF: -7.356e-08   |Residual|: 1.098e-04   |deigs|: 1.255e-04  t[s]:    246.01
	FillingsUpdate:  mu: -0.157680817  nElectrons: 342.000000
SCF: Cycle: 22   F: -677.645768737324943   dF: -5.687e-08   |Residual|: 9.951e-05   |deigs|: 1.347e-04  t[s]:    248.98
	FillingsUpdate:  mu: -0.157747133  nElectrons: 342.000000
SCF: Cycle: 23   F: -677.645768838498157   dF: -1.012e-07   |Residual|: 9.447e-05   |deigs|: 2.753e-04  t[s]:    251.96
	FillingsUpdate:  mu: -0.157791694  nElectrons: 342.000000
SCF: Cycle: 24   F: -677.645768900123016   dF: -6.162e-08   |Residual|: 6.445e-05   |deigs|: 1.187e-04  t[s]:    254.87
	FillingsUpdate:  mu: -0.157819604  nElectrons: 342.000000
SCF: Cycle: 25   F: -677.645768899630980   dF: +4.920e-10   |Residual|: 5.910e-05   |deigs|: 4.657e-05  t[s]:    257.78
	FillingsUpdate:  mu: -0.157865847  nElectrons: 342.000000
SCF: Cycle: 26   F: -677.645768907585989   dF: -7.955e-09   |Residual|: 4.944e-05   |deigs|: 8.330e-05  t[s]:    260.90
	FillingsUpdate:  mu: -0.157923186  nElectrons: 342.000000
SCF: Cycle: 27   F: -677.645768928595203   dF: -2.101e-08   |Residual|: 5.199e-05   |deigs|: 1.174e-04  t[s]:    263.89
	FillingsUpdate:  mu: -0.157960304  nElectrons: 342.000000
SCF: Cycle: 28   F: -677.645768943457483   dF: -1.486e-08   |Residual|: 3.139e-05   |deigs|: 8.262e-05  t[s]:    266.83
	FillingsUpdate:  mu: -0.157980190  nElectrons: 342.000000
SCF: Cycle: 29   F: -677.645768950204001   dF: -6.747e-09   |Residual|: 2.458e-05   |deigs|: 4.802e-05  t[s]:    269.78
	FillingsUpdate:  mu: -0.157987999  nElectrons: 342.000000
SCF: Cycle: 30   F: -677.645768951496848   dF: -1.293e-09   |Residual|: 2.990e-05   |deigs|: 3.650e-05  t[s]:    272.75
SCF: Converged (|Delta E|<1.000000e-08 for 2 iters).

Setting wave functions to eigenvectors of Hamiltonian
IonicMinimize: 	Predicted alpha/alphaT>3.000000, increasing alphaT to 3.000000e+00.

-------- Electronic minimization -----------
Will mix electronic density at each iteration.
	FillingsUpdate:  mu: -0.157987999  nElectrons: 342.000000
	FillingsUpdate:  mu: -0.126503746  nElectrons: 342.000000
SCF: Cycle:  0   F: -673.283185662004257   dF: +3.937e+00   |Residual|: 1.013e+00   |deigs|: 5.928e-03  t[s]:    277.79
	FillingsUpdate:  mu: -0.170694407  nElectrons: 342.000000
SCF: Cycle:  1   F: -666.940280784100082   dF: +6.343e+00   |Residual|: 2.426e+00   |deigs|: 7.408e-02  t[s]:    281.19
	FillingsUpdate:  mu: -0.160423853  nElectrons: 342.000000
SCF: Cycle:  2   F: -673.933342500127310   dF: -6.993e+00   |Residual|: 1.191e+00   |deigs|: 5.038e-02  t[s]:    284.68
	FillingsUpdate:  mu: -0.132382806  nElectrons: 342.000000
SCF: Cycle:  3   F: -675.439348656129710   dF: -1.506e+00   |Residual|: 8.481e-01   |deigs|: 2.623e-02  t[s]:    288.10
	FillingsUpdate:  mu: -0.152742713  nElectrons: 342.000000
SCF: Cycle:  4   F: -677.379076874023781   dF: -1.940e+00   |Residual|: 2.800e-01   |deigs|: 8.408e-03  t[s]:    291.51
	FillingsUpdate:  mu: -0.154376016  nElectrons: 342.000000
SCF: Cycle:  5   F: -677.180509200245524   dF: +1.986e-01   |Residual|: 3.787e-01   |deigs|: 1.389e-03  t[s]:    294.94
	FillingsUpdate:  mu: -0.150459006  nElectrons: 342.000000
SCF: Cycle:  6   F: -677.641273754065764   dF: -4.608e-01   |Residual|: 9.165e-02   |deigs|: 3.522e-03  t[s]:    298.40
	FillingsUpdate:  mu: -0.148381033  nElectrons: 342.000000
SCF: Cycle:  7   F: -677.634007750551973   dF: +7.266e-03   |Residual|: 9.273e-02   |deigs|: 1.430e-03  t[s]:    301.87
	FillingsUpdate:  mu: -0.152029362  nElectrons: 342.000000
SCF: Cycle:  8   F: -677.614531933233707   dF: +1.948e-02   |Residual|: 1.223e-01   |deigs|: 1.814e-03  t[s]:    305.28
	FillingsUpdate:  mu: -0.149937978  nElectrons: 342.000000
SCF: Cycle:  9   F: -677.655938290596168   dF: -4.141e-02   |Residual|: 3.119e-02   |deigs|: 1.343e-03  t[s]:    308.65
	FillingsUpdate:  mu: -0.152205018  nElectrons: 342.000000
SCF: Cycle: 10   F: -677.646070393427408   dF: +9.868e-03   |Residual|: 6.449e-02   |deigs|: 1.376e-03  t[s]:    311.65
	FillingsUpdate:  mu: -0.151878915  nElectrons: 342.000000
SCF: Cycle: 11   F: -677.660397911847667   dF: -1.433e-02   |Residual|: 1.454e-02   |deigs|: 7.299e-04  t[s]:    314.58
	FillingsUpdate:  mu: -0.152043928  nElectrons: 342.000000
SCF: Cycle: 12   F: -677.660276781522725   dF: +1.211e-04   |Residual|: 1.698e-02   |deigs|: 7.384e-04  t[s]:    317.53
	FillingsUpdate:  mu: -0.153097072  nElectrons: 342.000000
SCF: Cycle: 13   F: -677.661667722482207   dF: -1.391e-03   |Residual|: 3.721e-03   |deigs|: 9.719e-04  t[s]:    320.53
	FillingsUpdate:  mu: -0.153657252  nElectrons: 342.000000
SCF: Cycle: 14   F: -677.661768262574469   dF: -1.005e-04   |Residual|: 4.481e-03   |deigs|: 5.919e-04  t[s]:    324.09
	FillingsUpdate:  mu: -0.154358649  nElectrons: 342.000000
SCF: Cycle: 15   F: -677.661904632897972   dF: -1.364e-04   |Residual|: 3.490e-03   |deigs|: 8.400e-04  t[s]:    327.07
	FillingsUpdate:  mu: -0.155037659  nElectrons: 342.000000
SCF: Cycle: 16   F: -677.661951604203637   dF: -4.697e-05   |Residual|: 2.633e-03   |deigs|: 7.006e-04  t[s]:    330.00
	FillingsUpdate:  mu: -0.155583758  nElectrons: 342.000000
SCF: Cycle: 17   F: -677.661995523788732   dF: -4.392e-05   |Residual|: 1.470e-03   |deigs|: 4.619e-04  t[s]:    332.90
	FillingsUpdate:  mu: -0.156002489  nElectrons: 342.000000
SCF: Cycle: 18   F: -677.662007214611890   dF: -1.169e-05   |Residual|: 1.353e-03   |deigs|: 4.066e-04  t[s]:    335.84
	FillingsUpdate:  mu: -0.156361032  nElectrons: 342.000000
SCF: Cycle: 19   F: -677.662013800493469   dF: -6.586e-06   |Residual|: 6.838e-04   |deigs|: 4.906e-04  t[s]:    338.78
	FillingsUpdate:  mu: -0.156575422  nElectrons: 342.000000
SCF: Cycle: 20   F: -677.662014158914189   dF: -3.584e-07   |Residual|: 5.278e-04   |deigs|: 6.033e-04  t[s]:    341.70
	FillingsUpdate:  mu: -0.156731471  nElectrons: 342.000000
SCF: Cycle: 21   F: -677.662014457264036   dF: -2.983e-07   |Residual|: 2.989e-04   |deigs|: 5.025e-04  t[s]:    344.67
	FillingsUpdate:  mu: -0.156877559  nElectrons: 342.000000
SCF: Cycle: 22   F: -677.662014798804080   dF: -3.415e-07   |Residual|: 2.320e-04   |deigs|: 2.755e-04  t[s]:    347.62
	FillingsUpdate:  mu: -0.157011413  nElectrons: 342.000000
SCF: Cycle: 23   F: -677.662014948244405   dF: -1.494e-07   |Residual|: 2.175e-04   |deigs|: 2.317e-04  t[s]:    350.58
	FillingsUpdate:  mu: -0.157120918  nElectrons: 342.000000
SCF: Cycle: 24   F: -677.662015061459329   dF: -1.132e-07   |Residual|: 2.228e-04   |deigs|: 1.622e-04  t[s]:    353.53
	FillingsUpdate:  mu: -0.157293849  nElectrons: 342.000000
SCF: Cycle: 25   F: -677.662015353489551   dF: -2.920e-07   |Residual|: 1.721e-04   |deigs|: 4.631e-04  t[s]:    356.53
	FillingsUpdate:  mu: -0.157408673  nElectrons: 342.000000
SCF: Cycle: 26   F: -677.662015595493358   dF: -2.420e-07   |Residual|: 1.854e-04   |deigs|: 1.958e-04  t[s]:    359.50
	FillingsUpdate:  mu: -0.157491739  nElectrons: 342.000000
SCF: Cycle: 27   F: -677.662015720945305   dF: -1.255e-07   |Residual|: 1.209e-04   |deigs|: 1.035e-04  t[s]:    362.40
	FillingsUpdate:  mu: -0.157606359  nElectrons: 342.000000
SCF: Cycle: 28   F: -677.662015723252694   dF: -2.307e-09   |Residual|: 1.469e-04   |deigs|: 2.298e-04  t[s]:    365.32
	FillingsUpdate:  mu: -0.157692365  nElectrons: 342.000000
SCF: Cycle: 29   F: -677.662015817386873   dF: -9.413e-08   |Residual|: 7.161e-05   |deigs|: 1.873e-04  t[s]:    368.30
	FillingsUpdate:  mu: -0.157755476  nElectrons: 342.000000
SCF: Cycle: 30   F: -677.662015850236457   dF: -3.285e-08   |Residual|: 4.679e-05   |deigs|: 1.085e-04  t[s]:    371.27
	FillingsUpdate:  mu: -0.157786334  nElectrons: 342.000000
SCF: Cycle: 31   F: -677.662015852472109   dF: -2.236e-09   |Residual|: 4.313e-05   |deigs|: 6.928e-05  t[s]:    374.26
	FillingsUpdate:  mu: -0.157808259  nElectrons: 342.000000
SCF: Cycle: 32   F: -677.662015860345036   dF: -7.873e-09   |Residual|: 2.540e-05   |deigs|: 6.223e-05  t[s]:    377.24
SCF: Converged (|Delta E|<1.000000e-08 for 2 iters).

Setting wave functions to eigenvectors of Hamiltonian

-------- Electronic minimization -----------
Will mix electronic density at each iteration.
	FillingsUpdate:  mu: -0.157808259  nElectrons: 342.000000
	FillingsUpdate:  mu: -0.112359868  nElectrons: 342.000000
SCF: Cycle:  0   F: -657.328118738993112   dF: +1.688e+01   |Residual|: 2.098e+00   |deigs|: 4.154e-02  t[s]:    382.33
	FillingsUpdate:  mu: -0.153804714  nElectrons: 342.000000
SCF: Cycle:  1   F: -662.739474344542373   dF: -5.411e+00   |Residual|: 3.180e+00   |deigs|: 1.262e-01  t[s]:    385.82
	FillingsUpdate:  mu: -0.151840058  nElectrons: 342.000000
SCF: Cycle:  2   F: -670.573559391463391   dF: -7.834e+00   |Residual|: 1.683e+00   |deigs|: 9.080e-02  t[s]:    389.28
	FillingsUpdate:  mu: -0.090714633  nElectrons: 342.000000
SCF: Cycle:  3   F: -663.831223344316641   dF: +6.742e+00   |Residual|: 2.162e+00   |deigs|: 7.529e-02  t[s]:    392.68
	FillingsUpdate:  mu: -0.110518204  nElectrons: 342.000000
SCF: Cycle:  4   F: -674.190298721203817   dF: -1.036e+01   |Residual|: 1.127e+00   |deigs|: 4.220e-02  t[s]:    396.14
	FillingsUpdate:  mu: -0.142605052  nElectrons: 342.000000
SCF: Cycle:  5   F: -675.660827431358371   dF: -1.471e+00   |Residual|: 7.890e-01   |deigs|: 1.922e-02  t[s]:    399.62
	FillingsUpdate:  mu: -0.141441000  nElectrons: 342.000000
SCF: Cycle:  6   F: -676.412753738464971   dF: -7.519e-01   |Residual|: 6.041e-01   |deigs|: 5.776e-03  t[s]:    403.05
	FillingsUpdate:  mu: -0.134729930  nElectrons: 342.000000
SCF: Cycle:  7   F: -677.600614464277328   dF: -1.188e+00   |Residual|: 1.753e-01   |deigs|: 6.885e-03  t[s]:    406.48
	FillingsUpdate:  mu: -0.135751325  nElectrons: 342.000000
SCF: Cycle:  8   F: -677.588905998382415   dF: +1.171e-02   |Residual|: 1.507e-01   |deigs|: 6.211e-04  t[s]:    409.90
	FillingsUpdate:  mu: -0.139590306  nElectrons: 342.000000
SCF: Cycle:  9   F: -677.507160011554447   dF: +8.175e-02   |Residual|: 2.520e-01   |deigs|: 2.474e-03  t[s]:    413.34
	FillingsUpdate:  mu: -0.122919333  nElectrons: 342.000000
SCF: Cycle: 10   F: -676.048734569839098   dF: +1.458e+00   |Residual|: 6.834e-01   |deigs|: 6.166e-03  t[s]:    416.74
	FillingsUpdate:  mu: -0.126022431  nElectrons: 342.000000
SCF: Cycle: 11   F: -676.640828275814556   dF: -5.921e-01   |Residual|: 5.436e-01   |deigs|: 1.186e-03  t[s]:    420.24
	FillingsUpdate:  mu: -0.133700773  nElectrons: 342.000000
SCF: Cycle: 12   F: -677.516955264895614   dF: -8.761e-01   |Residual|: 2.018e-01   |deigs|: 2.699e-03  t[s]:    423.68
	FillingsUpdate:  mu: -0.145340706  nElectrons: 342.000000
SCF: Cycle: 13   F: -677.140339509773412   dF: +3.766e-01   |Residual|: 4.282e-01   |deigs|: 6.088e-03  t[s]:    427.15
	FillingsUpdate:  mu: -0.141417316  nElectrons: 342.000000
SCF: Cycle: 14   F: -677.589199804801865   dF: -4.489e-01   |Residual|: 1.717e-01   |deigs|: 2.848e-03  t[s]:    430.57
	FillingsUpdate:  mu: -0.142410761  nElectrons: 342.000000
SCF: Cycle: 15   F: -677.652562304882395   dF: -6.336e-02   |Residual|: 8.494e-02   |deigs|: 1.993e-03  t[s]:    434.00
	FillingsUpdate:  mu: -0.143690980  nElectrons: 342.000000
SCF: Cycle: 16   F: -677.672235643819363   dF: -1.967e-02   |Residual|: 5.146e-02   |deigs|: 1.826e-03  t[s]:    437.11
	FillingsUpdate:  mu: -0.145053507  nElectrons: 342.000000
SCF: Cycle: 17   F: -677.678865595848606   dF: -6.630e-03   |Residual|: 3.229e-02   |deigs|: 1.578e-03  t[s]:    440.11
	FillingsUpdate:  mu: -0.146644497  nElectrons: 342.000000
SCF: Cycle: 18   F: -677.681757036141789   dF: -2.891e-03   |Residual|: 6.509e-03   |deigs|: 1.806e-03  t[s]:    443.08
	FillingsUpdate:  mu: -0.148071720  nElectrons: 342.000000
SCF: Cycle: 19   F: -677.679076247652688   dF: +2.681e-03   |Residual|: 3.380e-02   |deigs|: 1.792e-03  t[s]:    446.08
	FillingsUpdate:  mu: -0.149164287  nElectrons: 342.000000
SCF: Cycle: 20   F: -677.680066566770165   dF: -9.903e-04   |Residual|: 2.753e-02   |deigs|: 9.264e-04  t[s]:    449.05
	FillingsUpdate:  mu: -0.150957654  nElectrons: 342.000000
SCF: Cycle: 21   F: -677.681620952711910   dF: -1.554e-03   |Residual|: 1.687e-02   |deigs|: 1.416e-03  t[s]:    451.98
	FillingsUpdate:  mu: -0.152725305  nElectrons: 342.000000
SCF: Cycle: 22   F: -677.682588257614157   dF: -9.673e-04   |Residual|: 5.195e-03   |deigs|: 1.226e-03  t[s]:    454.89
	FillingsUpdate:  mu: -0.153052065  nElectrons: 342.000000
SCF: Cycle: 23   F: -677.682632629395243   dF: -4.437e-05   |Residual|: 2.847e-03   |deigs|: 3.841e-04  t[s]:    457.85
	FillingsUpdate:  mu: -0.153595854  nElectrons: 342.000000
SCF: Cycle: 24   F: -677.682661344616918   dF: -2.872e-05   |Residual|: 1.032e-03   |deigs|: 8.142e-04  t[s]:    460.77
	FillingsUpdate:  mu: -0.154048670  nElectrons: 342.000000
SCF: Cycle: 25   F: -677.682662058940878   dF: -7.143e-07   |Residual|: 7.582e-04   |deigs|: 6.623e-04  t[s]:    463.71
	FillingsUpdate:  mu: -0.154502050  nElectrons: 342.000000
SCF: Cycle: 26   F: -677.682661360020347   dF: +6.989e-07   |Residual|: 7.184e-04   |deigs|: 5.329e-04  t[s]:    466.69
	FillingsUpdate:  mu: -0.154843145  nElectrons: 342.000000
SCF: Cycle: 27   F: -677.682662321064186   dF: -9.610e-07   |Residual|: 5.203e-04   |deigs|: 3.934e-04  t[s]:    469.66
	FillingsUpdate:  mu: -0.155195291  nElectrons: 342.000000
SCF: Cycle: 28   F: -677.682664643366138   dF: -2.322e-06   |Residual|: 5.684e-04   |deigs|: 6.341e-04  t[s]:    472.59
	FillingsUpdate:  mu: -0.155585761  nElectrons: 342.000000
SCF: Cycle: 29   F: -677.682667516319952   dF: -2.873e-06   |Residual|: 4.347e-04   |deigs|: 6.517e-04  t[s]:    475.53
	FillingsUpdate:  mu: -0.155982618  nElectrons: 342.000000
SCF: Cycle: 30   F: -677.682668028485637   dF: -5.122e-07   |Residual|: 3.843e-04   |deigs|: 4.700e-04  t[s]:    478.44
	FillingsUpdate:  mu: -0.156431968  nElectrons: 342.000000
SCF: Cycle: 31   F: -677.682668210240422   dF: -1.818e-07   |Residual|: 3.107e-04   |deigs|: 4.751e-04  t[s]:    481.37
	FillingsUpdate:  mu: -0.156636818  nElectrons: 342.000000
SCF: Cycle: 32   F: -677.682668661559433   dF: -4.513e-07   |Residual|: 1.817e-04   |deigs|: 3.794e-04  t[s]:    484.35
	FillingsUpdate:  mu: -0.156734199  nElectrons: 342.000000
SCF: Cycle: 33   F: -677.682668842616295   dF: -1.811e-07   |Residual|: 1.409e-04   |deigs|: 2.242e-04  t[s]:    487.29
	FillingsUpdate:  mu: -0.156788179  nElectrons: 342.000000
SCF: Cycle: 34   F: -677.682668749409231   dF: +9.321e-08   |Residual|: 2.415e-04   |deigs|: 1.583e-04  t[s]:    490.24
	FillingsUpdate:  mu: -0.156843229  nElectrons: 342.000000
SCF: Cycle: 35   F: -677.682668862676564   dF: -1.133e-07   |Residual|: 2.132e-04   |deigs|: 1.363e-04  t[s]:    493.19
	FillingsUpdate:  mu: -0.156882325  nElectrons: 342.000000
SCF: Cycle: 36   F: -677.682668996686971   dF: -1.340e-07   |Residual|: 7.098e-05   |deigs|: 1.829e-04  t[s]:    496.09
	FillingsUpdate:  mu: -0.156941975  nElectrons: 342.000000
SCF: Cycle: 37   F: -677.682668996116490   dF: +5.705e-10   |Residual|: 8.057e-05   |deigs|: 1.239e-04  t[s]:    499.01
	FillingsUpdate:  mu: -0.156978209  nElectrons: 342.000000
SCF: Cycle: 38   F: -677.682669008281323   dF: -1.216e-08   |Residual|: 5.123e-05   |deigs|: 1.285e-04  t[s]:    502.01
	FillingsUpdate:  mu: -0.156995013  nElectrons: 342.000000
SCF: Cycle: 39   F: -677.682669015227134   dF: -6.946e-09   |Residual|: 4.604e-05   |deigs|: 9.250e-05  t[s]:    504.96
	FillingsUpdate:  mu: -0.157001084  nElectrons: 342.000000
SCF: Cycle: 40   F: -677.682669029647514   dF: -1.442e-08   |Residual|: 2.580e-05   |deigs|: 5.131e-05  t[s]:    507.90
	FillingsUpdate:  mu: -0.156992978  nElectrons: 342.000000
SCF: Cycle: 41   F: -677.682669036000334   dF: -6.353e-09   |Residual|: 1.490e-05   |deigs|: 8.896e-05  t[s]:    510.84
	FillingsUpdate:  mu: -0.156982996  nElectrons: 342.000000
SCF: Cycle: 42   F: -677.682669037221785   dF: -1.221e-09   |Residual|: 2.461e-05   |deigs|: 1.041e-04  t[s]:    513.82
SCF: Converged (|Delta E|<1.000000e-08 for 2 iters).

Setting wave functions to eigenvectors of Hamiltonian

# Ionic positions in cartesian coordinates:
ion C   0.000000000000000   0.000000000000000   1.000007321400000 0
ion C  -2.333835447300000   4.042302545699999   1.000007321400000 0
ion C  11.669120544600000  20.211531625799999   1.000007321400000 0
ion C   4.667689791900001   0.000000000000000   1.000007321400000 0
ion C  23.338297781100000   0.000000000000000   1.000007321400000 0
ion C   2.333816549999999   4.042302545699999   1.000007321400000 0
ion C -11.669158339200003  20.211531625799999   1.000007321400000 0
ion C  -4.667670894600000   8.084623988700001   1.000007321400000 0
ion C   9.335303994599997  16.169229080099999   1.000007321400000 0
ion C   9.335322891900001   0.000000000000000   1.000007321400000 0
ion C  18.670626886499999   0.000000000000000   1.000007321400000 0
ion C  -9.335322891900001  16.169229080099999   1.000007321400000 0
ion C  -7.001487444600000  12.126907637100000   1.000007321400000 0
ion C  14.002993786499999   0.000000000000000   1.000007321400000 0
ion C   0.000000000000000   8.084623988700001   1.000007321400000 0
ion C   7.001487444599997  20.211531625799999   1.000007321400000 0
ion C  -7.001487444600003  20.211531625799999   1.000007321400000 0
ion C  -2.333816549999999  12.126907637100000   1.000007321400000 0
ion C   4.667670894600002  16.169229080099999   1.000007321400000 0
ion C  -2.333816550000000  20.211531625799999   1.000007321400000 0
ion C   2.333816550000000  20.211531625799999   1.000007321400000 0
ion C  -4.667651997299997  16.169229080099999   1.000007321400000 0
ion C   7.001487444600000   4.042302545699999   1.000007321400000 0
ion C  21.004424539199999   4.042302545699999   1.000007321400000 0
ion C  14.002955991899999  16.169229080099999   1.000007321400000 0
ion C   0.000000000000000  16.169229080099999   1.000007321400000 0
ion C  11.669120544600000   4.042302545699999   1.000007321400000 0
ion C  18.670607989199997   8.084623988700001   1.000007321400000 0
ion C  11.669120544599998  12.126907637100000   1.000007321400000 0
ion C  16.336791439199999  12.126907637100000   1.000007321400000 0
ion C  16.336791439199999   4.042302545699999   1.000007321400000 0
ion C   9.335303994599997   8.084623988700001   1.000007321400000 0
ion C  14.002955991899999   8.084623988700001   1.000007321400000 0
ion C   0.000000000000000   2.694868363800000   1.000007321400000 0
ion C  11.669120544600000  22.906399989600001   1.000007321400000 0
ion C -11.669120544600000  22.906399989600001   1.000007321400000 0
ion C  -2.333816550000000   6.737170909500000   1.000007321400000 0
ion C   9.335303994599995  18.864097443900000   1.000007321400000 0
ion C  -7.001487444600000  22.906399989600001   1.000007321400000 0
ion C   7.001487444600000  22.906399989600001   1.000007321400000 0
ion C   2.333816550000000   6.737170909500000   1.000007321400000 0
ion C  -9.335303994599998  18.864097443900000   1.000007321400000 0
ion C  -4.667670894599998  10.779473455200000   1.000007321400000 0
ion C  -2.333816550000000  22.906399989600001   1.000007321400000 0
ion C   2.333816550000000  22.906399989600001   1.000007321400000 0
ion C  -7.001487444600003  14.821794898200000   1.000007321400000 0
ion C   4.667670894600000   2.694868363800000   1.000007321400000 0
ion C  23.338259986499999   2.694868363800000   1.000007321400000 0
ion C  14.002974889199999  18.864097443900000   1.000007321400000 0
ion C   0.000000000000000  10.779473455200000   1.000007321400000 0
ion C   4.667670894600001  18.864097443900000   1.000007321400000 0
ion C  -4.667633100000002  18.864097443900000   1.000007321400000 0
ion C  -2.333816550000002  14.821794898200000   1.000007321400000 0
ion C   2.333816549999996  14.821794898200000   1.000007321400000 0
ion C  -0.000000000000004  18.864097443900000   1.000007321400000 0
ion C   9.335303994599998   2.694868363800000   1.000007321400000 0
ion C  21.004424539199999   6.737170909500000   1.000007321400000 0
ion C  11.669120544600000  14.821794898200000   1.000007321400000 0
ion C  16.336791439199999  14.821794898200000   1.000007321400000 0
ion C  18.670607989199997   2.694868363800000   1.000007321400000 0
ion C   7.001487444600001   6.737170909500000   1.000007321400000 0
ion C  14.002955991899999   2.694868363800000   1.000007321400000 0
ion C  18.670607989200004  10.779473455200000   1.000007321400000 0
ion C  11.669120544599998   6.737170909500000   1.000007321400000 0
ion C  16.336791439199999   6.737170909500000   1.000007321400000 0
ion C  14.002955991899999  10.779473455200000   1.000007321400000 0
ion N   4.667670894599999   8.084623988700001   1.000007321400000 0
ion N   2.333816549999999  12.126907637100000   1.000007321400000 0
ion N   7.001487444599997  14.821794898200000   1.000007321400000 0
ion N   9.335303994599997  10.779473455200000   1.000007321400000 0
ion Fe   5.837111407799997  11.454314935499999   1.000007321400000 0
ion S   3.937367244344236  12.802017689545419   5.142811943612377 1
ion S   5.303691638462781  13.291220783376335   8.506781902721679 1
ion S   7.400985830848485  10.021646394285980   9.359325569941555 1
ion S  10.374659486893480   9.791949989061584   7.063959292712676 1
ion Na   6.082616228535390   8.265503309142499   5.208042753667770 1
ion Na   9.073526832054929  14.308900572084736   5.218455455729632 1

# Forces in Cartesian coordinates:
force C   0.004349716750926  -0.000297594009281  -0.000013070825024 0
force C   0.001524896947797  -0.001084711292212  -0.000088955426564 0
force C   0.003712844613849  -0.001493545268181   0.000111887033133 0
force C   0.001551489356963   0.002990931490862   0.000034794474317 0
force C   0.002253065814773  -0.000051936195834  -0.000021585352543 0
force C   0.004047641753379   0.002517923898093  -0.000268712891052 0
force C   0.000870332283977  -0.000038780528553   0.000006882359358 0
force C  -0.000464699782506   0.002001633100246  -0.000048336321266 0
force C  -0.033435490848387  -0.007900815130618  -0.009368568868474 0
force C  -0.001305791802215   0.000037212989349  -0.000009221058978 0
force C  -0.000882528385400   0.000116375388360  -0.000037620424953 0
force C   0.000413937036935   0.001532247097764  -0.000036027503818 0
force C   0.001924264430336   0.003516210746308  -0.000027572816435 0
force C  -0.000973973940989  -0.000271883244105  -0.000003812311881 0
force C   0.011288761052113   0.006789749694683   0.000627274006017 0
force C   0.002636398174597   0.003114441698559  -0.000085786956833 0
force C   0.001551071641979   0.000747801219546  -0.000002074649078 0
force C   0.005069596774714   0.003164999857503   0.000542249538270 0
force C   0.028466759404023   0.014456649865050  -0.005370000069972 0
force C   0.000078236457929  -0.000810864746053  -0.000043359050173 0
force C  -0.003578866232124   0.000960000817214   0.000134301303728 0
force C   0.002529325946503  -0.000084644326546  -0.000026048800989 0
force C   0.006132187684451   0.002801877618612   0.000144044508384 0
force C   0.001508101502423   0.001008132615736  -0.000013709141967 0
force C   0.001863069430530   0.000862688224766   0.000501946381567 0
force C   0.007186487831537   0.001275982039216  -0.001228267572484 0
force C  -0.000822815160818  -0.001246631460515  -0.000374345129214 0
force C   0.000968347767467   0.002424733049930   0.000005328488320 0
force C  -0.026391672679057  -0.024599706442105  -0.002778085587588 0
force C  -0.000677968596978   0.003628471631985  -0.000164540379136 0
force C  -0.001198168028675  -0.000166887043399   0.000008559132021 0
force C   0.024125997380404   0.020051290755256  -0.002062251843030 0
force C   0.003023686127439   0.000665911570206  -0.000130384135934 0
force C  -0.003980806851048   0.002187002685086  -0.000006631335257 0
force C  -0.004247140065323   0.000384421588988   0.000014144278564 0
force C  -0.002788220202585  -0.000211734912896  -0.000025823040648 0
force C   0.001397116736815   0.000756884617643   0.000144588403032 0
force C  -0.004701234902734   0.000915332880858   0.000679916783039 0
force C   0.000942352394680   0.000316573858141  -0.000044375755777 0
force C  -0.000818948592353  -0.002736871222273  -0.000026179492832 0
force C   0.028031513722924   0.011316089091422  -0.001015169817271 0
force C  -0.001525402789408  -0.001439749244560  -0.000024655202927 0
force C   0.000019280550678  -0.004340473730531   0.000011769683081 0
force C   0.000938545262279   0.000297160423853  -0.000023051178225 0
force C   0.001001986145243  -0.000847615216453  -0.000085162545284 0
force C  -0.000760398041804  -0.002081511990399   0.000006162429102 0
force C  -0.002688203045787  -0.004149100299090  -0.000199091250490 0
force C  -0.000798497124902   0.000292363988332   0.000001595065159 0
force C  -0.000944740429945   0.000960001063657  -0.000252710160973 0
force C   0.027187043114386   0.022243432272211  -0.002366805923618 0
force C  -0.005336555326386  -0.007864490711836  -0.000722671752840 0
force C   0.000478643457521   0.000029908864223  -0.000023572902859 0
force C  -0.002597549439946  -0.001183136467501   0.000149979553782 0
force C  -0.026991745249551  -0.016217167086885  -0.009403563351837 0
force C   0.001238381704706   0.002567044726105   0.000056731369696 0
force C   0.002858265274211  -0.000810046683437   0.000192010191062 0
force C   0.000215751771775  -0.000870434938348  -0.000026043896780 0
force C  -0.008855554451719  -0.007970624527959  -0.001304154410278 0
force C  -0.000271435266791  -0.001804660591352  -0.000085402178478 0
force C  -0.001094904241229  -0.001180541043792  -0.000024581178105 0
force C  -0.021795879488612  -0.014239523879261  -0.009980184341884 0
force C   0.000820232462895   0.000964482162242   0.000051771995140 0
force C  -0.001605273261592  -0.003991161480200   0.000056312766104 0
force C  -0.006321781859912  -0.003105197184789  -0.000731307953454 0
force C  -0.003201857901242   0.000112398801784  -0.000057732908478 0
force C  -0.003135817528180  -0.003001496983108   0.000032905366195 0
force N   0.022921144393492  -0.027797306464565  -0.008841068402989 0
force N  -0.024946720768328   0.036236839376280  -0.028160505940036 0
force N  -0.023342435057838   0.033871150379563  -0.016164468989426 0
force N   0.011085828933206  -0.037189781082979  -0.006670586184799 0
force Fe  -0.001052791113486   0.014179469566605   0.023357438899619 0
force S  -0.025652145242093  -0.015113442712203  -0.011714207954110 1
force S   0.020566930164809   0.014568156710583   0.044213248920951 1
force S  -0.006060643141624  -0.004185704021386   0.039782341155705 1
force S   0.022544900277509  -0.000685960018499  -0.003097287112149 1
force Na  -0.008034830719027  -0.016484547184634   0.003224436555664 1
force Na   0.004456769504916   0.000920504082300   0.008591822554529 1

# Energy components:
   Eewald =    -1406.7335798983503992
       EH =     -876.0542599507991781
     Eloc =     1539.0665473962205851
      Enl =      -58.7728126559231896
      Exc =     -176.4115751010076281
 Exc_core =       10.4335792392239206
       KE =      290.8725788896261975
-------------------------------------
     Etot =     -677.5995220810094679
       TS =        0.0831469562123699
-------------------------------------
        F =     -677.6826690372217854

IonicMinimize: Iter:   1  F: -677.682669037221785  |grad|_K:  1.857e-02  alpha:  8.254e+00  linmin: -6.729e-02  t[s]:    514.92

#--- Lowdin population analysis ---
# oxidation-state C +0.044 +0.036 +0.033 +0.035 +0.038 +0.017 +0.036 +0.036 +0.075 +0.040 +0.040 +0.039 +0.046 +0.042 +0.007 +0.042 +0.044 +0.029 +0.129 +0.042 +0.035 +0.038 +0.020 +0.047 +0.042 +0.038 +0.037 +0.041 +0.120 +0.039 +0.040 +0.109 +0.048 +0.037 +0.043 +0.038 +0.051 +0.011 +0.039 +0.036 +0.126 +0.047 +0.041 +0.042 +0.041 +0.039 +0.037 +0.038 +0.030 +0.149 +0.031 +0.040 +0.051 +0.131 +0.038 +0.033 +0.039 -0.039 +0.034 +0.045 +0.059 +0.042 +0.046 +0.040 +0.040 +0.027
# oxidation-state N -0.183 -0.133 -0.166 -0.147
# oxidation-state Fe -0.041
# oxidation-state S -0.119 +0.064 +0.052 -0.444
# oxidation-state Na +0.780 +0.781


-------- Electronic minimization -----------
Will mix electronic density at each iteration.
	FillingsUpdate:  mu: -0.156982996  nElectrons: 342.000000
	FillingsUpdate:  mu: -0.127921782  nElectrons: 342.000000
SCF: Cycle:  0   F: -675.991268779232428   dF: +1.509e+00   |Residual|: 6.182e-01   |deigs|: 2.259e-03  t[s]:    524.30
	FillingsUpdate:  mu: -0.165544335  nElectrons: 342.000000
SCF: Cycle:  1   F: -669.520260989504095   dF: +6.471e+00   |Residual|: 1.966e+00   |deigs|: 4.688e-02  t[s]:    531.15
	FillingsUpdate:  mu: -0.153506986  nElectrons: 342.000000
SCF: Cycle:  2   F: -676.000590952652374   dF: -6.480e+00   |Residual|: 7.833e-01   |deigs|: 3.355e-02  t[s]:    534.62
	FillingsUpdate:  mu: -0.140735470  nElectrons: 342.000000
SCF: Cycle:  3   F: -677.555504285301595   dF: -1.555e+00   |Residual|: 2.114e-01   |deigs|: 1.144e-02  t[s]:    538.04
	FillingsUpdate:  mu: -0.144347861  nElectrons: 342.000000
SCF: Cycle:  4   F: -677.681815575863084   dF: -1.263e-01   |Residual|: 5.367e-02   |deigs|: 1.515e-03  t[s]:    541.47
	FillingsUpdate:  mu: -0.146588697  nElectrons: 342.000000
SCF: Cycle:  5   F: -677.678003430283752   dF: +3.812e-03   |Residual|: 6.044e-02   |deigs|: 1.223e-03  t[s]:    544.91
	FillingsUpdate:  mu: -0.146477711  nElectrons: 342.000000
SCF: Cycle:  6   F: -677.689331567496538   dF: -1.133e-02   |Residual|: 1.127e-02   |deigs|: 9.394e-04  t[s]:    548.27
	FillingsUpdate:  mu: -0.147194611  nElectrons: 342.000000
SCF: Cycle:  7   F: -677.689539251203428   dF: -2.077e-04   |Residual|: 1.766e-02   |deigs|: 6.501e-04  t[s]:    551.20
	FillingsUpdate:  mu: -0.147586675  nElectrons: 342.000000
SCF: Cycle:  8   F: -677.688078031934992   dF: +1.461e-03   |Residual|: 2.958e-02   |deigs|: 1.289e-03  t[s]:    554.19
	FillingsUpdate:  mu: -0.148971062  nElectrons: 342.000000
SCF: Cycle:  9   F: -677.691662806414456   dF: -3.585e-03   |Residual|: 5.412e-03   |deigs|: 1.077e-03  t[s]:    557.11
	FillingsUpdate:  mu: -0.150150191  nElectrons: 342.000000
SCF: Cycle: 10   F: -677.691909123617165   dF: -2.463e-04   |Residual|: 5.603e-03   |deigs|: 1.237e-03  t[s]:    560.08
	FillingsUpdate:  mu: -0.150967461  nElectrons: 342.000000
SCF: Cycle: 11   F: -677.692040569610640   dF: -1.314e-04   |Residual|: 7.105e-03   |deigs|: 9.018e-04  t[s]:    563.06
	FillingsUpdate:  mu: -0.151619105  nElectrons: 342.000000
SCF: Cycle: 12   F: -677.692213035943269   dF: -1.725e-04   |Residual|: 2.807e-03   |deigs|: 8.911e-04  t[s]:    566.01
	FillingsUpdate:  mu: -0.152419347  nElectrons: 342.000000
SCF: Cycle: 13   F: -677.692277455168210   dF: -6.442e-05   |Residual|: 2.361e-03   |deigs|: 8.826e-04  t[s]:    569.01
	FillingsUpdate:  mu: -0.153360835  nElectrons: 342.000000
SCF: Cycle: 14   F: -677.692317454584554   dF: -4.000e-05   |Residual|: 1.892e-03   |deigs|: 9.484e-04  t[s]:    571.92
	FillingsUpdate:  mu: -0.154207496  nElectrons: 342.000000
SCF: Cycle: 15   F: -677.692337782439040   dF: -2.033e-05   |Residual|: 1.231e-03   |deigs|: 7.157e-04  t[s]:    574.86
	FillingsUpdate:  mu: -0.154932677  nElectrons: 342.000000
SCF: Cycle: 16   F: -677.692341000628971   dF: -3.218e-06   |Residual|: 9.365e-04   |deigs|: 6.541e-04  t[s]:    577.81
	FillingsUpdate:  mu: -0.155420733  nElectrons: 342.000000
SCF: Cycle: 17   F: -677.692341406232458   dF: -4.056e-07   |Residual|: 5.833e-04   |deigs|: 5.702e-04  t[s]:    580.78
	FillingsUpdate:  mu: -0.155813710  nElectrons: 342.000000
SCF: Cycle: 18   F: -677.692340664132871   dF: +7.421e-07   |Residual|: 4.713e-04   |deigs|: 4.484e-04  t[s]:    583.75
	FillingsUpdate:  mu: -0.156078766  nElectrons: 342.000000
SCF: Cycle: 19   F: -677.692340552234782   dF: +1.119e-07   |Residual|: 4.519e-04   |deigs|: 2.935e-04  t[s]:    586.75
	FillingsUpdate:  mu: -0.156293163  nElectrons: 342.000000
SCF: Cycle: 20   F: -677.692341792980301   dF: -1.241e-06   |Residual|: 2.996e-04   |deigs|: 2.736e-04  t[s]:    589.68
	FillingsUpdate:  mu: -0.156452762  nElectrons: 342.000000
SCF: Cycle: 21   F: -677.692342698262564   dF: -9.053e-07   |Residual|: 2.992e-04   |deigs|: 2.820e-04  t[s]:    592.64
	FillingsUpdate:  mu: -0.156729345  nElectrons: 342.000000
SCF: Cycle: 22   F: -677.692343406329769   dF: -7.081e-07   |Residual|: 3.925e-04   |deigs|: 4.102e-04  t[s]:    595.56
	FillingsUpdate:  mu: -0.156972812  nElectrons: 342.000000
SCF: Cycle: 23   F: -677.692343522232250   dF: -1.159e-07   |Residual|: 4.423e-04   |deigs|: 2.984e-04  t[s]:    598.49
	FillingsUpdate:  mu: -0.157112425  nElectrons: 342.000000
SCF: Cycle: 24   F: -677.692343992009683   dF: -4.698e-07   |Residual|: 2.819e-04   |deigs|: 1.676e-04  t[s]:    601.48
	FillingsUpdate:  mu: -0.157234517  nElectrons: 342.000000
SCF: Cycle: 25   F: -677.692344230447134   dF: -2.384e-07   |Residual|: 1.362e-04   |deigs|: 1.498e-04  t[s]:    604.46
	FillingsUpdate:  mu: -0.157288204  nElectrons: 342.000000
SCF: Cycle: 26   F: -677.692344341474836   dF: -1.110e-07   |Residual|: 1.733e-04   |deigs|: 1.371e-04  t[s]:    607.38
	FillingsUpdate:  mu: -0.157327214  nElectrons: 342.000000
SCF: Cycle: 27   F: -677.692344432083019   dF: -9.061e-08   |Residual|: 1.381e-04   |deigs|: 1.884e-04  t[s]:    610.36
	FillingsUpdate:  mu: -0.157342864  nElectrons: 342.000000
SCF: Cycle: 28   F: -677.692344498492730   dF: -6.641e-08   |Residual|: 8.463e-05   |deigs|: 1.341e-04  t[s]:    613.32
	FillingsUpdate:  mu: -0.157349121  nElectrons: 342.000000
[...]
force N  -0.020282804636968   0.040688491556690  -0.013744302429711 0
force N  -0.024303388405468   0.036307735747818  -0.011483481105130 0
force N   0.015607983457456  -0.037254393446983  -0.011043632104883 0
force Fe   0.001911347519606   0.000523597999815   0.045259741589136 0
force S  -0.000129828318434  -0.000124398354226  -0.000297392448923 1
force S   0.000217312984115   0.000120407359101   0.000125022016125 1
force S   0.000190088164073  -0.000233958122955   0.000135164633885 1
force S  -0.000201676748776   0.000211748882362   0.000148969883215 1
force Na   0.000093490792584  -0.000058667669236  -0.000064618472463 1
force Na   0.000065291636851  -0.000065720363974  -0.000070983921586 1

# Energy components:
   Eewald =    -1487.5225808134557610
       EH =     -955.9347031565787347
     Eloc =     1699.9613940669125896
      Enl =      -58.7489227441469950
      Exc =     -176.2215324838425659
 Exc_core =       10.4335678319007013
       KE =      290.3591691367200269
-------------------------------------
     Etot =     -677.6736081624906092
       TS =        0.0729334119702129
-------------------------------------
        F =     -677.7465415744608208

IonicMinimize: Iter:  87  F: -677.746541574460821  |grad|_K:  1.572e-04  alpha:  1.200e+01  linmin: -1.795e-04  t[s]:  13456.27

#--- Lowdin population analysis ---
# oxidation-state C +0.043 +0.035 +0.033 +0.033 +0.038 +0.022 +0.033 +0.035 +0.139 +0.035 +0.039 +0.028 +0.042 +0.039 +0.010 +0.048 +0.041 +0.028 +0.130 +0.039 +0.035 +0.034 +0.011 +0.046 +0.007 +0.037 +0.020 +0.037 +0.101 +0.004 +0.037 +0.081 +0.040 +0.037 +0.043 +0.035 +0.051 +0.024 +0.035 +0.036 +0.144 +0.042 +0.038 +0.039 +0.040 +0.035 +0.038 +0.038 +0.023 +0.150 +0.036 +0.038 +0.050 +0.132 +0.036 +0.019 +0.038 -0.037 -0.002 +0.044 +0.083 +0.038 +0.039 +0.013 +0.037 -0.008
# oxidation-state N -0.130 -0.118 -0.121 -0.135
# oxidation-state Fe -0.005
# oxidation-state S -0.062 +0.018 +0.048 -0.520
# oxidation-state Na +0.781 +0.792


-------- Electronic minimization -----------
Will mix electronic density at each iteration.
	FillingsUpdate:  mu: -0.152598205  nElectrons: 342.000000
	FillingsUpdate:  mu: -0.151369159  nElectrons: 342.000000
SCF: Cycle:  0   F: -677.743704877461937   dF: -4.629e-03   |Residual|: 4.233e-02   |deigs|: 9.366e-05  t[s]:  13461.03
	FillingsUpdate:  mu: -0.150084055  nElectrons: 342.000000
SCF: Cycle:  1   F: -677.728038781680539   dF: +1.567e-02   |Residual|: 7.846e-02   |deigs|: 8.338e-04  t[s]:  13464.40
	FillingsUpdate:  mu: -0.152392315  nElectrons: 342.000000
SCF: Cycle:  2   F: -677.730204182448347   dF: -2.165e-03   |Residual|: 7.386e-02   |deigs|: 1.321e-03  t[s]:  13467.88
	FillingsUpdate:  mu: -0.151416043  nElectrons: 342.000000
SCF: Cycle:  3   F: -677.746398637035327   dF: -1.619e-02   |Residual|: 6.762e-03   |deigs|: 7.079e-04  t[s]:  13471.29
	FillingsUpdate:  mu: -0.151364575  nElectrons: 342.000000
SCF: Cycle:  4   F: -677.746491139674731   dF: -9.250e-05   |Residual|: 2.516e-03   |deigs|: 9.837e-05  t[s]:  13473.59
	FillingsUpdate:  mu: -0.151400961  nElectrons: 342.000000
SCF: Cycle:  5   F: -677.746504480601402   dF: -1.334e-05   |Residual|: 1.618e-03   |deigs|: 8.124e-05  t[s]:  13475.93
	FillingsUpdate:  mu: -0.151480045  nElectrons: 342.000000
SCF: Cycle:  6   F: -677.746520806106787   dF: -1.633e-05   |Residual|: 1.082e-03   |deigs|: 7.890e-05  t[s]:  13478.22
	FillingsUpdate:  mu: -0.151538407  nElectrons: 342.000000
SCF: Cycle:  7   F: -677.746531505811276   dF: -1.070e-05   |Residual|: 5.706e-04   |deigs|: 1.066e-04  t[s]:  13480.46
	FillingsUpdate:  mu: -0.151622953  nElectrons: 342.000000
SCF: Cycle:  8   F: -677.746536976584139   dF: -5.471e-06   |Residual|: 4.662e-04   |deigs|: 1.203e-04  t[s]:  13482.73
	FillingsUpdate:  mu: -0.151731595  nElectrons: 342.000000
SCF: Cycle:  9   F: -677.746539520314286   dF: -2.544e-06   |Residual|: 6.176e-04   |deigs|: 1.268e-04  t[s]:  13485.71
	FillingsUpdate:  mu: -0.151817206  nElectrons: 342.000000
SCF: Cycle: 10   F: -677.746541560991204   dF: -2.041e-06   |Residual|: 3.590e-04   |deigs|: 1.180e-04  t[s]:  13488.68
	FillingsUpdate:  mu: -0.151925301  nElectrons: 342.000000
SCF: Cycle: 11   F: -677.746542363174626   dF: -8.022e-07   |Residual|: 2.523e-04   |deigs|: 1.252e-04  t[s]:  13491.63
	FillingsUpdate:  mu: -0.152008624  nElectrons: 342.000000
SCF: Cycle: 12   F: -677.746542628806310   dF: -2.656e-07   |Residual|: 1.886e-04   |deigs|: 9.817e-05  t[s]:  13494.61
	FillingsUpdate:  mu: -0.152117067  nElectrons: 342.000000
SCF: Cycle: 13   F: -677.746542668707093   dF: -3.990e-08   |Residual|: 1.687e-04   |deigs|: 1.416e-04  t[s]:  13497.55
	FillingsUpdate:  mu: -0.152202854  nElectrons: 342.000000
SCF: Cycle: 14   F: -677.746542734949458   dF: -6.624e-08   |Residual|: 1.119e-04   |deigs|: 1.262e-04  t[s]:  13500.52
	FillingsUpdate:  mu: -0.152318139  nElectrons: 342.000000
SCF: Cycle: 15   F: -677.746542765776212   dF: -3.083e-08   |Residual|: 1.171e-04   |deigs|: 1.837e-04  t[s]:  13503.47
	FillingsUpdate:  mu: -0.152384345  nElectrons: 342.000000
SCF: Cycle: 16   F: -677.746542795762934   dF: -2.999e-08   |Residual|: 1.088e-04   |deigs|: 1.281e-04  t[s]:  13506.38
	FillingsUpdate:  mu: -0.152447002  nElectrons: 342.000000
SCF: Cycle: 17   F: -677.746542833385206   dF: -3.762e-08   |Residual|: 6.201e-05   |deigs|: 1.164e-04  t[s]:  13509.35
	FillingsUpdate:  mu: -0.152500152  nElectrons: 342.000000
SCF: Cycle: 18   F: -677.746542838594564   dF: -5.209e-09   |Residual|: 5.775e-05   |deigs|: 1.082e-04  t[s]:  13512.31
	FillingsUpdate:  mu: -0.152535461  nElectrons: 342.000000
SCF: Cycle: 19   F: -677.746542849802040   dF: -1.121e-08   |Residual|: 3.828e-05   |deigs|: 1.162e-04  t[s]:  13515.29
	FillingsUpdate:  mu: -0.152558665  nElectrons: 342.000000
SCF: Cycle: 20   F: -677.746542858655971   dF: -8.854e-09   |Residual|: 2.786e-05   |deigs|: 7.944e-05  t[s]:  13518.27
	FillingsUpdate:  mu: -0.152573635  nElectrons: 342.000000
SCF: Cycle: 21   F: -677.746542866633490   dF: -7.978e-09   |Residual|: 2.437e-05   |deigs|: 5.300e-05  t[s]:  13521.20
SCF: Converged (|Delta E|<1.000000e-08 for 2 iters).

Setting wave functions to eigenvectors of Hamiltonian

-------- Electronic minimization -----------
Will mix electronic density at each iteration.
	FillingsUpdate:  mu: -0.152573635  nElectrons: 342.000000
	FillingsUpdate:  mu: -0.152573625  nElectrons: 342.000000
SCF: Cycle:  0   F: -677.746539104235808   dF: -4.202e-06   |Residual|: 1.312e-03   |deigs|: 8.494e-06  t[s]:  13525.76
	FillingsUpdate:  mu: -0.152692236  nElectrons: 342.000000
SCF: Cycle:  1   F: -677.746397182049805   dF: +1.419e-04   |Residual|: 6.934e-03   |deigs|: 7.630e-05  t[s]:  13528.02
	FillingsUpdate:  mu: -0.152580300  nElectrons: 342.000000
SCF: Cycle:  2   F: -677.746542786174246   dF: -1.456e-04   |Residual|: 5.243e-04   |deigs|: 7.160e-05  t[s]:  13530.32
	FillingsUpdate:  mu: -0.152586249  nElectrons: 342.000000
SCF: Cycle:  3   F: -677.746543394945888   dF: -6.088e-07   |Residual|: 1.136e-04   |deigs|: 7.458e-06  t[s]:  13532.64
	FillingsUpdate:  mu: -0.152587090  nElectrons: 342.000000
SCF: Cycle:  4   F: -677.746543422206287   dF: -2.726e-08   |Residual|: 5.768e-05   |deigs|: 6.600e-06  t[s]:  13534.89
	FillingsUpdate:  mu: -0.152587282  nElectrons: 342.000000
SCF: Cycle:  5   F: -677.746543427599704   dF: -5.393e-09   |Residual|: 4.240e-05   |deigs|: 8.348e-06  t[s]:  13537.19
	FillingsUpdate:  mu: -0.152588662  nElectrons: 342.000000
SCF: Cycle:  6   F: -677.746543435581771   dF: -7.982e-09   |Residual|: 2.082e-05   |deigs|: 9.912e-06  t[s]:  13540.10
SCF: Converged (|Delta E|<1.000000e-08 for 2 iters).

Setting wave functions to eigenvectors of Hamiltonian

# Ionic positions in cartesian coordinates:
ion C   0.000000000000000   0.000000000000000   1.000007321400000 0
ion C  -2.333835447300000   4.042302545699999   1.000007321400000 0
ion C  11.669120544600000  20.211531625799999   1.000007321400000 0
ion C   4.667689791900001   0.000000000000000   1.000007321400000 0
ion C  23.338297781100000   0.000000000000000   1.000007321400000 0
ion C   2.333816549999999   4.042302545699999   1.000007321400000 0
ion C -11.669158339200003  20.211531625799999   1.000007321400000 0
ion C  -4.667670894600000   8.084623988700001   1.000007321400000 0
ion C   9.335303994599997  16.169229080099999   1.000007321400000 0
ion C   9.335322891900001   0.000000000000000   1.000007321400000 0
ion C  18.670626886499999   0.000000000000000   1.000007321400000 0
ion C  -9.335322891900001  16.169229080099999   1.000007321400000 0
ion C  -7.001487444600000  12.126907637100000   1.000007321400000 0
ion C  14.002993786499999   0.000000000000000   1.000007321400000 0
ion C   0.000000000000000   8.084623988700001   1.000007321400000 0
ion C   7.001487444599997  20.211531625799999   1.000007321400000 0
ion C  -7.001487444600003  20.211531625799999   1.000007321400000 0
ion C  -2.333816549999999  12.126907637100000   1.000007321400000 0
ion C   4.667670894600002  16.169229080099999   1.000007321400000 0
ion C  -2.333816550000000  20.211531625799999   1.000007321400000 0
ion C   2.333816550000000  20.211531625799999   1.000007321400000 0
ion C  -4.667651997299997  16.169229080099999   1.000007321400000 0
ion C   7.001487444600000   4.042302545699999   1.000007321400000 0
ion C  21.004424539199999   4.042302545699999   1.000007321400000 0
ion C  14.002955991899999  16.169229080099999   1.000007321400000 0
ion C   0.000000000000000  16.169229080099999   1.000007321400000 0
ion C  11.669120544600000   4.042302545699999   1.000007321400000 0
ion C  18.670607989199997   8.084623988700001   1.000007321400000 0
ion C  11.669120544599998  12.126907637100000   1.000007321400000 0
ion C  16.336791439199999  12.126907637100000   1.000007321400000 0
ion C  16.336791439199999   4.042302545699999   1.000007321400000 0
ion C   9.335303994599997   8.084623988700001   1.000007321400000 0
ion C  14.002955991899999   8.084623988700001   1.000007321400000 0
ion C   0.000000000000000   2.694868363800000   1.000007321400000 0
ion C  11.669120544600000  22.906399989600001   1.000007321400000 0
ion C -11.669120544600000  22.906399989600001   1.000007321400000 0
ion C  -2.333816550000000   6.737170909500000   1.000007321400000 0
ion C   9.335303994599995  18.864097443900000   1.000007321400000 0
ion C  -7.001487444600000  22.906399989600001   1.000007321400000 0
ion C   7.001487444600000  22.906399989600001   1.000007321400000 0
ion C   2.333816550000000   6.737170909500000   1.000007321400000 0
ion C  -9.335303994599998  18.864097443900000   1.000007321400000 0
ion C  -4.667670894599998  10.779473455200000   1.000007321400000 0
ion C  -2.333816550000000  22.906399989600001   1.000007321400000 0
ion C   2.333816550000000  22.906399989600001   1.000007321400000 0
ion C  -7.001487444600003  14.821794898200000   1.000007321400000 0
ion C   4.667670894600000   2.694868363800000   1.000007321400000 0
ion C  23.338259986499999   2.694868363800000   1.000007321400000 0
ion C  14.002974889199999  18.864097443900000   1.000007321400000 0
ion C   0.000000000000000  10.779473455200000   1.000007321400000 0
ion C   4.667670894600001  18.864097443900000   1.000007321400000 0
ion C  -4.667633100000002  18.864097443900000   1.000007321400000 0
ion C  -2.333816550000002  14.821794898200000   1.000007321400000 0
ion C   2.333816549999996  14.821794898200000   1.000007321400000 0
ion C  -0.000000000000004  18.864097443900000   1.000007321400000 0
ion C   9.335303994599998   2.694868363800000   1.000007321400000 0
ion C  21.004424539199999   6.737170909500000   1.000007321400000 0
ion C  11.669120544600000  14.821794898200000   1.000007321400000 0
ion C  16.336791439199999  14.821794898200000   1.000007321400000 0
ion C  18.670607989199997   2.694868363800000   1.000007321400000 0
ion C   7.001487444600001   6.737170909500000   1.000007321400000 0
ion C  14.002955991899999   2.694868363800000   1.000007321400000 0
ion C  18.670607989200004  10.779473455200000   1.000007321400000 0
ion C  11.669120544599998   6.737170909500000   1.000007321400000 0
ion C  16.336791439199999   6.737170909500000   1.000007321400000 0
ion C  14.002955991899999  10.779473455200000   1.000007321400000 0
ion N   4.667670894599999   8.084623988700001   1.000007321400000 0
ion N   2.333816549999999  12.126907637100000   1.000007321400000 0
ion N   7.001487444599997  14.821794898200000   1.000007321400000 0
ion N   9.335303994599997  10.779473455200000   1.000007321400000 0
ion Fe   5.837111407799997  11.454314935499999   1.000007321400000 0
ion S   5.468204798104988  11.362534507786290   5.336785219362401 1
ion S   8.070808428515150  13.504650156018911   7.430805225604459 1
ion S   9.853203388601671  11.184101881026494  10.093829239225848 1
ion S  12.833201592618561   9.175275240526799   8.508169628990180 1
ion Na   8.687030711533254   7.230359205990412   6.209972494311719 1
ion Na  13.380327782281926  13.410495232840686   5.793200734643123 1

# Forces in Cartesian coordinates:
force C   0.003828591632297  -0.000273244067653  -0.000021364720368 0
force C   0.001131172830479  -0.001110118891153  -0.000000536904294 0
force C   0.003066868736490  -0.001666999670327  -0.000119731504371 0
force C   0.001627959661379   0.002269183825689  -0.000037695597739 0
force C   0.001566143648154  -0.000487536987266   0.000004661285663 0
force C   0.004442084398948   0.001791332876317   0.000299766630031 0
force C   0.000947597588576  -0.000138233502763  -0.000037463459864 0
force C  -0.000937169282813   0.001819576566787   0.000002317636308 0
force C  -0.038261464065965  -0.013892611504974  -0.000066164658346 0
force C  -0.000992028362433  -0.000764512936858   0.000087156811414 0
force C  -0.000829659988107  -0.000130409363158   0.000007101854533 0
force C   0.001960507864946   0.001666566195429   0.000274733943068 0
force C   0.002090913551424   0.002834613196584  -0.000095557588071 0
force C  -0.000506036292410  -0.000591917132322  -0.000047708657271 0
force C   0.010600103203308   0.005717804732728   0.000168819411593 0
force C   0.002401504738495   0.001785763847065  -0.000028373401140 0
force C   0.001831484020524   0.000183743119882   0.000014566552431 0
force C   0.004307122886397   0.004177091053056   0.000389943746895 0
force C   0.031540708723400   0.009195838770861   0.000411170355974 0
force C  -0.000082638551212  -0.000720823695845  -0.000023091815374 0
force C  -0.003155711833522   0.000332341741445  -0.000040349432615 0
force C   0.001902872305466  -0.000079241271444  -0.000003733599381 0
force C   0.005064271752485   0.001997279800676   0.000828689658009 0
force C   0.001332743992073   0.000543161009742  -0.000004997707176 0
force C  -0.000166918580220   0.001394173842683   0.000159419150031 0
force C   0.006793618639375   0.001381976056069   0.000416997821320 0
force C   0.000392510084466  -0.002293481295990  -0.000042996108916 0
force C   0.001407940281408   0.002337842039651  -0.000048785096486 0
force C  -0.031391570545083  -0.024270837729639  -0.001573480591581 0
force C   0.000619927536286   0.002231844106869   0.000298301655958 0
force C  -0.001284191656492  -0.000484244528060  -0.000007157159076 0
force C   0.022416753044846   0.022674167993860   0.000025874705126 0
force C   0.004847767750179  -0.001056806621531  -0.000358129173048 0
force C  -0.003194630644427   0.002412201285962  -0.000007827133230 0
force C  -0.003619295943696   0.000187206300195   0.000008511925426 0
force C  -0.002515584945357   0.000109063923997   0.000035481534383 0
force C   0.002289048919062   0.000931507541595  -0.000001066353971 0
force C  -0.005265456640205  -0.001723500325872   0.000207784328060 0
force C   0.000452178744341   0.000915503909284  -0.000026515791119 0
force C  -0.000614570780082  -0.002060039107441  -0.000019981986466 0
force C   0.033316855608228   0.014596888221003   0.000221850287062 0
force C  -0.001538436423383  -0.000777648024464  -0.000125586498987 0
force C  -0.000172141132326  -0.004159945750656  -0.000022940510844 0
force C   0.000650198016077   0.000089609226586  -0.000032329562807 0
force C   0.000945032886792  -0.000285523878874  -0.000018485688658 0
force C  -0.000427394832761  -0.001342054973537  -0.000067295761235 0
force C  -0.003405244726214  -0.002876256753313  -0.000052298679955 0
force C  -0.000532395530911   0.000696568237242   0.000017443792987 0
force C  -0.001171928464511   0.003003576190194   0.000319738133273 0
force C   0.030926513036043   0.023418528225551   0.000160501794062 0
force C  -0.004691592411528  -0.005882296563428   0.000348473612171 0
force C   0.000352913088060   0.000293187660957   0.000008797983118 0
force C  -0.002439065510696  -0.001800620183667  -0.000056297453782 0
force C  -0.023381727476129  -0.024059115236479   0.000310260290064 0
force C   0.001272083127531   0.002701471480385  -0.000067782561299 0
force C   0.001878700062371  -0.001239831824291   0.000035110093991 0
force C   0.000361480283989  -0.000324077716179   0.000011944023480 0
force C  -0.013253054365334  -0.006117042961903   0.000025223714096 0
force C   0.001608993786845  -0.000536567627377   0.000799517973292 0
force C  -0.000752728192309  -0.001028807396118  -0.000010414176233 0
force C  -0.031568324322141  -0.006842509274312   0.000820392433522 0
force C   0.001322878706368   0.001008880167832   0.000103336136356 0
force C  -0.000049592915568  -0.004710159796372   0.000218521237475 0
force C  -0.004701804691342  -0.002917121178347   0.000193416898098 0
force C  -0.003904200018748   0.000462403847792  -0.000184452327893 0
force C  -0.003550354583532  -0.004344042423315  -0.000446449953415 0
force N   0.024283848065546  -0.033940470674770  -0.011769773454821 0
force N  -0.020261542186935   0.040686505085800  -0.013722627137599 0
force N  -0.024330014716020   0.036294145200419  -0.011469052606860 0
force N   0.015595251976705  -0.037267321623838  -0.011098973245552 0
force Fe   0.001932439147654   0.000460513351630   0.045288213735316 0
force S  -0.000084256407090  -0.000012419007297  -0.000032278913013 1
force S   0.000069667694561  -0.000129994802145   0.000213750136550 1
force S  -0.000036451891718  -0.000051013838846  -0.000006254803048 1
force S  -0.000020568299600   0.000087856738362   0.000212228033327 1
force Na  -0.000029663029047  -0.000090815248163  -0.000074797579205 1
force Na   0.000137699663628  -0.000008267485637  -0.000069517339234 1

# Energy components:
   Eewald =    -1487.8433505684672582
       EH =     -956.2571018089172412
     Eloc =     1700.6049304042471704
      Enl =      -58.7491961717910982
      Exc =     -176.2215002502717311
 Exc_core =       10.4335678128360438
       KE =      290.3590252293625440
-------------------------------------
     Etot =     -677.6736253530016256
       TS =        0.0729180825800968
-------------------------------------
        F =     -677.7465434355817706

IonicMinimize: Iter:  88  F: -677.746543435581771  |grad|_K:  9.760e-05  alpha:  7.588e+00  linmin: -1.206e-04  t[s]:  13541.19
IonicMinimize: Converged (|grad|_K<1.000000e-04).

#--- Lowdin population analysis ---
# oxidation-state C +0.043 +0.035 +0.033 +0.033 +0.038 +0.022 +0.033 +0.035 +0.139 +0.035 +0.039 +0.028 +0.042 +0.039 +0.010 +0.048 +0.041 +0.028 +0.130 +0.039 +0.035 +0.034 +0.011 +0.046 +0.007 +0.037 +0.020 +0.037 +0.101 +0.004 +0.037 +0.081 +0.040 +0.037 +0.043 +0.035 +0.051 +0.024 +0.035 +0.036 +0.144 +0.042 +0.038 +0.039 +0.040 +0.035 +0.038 +0.038 +0.023 +0.150 +0.036 +0.038 +0.050 +0.132 +0.036 +0.019 +0.038 -0.037 -0.001 +0.044 +0.083 +0.038 +0.039 +0.013 +0.037 -0.008
# oxidation-state N -0.130 -0.118 -0.121 -0.135
# oxidation-state Fe -0.006
# oxidation-state S -0.062 +0.017 +0.049 -0.520
# oxidation-state Na +0.781 +0.791


Dumping 'Na2S4@FeN4.fillings' ... done
Dumping 'Na2S4@FeN4.wfns' ... done
Dumping 'Na2S4@FeN4.ionpos' ... done
Dumping 'Na2S4@FeN4.eigenvals' ... done
End date and time: Thu Sep 26 08:44:40 2024  (Duration: 0-3:45:42.90)
Done!
