
*************** JDFTx 1.7.0  ***************

Start date and time: Thu Nov  9 16:56:51 2023
Executable jdftx with command-line: -i Na2S@FeN4.in -o Na2S@FeN4.out
Running on hosts (process indices):  SimSlave (0)
Divided in process groups (process indices):  0 (0)
Resource initialization completed at t[s]:      0.00
Run totals: 1 processes, 2 threads, 0 GPUs


Input parsed successfully to the following command list (including defaults):

basis kpoint-dependent
coords-type Cartesian
core-overlap-check vector
coulomb-interaction Slab 001
coulomb-truncation-embed 0 0 3
davidson-band-ratio 1.1
dump End State
dump-name Na2S@FeN4.$VAR
elec-cutoff 20 100
elec-eigen-algo Davidson
elec-ex-corr gga-PBE
elec-smearing Fermi 0.01
electronic-minimize  \
	dirUpdateScheme      FletcherReeves \
	linminMethod         DirUpdateRecommended \
	nIterations          100 \
	history              15 \
	knormThreshold       0 \
	energyDiffThreshold  1e-08 \
	nEnergyDiff          2 \
	alphaTstart          1 \
	alphaTmin            1e-10 \
	updateTestStepSize   yes \
	alphaTreduceFactor   0.1 \
	alphaTincreaseFactor 3 \
	nAlphaAdjustMax      3 \
	wolfeEnergy          0.0001 \
	wolfeGradient        0.9 \
	fdTest               no
electronic-scf  \
	nIterations	50 \
	energyDiffThreshold	1e-08 \
	residualThreshold	1e-07 \
	mixFraction	0.5 \
	qMetric	0.8 \
	history	10 \
	nEigSteps	2 \
	eigDiffThreshold	1e-08 \
	mixedVariable	Density \
	qKerker	0.8 \
	qKappa	-1 \
	verbose	no \
	mixFractionMag	1.5
exchange-regularization WignerSeitzTruncated
fluid None
fluid-ex-corr lda-TF lda-PZ
fluid-gummel-loop 10 1.000000e-05
fluid-minimize  \
	dirUpdateScheme      PolakRibiere \
	linminMethod         DirUpdateRecommended \
	nIterations          100 \
	history              15 \
	knormThreshold       0 \
	energyDiffThreshold  0 \
	nEnergyDiff          2 \
	alphaTstart          1 \
	alphaTmin            1e-10 \
	updateTestStepSize   yes \
	alphaTreduceFactor   0.1 \
	alphaTincreaseFactor 3 \
	nAlphaAdjustMax      3 \
	wolfeEnergy          0.0001 \
	wolfeGradient        0.9 \
	fdTest               no
fluid-solvent H2O 55.338 ScalarEOS \
	epsBulk 78.4 \
	pMol 0.92466 \
	epsInf 1.77 \
	Pvap 1.06736e-10 \
	sigmaBulk 4.62e-05 \
	Rvdw 2.61727 \
	Res 1.42 \
	tauNuc 343133 \
	poleEl 15 7 1
forces-output-coords Positions
ion C  28.005857181630002   0.000000000000000   1.000001652210000 1
ion C  25.672025513790000   4.042310104620000   1.000001652210000 1
ion C  11.669128103519997  20.211535405260001   1.000001652210000 1
ion C   4.667680343250000   0.000000000000000   1.000001652210000 1
ion C  23.338288332449999   0.000000000000000   1.000001652210000 1
ion C   2.333822219190000   4.042310104620000   1.000001652210000 1
ion C  16.336708291080001  20.211535405260001   1.000001652210000 1
ion C  23.338191956219998   8.084622098970000   1.000001652210000 1
ion C   9.335305884329998  16.169223410910003   1.000001652210000 1
ion C   9.335322891900001   0.000000000000000   1.000001652210000 1
ion C  18.670626886499999   0.000000000000000   1.000001652210000 1
ion C  18.670539958919996  16.169223410910003   1.000001652210000 1
ion C  21.004371626759990  12.126913306290001   1.000001652210000 1
ion C  14.002984337850000   0.000000000000000   1.000001652210000 1
ion C   0.000000000000000   8.084622098970000   1.000001652210000 1
ion C   7.001485554869999  20.211535405260001   1.000001652210000 1
ion C  -7.001481775409998  20.211535405260001   1.000001652210000 1
ion C  -2.333822219190001  12.126913306290001   1.000001652210000 1
ion C   4.667663335680000  16.169223410910003   1.000001652210000 1
ion C  -2.333820329460000  20.211535405260001   1.000001652210000 1
ion C   2.333824108920000  20.211535405260001   1.000001652210000 1
ion C  -4.667659556220002  16.169223410910003   1.000001652210000 1
ion C   7.001483665139999   4.042310104620000   1.000001652210000 1
ion C  21.004430208389998   4.042310104620000   1.000001652210000 1
ion C  14.002948432979998  16.169223410910003   1.000001652210000 1
ion C   0.000001889729997  16.169223410910003   1.000001652210000 1
ion C  11.669126213789999   4.042310104620000   1.000001652210000 1
ion C  18.670609878929998   8.084622098970000   1.000001652210000 1
ion C  11.669126213789998  12.126913306290001   1.000001652210000 1
ion C  16.336787659739997  12.126913306290001   1.000001652210000 1
ion C  16.336789549470002   4.042310104620000   1.000001652210000 1
ion C   9.335303994600000   8.084622098970000   1.000001652210000 1
ion C  14.002948432980002   8.084622098970000   1.000001652210000 1
ion C   0.000000000000000   2.694874032990001   1.000001652210000 1
ion C  11.669128103520000  22.906390540950003   1.000001652210000 1
ion C -11.669124324059998  22.906390540950003   1.000001652210000 1
ion C  -2.333822219190000   6.737165240310001   1.000001652210000 1
ion C   9.335305884330001  18.864097443900004   1.000001652210000 1
ion C  -7.001481775409998  22.906390540950003   1.000001652210000 1
ion C   7.001485554869999  22.906390540950003   1.000001652210000 1
ion C   2.333822219189999   6.737165240310001   1.000001652210000 1
ion C  -9.335302104870001  18.864097443900004   1.000001652210000 1
ion C  -4.667661445950000  10.779477234660002   1.000001652210000 1
ion C  -2.333820329460000  22.906390540950003   1.000001652210000 1
ion C   2.333824108920002  22.906390540950003   1.000001652210000 1
ion C  -7.001483665140000  14.821787339280002   1.000001652210000 1
ion C   4.667661445950001   2.694874032990001   1.000001652210000 1
ion C  23.338269435149996   2.694874032990001   1.000001652210000 1
ion C  14.002967330279997  18.864097443900004   1.000001652210000 1
ion C   0.000000000000000  10.779477234660002   1.000001652210000 1
ion C   4.667663335679999  18.864097443900004   1.000001652210000 1
ion C  -4.667640658920000  18.864097443900004   1.000001652210000 1
ion C  -2.333822219190001  14.821787339280002   1.000001652210000 1
ion C   2.333824108919998  14.821787339280002   1.000001652210000 1
ion C   0.000001889729999  18.864097443900004   1.000001652210000 1
ion C   9.335303994599998   2.694874032990001   1.000001652210000 1
ion C  21.004430208389998   6.737165240310001   1.000001652210000 1
ion C  11.669126213790001  14.821787339280002   1.000001652210000 1
ion C  16.336789549469998  14.821787339280002   1.000001652210000 1
ion C  18.670609878929998   2.694874032990001   1.000001652210000 1
ion C   7.001483665139999   6.737165240310001   1.000001652210000 1
ion C  14.002946543249999   2.694874032990001   1.000001652210000 1
ion C  18.670607989199997  10.779477234660002   1.000001652210000 1
ion C  11.669126213789999   6.737165240310001   1.000001652210000 1
ion C  16.336787659739997   6.737165240310001   1.000001652210000 1
ion C  14.002946543250001  10.779477234660002   1.000001652210000 1
ion N   4.667661445950002   8.084622098970000   1.000001652210000 1
ion N   2.333822219190000  12.126913306290001   1.000001652210000 1
ion N   7.001485554869999  14.821787339280002   1.000001652210000 1
ion N   9.335305884330001  10.779477234660002   1.000001652210000 1
ion Fe   5.837109518070000  11.454309266310000   1.000001652210000 1
ion S  10.047443075910000  10.449626752890001   7.578319968180000 1
ion Na   6.043751493569999  11.509387336890002   5.520970917180000 1
ion Na  12.213049089420002  13.980710090340002   9.634663682820001 1
ion-species GBRV/$ID_pbe.uspp
ion-width 0
ionic-minimize  \
	dirUpdateScheme      FletcherReeves \
	linminMethod         DirUpdateRecommended \
	nIterations          200 \
	history              15 \
	knormThreshold       0.0001 \
	energyDiffThreshold  1e-06 \
	nEnergyDiff          2 \
	alphaTstart          1 \
	alphaTmin            1e-10 \
	updateTestStepSize   yes \
	alphaTreduceFactor   0.1 \
	alphaTincreaseFactor 3 \
	nAlphaAdjustMax      3 \
	wolfeEnergy          0.0001 \
	wolfeGradient        0.9 \
	fdTest               no
kpoint   0.000000000000   0.000000000000   0.000000000000  1.00000000000000
kpoint-folding 1 1 1 
latt-move-scale 1 1 1
latt-scale 1 1 1 
lattice Triclinic 28.0058 28.0058 32.1253 90 90 120
lattice-minimize  \
	dirUpdateScheme      L-BFGS \
	linminMethod         DirUpdateRecommended \
	nIterations          0 \
	history              15 \
	knormThreshold       0 \
	energyDiffThreshold  1e-06 \
	nEnergyDiff          2 \
	alphaTstart          1 \
	alphaTmin            1e-10 \
	updateTestStepSize   yes \
	alphaTreduceFactor   0.1 \
	alphaTincreaseFactor 3 \
	nAlphaAdjustMax      3 \
	wolfeEnergy          0.0001 \
	wolfeGradient        0.9 \
	fdTest               no
lcao-params -1 1e-06 0.01
pcm-variant GLSSA13
spintype no-spin
subspace-rotation-factor 1 yes
symmetries automatic
symmetry-threshold 0.0001



---------- Setting up symmetries ----------

Found 24 point-group symmetries of the bravais lattice
Found 1 space-group symmetries with basis
Applied RMS atom displacement 0 bohrs to make symmetries exact.

---------- Initializing the Grid ----------
R = 
[      28.0058     -14.0029            0  ]
[            0      24.2537            0  ]
[            0            0      32.1253  ]
unit cell volume = 21821
G =
[   0.224353    0.12953         -0  ]
[          0   0.259061          0  ]
[          0         -0   0.195584  ]
Minimum fftbox size, Smin = [  128  128  148  ]
Chosen fftbox size, S = [  128  128  150  ]

---------- Initializing tighter grid for wavefunction operations ----------
R = 
[      28.0058     -14.0029            0  ]
[            0      24.2537            0  ]
[            0            0      32.1253  ]
unit cell volume = 21821
G =
[   0.224353    0.12953         -0  ]
[          0   0.259061          0  ]
[          0         -0   0.195584  ]
Minimum fftbox size, Smin = [  116  116  132  ]
Chosen fftbox size, S = [  120  120  140  ]

---------- Exchange Correlation functional ----------
Initalized PBE GGA exchange.
Initalized PBE GGA correlation.

---------- Setting up pseudopotentials ----------
Width of ionic core gaussian charges (only for fluid interactions / plotting) set to 0

Reading pseudopotential file '/home/simslave2427/jdftx_install/build/pseudopotentials/GBRV/c_pbe.uspp':
  Title: C.  Created by USPP 7.3.6 on 3-2-2014
  Reference state energy: -5.406344.  4 valence electrons in orbitals:
    |200>  occupation: 2  eigenvalue: -0.504890
    |210>  occupation: 2  eigenvalue: -0.194356
  lMax: 1  lLocal: 2  QijEcut: 5
  4 projectors sampled on a log grid with 503 points:
    l: 0  eig: -0.504890  rCut: 1.3
    l: 0  eig: 0.000000  rCut: 1.3
    l: 1  eig: -0.194357  rCut: 1.3
    l: 1  eig: 0.000000  rCut: 1.3
  Partial core density with radius 1.1
  Transforming core density to a uniform radial grid of dG=0.02 with 1618 points.
  Transforming local potential to a uniform radial grid of dG=0.02 with 1618 points.
  Transforming nonlocal projectors to a uniform radial grid of dG=0.02 with 432 points.
  Transforming density augmentations to a uniform radial grid of dG=0.02 with 1618 points.
  Transforming atomic orbitals to a uniform radial grid of dG=0.02 with 432 points.
  Core radius for overlap checks: 1.30 bohrs.

Reading pseudopotential file '/home/simslave2427/jdftx_install/build/pseudopotentials/GBRV/n_pbe.uspp':
  Title: N.  Created by USPP 7.3.6 on 3-2-2014
  Reference state energy: -9.763716.  5 valence electrons in orbitals:
    |200>  occupation: 2  eigenvalue: -0.681964
    |210>  occupation: 3  eigenvalue: -0.260726
  lMax: 1  lLocal: 2  QijEcut: 6
  4 projectors sampled on a log grid with 491 points:
    l: 0  eig: -0.681964  rCut: 1.15
    l: 0  eig: 0.000000  rCut: 1.15
    l: 1  eig: -0.260729  rCut: 1.2
    l: 1  eig: 0.500000  rCut: 1.2
  Partial core density with radius 0.8
  Transforming core density to a uniform radial grid of dG=0.02 with 1618 points.
  Transforming local potential to a uniform radial grid of dG=0.02 with 1618 points.
  Transforming nonlocal projectors to a uniform radial grid of dG=0.02 with 432 points.
  Transforming density augmentations to a uniform radial grid of dG=0.02 with 1618 points.
  Transforming atomic orbitals to a uniform radial grid of dG=0.02 with 432 points.
  Core radius for overlap checks: 1.20 bohrs.

Reading pseudopotential file '/home/simslave2427/jdftx_install/build/pseudopotentials/GBRV/fe_pbe.uspp':
  Title: Fe.  Created by USPP 7.3.6 on 15-6-15
  Reference state energy: -124.316937.  16 valence electrons in orbitals:
    |300>  occupation: 2  eigenvalue: -4.008817
    |310>  occupation: 6  eigenvalue: -2.753096
    |320>  occupation: 5  eigenvalue: -0.791264
    |400>  occupation: 2  eigenvalue: -0.516384
    |410>  occupation: 0  eigenvalue: -0.312222
  lMax: 2  lLocal: 3  QijEcut: 6
  6 projectors sampled on a log grid with 607 points:
    l: 0  eig: -4.008819  rCut: 1.55
    l: 0  eig: -0.516386  rCut: 1.55
    l: 1  eig: -2.753096  rCut: 1.55
    l: 1  eig: -0.312226  rCut: 1.55
    l: 2  eig: -0.791264  rCut: 1.65
    l: 2  eig: -0.450000  rCut: 1.65
  Partial core density with radius 0.65
  Transforming core density to a uniform radial grid of dG=0.02 with 1618 points.
  Transforming local potential to a uniform radial grid of dG=0.02 with 1618 points.
  Transforming nonlocal projectors to a uniform radial grid of dG=0.02 with 432 points.
  Transforming density augmentations to a uniform radial grid of dG=0.02 with 1618 points.
  Transforming atomic orbitals to a uniform radial grid of dG=0.02 with 432 points.
  Core radius for overlap checks: 1.65 bohrs.

Reading pseudopotential file '/home/simslave2427/jdftx_install/build/pseudopotentials/GBRV/s_pbe.uspp':
  Title: S.  Created by USPP 7.3.6 on 1-4-15
  Reference state energy: -11.898476.  6 valence electrons in orbitals:
    |300>  occupation: 2  eigenvalue: -0.634167
    |310>  occupation: 4  eigenvalue: -0.257568
  lMax: 2  lLocal: 3  QijEcut: 6
  6 projectors sampled on a log grid with 635 points:
    l: 0  eig: -0.634161  rCut: 1.5
    l: 0  eig: 1.500000  rCut: 1.5
    l: 1  eig: -0.257567  rCut: 1.5
    l: 1  eig: 1.500000  rCut: 1.5
    l: 2  eig: -1.000000  rCut: 1.5
    l: 2  eig: 1.500000  rCut: 1.5
  Partial core density with radius 1.15
  Transforming core density to a uniform radial grid of dG=0.02 with 1618 points.
  Transforming local potential to a uniform radial grid of dG=0.02 with 1618 points.
  Transforming nonlocal projectors to a uniform radial grid of dG=0.02 with 432 points.
  Transforming density augmentations to a uniform radial grid of dG=0.02 with 1618 points.
  Transforming atomic orbitals to a uniform radial grid of dG=0.02 with 432 points.
  Core radius for overlap checks: 1.50 bohrs.

Reading pseudopotential file '/home/simslave2427/jdftx_install/build/pseudopotentials/GBRV/na_pbe.uspp':
  Title: Na.  Created by USPP 7.3.6 on 23-9-15
  Reference state energy: -47.625620.  9 valence electrons in orbitals:
    |200>  occupation: 2  eigenvalue: -2.085638
    |210>  occupation: 6  eigenvalue: -1.053708
    |300>  occupation: 1  eigenvalue: -0.100838
  lMax: 2  lLocal: 0  QijEcut: 6
  5 projectors sampled on a log grid with 657 points:
    l: 0  eig: -2.085640  rCut: 1.37
    l: 0  eig: -0.100839  rCut: 1.37
    l: 1  eig: -1.053708  rCut: 1.47
    l: 1  eig: 0.500000  rCut: 1.47
    l: 2  eig: 0.750000  rCut: 2
  Transforming local potential to a uniform radial grid of dG=0.02 with 1618 points.
  Transforming nonlocal projectors to a uniform radial grid of dG=0.02 with 432 points.
  Transforming density augmentations to a uniform radial grid of dG=0.02 with 1618 points.
  Transforming atomic orbitals to a uniform radial grid of dG=0.02 with 432 points.
  Core radius for overlap checks: 2.00 bohrs.

Initialized 5 species with 74 total atoms.

Folded 1 k-points by 1x1x1 to 1 k-points.

---------- Setting up k-points, bands, fillings ----------
No reducable k-points. 
Computing the number of bands and number of electrons
Calculating initial fillings.
nElectrons: 324.000000   nBands: 307   nStates: 1

----- Setting up reduced wavefunction bases (one per k-point) -----
average nbasis = 93173.000 , ideal nbasis = 93220.781

---------- Setting up coulomb interaction ----------
Setting up double-sized grid for truncated Coulomb potentials:
R = 
[      28.0058     -14.0029            0  ]
[            0      24.2537            0  ]
[            0            0      64.2506  ]
unit cell volume = 43641.9
G =
[   0.224353    0.12953         -0  ]
[          0   0.259061          0  ]
[          0         -0  0.0977919  ]
Chosen fftbox size, S = [  128  128  300  ]
Integer grid location selected as the embedding center:
   Grid: [  0  0  14  ]
   Lattice: [  0  0  0.0933843  ]
   Cartesian: [  0  0  3  ]
Constructing Wigner-Seitz cell: 8 faces (6 quadrilaterals, 2 hexagons)
Range-separation parameter for embedded mesh potentials due to point charges: 0.590105 bohrs.
Initialized slab truncation along lattice direction 001

---------- Setting up 2D ewald sum ----------
Optimum gaussian width for ewald sums = 15.547689 bohr.
Real space sums over 289 unit cells with max indices [  8  8  0  ]
Reciprocal space sums over 81 terms with max indices [  4  4  0  ]

---------- Allocating electronic variables ----------

*************** JDFTx 1.7.0  ***************

Start date and time: Thu Nov  9 17:01:07 2023
Executable jdftx with command-line: -i Na2S@FeN4.in -o Na2S@FeN4.out
Running on hosts (process indices):  SimSlave (0)
Divided in process groups (process indices):  0 (0)
Resource initialization completed at t[s]:      0.00
Run totals: 1 processes, 2 threads, 0 GPUs


Encountered 1 errors while parsing input:


Command 'ion'  with command line:
	ion C 9.33530588433 16.16922341091 1.00000165221 
failed with message:
	Parameter <moveScale|v> must be specified.
The correct usage of this command is described below:
	ion <species-id> <x0> <x1> <x2> [v <vx0> <vx1> <vx2>] <moveScale> [<constraint type>=HyperPlane|Linear|None|Planar <d0> <d1> <d2> [<group> [HyperPlane <d0> ...]]]
Add an atom of species <species-id> at coordinates (<x0>,<x1>,<x2>).

Optionally, for dynamics, specify ion velocity <v0>,<v1>,<v2> after keyword 'v'.

<moveScale> preconditions the motion of this ion (set 0 to hold fixed)

In addition, the ion may be constrained to a line or a plane with line
direction or plane normal equal to (<d0>,<d1>,<d2>) in the coordinate
system selected by command coords-type. Note that the constraints must
be consistent with respect to symmetries (if enabled).

The HyperPlane constraint allows constraining collective motion of many
ions by restricting their motion to a hyperplane with normal specified
by (<d0>,<d1>,<d2>) for all ions specifying a hyperplane constraint.
By default, all hyperplane-constrained ions are included in a single
group; use optional <group> label to specify multiple hyper-planes.
Multiple hyperplane constraints may also be added to each atom,
but this requires an explicit group label for each hyperplane.

Note that when coords-type is lattice, the constraints are in covariant
lattice coordinates (like direction indices) for line constraints, but
contravariant coordinates (like plane indices) for plane constraints.



Input parsing failed with 1 errors (run with -t for command syntax)

End date and time: Thu Nov  9 17:01:07 2023  (Duration: 0-0:00:00.00)
Failed.

*************** JDFTx 1.7.0  ***************

Start date and time: Thu Nov  9 17:01:58 2023
Executable jdftx with command-line: -i Na2S@FeN4.in -o Na2S@FeN4.out
Running on hosts (process indices):  SimSlave (0)
Divided in process groups (process indices):  0 (0)
Resource initialization completed at t[s]:      0.00
Run totals: 1 processes, 2 threads, 0 GPUs


Encountered 1 errors while parsing input:


Command 'ion'  with command line:
	ion C 9.33530588433 16.16922341091 1.00000165221 
failed with message:
	Parameter <moveScale|v> must be specified.
The correct usage of this command is described below:
	ion <species-id> <x0> <x1> <x2> [v <vx0> <vx1> <vx2>] <moveScale> [<constraint type>=HyperPlane|Linear|None|Planar <d0> <d1> <d2> [<group> [HyperPlane <d0> ...]]]
Add an atom of species <species-id> at coordinates (<x0>,<x1>,<x2>).

Optionally, for dynamics, specify ion velocity <v0>,<v1>,<v2> after keyword 'v'.

<moveScale> preconditions the motion of this ion (set 0 to hold fixed)

In addition, the ion may be constrained to a line or a plane with line
direction or plane normal equal to (<d0>,<d1>,<d2>) in the coordinate
system selected by command coords-type. Note that the constraints must
be consistent with respect to symmetries (if enabled).

The HyperPlane constraint allows constraining collective motion of many
ions by restricting their motion to a hyperplane with normal specified
by (<d0>,<d1>,<d2>) for all ions specifying a hyperplane constraint.
By default, all hyperplane-constrained ions are included in a single
group; use optional <group> label to specify multiple hyper-planes.
Multiple hyperplane constraints may also be added to each atom,
but this requires an explicit group label for each hyperplane.

Note that when coords-type is lattice, the constraints are in covariant
lattice coordinates (like direction indices) for line constraints, but
contravariant coordinates (like plane indices) for plane constraints.



Input parsing failed with 1 errors (run with -t for command syntax)

End date and time: Thu Nov  9 17:01:58 2023  (Duration: 0-0:00:00.00)
Failed.

*************** JDFTx 1.7.0  ***************

Start date and time: Thu Nov  9 17:02:42 2023
Executable jdftx with command-line: -i Na2S@FeN4.in -o Na2S@FeN4.out
Running on hosts (process indices):  SimSlave (0)
Divided in process groups (process indices):  0 (0)
Resource initialization completed at t[s]:      0.00
Run totals: 1 processes, 2 threads, 0 GPUs


Input parsed successfully to the following command list (including defaults):

basis kpoint-dependent
coords-type Cartesian
core-overlap-check vector
coulomb-interaction Slab 001
coulomb-truncation-embed 0 0 3
davidson-band-ratio 1.1
dump End State
dump-name Na2S@FeN4.$VAR
elec-cutoff 20 100
elec-eigen-algo Davidson
elec-ex-corr gga-PBE
elec-smearing Fermi 0.01
electronic-minimize  \
	dirUpdateScheme      FletcherReeves \
	linminMethod         DirUpdateRecommended \
	nIterations          100 \
	history              15 \
	knormThreshold       0 \
	energyDiffThreshold  1e-08 \
	nEnergyDiff          2 \
	alphaTstart          1 \
	alphaTmin            1e-10 \
	updateTestStepSize   yes \
	alphaTreduceFactor   0.1 \
	alphaTincreaseFactor 3 \
	nAlphaAdjustMax      3 \
	wolfeEnergy          0.0001 \
	wolfeGradient        0.9 \
	fdTest               no
electronic-scf  \
	nIterations	50 \
	energyDiffThreshold	1e-08 \
	residualThreshold	1e-07 \
	mixFraction	0.5 \
	qMetric	0.8 \
	history	10 \
	nEigSteps	2 \
	eigDiffThreshold	1e-08 \
	mixedVariable	Density \
	qKerker	0.8 \
	qKappa	-1 \
	verbose	no \
	mixFractionMag	1.5
exchange-regularization WignerSeitzTruncated
fluid None
fluid-ex-corr lda-TF lda-PZ
fluid-gummel-loop 10 1.000000e-05
fluid-minimize  \
	dirUpdateScheme      PolakRibiere \
	linminMethod         DirUpdateRecommended \
	nIterations          100 \
	history              15 \
	knormThreshold       0 \
	energyDiffThreshold  0 \
	nEnergyDiff          2 \
	alphaTstart          1 \
	alphaTmin            1e-10 \
	updateTestStepSize   yes \
	alphaTreduceFactor   0.1 \
	alphaTincreaseFactor 3 \
	nAlphaAdjustMax      3 \
	wolfeEnergy          0.0001 \
	wolfeGradient        0.9 \
	fdTest               no
fluid-solvent H2O 55.338 ScalarEOS \
	epsBulk 78.4 \
	pMol 0.92466 \
	epsInf 1.77 \
	Pvap 1.06736e-10 \
	sigmaBulk 4.62e-05 \
	Rvdw 2.61727 \
	Res 1.42 \
	tauNuc 343133 \
	poleEl 15 7 1
forces-output-coords Positions
ion C  28.005857181630002   0.000000000000000   1.000001652210000 0
ion C  25.672025513790000   4.042310104620000   1.000001652210000 0
ion C  11.669128103519997  20.211535405260001   1.000001652210000 0
ion C   4.667680343250000   0.000000000000000   1.000001652210000 0
ion C  23.338288332449999   0.000000000000000   1.000001652210000 0
ion C   2.333822219190000   4.042310104620000   1.000001652210000 0
ion C  16.336708291080001  20.211535405260001   1.000001652210000 0
ion C  23.338191956219998   8.084622098970000   1.000001652210000 0
ion C   9.335305884329998  16.169223410910003   1.000001652210000 0
ion C   9.335322891900001   0.000000000000000   1.000001652210000 0
ion C  18.670626886499999   0.000000000000000   1.000001652210000 0
ion C  18.670539958919996  16.169223410910003   1.000001652210000 0
ion C  21.004371626759990  12.126913306290001   1.000001652210000 0
ion C  14.002984337850000   0.000000000000000   1.000001652210000 0
ion C   0.000000000000000   8.084622098970000   1.000001652210000 0
ion C   7.001485554869999  20.211535405260001   1.000001652210000 0
ion C  -7.001481775409998  20.211535405260001   1.000001652210000 0
ion C  -2.333822219190001  12.126913306290001   1.000001652210000 0
ion C   4.667663335680000  16.169223410910003   1.000001652210000 0
ion C  -2.333820329460000  20.211535405260001   1.000001652210000 0
ion C   2.333824108920000  20.211535405260001   1.000001652210000 0
ion C  -4.667659556220002  16.169223410910003   1.000001652210000 0
ion C   7.001483665139999   4.042310104620000   1.000001652210000 0
ion C  21.004430208389998   4.042310104620000   1.000001652210000 0
ion C  14.002948432979998  16.169223410910003   1.000001652210000 0
ion C   0.000001889729997  16.169223410910003   1.000001652210000 0
ion C  11.669126213789999   4.042310104620000   1.000001652210000 0
ion C  18.670609878929998   8.084622098970000   1.000001652210000 0
ion C  11.669126213789998  12.126913306290001   1.000001652210000 0
ion C  16.336787659739997  12.126913306290001   1.000001652210000 0
ion C  16.336789549470002   4.042310104620000   1.000001652210000 0
ion C   9.335303994600000   8.084622098970000   1.000001652210000 0
ion C  14.002948432980002   8.084622098970000   1.000001652210000 0
ion C   0.000000000000000   2.694874032990001   1.000001652210000 0
ion C  11.669128103520000  22.906390540950003   1.000001652210000 0
ion C -11.669124324059998  22.906390540950003   1.000001652210000 0
ion C  -2.333822219190000   6.737165240310001   1.000001652210000 0
ion C   9.335305884330001  18.864097443900004   1.000001652210000 0
ion C  -7.001481775409998  22.906390540950003   1.000001652210000 0
ion C   7.001485554869999  22.906390540950003   1.000001652210000 0
ion C   2.333822219189999   6.737165240310001   1.000001652210000 0
ion C  -9.335302104870001  18.864097443900004   1.000001652210000 0
ion C  -4.667661445950000  10.779477234660002   1.000001652210000 0
ion C  -2.333820329460000  22.906390540950003   1.000001652210000 0
ion C   2.333824108920002  22.906390540950003   1.000001652210000 0
ion C  -7.001483665140000  14.821787339280002   1.000001652210000 0
ion C   4.667661445950001   2.694874032990001   1.000001652210000 0
ion C  23.338269435149996   2.694874032990001   1.000001652210000 0
ion C  14.002967330279997  18.864097443900004   1.000001652210000 0
ion C   0.000000000000000  10.779477234660002   1.000001652210000 0
ion C   4.667663335679999  18.864097443900004   1.000001652210000 0
ion C  -4.667640658920000  18.864097443900004   1.000001652210000 0
ion C  -2.333822219190001  14.821787339280002   1.000001652210000 0
ion C   2.333824108919998  14.821787339280002   1.000001652210000 0
ion C   0.000001889729999  18.864097443900004   1.000001652210000 0
ion C   9.335303994599998   2.694874032990001   1.000001652210000 0
ion C  21.004430208389998   6.737165240310001   1.000001652210000 0
ion C  11.669126213790001  14.821787339280002   1.000001652210000 0
ion C  16.336789549469998  14.821787339280002   1.000001652210000 0
ion C  18.670609878929998   2.694874032990001   1.000001652210000 0
ion C   7.001483665139999   6.737165240310001   1.000001652210000 0
ion C  14.002946543249999   2.694874032990001   1.000001652210000 0
ion C  18.670607989199997  10.779477234660002   1.000001652210000 0
ion C  11.669126213789999   6.737165240310001   1.000001652210000 0
ion C  16.336787659739997   6.737165240310001   1.000001652210000 0
ion C  14.002946543250001  10.779477234660002   1.000001652210000 0
ion N   4.667661445950002   8.084622098970000   1.000001652210000 0
ion N   2.333822219190000  12.126913306290001   1.000001652210000 0
ion N   7.001485554869999  14.821787339280002   1.000001652210000 0
ion N   9.335305884330001  10.779477234660002   1.000001652210000 0
ion Fe   5.837109518070000  11.454309266310000   1.000001652210000 0
ion S  10.047443075910000  10.449626752890001   7.578319968180000 1
ion Na   6.043751493569999  11.509387336890002   5.520970917180000 1
ion Na  12.213049089420002  13.980710090340002   9.634663682820001 1
ion-species GBRV/$ID_pbe.uspp
ion-width 0
ionic-minimize  \
	dirUpdateScheme      FletcherReeves \
	linminMethod         DirUpdateRecommended \
	nIterations          200 \
	history              15 \
	knormThreshold       0.0001 \
	energyDiffThreshold  1e-06 \
	nEnergyDiff          2 \
	alphaTstart          1 \
	alphaTmin            1e-10 \
	updateTestStepSize   yes \
	alphaTreduceFactor   0.1 \
	alphaTincreaseFactor 3 \
	nAlphaAdjustMax      3 \
	wolfeEnergy          0.0001 \
	wolfeGradient        0.9 \
	fdTest               no
kpoint   0.000000000000   0.000000000000   0.000000000000  1.00000000000000
kpoint-folding 1 1 1 
latt-move-scale 1 1 1
latt-scale 1 1 1 
lattice Triclinic 28.0058 28.0058 32.1253 90 90 120
lattice-minimize  \
	dirUpdateScheme      L-BFGS \
	linminMethod         DirUpdateRecommended \
	nIterations          0 \
	history              15 \
	knormThreshold       0 \
	energyDiffThreshold  1e-06 \
	nEnergyDiff          2 \
	alphaTstart          1 \
	alphaTmin            1e-10 \
	updateTestStepSize   yes \
	alphaTreduceFactor   0.1 \
	alphaTincreaseFactor 3 \
	nAlphaAdjustMax      3 \
	wolfeEnergy          0.0001 \
	wolfeGradient        0.9 \
	fdTest               no
lcao-params -1 1e-06 0.01
pcm-variant GLSSA13
spintype no-spin
subspace-rotation-factor 1 yes
symmetries automatic
symmetry-threshold 0.0001



---------- Setting up symmetries ----------

Found 24 point-group symmetries of the bravais lattice
Found 1 space-group symmetries with basis
Applied RMS atom displacement 0 bohrs to make symmetries exact.

---------- Initializing the Grid ----------
R = 
[      28.0058     -14.0029            0  ]
[            0      24.2537            0  ]
[            0            0      32.1253  ]
unit cell volume = 21821
G =
[   0.224353    0.12953         -0  ]
[          0   0.259061          0  ]
[          0         -0   0.195584  ]
Minimum fftbox size, Smin = [  128  128  148  ]
Chosen fftbox size, S = [  128  128  150  ]

---------- Initializing tighter grid for wavefunction operations ----------
R = 
[      28.0058     -14.0029            0  ]
[            0      24.2537            0  ]
[            0            0      32.1253  ]
unit cell volume = 21821
G =
[   0.224353    0.12953         -0  ]
[          0   0.259061          0  ]
[          0         -0   0.195584  ]
Minimum fftbox size, Smin = [  116  116  132  ]
Chosen fftbox size, S = [  120  120  140  ]

---------- Exchange Correlation functional ----------
Initalized PBE GGA exchange.
Initalized PBE GGA correlation.

---------- Setting up pseudopotentials ----------
Width of ionic core gaussian charges (only for fluid interactions / plotting) set to 0

Reading pseudopotential file '/home/simslave2427/jdftx_install/build/pseudopotentials/GBRV/c_pbe.uspp':
  Title: C.  Created by USPP 7.3.6 on 3-2-2014
  Reference state energy: -5.406344.  4 valence electrons in orbitals:
    |200>  occupation: 2  eigenvalue: -0.504890
    |210>  occupation: 2  eigenvalue: -0.194356
  lMax: 1  lLocal: 2  QijEcut: 5
  4 projectors sampled on a log grid with 503 points:
    l: 0  eig: -0.504890  rCut: 1.3
    l: 0  eig: 0.000000  rCut: 1.3
    l: 1  eig: -0.194357  rCut: 1.3
    l: 1  eig: 0.000000  rCut: 1.3
  Partial core density with radius 1.1
  Transforming core density to a uniform radial grid of dG=0.02 with 1618 points.
  Transforming local potential to a uniform radial grid of dG=0.02 with 1618 points.
  Transforming nonlocal projectors to a uniform radial grid of dG=0.02 with 432 points.
  Transforming density augmentations to a uniform radial grid of dG=0.02 with 1618 points.
  Transforming atomic orbitals to a uniform radial grid of dG=0.02 with 432 points.
  Core radius for overlap checks: 1.30 bohrs.

Reading pseudopotential file '/home/simslave2427/jdftx_install/build/pseudopotentials/GBRV/n_pbe.uspp':
  Title: N.  Created by USPP 7.3.6 on 3-2-2014
  Reference state energy: -9.763716.  5 valence electrons in orbitals:
    |200>  occupation: 2  eigenvalue: -0.681964
    |210>  occupation: 3  eigenvalue: -0.260726
  lMax: 1  lLocal: 2  QijEcut: 6
  4 projectors sampled on a log grid with 491 points:
    l: 0  eig: -0.681964  rCut: 1.15
    l: 0  eig: 0.000000  rCut: 1.15
    l: 1  eig: -0.260729  rCut: 1.2
    l: 1  eig: 0.500000  rCut: 1.2
  Partial core density with radius 0.8
  Transforming core density to a uniform radial grid of dG=0.02 with 1618 points.
  Transforming local potential to a uniform radial grid of dG=0.02 with 1618 points.
  Transforming nonlocal projectors to a uniform radial grid of dG=0.02 with 432 points.
  Transforming density augmentations to a uniform radial grid of dG=0.02 with 1618 points.
  Transforming atomic orbitals to a uniform radial grid of dG=0.02 with 432 points.
  Core radius for overlap checks: 1.20 bohrs.

Reading pseudopotential file '/home/simslave2427/jdftx_install/build/pseudopotentials/GBRV/fe_pbe.uspp':
  Title: Fe.  Created by USPP 7.3.6 on 15-6-15
  Reference state energy: -124.316937.  16 valence electrons in orbitals:
    |300>  occupation: 2  eigenvalue: -4.008817
    |310>  occupation: 6  eigenvalue: -2.753096
    |320>  occupation: 5  eigenvalue: -0.791264
    |400>  occupation: 2  eigenvalue: -0.516384
    |410>  occupation: 0  eigenvalue: -0.312222
  lMax: 2  lLocal: 3  QijEcut: 6
  6 projectors sampled on a log grid with 607 points:
    l: 0  eig: -4.008819  rCut: 1.55
    l: 0  eig: -0.516386  rCut: 1.55
    l: 1  eig: -2.753096  rCut: 1.55
    l: 1  eig: -0.312226  rCut: 1.55
    l: 2  eig: -0.791264  rCut: 1.65
    l: 2  eig: -0.450000  rCut: 1.65
  Partial core density with radius 0.65
  Transforming core density to a uniform radial grid of dG=0.02 with 1618 points.
  Transforming local potential to a uniform radial grid of dG=0.02 with 1618 points.
  Transforming nonlocal projectors to a uniform radial grid of dG=0.02 with 432 points.
  Transforming density augmentations to a uniform radial grid of dG=0.02 with 1618 points.
  Transforming atomic orbitals to a uniform radial grid of dG=0.02 with 432 points.
  Core radius for overlap checks: 1.65 bohrs.

Reading pseudopotential file '/home/simslave2427/jdftx_install/build/pseudopotentials/GBRV/s_pbe.uspp':
  Title: S.  Created by USPP 7.3.6 on 1-4-15
  Reference state energy: -11.898476.  6 valence electrons in orbitals:
    |300>  occupation: 2  eigenvalue: -0.634167
    |310>  occupation: 4  eigenvalue: -0.257568
  lMax: 2  lLocal: 3  QijEcut: 6
  6 projectors sampled on a log grid with 635 points:
    l: 0  eig: -0.634161  rCut: 1.5
    l: 0  eig: 1.500000  rCut: 1.5
    l: 1  eig: -0.257567  rCut: 1.5
    l: 1  eig: 1.500000  rCut: 1.5
    l: 2  eig: -1.000000  rCut: 1.5
    l: 2  eig: 1.500000  rCut: 1.5
  Partial core density with radius 1.15
  Transforming core density to a uniform radial grid of dG=0.02 with 1618 points.
  Transforming local potential to a uniform radial grid of dG=0.02 with 1618 points.
  Transforming nonlocal projectors to a uniform radial grid of dG=0.02 with 432 points.
  Transforming density augmentations to a uniform radial grid of dG=0.02 with 1618 points.
  Transforming atomic orbitals to a uniform radial grid of dG=0.02 with 432 points.
  Core radius for overlap checks: 1.50 bohrs.

Reading pseudopotential file '/home/simslave2427/jdftx_install/build/pseudopotentials/GBRV/na_pbe.uspp':
  Title: Na.  Created by USPP 7.3.6 on 23-9-15
  Reference state energy: -47.625620.  9 valence electrons in orbitals:
    |200>  occupation: 2  eigenvalue: -2.085638
    |210>  occupation: 6  eigenvalue: -1.053708
    |300>  occupation: 1  eigenvalue: -0.100838
  lMax: 2  lLocal: 0  QijEcut: 6
  5 projectors sampled on a log grid with 657 points:
    l: 0  eig: -2.085640  rCut: 1.37
    l: 0  eig: -0.100839  rCut: 1.37
    l: 1  eig: -1.053708  rCut: 1.47
    l: 1  eig: 0.500000  rCut: 1.47
    l: 2  eig: 0.750000  rCut: 2
  Transforming local potential to a uniform radial grid of dG=0.02 with 1618 points.
  Transforming nonlocal projectors to a uniform radial grid of dG=0.02 with 432 points.
  Transforming density augmentations to a uniform radial grid of dG=0.02 with 1618 points.
  Transforming atomic orbitals to a uniform radial grid of dG=0.02 with 432 points.
  Core radius for overlap checks: 2.00 bohrs.

Initialized 5 species with 74 total atoms.

Folded 1 k-points by 1x1x1 to 1 k-points.

---------- Setting up k-points, bands, fillings ----------
No reducable k-points. 
Computing the number of bands and number of electrons
Calculating initial fillings.
nElectrons: 324.000000   nBands: 307   nStates: 1

----- Setting up reduced wavefunction bases (one per k-point) -----
average nbasis = 93173.000 , ideal nbasis = 93220.781

---------- Setting up coulomb interaction ----------
Setting up double-sized grid for truncated Coulomb potentials:
R = 
[      28.0058     -14.0029            0  ]
[            0      24.2537            0  ]
[            0            0      64.2506  ]
unit cell volume = 43641.9
G =
[   0.224353    0.12953         -0  ]
[          0   0.259061          0  ]
[          0         -0  0.0977919  ]
Chosen fftbox size, S = [  128  128  300  ]
Integer grid location selected as the embedding center:
   Grid: [  0  0  14  ]
   Lattice: [  0  0  0.0933843  ]
   Cartesian: [  0  0  3  ]
Constructing Wigner-Seitz cell: 8 faces (6 quadrilaterals, 2 hexagons)
Range-separation parameter for embedded mesh potentials due to point charges: 0.590105 bohrs.
Initialized slab truncation along lattice direction 001

---------- Setting up 2D ewald sum ----------
Optimum gaussian width for ewald sums = 15.547689 bohr.
Real space sums over 289 unit cells with max indices [  8  8  0  ]
Reciprocal space sums over 81 terms with max indices [  4  4  0  ]

---------- Allocating electronic variables ----------
Initializing wave functions:  linear combination of atomic orbitals
C pseudo-atom occupations:   s ( 2 )  p ( 2 )
N pseudo-atom occupations:   s ( 2 )  p ( 3 )
Fe pseudo-atom occupations:   s ( 2 0 )  p ( 6 0 )  d ( 8 )
S pseudo-atom occupations:   s ( 2 )  p ( 4 )
Na pseudo-atom occupations:   s ( 2 1 )  p ( 6 )
	FillingsUpdate:  mu: -0.261732649  nElectrons: 324.000000
LCAOMinimize: Iter:   0  F: -625.5503908500560328  |grad|_K:  2.411e-02  alpha:  1.000e+00
	FillingsUpdate:  mu: -0.280015602  nElectrons: 324.000000
LCAOMinimize: Iter:   1  F: -630.5101912390920234  |grad|_K:  1.494e-02  alpha:  1.430e-01  linmin: -1.588e-01  cgtest:  8.891e-01  t[s]:    463.55
LCAOMinimize: Encountered beta<0, resetting CG.
	FillingsUpdate:  mu: -0.245146587  nElectrons: 324.000000
LCAOMinimize: Iter:   2  F: -639.6241163433103338  |grad|_K:  4.217e-02  alpha:  7.172e-02  linmin: -4.442e-01  cgtest:  1.114e-01  t[s]:    621.52
LCAOMinimize: 	Step increased F by 1.925815e+01, reducing alpha to 3.223304e-03.
LCAOMinimize: 	Step increased F by 1.843779e+00, reducing alpha to 3.223304e-04.
	FillingsUpdate:  mu: -0.207814110  nElectrons: 324.000000
LCAOMinimize: Iter:   3  F: -640.6052140739026299  |grad|_K:  3.025e-02  alpha:  3.223e-04  linmin: -4.303e-01  cgtest:  9.144e-01  t[s]:   1011.11
LCAOMinimize: Encountered beta<0, resetting CG.
LCAOMinimize: 	Predicted alpha/alphaT>3.000000, increasing alphaT to 9.669913e-04.
LCAOMinimize: 	Predicted alpha/alphaT>3.000000, increasing alphaT to 2.900974e-03.
LCAOMinimize: 	Predicted alpha/alphaT>3.000000, increasing alphaT to 8.702922e-03.
	FillingsUpdate:  mu: -0.140313007  nElectrons: 324.000000
LCAOMinimize: Iter:   4  F: -641.6124036989278920  |grad|_K:  2.025e-02  alpha:  2.904e-02  linmin:  4.788e-02  cgtest: -3.582e-01  t[s]:   1254.25
	FillingsUpdate:  mu: -0.190427102  nElectrons: 324.000000
LCAOMinimize: Iter:   5  F: -641.9700034281092940  |grad|_K:  1.584e-02  alpha:  2.669e-02  linmin:  2.130e-04  cgtest:  8.127e-01  t[s]:   1412.49
LCAOMinimize: Encountered beta<0, resetting CG.
	FillingsUpdate:  mu: -0.217850134  nElectrons: 324.000000
LCAOMinimize: Iter:   6  F: -642.2379101404046651  |grad|_K:  6.069e-03  alpha:  2.186e-02  linmin:  3.239e-02  cgtest: -6.332e-02  t[s]:   1570.55
LCAOMinimize: 	Predicted alpha/alphaT>3.000000, increasing alphaT to 6.556981e-02.
	FillingsUpdate:  mu: -0.239740469  nElectrons: 324.000000
LCAOMinimize: Iter:   7  F: -642.4526824224601569  |grad|_K:  4.980e-03  alpha:  1.346e-01  linmin:  1.059e-02  cgtest: -1.034e-01  t[s]:   1771.20
	FillingsUpdate:  mu: -0.259388872  nElectrons: 324.000000
LCAOMinimize: Iter:   8  F: -642.5190806511195660  |grad|_K:  1.605e-03  alpha:  6.124e-02  linmin:  4.048e-03  cgtest:  4.063e-01  t[s]:   1929.32
LCAOMinimize: Encountered beta<0, resetting CG.
	FillingsUpdate:  mu: -0.228645369  nElectrons: 324.000000
LCAOMinimize: Iter:   9  F: -642.5244856707978443  |grad|_K:  1.523e-03  alpha:  4.425e-02  linmin:  9.272e-06  cgtest: -4.639e-03  t[s]:   2087.56
	FillingsUpdate:  mu: -0.233329790  nElectrons: 324.000000
LCAOMinimize: Iter:  10  F: -642.5307473872750279  |grad|_K:  9.987e-04  alpha:  5.665e-02  linmin: -3.102e-03  cgtest:  1.813e-02  t[s]:   2245.66
	FillingsUpdate:  mu: -0.248037828  nElectrons: 324.000000
LCAOMinimize: Iter:  11  F: -642.5360463059097356  |grad|_K:  5.054e-04  alpha:  1.120e-01  linmin:  9.584e-03  cgtest: -1.686e-02  t[s]:   2403.84
	FillingsUpdate:  mu: -0.238058631  nElectrons: 324.000000
LCAOMinimize: Iter:  12  F: -642.5366717401651613  |grad|_K:  6.628e-04  alpha:  5.385e-02  linmin:  3.094e-04  cgtest:  2.176e-02  t[s]:   2561.70
	FillingsUpdate:  mu: -0.243186533  nElectrons: 324.000000
LCAOMinimize: Iter:  13  F: -642.5391220934997136  |grad|_K:  3.210e-04  alpha:  1.199e-01  linmin:  4.387e-03  cgtest: -3.524e-01  t[s]:   2720.00
	FillingsUpdate:  mu: -0.244432189  nElectrons: 324.000000
LCAOMinimize: Iter:  14  F: -642.5394215669792857  |grad|_K:  2.053e-04  alpha:  6.403e-02  linmin: -4.957e-04  cgtest:  1.518e-01  t[s]:   2878.10
	FillingsUpdate:  mu: -0.248151683  nElectrons: 324.000000
LCAOMinimize: Iter:  15  F: -642.5395020071407544  |grad|_K:  1.908e-04  alpha:  4.002e-02  linmin: -5.516e-05  cgtest: -9.942e-03  t[s]:   3036.22
LCAOMinimize: 	Predicted alpha/alphaT>3.000000, increasing alphaT to 1.200741e-01.
	FillingsUpdate:  mu: -0.247422926  nElectrons: 324.000000
LCAOMinimize: Iter:  16  F: -642.5397212347162395  |grad|_K:  1.459e-04  alpha:  1.269e-01  linmin:  6.825e-05  cgtest:  3.380e-02  t[s]:   3236.68
	FillingsUpdate:  mu: -0.247762794  nElectrons: 324.000000
LCAOMinimize: Iter:  17  F: -642.5397698747752884  |grad|_K:  8.753e-05  alpha:  4.845e-02  linmin:  7.676e-04  cgtest: -2.891e-03  t[s]:   3394.82
	FillingsUpdate:  mu: -0.246473624  nElectrons: 324.000000
LCAOMinimize: Iter:  18  F: -642.5397797437665304  |grad|_K:  3.721e-05  alpha:  2.727e-02  linmin:  5.270e-05  cgtest:  9.207e-03  t[s]:   3552.88
LCAOMinimize: 	Predicted alpha/alphaT>3.000000, increasing alphaT to 8.181048e-02.
	FillingsUpdate:  mu: -0.246675712  nElectrons: 324.000000
LCAOMinimize: Iter:  19  F: -642.5397949404695055  |grad|_K:  5.303e-05  alpha:  2.324e-01  linmin:  8.748e-04  cgtest: -1.442e-02  t[s]:   3753.54
	FillingsUpdate:  mu: -0.246225528  nElectrons: 324.000000
LCAOMinimize: Iter:  20  F: -642.5397991961629032  |grad|_K:  3.045e-05  alpha:  3.253e-02  linmin:  1.850e-03  cgtest: -6.751e-03  t[s]:   3911.90
	FillingsUpdate:  mu: -0.246762751  nElectrons: 324.000000
LCAOMinimize: Iter:  21  F: -642.5398013415735932  |grad|_K:  1.515e-05  alpha:  4.927e-02  linmin: -1.430e-04  cgtest:  2.614e-02  t[s]:   4070.08
LCAOMinimize: 	Predicted alpha/alphaT>3.000000, increasing alphaT to 1.477951e-01.
	FillingsUpdate:  mu: -0.246504414  nElectrons: 324.000000
LCAOMinimize: Iter:  22  F: -642.5398033225712879  |grad|_K:  2.831e-05  alpha:  1.819e-01  linmin: -6.338e-06  cgtest: -4.827e-03  t[s]:   4270.31
	FillingsUpdate:  mu: -0.246768338  nElectrons: 324.000000
LCAOMinimize: Iter:  23  F: -642.5398045818395758  |grad|_K:  1.036e-05  alpha:  3.318e-02  linmin:  1.183e-04  cgtest: -1.732e-03  t[s]:   4428.39
	FillingsUpdate:  mu: -0.246541514  nElectrons: 324.000000
LCAOMinimize: Iter:  24  F: -642.5398050113453792  |grad|_K:  8.601e-06  alpha:  8.469e-02  linmin:  8.481e-04  cgtest: -6.456e-03  t[s]:   4586.86
	FillingsUpdate:  mu: -0.246661631  nElectrons: 324.000000
LCAOMinimize: Iter:  25  F: -642.5398052616825453  |grad|_K:  1.050e-05  alpha:  7.165e-02  linmin: -1.232e-05  cgtest:  7.949e-03  t[s]:   4744.93
LCAOMinimize: Converged (|Delta F|<1.000000e-06 for 2 iters).


---- Citations for features of the code used in this run ----

   Software package:
      R. Sundararaman, K. Letchworth-Weaver, K.A. Schwarz, D. Gunceler, Y. Ozhabes and T.A. Arias, 'JDFTx: software for joint density-functional theory', SoftwareX 6, 278 (2017)

   gga-PBE exchange-correlation functional:
      J.P. Perdew, K. Burke and M. Ernzerhof, Phys. Rev. Lett. 77, 3865 (1996)

   Pseudopotentials:
      KF Garrity, JW Bennett, KM Rabe and D Vanderbilt, Comput. Mater. Sci. 81, 446 (2014)

   Truncated Coulomb potentials:
      R. Sundararaman and T.A. Arias, Phys. Rev. B 87, 165122 (2013)

This list may not be complete. Please suggest additional citations or
report any other bugs at https://github.com/shankar1729/jdftx/issues

Initialization completed successfully at t[s]:   4828.07


-------- Electronic minimization -----------
Will mix electronic density at each iteration.
	FillingsUpdate:  mu: -0.246661631  nElectrons: 324.000000
	FillingsUpdate:  mu: -0.259639959  nElectrons: 324.000000
SCF: Cycle:  0   F: -645.948699486007285   dF: -3.409e+00   |Residual|: 9.567e-01   |deigs|: 1.174e-01  t[s]:   5507.30
	FillingsUpdate:  mu: -0.245178738  nElectrons: 324.000000
SCF: Cycle:  1   F: -645.519513671993536   dF: +4.292e-01   |Residual|: 6.605e-01   |deigs|: 3.278e-02  t[s]:   6105.91
	FillingsUpdate:  mu: -0.178564960  nElectrons: 324.000000
SCF: Cycle:  2   F: -635.042362952452777   dF: +1.048e+01   |Residual|: 1.955e+00   |deigs|: 3.592e-02  t[s]:   6705.21
	FillingsUpdate:  mu: -0.209432797  nElectrons: 324.000000
SCF: Cycle:  3   F: -646.403093887450154   dF: -1.136e+01   |Residual|: 2.841e-01   |deigs|: 2.929e-02  t[s]:   7304.06
	FillingsUpdate:  mu: -0.197233698  nElectrons: 324.000000
SCF: Cycle:  4   F: -646.741105987938681   dF: -3.380e-01   |Residual|: 1.642e-01   |deigs|: 1.058e-02  t[s]:   7903.45
	FillingsUpdate:  mu: -0.196954962  nElectrons: 324.000000
SCF: Cycle:  5   F: -646.767248775796816   dF: -2.614e-02   |Residual|: 9.179e-02   |deigs|: 1.479e-03  t[s]:   8502.77
	FillingsUpdate:  mu: -0.186332574  nElectrons: 324.000000
SCF: Cycle:  6   F: -646.789784557973235   dF: -2.254e-02   |Residual|: 8.805e-02   |deigs|: 8.815e-03  t[s]:   9102.28
	FillingsUpdate:  mu: -0.182305381  nElectrons: 324.000000
SCF: Cycle:  7   F: -646.785740433172236   dF: +4.044e-03   |Residual|: 8.876e-02   |deigs|: 5.127e-03  t[s]:   9685.51
	FillingsUpdate:  mu: -0.174010683  nElectrons: 324.000000
SCF: Cycle:  8   F: -646.793781950236394   dF: -8.042e-03   |Residual|: 8.223e-02   |deigs|: 5.258e-03  t[s]:  10284.38
	FillingsUpdate:  mu: -0.171911423  nElectrons: 324.000000
SCF: Cycle:  9   F: -646.801608142809073   dF: -7.826e-03   |Residual|: 6.223e-02   |deigs|: 3.544e-03  t[s]:  10880.16
	FillingsUpdate:  mu: -0.167387839  nElectrons: 324.000000
SCF: Cycle: 10   F: -646.799113866222115   dF: +2.494e-03   |Residual|: 6.993e-02   |deigs|: 4.054e-03  t[s]:  11476.47
	FillingsUpdate:  mu: -0.166334120  nElectrons: 324.000000
SCF: Cycle: 11   F: -646.815895640137683   dF: -1.678e-02   |Residual|: 9.890e-03   |deigs|: 1.798e-03  t[s]:  11992.32
	FillingsUpdate:  mu: -0.163106485  nElectrons: 324.000000
SCF: Cycle: 12   F: -646.811231827495135   dF: +4.664e-03   |Residual|: 3.971e-02   |deigs|: 3.897e-03  t[s]:  12509.34
	FillingsUpdate:  mu: -0.160746754  nElectrons: 324.000000
SCF: Cycle: 13   F: -646.813235385978373   dF: -2.004e-03   |Residual|: 2.571e-02   |deigs|: 2.244e-03  t[s]:  13025.54
	FillingsUpdate:  mu: -0.157722530  nElectrons: 324.000000
SCF: Cycle: 14   F: -646.816261233427213   dF: -3.026e-03   |Residual|: 7.152e-03   |deigs|: 2.685e-03  t[s]:  13541.98
	FillingsUpdate:  mu: -0.153783297  nElectrons: 324.000000
SCF: Cycle: 15   F: -646.816396785620782   dF: -1.356e-04   |Residual|: 5.483e-03   |deigs|: 3.883e-03  t[s]:  14052.97
	FillingsUpdate:  mu: -0.151164016  nElectrons: 324.000000
SCF: Cycle: 16   F: -646.816574527777448   dF: -1.777e-04   |Residual|: 6.396e-03   |deigs|: 2.579e-03  t[s]:  14563.22
	FillingsUpdate:  mu: -0.148223356  nElectrons: 324.000000
SCF: Cycle: 17   F: -646.816698962805390   dF: -1.244e-04   |Residual|: 3.046e-03   |deigs|: 2.948e-03  t[s]:  15074.13
	FillingsUpdate:  mu: -0.145760685  nElectrons: 324.000000
SCF: Cycle: 18   F: -646.816838456012647   dF: -1.395e-04   |Residual|: 3.514e-03   |deigs|: 2.557e-03  t[s]:  15584.83
	FillingsUpdate:  mu: -0.144580895  nElectrons: 324.000000
SCF: Cycle: 19   F: -646.816890210561496   dF: -5.175e-05   |Residual|: 2.080e-03   |deigs|: 1.213e-03  t[s]:  16095.49
	FillingsUpdate:  mu: -0.143136812  nElectrons: 324.000000
SCF: Cycle: 20   F: -646.816893968355089   dF: -3.758e-06   |Residual|: 2.134e-03   |deigs|: 1.420e-03  t[s]:  16606.34
	FillingsUpdate:  mu: -0.141923414  nElectrons: 324.000000
SCF: Cycle: 21   F: -646.816918864187301   dF: -2.490e-05   |Residual|: 9.664e-04   |deigs|: 1.348e-03  t[s]:  17117.11
	FillingsUpdate:  mu: -0.141444828  nElectrons: 324.000000
SCF: Cycle: 22   F: -646.816923135568231   dF: -4.271e-06   |Residual|: 7.073e-04   |deigs|: 6.439e-04  t[s]:  17628.50
	FillingsUpdate:  mu: -0.141212894  nElectrons: 324.000000
SCF: Cycle: 23   F: -646.816922179105859   dF: +9.565e-07   |Residual|: 9.562e-04   |deigs|: 5.032e-04  t[s]:  18139.86
	FillingsUpdate:  mu: -0.141159905  nElectrons: 324.000000
SCF: Cycle: 24   F: -646.816925060678273   dF: -2.882e-06   |Residual|: 5.942e-04   |deigs|: 2.831e-04  t[s]:  18650.88
	FillingsUpdate:  mu: -0.141174828  nElectrons: 324.000000
SCF: Cycle: 25   F: -646.816926638392374   dF: -1.578e-06   |Residual|: 2.626e-04   |deigs|: 4.020e-04  t[s]:  19161.93
	FillingsUpdate:  mu: -0.141195728  nElectrons: 324.000000
SCF: Cycle: 26   F: -646.816927165350194   dF: -5.270e-07   |Residual|: 1.961e-04   |deigs|: 1.615e-04  t[s]:  19673.90
	FillingsUpdate:  mu: -0.141215892  nElectrons: 324.000000
SCF: Cycle: 27   F: -646.816927039830148   dF: +1.255e-07   |Residual|: 3.024e-04   |deigs|: 2.654e-04  t[s]:  20184.70
	FillingsUpdate:  mu: -0.141234626  nElectrons: 324.000000
SCF: Cycle: 28   F: -646.816927649037439   dF: -6.092e-07   |Residual|: 1.006e-04   |deigs|: 1.180e-04  t[s]:  20696.15
	FillingsUpdate:  mu: -0.141216740  nElectrons: 324.000000
SCF: Cycle: 29   F: -646.816927943986457   dF: -2.949e-07   |Residual|: 9.834e-05   |deigs|: 1.565e-04  t[s]:  21207.94
	FillingsUpdate:  mu: -0.141195087  nElectrons: 324.000000
SCF: Cycle: 30   F: -646.816928114172583   dF: -1.702e-07   |Residual|: 8.075e-05   |deigs|: 1.856e-04  t[s]:  21720.08
	FillingsUpdate:  mu: -0.141168625  nElectrons: 324.000000
SCF: Cycle: 31   F: -646.816928172631265   dF: -5.846e-08   |Residual|: 6.654e-05   |deigs|: 2.264e-04  t[s]:  22231.63
	FillingsUpdate:  mu: -0.141163203  nElectrons: 324.000000
SCF: Cycle: 32   F: -646.816928214325685   dF: -4.169e-08   |Residual|: 4.027e-05   |deigs|: 1.291e-04  t[s]:  22742.65
	FillingsUpdate:  mu: -0.141163588  nElectrons: 324.000000
SCF: Cycle: 33   F: -646.816928228209008   dF: -1.388e-08   |Residual|: 5.645e-05   |deigs|: 5.469e-05  t[s]:  23254.41
	FillingsUpdate:  mu: -0.141166003  nElectrons: 324.000000
SCF: Cycle: 34   F: -646.816928242879499   dF: -1.467e-08   |Residual|: 2.774e-05   |deigs|: 3.462e-05  t[s]:  23766.62
	FillingsUpdate:  mu: -0.141172287  nElectrons: 324.000000
SCF: Cycle: 35   F: -646.816928248460385   dF: -5.581e-09   |Residual|: 1.167e-05   |deigs|: 2.830e-05  t[s]:  24277.11
	FillingsUpdate:  mu: -0.141176711  nElectrons: 324.000000
SCF: Cycle: 36   F: -646.816928249580542   dF: -1.120e-09   |Residual|: 8.190e-06   |deigs|: 3.762e-05  t[s]:  24777.34
SCF: Converged (|Delta E|<1.000000e-08 for 2 iters).

Setting wave functions to eigenvectors of Hamiltonian

# Ionic positions in cartesian coordinates:
ion C  28.005857181630002   0.000000000000000   1.000001652210000 0
ion C  25.672025513790000   4.042310104620000   1.000001652210000 0
ion C  11.669128103519997  20.211535405260001   1.000001652210000 0
ion C   4.667680343250000   0.000000000000000   1.000001652210000 0
ion C  23.338288332449999   0.000000000000000   1.000001652210000 0
ion C   2.333822219190000   4.042310104620000   1.000001652210000 0
ion C  16.336708291080001  20.211535405260001   1.000001652210000 0
ion C  23.338191956219998   8.084622098970000   1.000001652210000 0
ion C   9.335305884329998  16.169223410910003   1.000001652210000 0
ion C   9.335322891900001   0.000000000000000   1.000001652210000 0
ion C  18.670626886499999   0.000000000000000   1.000001652210000 0
ion C  18.670539958919996  16.169223410910003   1.000001652210000 0
ion C  21.004371626759990  12.126913306290001   1.000001652210000 0
ion C  14.002984337850000   0.000000000000000   1.000001652210000 0
ion C   0.000000000000000   8.084622098970000   1.000001652210000 0
ion C   7.001485554869999  20.211535405260001   1.000001652210000 0
ion C  -7.001481775409998  20.211535405260001   1.000001652210000 0
ion C  -2.333822219190001  12.126913306290001   1.000001652210000 0
ion C   4.667663335680000  16.169223410910003   1.000001652210000 0
ion C  -2.333820329460000  20.211535405260001   1.000001652210000 0
ion C   2.333824108920000  20.211535405260001   1.000001652210000 0
ion C  -4.667659556220002  16.169223410910003   1.000001652210000 0
ion C   7.001483665139999   4.042310104620000   1.000001652210000 0
ion C  21.004430208389998   4.042310104620000   1.000001652210000 0
ion C  14.002948432979998  16.169223410910003   1.000001652210000 0
ion C   0.000001889729997  16.169223410910003   1.000001652210000 0
ion C  11.669126213789999   4.042310104620000   1.000001652210000 0
ion C  18.670609878929998   8.084622098970000   1.000001652210000 0
ion C  11.669126213789998  12.126913306290001   1.000001652210000 0
ion C  16.336787659739997  12.126913306290001   1.000001652210000 0
ion C  16.336789549470002   4.042310104620000   1.000001652210000 0
ion C   9.335303994600000   8.084622098970000   1.000001652210000 0
ion C  14.002948432980002   8.084622098970000   1.000001652210000 0
ion C   0.000000000000000   2.694874032990001   1.000001652210000 0
ion C  11.669128103520000  22.906390540950003   1.000001652210000 0
ion C -11.669124324059998  22.906390540950003   1.000001652210000 0
ion C  -2.333822219190000   6.737165240310001   1.000001652210000 0
ion C   9.335305884330001  18.864097443900004   1.000001652210000 0
ion C  -7.001481775409998  22.906390540950003   1.000001652210000 0
ion C   7.001485554869999  22.906390540950003   1.000001652210000 0
ion C   2.333822219189999   6.737165240310001   1.000001652210000 0
ion C  -9.335302104870001  18.864097443900004   1.000001652210000 0
ion C  -4.667661445950000  10.779477234660002   1.000001652210000 0
ion C  -2.333820329460000  22.906390540950003   1.000001652210000 0
ion C   2.333824108920002  22.906390540950003   1.000001652210000 0
ion C  -7.001483665140000  14.821787339280002   1.000001652210000 0
ion C   4.667661445950001   2.694874032990001   1.000001652210000 0
ion C  23.338269435149996   2.694874032990001   1.000001652210000 0
ion C  14.002967330279997  18.864097443900004   1.000001652210000 0
ion C   0.000000000000000  10.779477234660002   1.000001652210000 0
ion C   4.667663335679999  18.864097443900004   1.000001652210000 0
ion C  -4.667640658920000  18.864097443900004   1.000001652210000 0
ion C  -2.333822219190001  14.821787339280002   1.000001652210000 0
ion C   2.333824108919998  14.821787339280002   1.000001652210000 0
ion C   0.000001889729999  18.864097443900004   1.000001652210000 0
ion C   9.335303994599998   2.694874032990001   1.000001652210000 0
ion C  21.004430208389998   6.737165240310001   1.000001652210000 0
ion C  11.669126213790001  14.821787339280002   1.000001652210000 0
ion C  16.336789549469998  14.821787339280002   1.000001652210000 0
ion C  18.670609878929998   2.694874032990001   1.000001652210000 0
ion C   7.001483665139999   6.737165240310001   1.000001652210000 0
ion C  14.002946543249999   2.694874032990001   1.000001652210000 0
ion C  18.670607989199997  10.779477234660002   1.000001652210000 0
ion C  11.669126213789999   6.737165240310001   1.000001652210000 0
ion C  16.336787659739997   6.737165240310001   1.000001652210000 0
ion C  14.002946543250001  10.779477234660002   1.000001652210000 0
ion N   4.667661445950002   8.084622098970000   1.000001652210000 0
ion N   2.333822219190000  12.126913306290001   1.000001652210000 0
ion N   7.001485554869999  14.821787339280002   1.000001652210000 0
ion N   9.335305884330001  10.779477234660002   1.000001652210000 0
ion Fe   5.837109518070000  11.454309266310000   1.000001652210000 0
ion S  10.047443075910000  10.449626752890001   7.578319968180000 1
ion Na   6.043751493569999  11.509387336890002   5.520970917180000 1
ion Na  12.213049089420002  13.980710090340002   9.634663682820001 1

# Forces in Cartesian coordinates:
force C   0.004126047282889   0.000125411210393  -0.000019298802670 0
force C   0.001371415342014  -0.001377856136623  -0.000019010342126 0
force C   0.003683749510078  -0.001825218052647   0.000036607768722 0
force C   0.001289019199921   0.002961990281224   0.000020745259491 0
force C   0.002737385315721  -0.000163856309450  -0.000008578472225 0
force C   0.005408345888853   0.002170311317752  -0.000134343740087 0
force C   0.000999892874171  -0.000532112356553   0.000021387560992 0
force C  -0.000262100346634   0.001741890867619  -0.000019096883046 0
force C  -0.031154472876866  -0.013127575669437  -0.000151707065266 0
force C  -0.000968399956379   0.000884900557230  -0.000017462875677 0
force C  -0.000589017388963  -0.000171018793627  -0.000008451417761 0
force C  -0.000166745400451   0.001157335432345   0.000008233305036 0
force C   0.001911676956795   0.003664538104409  -0.000024321128902 0
force C  -0.001200755089769  -0.000386350787878  -0.000009249779652 0
force C   0.010952187818544   0.006380314238598   0.000041721647564 0
force C   0.003031682575050   0.003203252456868   0.000009073044875 0
force C   0.001487526412688   0.001193427468060  -0.000008857079907 0
force C   0.004410701316611   0.003176656318656  -0.000136449154975 0
force C   0.027184013907957   0.012206937015189  -0.000767051670573 0
force C  -0.000140034745318  -0.001135329447603  -0.000004078250126 0
force C  -0.003376892093020   0.000892028206775  -0.000049392214240 0
force C   0.003491135217039  -0.000130986743510   0.000018678689662 0
force C   0.005011847578780   0.007727983509469  -0.000138756652898 0
force C   0.001631430798219   0.001073148376277  -0.000015914171912 0
force C  -0.002466449958802  -0.001300379631381   0.000095697722930 0
force C   0.008644654089225   0.001140988202955  -0.000155727883622 0
force C  -0.001233255537938  -0.003124279487078  -0.000125934279618 0
force C   0.000625690929979   0.002230903883401   0.000024566500534 0
force C  -0.028724172225282  -0.022854767739568   0.000055702292815 0
force C  -0.000146281092024   0.003654512917203  -0.000091239010980 0
force C  -0.000307137052536  -0.000218257258651   0.000019428367551 0
force C   0.025353550683401   0.020163263358289  -0.000721344098306 0
force C   0.003057466041643   0.001723698898422   0.000041119983363 0
force C  -0.003798946285080   0.001714070352300  -0.000006634136821 0
force C  -0.004230208874832   0.000263846760584  -0.000018025243994 0
force C  -0.002359124490207   0.000459055554897  -0.000005749782822 0
force C   0.001815533247609   0.001235924265008   0.000034376991829 0
force C  -0.005202251571503  -0.002531671819984  -0.000109369158624 0
force C   0.000648773844590  -0.000049589037769  -0.000013730771825 0
force C  -0.001697276015237  -0.003105174070166   0.000015043227561 0
force C   0.032042250856982   0.012910577991128  -0.000202885107228 0
force C  -0.001599370252589  -0.000956513979201  -0.000022720297005 0
force C  -0.000148225056109  -0.004112414776441   0.000006742048751 0
force C   0.001144302113075   0.000702874111454  -0.000009056679606 0
force C   0.001071035883600  -0.000557881069333  -0.000001101240001 0
force C  -0.000944113513005  -0.002602919465094  -0.000003678899804 0
force C  -0.003026454294038  -0.002646408053859  -0.000021391917811 0
force C  -0.000814435212993   0.000721956623314  -0.000010496190997 0
force C  -0.001460798253620   0.001262966193399   0.000071380077219 0
force C   0.026697316645309   0.020779657658150  -0.000214674020043 0
force C  -0.005317284668395  -0.006918983554014  -0.000115756054447 0
force C   0.000591089719206   0.000355457221191  -0.000012545226473 0
force C  -0.004226405332391  -0.001112686835641  -0.000014618840835 0
force C  -0.024178837911126  -0.017335215071114  -0.000725382665048 0
force C   0.001000430153081   0.003292411501829  -0.000054394834665 0
force C   0.003931246155003  -0.000703715827095   0.000028918207937 0
force C   0.000143897117793  -0.001215111937563  -0.000014516152022 0
force C  -0.011198571632823  -0.006718348712504  -0.000093328531692 0
force C   0.000560132526182  -0.002136944591477   0.000221573013912 0
force C  -0.001708891996787  -0.000684225607317  -0.000022312871391 0
force C  -0.027424399469233  -0.012494715205179  -0.000852467566115 0
force C  -0.000283816241071   0.001159670716230   0.000013550167096 0
force C  -0.002088090963033  -0.003594344258703   0.000014833122693 0
force C  -0.008776921628472  -0.000216493969617  -0.000123980966859 0
force C  -0.003306220520741   0.000253161619739  -0.000027059623770 0
force C  -0.005071889629943  -0.003855888536074  -0.000336231448677 0
force N   0.026313629426359  -0.025478063689262   0.002529893409042 0
force N  -0.008200924721364   0.034950476123335   0.002733919438124 0
force N  -0.025950481926399   0.024818486455677   0.002496668290996 0
force N   0.010352240344323  -0.036349684262997  -0.001440882166029 0
force Fe  -0.000798160310178  -0.000429689729885  -0.032111275437363 0
force S   0.006696496641757  -0.004198817199627   0.008555531589097 1
force Na  -0.006896081150422   0.001549538953166   0.020183476876392 1
force Na   0.002648147205051   0.002610575955819   0.000869299970769 1

# Energy components:
   Eewald =    -1229.0472442342288559
       EH =     -717.4677941343184102
     Eloc =     1243.4164425456424397
      Enl =      -64.0197015187375342
      Exc =     -163.5037120652527278
 Exc_core =        5.1303968091653225
       KE =      278.7650327610214731
-------------------------------------
     Etot =     -646.7265798367084244
       TS =        0.0903484128721498
-------------------------------------
        F =     -646.8169282495805419

IonicMinimize: Iter:   0  F: -646.816928249580542  |grad|_K:  8.216e-03  alpha:  1.000e+00

#--- Lowdin population analysis ---
# oxidation-state C +0.042 +0.034 +0.034 +0.035 +0.037 +0.026 +0.034 +0.034 +0.145 +0.041 +0.037 +0.035 +0.043 +0.041 +0.007 +0.044 +0.041 +0.025 +0.118 +0.039 +0.034 +0.035 +0.036 +0.045 +0.044 +0.031 +0.041 +0.039 +0.162 +0.039 +0.039 +0.140 +0.058 +0.038 +0.042 +0.037 +0.049 +0.023 +0.038 +0.035 +0.144 +0.042 +0.037 +0.041 +0.039 +0.036 +0.048 +0.037 +0.030 +0.143 +0.030 +0.036 +0.045 +0.118 +0.034 +0.038 +0.038 +0.011 +0.030 +0.043 +0.131 +0.042 +0.043 +0.046 +0.039 +0.036
# oxidation-state N -0.143 -0.147 -0.145 -0.126
# oxidation-state Fe -0.016
# oxidation-state S -0.976
# oxidation-state Na +0.733 +0.740


-------- Electronic minimization -----------
Will mix electronic density at each iteration.
	FillingsUpdate:  mu: -0.141176711  nElectrons: 324.000000
	FillingsUpdate:  mu: -0.138250022  nElectrons: 324.000000
SCF: Cycle:  0   F: -646.775909877480672   dF: +3.224e-02   |Residual|: 1.046e-01   |deigs|: 1.687e-04  t[s]:  25740.39
	FillingsUpdate:  mu: -0.146113004  nElectrons: 324.000000
SCF: Cycle:  1   F: -645.551356626792199   dF: +1.225e+00   |Residual|: 6.678e-01   |deigs|: 8.025e-03  t[s]:  26340.68
	FillingsUpdate:  mu: -0.141024258  nElectrons: 324.000000
SCF: Cycle:  2   F: -646.796293902217599   dF: -1.245e+00   |Residual|: 8.408e-02   |deigs|: 6.932e-03  t[s]:  26940.40
	FillingsUpdate:  mu: -0.138494435  nElectrons: 324.000000
SCF: Cycle:  3   F: -646.783750171315432   dF: +1.254e-02   |Residual|: 9.793e-02   |deigs|: 1.469e-03  t[s]:  27540.19
	FillingsUpdate:  mu: -0.140149145  nElectrons: 324.000000
SCF: Cycle:  4   F: -646.817311852686203   dF: -3.356e-02   |Residual|: 6.598e-03   |deigs|: 8.567e-04  t[s]:  28132.56
	FillingsUpdate:  mu: -0.140248394  nElectrons: 324.000000
SCF: Cycle:  5   F: -646.817325599853689   dF: -1.375e-05   |Residual|: 6.955e-03   |deigs|: 1.579e-04  t[s]:  28483.50
	FillingsUpdate:  mu: -0.140316346  nElectrons: 324.000000
SCF: Cycle:  6   F: -646.817393226777995   dF: -6.763e-05   |Residual|: 5.299e-03   |deigs|: 9.568e-05  t[s]:  28838.45
	FillingsUpdate:  mu: -0.140303328  nElectrons: 324.000000
SCF: Cycle:  7   F: -646.817497438045962   dF: -1.042e-04   |Residual|: 1.702e-03   |deigs|: 8.795e-05  t[s]:  29190.32
	FillingsUpdate:  mu: -0.140331626  nElectrons: 324.000000
SCF: Cycle:  8   F: -646.817490660456770   dF: +6.778e-06   |Residual|: 2.105e-03   |deigs|: 9.832e-05  t[s]:  29541.18
	FillingsUpdate:  mu: -0.140458113  nElectrons: 324.000000
SCF: Cycle:  9   F: -646.817508112871110   dF: -1.745e-05   |Residual|: 1.432e-03   |deigs|: 1.762e-04  t[s]:  30046.09
	FillingsUpdate:  mu: -0.140586801  nElectrons: 324.000000
SCF: Cycle: 10   F: -646.817519133335509   dF: -1.102e-05   |Residual|: 2.791e-04   |deigs|: 2.277e-04  t[s]:  30551.12
	FillingsUpdate:  mu: -0.140691903  nElectrons: 324.000000
SCF: Cycle: 11   F: -646.817519851073371   dF: -7.177e-07   |Residual|: 6.902e-04   |deigs|: 1.941e-04  t[s]:  31056.03
	FillingsUpdate:  mu: -0.140771346  nElectrons: 324.000000
SCF: Cycle: 12   F: -646.817522393597642   dF: -2.543e-06   |Residual|: 2.044e-04   |deigs|: 1.804e-04  t[s]:  31567.14
	FillingsUpdate:  mu: -0.140850636  nElectrons: 324.000000
SCF: Cycle: 13   F: -646.817522955210279   dF: -5.616e-07   |Residual|: 1.676e-04   |deigs|: 1.615e-04  t[s]:  32077.79
	FillingsUpdate:  mu: -0.140920388  nElectrons: 324.000000
SCF: Cycle: 14   F: -646.817523163831424   dF: -2.086e-07   |Residual|: 1.543e-04   |deigs|: 1.297e-04  t[s]:  32588.92
	FillingsUpdate:  mu: -0.140988094  nElectrons: 324.000000
SCF: Cycle: 15   F: -646.817523299013942   dF: -1.352e-07   |Residual|: 8.183e-05   |deigs|: 1.568e-04  t[s]:  33101.33
	FillingsUpdate:  mu: -0.141020696  nElectrons: 324.000000
SCF: Cycle: 16   F: -646.817523324731837   dF: -2.572e-08   |Residual|: 5.753e-05   |deigs|: 8.305e-05  t[s]:  33612.38
	FillingsUpdate:  mu: -0.141053238  nElectrons: 324.000000
SCF: Cycle: 17   F: -646.817523340804541   dF: -1.607e-08   |Residual|: 6.696e-05   |deigs|: 6.513e-05  t[s]:  34123.10
	FillingsUpdate:  mu: -0.141075130  nElectrons: 324.000000
SCF: Cycle: 18   F: -646.817523367747071   dF: -2.694e-08   |Residual|: 3.664e-05   |deigs|: 9.437e-05  t[s]:  34633.92
	FillingsUpdate:  mu: -0.141090988  nElectrons: 324.000000
SCF: Cycle: 19   F: -646.817523373089216   dF: -5.342e-09   |Residual|: 3.000e-05   |deigs|: 4.800e-05  t[s]:  35145.12
	FillingsUpdate:  mu: -0.141111889  nElectrons: 324.000000
SCF: Cycle: 20   F: -646.817523376235840   dF: -3.147e-09   |Residual|: 4.168e-05   |deigs|: 1.760e-04  t[s]:  35656.86
SCF: Converged (|Delta E|<1.000000e-08 for 2 iters).

Setting wave functions to eigenvectors of Hamiltonian
IonicMinimize: 	Predicted alpha/alphaT>3.000000, increasing alphaT to 3.000000e+00.

-------- Electronic minimization -----------
Will mix electronic density at each iteration.
	FillingsUpdate:  mu: -0.141111889  nElectrons: 324.000000
	FillingsUpdate:  mu: -0.135082304  nElectrons: 324.000000
SCF: Cycle:  0   F: -646.650734051521795   dF: +1.303e-01   |Residual|: 2.102e-01   |deigs|: 6.759e-04  t[s]:  36488.05
	FillingsUpdate:  mu: -0.145081487  nElectrons: 324.000000
SCF: Cycle:  1   F: -644.479994608542711   dF: +2.171e+00   |Residual|: 9.673e-01   |deigs|: 1.613e-02  t[s]:  37088.19
	FillingsUpdate:  mu: -0.142228425  nElectrons: 324.000000
SCF: Cycle:  2   F: -646.584406947468892   dF: -2.104e+00   |Residual|: 2.719e-01   |deigs|: 1.338e-02  t[s]:  37688.33
	FillingsUpdate:  mu: -0.134573622  nElectrons: 324.000000
SCF: Cycle:  3   F: -646.586299267370578   dF: -1.892e-03   |Residual|: 2.547e-01   |deigs|: 4.046e-03  t[s]:  38288.00
	FillingsUpdate:  mu: -0.139515975  nElectrons: 324.000000
SCF: Cycle:  4   F: -646.816158612585127   dF: -2.299e-01   |Residual|: 2.463e-02   |deigs|: 2.226e-03  t[s]:  38885.10
	FillingsUpdate:  mu: -0.139601031  nElectrons: 324.000000
SCF: Cycle:  5   F: -646.814272127620256   dF: +1.886e-03   |Residual|: 3.322e-02   |deigs|: 1.859e-04  t[s]:  39235.80
	FillingsUpdate:  mu: -0.139571543  nElectrons: 324.000000
SCF: Cycle:  6   F: -646.817177179734585   dF: -2.905e-03   |Residual|: 1.885e-02   |deigs|: 1.691e-04  t[s]:  39586.64
	FillingsUpdate:  mu: -0.139465642  nElectrons: 324.000000
SCF: Cycle:  7   F: -646.818237036668847   dF: -1.060e-03   |Residual|: 1.046e-02   |deigs|: 1.699e-04  t[s]:  39938.15
	FillingsUpdate:  mu: -0.139384629  nElectrons: 324.000000
SCF: Cycle:  8   F: -646.818515565945404   dF: -2.785e-04   |Residual|: 3.512e-03   |deigs|: 1.881e-04  t[s]:  40443.72
	FillingsUpdate:  mu: -0.139565948  nElectrons: 324.000000
SCF: Cycle:  9   F: -646.818470365670919   dF: +4.520e-05   |Residual|: 5.983e-03   |deigs|: 3.405e-04  t[s]:  40948.24
	FillingsUpdate:  mu: -0.139826596  nElectrons: 324.000000
SCF: Cycle: 10   F: -646.818608600545190   dF: -1.382e-04   |Residual|: 1.763e-03   |deigs|: 3.253e-04  t[s]:  41459.90
	FillingsUpdate:  mu: -0.140121073  nElectrons: 324.000000
SCF: Cycle: 11   F: -646.818625413918994   dF: -1.681e-05   |Residual|: 1.500e-03   |deigs|: 4.098e-04  t[s]:  41970.95
	FillingsUpdate:  mu: -0.140258198  nElectrons: 324.000000
SCF: Cycle: 12   F: -646.818635041387211   dF: -9.627e-06   |Residual|: 7.484e-04   |deigs|: 2.296e-04  t[s]:  42481.82
	FillingsUpdate:  mu: -0.140457162  nElectrons: 324.000000
SCF: Cycle: 13   F: -646.818638700549059   dF: -3.659e-06   |Residual|: 4.410e-04   |deigs|: 3.034e-04  t[s]:  42993.14
	FillingsUpdate:  mu: -0.140572150  nElectrons: 324.000000
SCF: Cycle: 14   F: -646.818639724071204   dF: -1.024e-06   |Residual|: 2.544e-04   |deigs|: 1.470e-04  t[s]:  43504.02
	FillingsUpdate:  mu: -0.140718952  nElectrons: 324.000000
SCF: Cycle: 15   F: -646.818639939593368   dF: -2.155e-07   |Residual|: 3.418e-04   |deigs|: 2.235e-04  t[s]:  44014.65
	FillingsUpdate:  mu: -0.140818588  nElectrons: 324.000000
SCF: Cycle: 16   F: -646.818640316277197   dF: -3.767e-07   |Residual|: 1.437e-04   |deigs|: 1.780e-04  t[s]:  44525.32
	FillingsUpdate:  mu: -0.140868224  nElectrons: 324.000000
SCF: Cycle: 17   F: -646.818640306931343   dF: +9.346e-09   |Residual|: 1.644e-04   |deigs|: 8.093e-05  t[s]:  45036.40
	FillingsUpdate:  mu: -0.140917859  nElectrons: 324.000000
SCF: Cycle: 18   F: -646.818640433238556   dF: -1.263e-07   |Residual|: 1.289e-04   |deigs|: 1.477e-04  t[s]:  45552.60
	FillingsUpdate:  mu: -0.140954591  nElectrons: 324.000000
SCF: Cycle: 19   F: -646.818640487210359   dF: -5.397e-08   |Residual|: 7.072e-05   |deigs|: 6.490e-05  t[s]:  46064.24
	FillingsUpdate:  mu: -0.141001268  nElectrons: 324.000000
SCF: Cycle: 20   F: -646.818640516907408   dF: -2.970e-08   |Residual|: 1.016e-04   |deigs|: 1.662e-04  t[s]:  46574.79
	FillingsUpdate:  mu: -0.141042962  nElectrons: 324.000000
SCF: Cycle: 21   F: -646.818640541356672   dF: -2.445e-08   |Residual|: 7.582e-05   |deigs|: 1.295e-04  t[s]:  47085.79
	FillingsUpdate:  mu: -0.141077232  nElectrons: 324.000000
SCF: Cycle: 22   F: -646.818640565225678   dF: -2.387e-08   |Residual|: 3.710e-05   |deigs|: 9.253e-05  t[s]:  47600.86
	FillingsUpdate:  mu: -0.141099689  nElectrons: 324.000000
SCF: Cycle: 23   F: -646.818640567002262   dF: -1.777e-09   |Residual|: 5.564e-05   |deigs|: 6.199e-05  t[s]:  48112.40
	FillingsUpdate:  mu: -0.141115976  nElectrons: 324.000000
SCF: Cycle: 24   F: -646.818640577562633   dF: -1.056e-08   |Residual|: 4.761e-05   |deigs|: 5.639e-05  t[s]:  48623.79
	FillingsUpdate:  mu: -0.141121148  nElectrons: 324.000000
SCF: Cycle: 25   F: -646.818640592477436   dF: -1.491e-08   |Residual|: 1.466e-05   |deigs|: 4.359e-05  t[s]:  49135.16
	FillingsUpdate:  mu: -0.141123868  nElectrons: 324.000000
SCF: Cycle: 26   F: -646.818640597222043   dF: -4.745e-09   |Residual|: 1.004e-05   |deigs|: 3.459e-05  t[s]:  49646.73
	FillingsUpdate:  mu: -0.141127003  nElectrons: 324.000000
SCF: Cycle: 27   F: -646.818640600476556   dF: -3.255e-09   |Residual|: 7.352e-06   |deigs|: 3.116e-05  t[s]:  50113.59
SCF: Converged (|Delta E|<1.000000e-08 for 2 iters).

Setting wave functions to eigenvectors of Hamiltonian
IonicMinimize: 	Predicted alpha/alphaT>3.000000, increasing alphaT to 9.000000e+00.

-------- Electronic minimization -----------
Will mix electronic density at each iteration.
	FillingsUpdate:  mu: -0.141127003  nElectrons: 324.000000
	FillingsUpdate:  mu: -0.120572211  nElectrons: 324.000000
SCF: Cycle:  0   F: -645.240748894687613   dF: +1.235e+00   |Residual|: 6.519e-01   |deigs|: 6.293e-03  t[s]:  50945.33
	FillingsUpdate:  mu: -0.147314351  nElectrons: 324.000000
SCF: Cycle:  1   F: -638.438817465986517   dF: +6.802e+00   |Residual|: 1.982e+00   |deigs|: 4.639e-02  t[s]:  51545.35
	FillingsUpdate:  mu: -0.142295248  nElectrons: 324.000000
SCF: Cycle:  2   F: -644.980174185547867   dF: -6.541e+00   |Residual|: 8.260e-01   |deigs|: 3.482e-02  t[s]:  52145.38
	FillingsUpdate:  mu: -0.133337893  nElectrons: 324.000000
SCF: Cycle:  3   F: -646.810141171950818   dF: -1.830e+00   |Residual|: 1.087e-01   |deigs|: 1.191e-02  t[s]:  52746.38
	FillingsUpdate:  mu: -0.130170179  nElectrons: 324.000000
SCF: Cycle:  4   F: -646.542310769997357   dF: +2.678e-01   |Residual|: 2.850e-01   |deigs|: 2.216e-03  t[s]:  53347.14
	FillingsUpdate:  mu: -0.136948091  nElectrons: 324.000000
SCF: Cycle:  5   F: -646.713678271269600   dF: -1.714e-01   |Residual|: 1.700e-01   |deigs|: 3.391e-03  t[s]:  53946.86
	FillingsUpdate:  mu: -0.135838615  nElectrons: 324.000000
SCF: Cycle:  6   F: -646.813140968318635   dF: -9.946e-02   |Residual|: 4.422e-02   |deigs|: 1.072e-03  t[s]:  54541.94
	FillingsUpdate:  mu: -0.135218894  nElectrons: 324.000000
SCF: Cycle:  7   F: -646.820262324301893   dF: -7.121e-03   |Residual|: 7.824e-03   |deigs|: 5.888e-04  t[s]:  55047.66
	FillingsUpdate:  mu: -0.135714380  nElectrons: 324.000000
SCF: Cycle:  8   F: -646.820554464048541   dF: -2.921e-04   |Residual|: 9.721e-03   |deigs|: 3.793e-04  t[s]:  55553.21
	FillingsUpdate:  mu: -0.135944857  nElectrons: 324.000000
SCF: Cycle:  9   F: -646.819872209018968   dF: +6.823e-04   |Residual|: 1.679e-02   |deigs|: 7.696e-04  t[s]:  56064.17
	FillingsUpdate:  mu: -0.136658974  nElectrons: 324.000000
SCF: Cycle: 10   F: -646.821136786673264   dF: -1.265e-03   |Residual|: 6.434e-03   |deigs|: 7.071e-04  t[s]:  56576.32
	FillingsUpdate:  mu: -0.137345165  nElectrons: 324.000000
SCF: Cycle: 11   F: -646.821307119830408   dF: -1.703e-04   |Residual|: 2.898e-03   |deigs|: 6.810e-04  t[s]:  57088.62
	FillingsUpdate:  mu: -0.137855230  nElectrons: 324.000000
SCF: Cycle: 12   F: -646.821182334683272   dF: +1.248e-04   |Residual|: 6.971e-03   |deigs|: 7.156e-04  t[s]:  57600.57
	FillingsUpdate:  mu: -0.138434552  nElectrons: 324.000000
SCF: Cycle: 13   F: -646.821397453733994   dF: -2.151e-04   |Residual|: 3.093e-03   |deigs|: 5.218e-04  t[s]:  58112.64
	FillingsUpdate:  mu: -0.138932827  nElectrons: 324.000000
SCF: Cycle: 14   F: -646.821430777186379   dF: -3.332e-05   |Residual|: 9.949e-04   |deigs|: 5.631e-04  t[s]:  58624.62
	FillingsUpdate:  mu: -0.139300034  nElectrons: 324.000000
SCF: Cycle: 15   F: -646.821439538835989   dF: -8.762e-06   |Residual|: 1.179e-03   |deigs|: 3.757e-04  t[s]:  59136.89
	FillingsUpdate:  mu: -0.139723384  nElectrons: 324.000000
SCF: Cycle: 16   F: -646.821444670770802   dF: -5.132e-06   |Residual|: 7.684e-04   |deigs|: 4.253e-04  t[s]:  59649.33
	FillingsUpdate:  mu: -0.140017188  nElectrons: 324.000000
SCF: Cycle: 17   F: -646.821446938034228   dF: -2.267e-06   |Residual|: 3.844e-04   |deigs|: 3.620e-04  t[s]:  60161.30
	FillingsUpdate:  mu: -0.140213460  nElectrons: 324.000000
SCF: Cycle: 18   F: -646.821447282192025   dF: -3.442e-07   |Residual|: 2.765e-04   |deigs|: 2.498e-04  t[s]:  60672.96
	FillingsUpdate:  mu: -0.140365318  nElectrons: 324.000000
SCF: Cycle: 19   F: -646.821447510121175   dF: -2.279e-07   |Residual|: 3.331e-04   |deigs|: 2.041e-04  t[s]:  61185.03
	FillingsUpdate:  mu: -0.140491254  nElectrons: 324.000000
SCF: Cycle: 20   F: -646.821448085246061   dF: -5.751e-07   |Residual|: 2.388e-04   |deigs|: 1.558e-04  t[s]:  61696.48
	FillingsUpdate:  mu: -0.140634852  nElectrons: 324.000000
SCF: Cycle: 21   F: -646.821448167789640   dF: -8.254e-08   |Residual|: 2.912e-04   |deigs|: 2.490e-04  t[s]:  62209.53
	FillingsUpdate:  mu: -0.140778313  nElectrons: 324.000000
SCF: Cycle: 22   F: -646.821448552008292   dF: -3.842e-07   |Residual|: 1.269e-04   |deigs|: 2.368e-04  t[s]:  62721.25
	FillingsUpdate:  mu: -0.140869031  nElectrons: 324.000000
SCF: Cycle: 23   F: -646.821448632572583   dF: -8.056e-08   |Residual|: 1.098e-04   |deigs|: 1.945e-04  t[s]:  63233.44
	FillingsUpdate:  mu: -0.140932451  nElectrons: 324.000000
SCF: Cycle: 24   F: -646.821448657863243   dF: -2.529e-08   |Residual|: 1.231e-04   |deigs|: 1.285e-04  t[s]:  63745.83
	FillingsUpdate:  mu: -0.140964849  nElectrons: 324.000000
SCF: Cycle: 25   F: -646.821448614858582   dF: +4.300e-08   |Residual|: 2.035e-04   |deigs|: 6.863e-05  t[s]:  64257.92
	FillingsUpdate:  mu: -0.140984978  nElectrons: 324.000000
SCF: Cycle: 26   F: -646.821448773698194   dF: -1.588e-07   |Residual|: 4.556e-05   |deigs|: 7.578e-05  t[s]:  64770.46
	FillingsUpdate:  mu: -0.140995940  nElectrons: 324.000000
SCF: Cycle: 27   F: -646.821448806780381   dF: -3.308e-08   |Residual|: 3.291e-05   |deigs|: 4.263e-05  t[s]:  65282.90
	FillingsUpdate:  mu: -0.141003853  nElectrons: 324.000000
SCF: Cycle: 28   F: -646.821448809309800   dF: -2.529e-09   |Residual|: 8.433e-05   |deigs|: 3.754e-05  t[s]:  65795.64
	FillingsUpdate:  mu: -0.141019701  nElectrons: 324.000000
SCF: Cycle: 29   F: -646.821448846488124   dF: -3.718e-08   |Residual|: 1.996e-05   |deigs|: 1.603e-04  t[s]:  66307.83
	FillingsUpdate:  mu: -0.141023467  nElectrons: 324.000000
SCF: Cycle: 30   F: -646.821448852967819   dF: -6.480e-09   |Residual|: 2.055e-05   |deigs|: 6.466e-05  t[s]:  66820.87
	FillingsUpdate:  mu: -0.141026692  nElectrons: 324.000000
SCF: Cycle: 31   F: -646.821448858759823   dF: -5.792e-09   |Residual|: 1.270e-05   |deigs|: 2.826e-05  t[s]:  67308.13
SCF: Converged (|Delta E|<1.000000e-08 for 2 iters).

Setting wave functions to eigenvectors of Hamiltonian

-------- Electronic minimization -----------
Will mix electronic density at each iteration.
	FillingsUpdate:  mu: -0.141026692  nElectrons: 324.000000
	FillingsUpdate:  mu: -0.096160237  nElectrons: 324.000000
[...]
force C   0.004719044255590   0.000358877705269  -0.000119622942209 0
force C  -0.003530961135823   0.001842710291059  -0.000001328475509 0
force C  -0.004113017152958   0.000117742136886  -0.000041203527621 0
force C  -0.002467827552243   0.000588649771402   0.000034037497589 0
force C   0.002259413262693   0.001167167646517   0.000001775745614 0
force C  -0.004845844409314  -0.001976165886092  -0.000169943240648 0
force C   0.000236993772614   0.000384381470413  -0.000028774799904 0
force C  -0.001125636086052  -0.003094788682205   0.000015630561001 0
force C   0.033111823962205   0.013949556219148  -0.000068178173399 0
force C  -0.001985433633316   0.000166257569319   0.000035493450551 0
force C  -0.000151482862569  -0.004275025109167   0.000063051095307 0
force C   0.000687549128605   0.000659715821505  -0.000011624209619 0
force C   0.000933658799144  -0.000437948453748  -0.000008194814689 0
force C   0.000184253635203  -0.002119584480073  -0.000008203554074 0
force C  -0.003191792858397  -0.002338781218429  -0.000003911146368 0
force C  -0.000794105173648   0.000961453303282  -0.000014707030197 0
force C  -0.001730257602937   0.001491304012987  -0.000012844767705 0
force C   0.028683584222719   0.021817366090181  -0.000084797512774 0
force C  -0.005287888113986  -0.007644428817421  -0.000225233721749 0
force C   0.000341888027593   0.000438046219282  -0.000047446117154 0
force C  -0.003666196413233  -0.001739865684413  -0.000024338537438 0
force C  -0.023577182379568  -0.020303513313244  -0.000256114628672 0
force C   0.001146740750386   0.003165714799333  -0.000033167900204 0
force C   0.003009906840873  -0.000451760066866  -0.000031877304161 0
force C   0.000479099826621  -0.000913711448842  -0.000045056788970 0
force C  -0.012340528320950  -0.006588066497873  -0.000397936256219 0
force C  -0.000276761704147   0.000053389775087   0.000087214531473 0
force C  -0.001561478254357  -0.000955452367841  -0.000016780045558 0
force C  -0.028860745762192  -0.009983660719292  -0.000275164591192 0
force C  -0.000078264610176   0.001337151209025  -0.000010206722000 0
force C  -0.000401344629802  -0.005299214905060   0.000303781112788 0
force C  -0.009418219324896  -0.000697757148609  -0.000213667800248 0
force C  -0.004067339204878   0.000271235913393  -0.000051282252393 0
force C  -0.006193348292836  -0.004260291227030  -0.000402070563578 0
force N   0.026189555101957  -0.026168401248699   0.000822180805641 0
force N  -0.009691099740480   0.035830942486091   0.000818378645136 0
force N  -0.025725785030956   0.024650916199246   0.003029246971998 0
force N   0.009346926911076  -0.034010603868711   0.002736196565421 0
force Fe  -0.003505831449086  -0.001480236175252  -0.002378905283389 0
force S  -0.000078733918503   0.000061793716109   0.000265675445284 1
force Na  -0.000074898554933   0.000096278397843   0.000024926192618 1
force Na   0.000087423014807   0.000043553089169  -0.000151030055254 1

# Energy components:
   Eewald =    -1181.3587072115133196
       EH =     -676.2977728065699239
     Eloc =     1154.5155295677091090
      Enl =      -63.9803099504105717
      Exc =     -163.4966223789983530
 Exc_core =        5.1303974072484575
       KE =      278.7398727477066700
-------------------------------------
     Etot =     -646.7476126248279797
       TS =        0.0950513863385144
-------------------------------------
        F =     -646.8426640111664483

IonicMinimize: Iter:  17  F: -646.842664011166448  |grad|_K:  1.195e-04  alpha:  1.878e+01  linmin:  6.921e-05  t[s]: 432745.91

#--- Lowdin population analysis ---
# oxidation-state C +0.045 +0.036 +0.039 +0.037 +0.040 +0.028 +0.034 +0.035 +0.134 +0.041 +0.039 +0.013 +0.033 +0.041 +0.013 +0.047 +0.041 +0.026 +0.123 +0.040 +0.036 +0.032 +0.034 +0.046 +0.028 +0.033 +0.037 +0.034 +0.130 -0.008 +0.038 +0.122 +0.046 +0.040 +0.046 +0.038 +0.051 +0.028 +0.038 +0.038 +0.151 +0.038 +0.036 +0.042 +0.041 +0.026 +0.049 +0.040 +0.030 +0.150 +0.033 +0.037 +0.048 +0.129 +0.037 +0.037 +0.037 -0.002 -0.020 +0.045 +0.128 +0.042 +0.026 +0.034 +0.036 +0.013
# oxidation-state N -0.133 -0.133 -0.155 -0.160
# oxidation-state Fe +0.038
# oxidation-state S -0.878
# oxidation-state Na +0.734 +0.791


-------- Electronic minimization -----------
Will mix electronic density at each iteration.
	FillingsUpdate:  mu: -0.160753183  nElectrons: 324.000000
	FillingsUpdate:  mu: -0.160751995  nElectrons: 324.000000
SCF: Cycle:  0   F: -646.842566789511693   dF: +9.510e-05   |Residual|: 4.164e-03   |deigs|: 3.515e-06  t[s]: 433484.15
	FillingsUpdate:  mu: -0.160248022  nElectrons: 324.000000
SCF: Cycle:  1   F: -646.835664801121197   dF: +6.902e-03   |Residual|: 4.464e-02   |deigs|: 3.594e-04  t[s]: 433835.64
	FillingsUpdate:  mu: -0.160818913  nElectrons: 324.000000
SCF: Cycle:  2   F: -646.842640944623213   dF: -6.976e-03   |Residual|: 1.727e-03   |deigs|: 3.465e-04  t[s]: 434187.52
	FillingsUpdate:  mu: -0.160747562  nElectrons: 324.000000
SCF: Cycle:  3   F: -646.842664281813313   dF: -2.334e-05   |Residual|: 3.790e-04   |deigs|: 3.501e-05  t[s]: 434539.87
	FillingsUpdate:  mu: -0.160749767  nElectrons: 324.000000
SCF: Cycle:  4   F: -646.842664860105515   dF: -5.783e-07   |Residual|: 1.084e-04   |deigs|: 1.706e-05  t[s]: 434889.38
	FillingsUpdate:  mu: -0.160752849  nElectrons: 324.000000
SCF: Cycle:  5   F: -646.842664779832035   dF: +8.027e-08   |Residual|: 1.970e-04   |deigs|: 8.395e-06  t[s]: 435241.56
	FillingsUpdate:  mu: -0.160748446  nElectrons: 324.000000
SCF: Cycle:  6   F: -646.842664956025146   dF: -1.762e-07   |Residual|: 6.150e-05   |deigs|: 2.338e-05  t[s]: 435593.76
	FillingsUpdate:  mu: -0.160747680  nElectrons: 324.000000
SCF: Cycle:  7   F: -646.842664970334681   dF: -1.431e-08   |Residual|: 2.532e-05   |deigs|: 1.644e-05  t[s]: 435946.60
	FillingsUpdate:  mu: -0.160745688  nElectrons: 324.000000
SCF: Cycle:  8   F: -646.842664980767950   dF: -1.043e-08   |Residual|: 1.402e-05   |deigs|: 2.434e-05  t[s]: 436452.19
	FillingsUpdate:  mu: -0.160743675  nElectrons: 324.000000
SCF: Cycle:  9   F: -646.842664985640113   dF: -4.872e-09   |Residual|: 1.189e-05   |deigs|: 1.850e-05  t[s]: 436957.51
	FillingsUpdate:  mu: -0.160741022  nElectrons: 324.000000
SCF: Cycle: 10   F: -646.842664988775937   dF: -3.136e-09   |Residual|: 8.212e-06   |deigs|: 1.424e-05  t[s]: 437462.96
SCF: Converged (|Delta E|<1.000000e-08 for 2 iters).

Setting wave functions to eigenvectors of Hamiltonian

-------- Electronic minimization -----------
Will mix electronic density at each iteration.
	FillingsUpdate:  mu: -0.160741022  nElectrons: 324.000000
	FillingsUpdate:  mu: -0.160722903  nElectrons: 324.000000
SCF: Cycle:  0   F: -646.842662921951728   dF: +2.050e-06   |Residual|: 5.538e-04   |deigs|: 8.749e-07  t[s]: 438072.27
	FillingsUpdate:  mu: -0.160780347  nElectrons: 324.000000
SCF: Cycle:  1   F: -646.842548959473334   dF: +1.140e-04   |Residual|: 5.720e-03   |deigs|: 4.604e-05  t[s]: 438424.25
	FillingsUpdate:  mu: -0.160708366  nElectrons: 324.000000
SCF: Cycle:  2   F: -646.842664338508030   dF: -1.154e-04   |Residual|: 3.415e-04   |deigs|: 4.551e-05  t[s]: 438769.69
	FillingsUpdate:  mu: -0.160721516  nElectrons: 324.000000
SCF: Cycle:  3   F: -646.842665012684961   dF: -6.742e-07   |Residual|: 5.023e-05   |deigs|: 6.208e-06  t[s]: 439088.54
	FillingsUpdate:  mu: -0.160721271  nElectrons: 324.000000
SCF: Cycle:  4   F: -646.842665028897727   dF: -1.621e-08   |Residual|: 1.959e-05   |deigs|: 4.270e-06  t[s]: 439436.98
	FillingsUpdate:  mu: -0.160721093  nElectrons: 324.000000
SCF: Cycle:  5   F: -646.842665026789405   dF: +2.108e-09   |Residual|: 3.040e-05   |deigs|: 1.962e-06  t[s]: 439783.35
	FillingsUpdate:  mu: -0.160722024  nElectrons: 324.000000
SCF: Cycle:  6   F: -646.842665032295713   dF: -5.506e-09   |Residual|: 1.656e-05   |deigs|: 6.099e-06  t[s]: 440115.74
	FillingsUpdate:  mu: -0.160722181  nElectrons: 324.000000
SCF: Cycle:  7   F: -646.842665033555818   dF: -1.260e-09   |Residual|: 4.955e-06   |deigs|: 6.432e-06  t[s]: 440440.52
SCF: Converged (|Delta E|<1.000000e-08 for 2 iters).

Setting wave functions to eigenvectors of Hamiltonian

# Ionic positions in cartesian coordinates:
ion C  28.005857181630002   0.000000000000000   1.000001652210000 0
ion C  25.672025513790000   4.042310104620000   1.000001652210000 0
ion C  11.669128103519999  20.211535405260001   1.000001652210000 0
ion C   4.667680343250000   0.000000000000000   1.000001652210000 0
ion C  23.338288332449999   0.000000000000000   1.000001652210000 0
ion C   2.333822219190000   4.042310104620000   1.000001652210000 0
ion C  16.336708291080004  20.211535405260001   1.000001652210000 0
ion C  23.338191956219998   8.084622098970000   1.000001652210000 0
ion C   9.335305884329996  16.169223410910007   1.000001652210000 0
ion C   9.335322891900001   0.000000000000000   1.000001652210000 0
ion C  18.670626886499999   0.000000000000000   1.000001652210000 0
ion C  18.670539958919996  16.169223410910007   1.000001652210000 0
ion C  21.004371626759990  12.126913306290001   1.000001652210000 0
ion C  14.002984337850000   0.000000000000000   1.000001652210000 0
ion C   0.000000000000000   8.084622098970000   1.000001652210000 0
ion C   7.001485554870001  20.211535405260001   1.000001652210000 0
ion C  -7.001481775409996  20.211535405260001   1.000001652210000 0
ion C  -2.333822219190000  12.126913306290001   1.000001652210000 0
ion C   4.667663335679999  16.169223410910007   1.000001652210000 0
ion C  -2.333820329459998  20.211535405260001   1.000001652210000 0
ion C   2.333824108920002  20.211535405260001   1.000001652210000 0
ion C  -4.667659556220003  16.169223410910007   1.000001652210000 0
ion C   7.001483665139999   4.042310104620000   1.000001652210000 0
ion C  21.004430208389998   4.042310104620000   1.000001652210000 0
ion C  14.002948432980000  16.169223410910007   1.000001652210000 0
ion C   0.000001889729996  16.169223410910007   1.000001652210000 0
ion C  11.669126213789999   4.042310104620000   1.000001652210000 0
ion C  18.670609878929998   8.084622098970000   1.000001652210000 0
ion C  11.669126213789998  12.126913306290001   1.000001652210000 0
ion C  16.336787659739997  12.126913306290001   1.000001652210000 0
ion C  16.336789549470002   4.042310104620000   1.000001652210000 0
ion C   9.335303994600004   8.084622098970000   1.000001652210000 0
ion C  14.002948432980002   8.084622098970000   1.000001652210000 0
ion C   0.000000000000000   2.694874032990001   1.000001652210000 0
ion C  11.669128103519999  22.906390540950007   1.000001652210000 0
ion C -11.669124324059998  22.906390540950007   1.000001652210000 0
ion C  -2.333822219190000   6.737165240310002   1.000001652210000 0
ion C   9.335305884330001  18.864097443900004   1.000001652210000 0
ion C  -7.001481775409997  22.906390540950007   1.000001652210000 0
ion C   7.001485554870001  22.906390540950007   1.000001652210000 0
ion C   2.333822219189998   6.737165240310002   1.000001652210000 0
ion C  -9.335302104869999  18.864097443900004   1.000001652210000 0
ion C  -4.667661445950000  10.779477234660003   1.000001652210000 0
ion C  -2.333820329460000  22.906390540950007   1.000001652210000 0
ion C   2.333824108920002  22.906390540950007   1.000001652210000 0
ion C  -7.001483665140000  14.821787339280004   1.000001652210000 0
ion C   4.667661445950001   2.694874032990001   1.000001652210000 0
ion C  23.338269435150000   2.694874032990001   1.000001652210000 0
ion C  14.002967330279997  18.864097443900004   1.000001652210000 0
ion C   0.000000000000000  10.779477234660003   1.000001652210000 0
ion C   4.667663335679999  18.864097443900004   1.000001652210000 0
ion C  -4.667640658919998  18.864097443900004   1.000001652210000 0
ion C  -2.333822219190001  14.821787339280004   1.000001652210000 0
ion C   2.333824108919998  14.821787339280004   1.000001652210000 0
ion C   0.000001889729999  18.864097443900004   1.000001652210000 0
ion C   9.335303994599997   2.694874032990001   1.000001652210000 0
ion C  21.004430208389998   6.737165240310002   1.000001652210000 0
ion C  11.669126213790001  14.821787339280004   1.000001652210000 0
ion C  16.336789549469998  14.821787339280004   1.000001652210000 0
ion C  18.670609878930001   2.694874032990001   1.000001652210000 0
ion C   7.001483665139999   6.737165240310002   1.000001652210000 0
ion C  14.002946543250001   2.694874032990001   1.000001652210000 0
ion C  18.670607989199997  10.779477234660003   1.000001652210000 0
ion C  11.669126213789998   6.737165240310002   1.000001652210000 0
ion C  16.336787659740001   6.737165240310002   1.000001652210000 0
ion C  14.002946543250001  10.779477234660003   1.000001652210000 0
ion N   4.667661445950002   8.084622098970000   1.000001652210000 0
ion N   2.333822219190002  12.126913306290001   1.000001652210000 0
ion N   7.001485554869999  14.821787339280004   1.000001652210000 0
ion N   9.335305884330001  10.779477234660003   1.000001652210000 0
ion Fe   5.837109518070000  11.454309266310002   1.000001652210000 0
ion S  11.996321958307306  13.080363808714903   8.869696466513297 1
ion Na   8.177817050167437  12.403054816466330   5.947606613126948 1
ion Na  15.895421543116431  13.800966413369196   6.147004302818917 1

# Forces in Cartesian coordinates:
force C   0.004019775577311  -0.000014670250626  -0.000023995722764 0
force C   0.001267621820573  -0.001360143628768  -0.000008578318948 0
force C   0.003194541973836  -0.001850856047474   0.000052397347070 0
force C   0.001558565194912   0.002577740115903  -0.000005508762571 0
force C   0.002426285130553  -0.000600625546721  -0.000006138460908 0
force C   0.005158192417563   0.001972173040926  -0.000061998906776 0
force C   0.001114673016864  -0.000324586062856  -0.000108136034857 0
force C  -0.000564898532481   0.001716656022763  -0.000028911510605 0
force C  -0.030674021085263  -0.011104187116550  -0.000863416592168 0
force C  -0.000628087070129   0.000357360255831  -0.000004090138019 0
force C  -0.000771354666722  -0.000014461173469  -0.000013631685967 0
force C   0.002236609290248   0.002614342878371   0.000617209460567 0
force C   0.003139737003373   0.003172389819763  -0.000084074387302 0
force C  -0.000779862908036  -0.000630799972210  -0.000007347107741 0
force C   0.010849989461192   0.006250337518672   0.000026490315765 0
force C   0.003320287468214   0.003225681008555  -0.000013898680741 0
force C   0.002136964276942   0.001020606878234  -0.000030671802238 0
force C   0.004711363812516   0.003605803760113  -0.000080727607008 0
force C   0.026236896253861   0.012836040094680  -0.000528807755627 0
force C   0.000040200276296  -0.001001734414431   0.000010147160888 0
force C  -0.003536871529904   0.000718724867089  -0.000045143886767 0
force C   0.003335334205472   0.000134050452050   0.000049948022158 0
force C   0.005531714698357   0.006129372215457  -0.000044018133982 0
force C   0.001753685266907   0.000744220958683  -0.000012596566680 0
force C  -0.003371860553225   0.001065956330623  -0.000074964844278 0
force C   0.008379535498643   0.001415411538664  -0.000047878378901 0
force C  -0.000862530677249  -0.003408809523787  -0.000076279953460 0
force C   0.001178343034610   0.001868574438323   0.000046129358336 0
force C  -0.025766392096321  -0.021330313061290  -0.001503519851366 0
force C  -0.000243437959528   0.001206202192772   0.000205544440516 0
force C  -0.000440066533288  -0.000631315075005   0.000020884080177 0
force C   0.024021009019860   0.015059388168562  -0.000632304103484 0
force C   0.004718030194501   0.000355785645554  -0.000117132236553 0
force C  -0.003530831394774   0.001842326883603   0.000003348352351 0
force C  -0.004113561277886   0.000116966938259  -0.000035282002135 0
force C  -0.002468641296632   0.000588134997280   0.000038756131780 0
force C   0.002258985547161   0.001167110358880   0.000006320770403 0
force C  -0.004847936732641  -0.001979808584268  -0.000164829435801 0
force C   0.000236444374768   0.000384422713464  -0.000024546586398 0
force C  -0.001125224746027  -0.003095858215787   0.000022510079703 0
force C   0.033113445698190   0.013953009382963  -0.000063746759652 0
force C  -0.001985803900506   0.000167691074993   0.000039068292529 0
force C  -0.000151481390513  -0.004274387686253   0.000066926458074 0
force C   0.000687528826883   0.000659472000171  -0.000007049605234 0
force C   0.000934639408959  -0.000438822710320  -0.000002583678512 0
force C   0.000185882571361  -0.002119726753901  -0.000005169533217 0
force C  -0.003191557718502  -0.002337766942816   0.000000304146187 0
force C  -0.000794393657796   0.000960840564760  -0.000009407911203 0
force C  -0.001732090506696   0.001496111874796  -0.000007395058390 0
force C   0.028687197265667   0.021817929876451  -0.000079832633121 0
force C  -0.005286664584101  -0.007645870638108  -0.000217987395469 0
force C   0.000342079455171   0.000438013121119  -0.000043215354569 0
force C  -0.003664573652677  -0.001740446851716  -0.000019658309953 0
force C  -0.023571252145849  -0.020305951858067  -0.000250753893675 0
force C   0.001148756161397   0.003163986040727  -0.000027627502850 0
force C   0.003008707155428  -0.000450098373637  -0.000028052294470 0
force C   0.000479670184172  -0.000913815550223  -0.000041350316131 0
force C  -0.012349158665720  -0.006590913737515  -0.000395366704037 0
force C  -0.000274371686544   0.000053716757286   0.000084804375343 0
force C  -0.001560858292042  -0.000956315294782  -0.000012197516611 0
force C  -0.028860443530456  -0.009977304345498  -0.000271969813353 0
force C  -0.000078326948956   0.001337235596400  -0.000006563490538 0
force C  -0.000398715140159  -0.005300724343542   0.000305433120770 0
force C  -0.009420014667145  -0.000696864197513  -0.000211383529430 0
force C  -0.004067544127213   0.000270532837991  -0.000049322384625 0
force C  -0.006198758714933  -0.004258764590876  -0.000399676955808 0
force N   0.026196891444907  -0.026151886944890   0.000830177861147 0
force N  -0.009673380180220   0.035829856970104   0.000827339471852 0
force N  -0.025730864702325   0.024637942219328   0.003035735221935 0
force N   0.009331959886103  -0.034008086630656   0.002738819553533 0
force Fe  -0.003512929564025  -0.001481846307471  -0.002387124390493 0
force S   0.000138265171352   0.000106034687672   0.000114865415931 1
force Na  -0.000055773825245   0.000105590202611   0.000067331955724 1
force Na  -0.000153187379830   0.000003657001262   0.000030841091043 1

# Energy components:
   Eewald =    -1181.3678399921207074
       EH =     -676.3092802310999332
     Eloc =     1154.5360920201987938
      Enl =      -63.9798822337661051
      Exc =     -163.4963826830332323
 Exc_core =        5.1303974300831046
       KE =      278.7392890339335736
-------------------------------------
     Etot =     -646.7476066558047023
       TS =        0.0950583777511339
-------------------------------------
        F =     -646.8426650335558179

IonicMinimize: Iter:  18  F: -646.842665033555818  |grad|_K:  9.819e-05  alpha:  1.624e+01  linmin:  3.522e-05  t[s]: 440598.22
IonicMinimize: Converged (|grad|_K<1.000000e-04).

#--- Lowdin population analysis ---
# oxidation-state C +0.045 +0.036 +0.039 +0.037 +0.040 +0.028 +0.034 +0.035 +0.134 +0.041 +0.039 +0.013 +0.033 +0.041 +0.013 +0.047 +0.041 +0.026 +0.123 +0.040 +0.036 +0.032 +0.034 +0.046 +0.028 +0.033 +0.037 +0.034 +0.130 -0.008 +0.038 +0.122 +0.046 +0.040 +0.046 +0.038 +0.051 +0.028 +0.038 +0.038 +0.151 +0.038 +0.036 +0.042 +0.041 +0.026 +0.049 +0.040 +0.030 +0.150 +0.033 +0.037 +0.048 +0.129 +0.037 +0.037 +0.037 -0.002 -0.020 +0.045 +0.128 +0.042 +0.026 +0.034 +0.036 +0.013
# oxidation-state N -0.133 -0.133 -0.155 -0.160
# oxidation-state Fe +0.038
# oxidation-state S -0.878
# oxidation-state Na +0.734 +0.791


Dumping 'Na2S@FeN4.fillings' ... done
Dumping 'Na2S@FeN4.wfns' ... done
Dumping 'Na2S@FeN4.ionpos' ... done
Dumping 'Na2S@FeN4.eigenvals' ... done
End date and time: Wed Dec 20 19:24:32 2023  (Duration: 5-2:24:25.54)
Done!
