
*************** JDFTx 1.7.0  ***************

Start date and time: Thu Sep 26 04:53:23 2024
Executable jdftx_gpu with command-line: -i /home/akim2/JDFTx/Na2S@FeN4-PC/Na2S@FeN4-PC.in -o /home/akim2/JDFTx/Na2S@FeN4-PC/Na2S@FeN4-PC.out
Running on hosts (process indices):  exp-1-58 (0)
Divided in process groups (process indices):  0 (0)
gpuInit: Found compatible cuda device 0 'Tesla V100-SXM2-32GB'
gpuInit: Selected device 0
Resource initialization completed at t[s]:      0.38
Run totals: 1 processes, 1 threads, 1 GPUs
Could not open file 'Na2S@FeN4.lattice' for reading.

*************** JDFTx 1.7.0  ***************

Start date and time: Thu Sep 26 05:02:26 2024
Executable jdftx_gpu with command-line: -i /home/akim2/JDFTx/Na2S@FeN4-PC/Na2S@FeN4-PC.in -o /home/akim2/JDFTx/Na2S@FeN4-PC/Na2S@FeN4-PC.out
Running on hosts (process indices):  exp-3-58 (0)
Divided in process groups (process indices):  0 (0)
gpuInit: Found compatible cuda device 0 'Tesla V100-SXM2-32GB'
gpuInit: Selected device 0
Resource initialization completed at t[s]:      0.68
Run totals: 1 processes, 1 threads, 1 GPUs


Input parsed successfully to the following command list (including defaults):

basis kpoint-dependent
coords-type Cartesian
core-overlap-check vector
coulomb-interaction Slab 001
coulomb-truncation-embed 0 0 3
davidson-band-ratio 1.1
dump End State
dump-name Na2S@FeN4-PC.$VAR
elec-cutoff 20 100
elec-eigen-algo Davidson
elec-ex-corr gga-PBE
elec-smearing Fermi 0.01
electronic-minimize  \
	dirUpdateScheme      FletcherReeves \
	linminMethod         DirUpdateRecommended \
	nIterations          100 \
	history              15 \
	knormThreshold       0 \
	energyDiffThreshold  1e-08 \
	nEnergyDiff          2 \
	alphaTstart          1 \
	alphaTmin            1e-10 \
	updateTestStepSize   yes \
	alphaTreduceFactor   0.1 \
	alphaTincreaseFactor 3 \
	nAlphaAdjustMax      3 \
	wolfeEnergy          0.0001 \
	wolfeGradient        0.9 \
	fdTest               no
electronic-scf  \
	nIterations	50 \
	energyDiffThreshold	1e-08 \
	residualThreshold	1e-07 \
	mixFraction	0.5 \
	qMetric	0.8 \
	history	10 \
	nEigSteps	2 \
	eigDiffThreshold	1e-08 \
	mixedVariable	Density \
	qKerker	0.8 \
	qKappa	-1 \
	verbose	no \
	mixFractionMag	1.5
exchange-regularization WignerSeitzTruncated
fluid LinearPCM 298.000000 1.013250
fluid-ex-corr lda-TF lda-PZ
fluid-gummel-loop 10 1.000000e-05
fluid-minimize  \
	dirUpdateScheme      PolakRibiere \
	linminMethod         DirUpdateRecommended \
	nIterations          400 \
	history              15 \
	knormThreshold       1e-11 \
	energyDiffThreshold  0 \
	nEnergyDiff          2 \
	alphaTstart          1 \
	alphaTmin            1e-10 \
	updateTestStepSize   yes \
	alphaTreduceFactor   0.1 \
	alphaTincreaseFactor 3 \
	nAlphaAdjustMax      6 \
	wolfeEnergy          0.0001 \
	wolfeGradient        0.9 \
	fdTest               no
fluid-solvent PC 11.6429 ScalarEOS \
	epsBulk 64 \
	pMol 2.95 \
	epsInf 2.02 \
	Pvap 1.53277e-13 \
	sigmaBulk 2.88e-05 \
	Rvdw 0 \
	Res 0 \
	tauNuc 343133
forces-output-coords Positions
ion C  28.005857181630002   0.000000000000000   1.000001652210000 0
ion C  25.672025513790000   4.042310104620000   1.000001652210000 0
ion C  11.669128103520002  20.211535405260001   1.000001652210000 0
ion C   4.667680343250000   0.000000000000000   1.000001652210000 0
ion C  23.338288332449999   0.000000000000000   1.000001652210000 0
ion C   2.333822219190000   4.042310104620000   1.000001652210000 0
ion C  16.336708291080008  20.211535405260001   1.000001652210000 0
ion C  23.338191956219998   8.084622098970000   1.000001652210000 0
ion C   9.335305884329996  16.169223410910011   1.000001652210000 0
ion C   9.335322891900001   0.000000000000000   1.000001652210000 0
ion C  18.670626886499999   0.000000000000000   1.000001652210000 0
ion C  18.670539958920003  16.169223410910011   1.000001652210000 0
ion C  21.004371626759990  12.126913306290001   1.000001652210000 0
ion C  14.002984337850000   0.000000000000000   1.000001652210000 0
ion C   0.000000000000000   8.084622098970000   1.000001652210000 0
ion C   7.001485554870005  20.211535405260001   1.000001652210000 0
ion C  -7.001481775409994  20.211535405260001   1.000001652210000 0
ion C  -2.333822219189999  12.126913306290001   1.000001652210000 0
ion C   4.667663335679999  16.169223410910011   1.000001652210000 0
ion C  -2.333820329459996  20.211535405260001   1.000001652210000 0
ion C   2.333824108920002  20.211535405260001   1.000001652210000 0
ion C  -4.667659556220002  16.169223410910011   1.000001652210000 0
ion C   7.001483665139999   4.042310104620000   1.000001652210000 0
ion C  21.004430208389998   4.042310104620000   1.000001652210000 0
ion C  14.002948432980000  16.169223410910011   1.000001652210000 0
ion C   0.000001889729997  16.169223410910011   1.000001652210000 0
ion C  11.669126213789999   4.042310104620000   1.000001652210000 0
ion C  18.670609878929998   8.084622098970000   1.000001652210000 0
ion C  11.669126213789998  12.126913306290001   1.000001652210000 0
ion C  16.336787659739997  12.126913306290001   1.000001652210000 0
ion C  16.336789549470002   4.042310104620000   1.000001652210000 0
ion C   9.335303994600004   8.084622098970000   1.000001652210000 0
ion C  14.002948432980002   8.084622098970000   1.000001652210000 0
ion C   0.000000000000000   2.694874032990001   1.000001652210000 0
ion C  11.669128103519999  22.906390540950010   1.000001652210000 0
ion C -11.669124324059998  22.906390540950010   1.000001652210000 0
ion C  -2.333822219190000   6.737165240310004   1.000001652210000 0
ion C   9.335305884330001  18.864097443900004   1.000001652210000 0
ion C  -7.001481775409996  22.906390540950010   1.000001652210000 0
ion C   7.001485554870005  22.906390540950010   1.000001652210000 0
ion C   2.333822219189997   6.737165240310004   1.000001652210000 0
ion C  -9.335302104869998  18.864097443900004   1.000001652210000 0
ion C  -4.667661445950000  10.779477234660005   1.000001652210000 0
ion C  -2.333820329460000  22.906390540950010   1.000001652210000 0
ion C   2.333824108920002  22.906390540950010   1.000001652210000 0
ion C  -7.001483665140000  14.821787339280007   1.000001652210000 0
ion C   4.667661445950001   2.694874032990001   1.000001652210000 0
ion C  23.338269435150004   2.694874032990001   1.000001652210000 0
ion C  14.002967330279997  18.864097443900004   1.000001652210000 0
ion C   0.000000000000000  10.779477234660005   1.000001652210000 0
ion C   4.667663335679999  18.864097443900004   1.000001652210000 0
ion C  -4.667640658919996  18.864097443900004   1.000001652210000 0
ion C  -2.333822219190001  14.821787339280007   1.000001652210000 0
ion C   2.333824108919998  14.821787339280007   1.000001652210000 0
ion C   0.000001889729999  18.864097443900004   1.000001652210000 0
ion C   9.335303994599997   2.694874032990001   1.000001652210000 0
ion C  21.004430208390001   6.737165240310004   1.000001652210000 0
ion C  11.669126213790003  14.821787339280007   1.000001652210000 0
ion C  16.336789549469998  14.821787339280007   1.000001652210000 0
ion C  18.670609878930005   2.694874032990001   1.000001652210000 0
ion C   7.001483665139999   6.737165240310004   1.000001652210000 0
ion C  14.002946543250001   2.694874032990001   1.000001652210000 0
ion C  18.670607989199997  10.779477234660005   1.000001652210000 0
ion C  11.669126213789998   6.737165240310004   1.000001652210000 0
ion C  16.336787659740001   6.737165240310004   1.000001652210000 0
ion C  14.002946543250001  10.779477234660005   1.000001652210000 0
ion N   4.667661445950002   8.084622098970000   1.000001652210000 0
ion N   2.333822219190004  12.126913306290001   1.000001652210000 0
ion N   7.001485554869998  14.821787339280007   1.000001652210000 0
ion N   9.335305884330001  10.779477234660005   1.000001652210000 0
ion Fe   5.837109518069999  11.454309266310004   1.000001652210000 0
ion S  11.996321958307306  13.080363808714907   8.869696466513297 1
ion Na   8.177817050167437  12.403054816466332   5.947606613126949 1
ion Na  15.895421543116431  13.800966413369199   6.147004302818918 1
ion-species GBRV/$ID_pbe.uspp
ion-width Ecut
ionic-minimize  \
	dirUpdateScheme      FletcherReeves \
	linminMethod         DirUpdateRecommended \
	nIterations          200 \
	history              15 \
	knormThreshold       0.0001 \
	energyDiffThreshold  1e-06 \
	nEnergyDiff          2 \
	alphaTstart          1 \
	alphaTmin            1e-10 \
	updateTestStepSize   yes \
	alphaTreduceFactor   0.1 \
	alphaTincreaseFactor 3 \
	nAlphaAdjustMax      3 \
	wolfeEnergy          0.0001 \
	wolfeGradient        0.9 \
	fdTest               no
kpoint   0.000000000000   0.000000000000   0.000000000000  1.00000000000000
kpoint-folding 1 1 1 
latt-move-scale 1 1 1
latt-scale 1 1 1 
lattice Triclinic 28.0058 28.0058 32.1253 90 90 120
lattice-minimize  \
	dirUpdateScheme      L-BFGS \
	linminMethod         DirUpdateRecommended \
	nIterations          0 \
	history              15 \
	knormThreshold       0 \
	energyDiffThreshold  1e-06 \
	nEnergyDiff          2 \
	alphaTstart          1 \
	alphaTmin            1e-10 \
	updateTestStepSize   yes \
	alphaTreduceFactor   0.1 \
	alphaTincreaseFactor 3 \
	nAlphaAdjustMax      3 \
	wolfeEnergy          0.0001 \
	wolfeGradient        0.9 \
	fdTest               no
lcao-params -1 1e-06 0.01
pcm-variant GLSSA13
spintype no-spin
subspace-rotation-factor 1 yes
symmetries automatic
symmetry-threshold 0.0001



---------- Setting up symmetries ----------

Found 24 point-group symmetries of the bravais lattice
Found 1 space-group symmetries with basis
Applied RMS atom displacement 0 bohrs to make symmetries exact.

---------- Initializing the Grid ----------
R = 
[      28.0058     -14.0029            0  ]
[            0      24.2537            0  ]
[            0            0      32.1253  ]
unit cell volume = 21821
G =
[   0.224353    0.12953         -0  ]
[          0   0.259061          0  ]
[          0         -0   0.195584  ]
Minimum fftbox size, Smin = [  128  128  148  ]
Chosen fftbox size, S = [  128  128  150  ]

---------- Initializing tighter grid for wavefunction operations ----------
R = 
[      28.0058     -14.0029            0  ]
[            0      24.2537            0  ]
[            0            0      32.1253  ]
unit cell volume = 21821
G =
[   0.224353    0.12953         -0  ]
[          0   0.259061          0  ]
[          0         -0   0.195584  ]
Minimum fftbox size, Smin = [  116  116  132  ]
Chosen fftbox size, S = [  120  120  140  ]

---------- Exchange Correlation functional ----------
Initalized PBE GGA exchange.
Initalized PBE GGA correlation.

---------- Setting up pseudopotentials ----------
Width of ionic core gaussian charges (only for fluid interactions / plotting) set to 0.397384

Reading pseudopotential file '/home/akim2/jdftx_install/build/pseudopotentials/GBRV/c_pbe.uspp':
  Title: C.  Created by USPP 7.3.6 on 3-2-2014
  Reference state energy: -5.406344.  4 valence electrons in orbitals:
    |200>  occupation: 2  eigenvalue: -0.504890
    |210>  occupation: 2  eigenvalue: -0.194356
  lMax: 1  lLocal: 2  QijEcut: 5
  4 projectors sampled on a log grid with 503 points:
    l: 0  eig: -0.504890  rCut: 1.3
    l: 0  eig: 0.000000  rCut: 1.3
    l: 1  eig: -0.194357  rCut: 1.3
    l: 1  eig: 0.000000  rCut: 1.3
  Partial core density with radius 1.1
  Transforming core density to a uniform radial grid of dG=0.02 with 1618 points.
  Transforming local potential to a uniform radial grid of dG=0.02 with 1618 points.
  Transforming nonlocal projectors to a uniform radial grid of dG=0.02 with 432 points.
  Transforming density augmentations to a uniform radial grid of dG=0.02 with 1618 points.
  Transforming atomic orbitals to a uniform radial grid of dG=0.02 with 432 points.
  Core radius for overlap checks: 1.30 bohrs.

Reading pseudopotential file '/home/akim2/jdftx_install/build/pseudopotentials/GBRV/n_pbe.uspp':
  Title: N.  Created by USPP 7.3.6 on 3-2-2014
  Reference state energy: -9.763716.  5 valence electrons in orbitals:
    |200>  occupation: 2  eigenvalue: -0.681964
    |210>  occupation: 3  eigenvalue: -0.260726
  lMax: 1  lLocal: 2  QijEcut: 6
  4 projectors sampled on a log grid with 491 points:
    l: 0  eig: -0.681964  rCut: 1.15
    l: 0  eig: 0.000000  rCut: 1.15
    l: 1  eig: -0.260729  rCut: 1.2
    l: 1  eig: 0.500000  rCut: 1.2
  Partial core density with radius 0.8
  Transforming core density to a uniform radial grid of dG=0.02 with 1618 points.
  Transforming local potential to a uniform radial grid of dG=0.02 with 1618 points.
  Transforming nonlocal projectors to a uniform radial grid of dG=0.02 with 432 points.
  Transforming density augmentations to a uniform radial grid of dG=0.02 with 1618 points.
  Transforming atomic orbitals to a uniform radial grid of dG=0.02 with 432 points.
  Core radius for overlap checks: 1.20 bohrs.

Reading pseudopotential file '/home/akim2/jdftx_install/build/pseudopotentials/GBRV/fe_pbe.uspp':
  Title: Fe.  Created by USPP 7.3.6 on 15-6-15
  Reference state energy: -124.316937.  16 valence electrons in orbitals:
    |300>  occupation: 2  eigenvalue: -4.008817
    |310>  occupation: 6  eigenvalue: -2.753096
    |320>  occupation: 5  eigenvalue: -0.791264
    |400>  occupation: 2  eigenvalue: -0.516384
    |410>  occupation: 0  eigenvalue: -0.312222
  lMax: 2  lLocal: 3  QijEcut: 6
  6 projectors sampled on a log grid with 607 points:
    l: 0  eig: -4.008819  rCut: 1.55
    l: 0  eig: -0.516386  rCut: 1.55
    l: 1  eig: -2.753096  rCut: 1.55
    l: 1  eig: -0.312226  rCut: 1.55
    l: 2  eig: -0.791264  rCut: 1.65
    l: 2  eig: -0.450000  rCut: 1.65
  Partial core density with radius 0.65
  Transforming core density to a uniform radial grid of dG=0.02 with 1618 points.
  Transforming local potential to a uniform radial grid of dG=0.02 with 1618 points.
  Transforming nonlocal projectors to a uniform radial grid of dG=0.02 with 432 points.
  Transforming density augmentations to a uniform radial grid of dG=0.02 with 1618 points.
  Transforming atomic orbitals to a uniform radial grid of dG=0.02 with 432 points.
  Core radius for overlap checks: 1.65 bohrs.

Reading pseudopotential file '/home/akim2/jdftx_install/build/pseudopotentials/GBRV/s_pbe.uspp':
  Title: S.  Created by USPP 7.3.6 on 1-4-15
  Reference state energy: -11.898476.  6 valence electrons in orbitals:
    |300>  occupation: 2  eigenvalue: -0.634167
    |310>  occupation: 4  eigenvalue: -0.257568
  lMax: 2  lLocal: 3  QijEcut: 6
  6 projectors sampled on a log grid with 635 points:
    l: 0  eig: -0.634161  rCut: 1.5
    l: 0  eig: 1.500000  rCut: 1.5
    l: 1  eig: -0.257567  rCut: 1.5
    l: 1  eig: 1.500000  rCut: 1.5
    l: 2  eig: -1.000000  rCut: 1.5
    l: 2  eig: 1.500000  rCut: 1.5
  Partial core density with radius 1.15
  Transforming core density to a uniform radial grid of dG=0.02 with 1618 points.
  Transforming local potential to a uniform radial grid of dG=0.02 with 1618 points.
  Transforming nonlocal projectors to a uniform radial grid of dG=0.02 with 432 points.
  Transforming density augmentations to a uniform radial grid of dG=0.02 with 1618 points.
  Transforming atomic orbitals to a uniform radial grid of dG=0.02 with 432 points.
  Core radius for overlap checks: 1.50 bohrs.

Reading pseudopotential file '/home/akim2/jdftx_install/build/pseudopotentials/GBRV/na_pbe.uspp':
  Title: Na.  Created by USPP 7.3.6 on 23-9-15
  Reference state energy: -47.625620.  9 valence electrons in orbitals:
    |200>  occupation: 2  eigenvalue: -2.085638
    |210>  occupation: 6  eigenvalue: -1.053708
    |300>  occupation: 1  eigenvalue: -0.100838
  lMax: 2  lLocal: 0  QijEcut: 6
  5 projectors sampled on a log grid with 657 points:
    l: 0  eig: -2.085640  rCut: 1.37
    l: 0  eig: -0.100839  rCut: 1.37
    l: 1  eig: -1.053708  rCut: 1.47
    l: 1  eig: 0.500000  rCut: 1.47
    l: 2  eig: 0.750000  rCut: 2
  Transforming local potential to a uniform radial grid of dG=0.02 with 1618 points.
  Transforming nonlocal projectors to a uniform radial grid of dG=0.02 with 432 points.
  Transforming density augmentations to a uniform radial grid of dG=0.02 with 1618 points.
  Transforming atomic orbitals to a uniform radial grid of dG=0.02 with 432 points.
  Core radius for overlap checks: 2.00 bohrs.

Initialized 5 species with 74 total atoms.

Folded 1 k-points by 1x1x1 to 1 k-points.

---------- Setting up k-points, bands, fillings ----------
No reducable k-points. 
Computing the number of bands and number of electrons
Calculating initial fillings.
nElectrons: 324.000000   nBands: 307   nStates: 1

----- Setting up reduced wavefunction bases (one per k-point) -----
average nbasis = 93173.000 , ideal nbasis = 93220.781

---------- Setting up coulomb interaction ----------
Fluid mode embedding: using embedded box, but periodic Coulomb kernel.
(Fluid response is responsible for (approximate) separation between periodic images.)
Setting up double-sized grid for truncated Coulomb potentials:
R = 
[      28.0058     -14.0029            0  ]
[            0      24.2537            0  ]
[            0            0      64.2506  ]
unit cell volume = 43641.9
G =
[   0.224353    0.12953         -0  ]
[          0   0.259061          0  ]
[          0         -0  0.0977919  ]
Chosen fftbox size, S = [  128  128  300  ]
Integer grid location selected as the embedding center:
   Grid: [  0  0  14  ]
   Lattice: [  0  0  0.0933843  ]
   Cartesian: [  0  0  3  ]
Constructing Wigner-Seitz cell: 8 faces (6 quadrilaterals, 2 hexagons)
Range-separation parameter for embedded mesh potentials due to point charges: 0.590105 bohrs.

---------- Setting up ewald sum ----------
Optimum gaussian width for ewald sums = 6.854977 bohr.
Real space sum over 567 unit cells with max indices [  4  4  3  ]
Reciprocal space sum over 9537 terms with max indices [  8  8  16  ]

---------- Allocating electronic variables ----------
Initializing wave functions:  linear combination of atomic orbitals
C pseudo-atom occupations:   s ( 2 )  p ( 2 )
N pseudo-atom occupations:   s ( 2 )  p ( 3 )
Fe pseudo-atom occupations:   s ( 2 0 )  p ( 6 0 )  d ( 8 )
S pseudo-atom occupations:   s ( 2 )  p ( 4 )
Na pseudo-atom occupations:   s ( 2 1 )  p ( 6 )
	FillingsUpdate:  mu: -0.240524657  nElectrons: 324.000000
LCAOMinimize: Iter:   0  F: -625.6232350744711539  |grad|_K:  2.432e-02  alpha:  1.000e+00
	FillingsUpdate:  mu: -0.226265501  nElectrons: 324.000000
LCAOMinimize: Iter:   1  F: -630.5218527791661245  |grad|_K:  1.471e-02  alpha:  1.383e-01  linmin: -9.756e-02  cgtest:  8.971e-01  t[s]:      7.97
LCAOMinimize: Encountered beta<0, resetting CG.
	FillingsUpdate:  mu: -0.073862152  nElectrons: 324.000000
LCAOMinimize: Iter:   2  F: -641.0345993553968356  |grad|_K:  2.708e-02  alpha:  8.762e-02  linmin:  2.224e-01  cgtest:  2.076e-01  t[s]:      9.31
LCAOMinimize: 	Bad step direction: g.d > 0.
LCAOMinimize: 	Undoing step.
LCAOMinimize: 	Step failed: resetting search direction.
	FillingsUpdate:  mu: -0.073862152  nElectrons: 324.000000
LCAOMinimize: Iter:   3  F: -641.0345993553968356  |grad|_K:  2.708e-02  alpha:  0.000e+00
	FillingsUpdate:  mu: -0.220102382  nElectrons: 324.000000
LCAOMinimize: Iter:   4  F: -641.5026877790095341  |grad|_K:  2.897e-02  alpha:  3.780e-02  linmin:  1.319e-01  cgtest: -5.869e-01  t[s]:     11.61
LCAOMinimize: 	Wrong curvature in test step, increasing alphaT to 1.133986e-01.
	FillingsUpdate:  mu: -0.236737409  nElectrons: 324.000000
LCAOMinimize: Iter:   5  F: -642.1136455401180001  |grad|_K:  6.511e-03  alpha: -1.181e-01  linmin: -8.218e-02  cgtest:  1.734e+00  t[s]:     12.92
LCAOMinimize: Encountered beta<0, resetting CG.
LCAOMinimize: 	Step increased F by 8.026847e-01, reducing alpha to 1.081560e-02.
	FillingsUpdate:  mu: -0.234946409  nElectrons: 324.000000
LCAOMinimize: Iter:   6  F: -642.1564788549411560  |grad|_K:  5.950e-03  alpha:  1.082e-02  linmin: -3.732e-01  cgtest:  8.182e-01  t[s]:     17.99
LCAOMinimize: 	Wrong curvature in test step, increasing alphaT to 3.244681e-02.
	FillingsUpdate:  mu: -0.231697690  nElectrons: 324.000000
LCAOMinimize: Iter:   7  F: -642.2014391392057178  |grad|_K:  6.406e-03  alpha: -4.424e-02  linmin: -4.629e-01  cgtest:  8.000e-01  t[s]:     19.31
LCAOMinimize: 	Step increased F by 3.188647e+00, reducing alpha to 1.259704e-02.
	FillingsUpdate:  mu: -0.219246980  nElectrons: 324.000000
LCAOMinimize: Iter:   8  F: -642.2824735674087151  |grad|_K:  7.207e-03  alpha:  1.260e-02  linmin: -4.477e-01  cgtest:  7.500e-01  t[s]:     23.08
LCAOMinimize: 	Wrong curvature in test step, increasing alphaT to 3.779112e-02.
	FillingsUpdate:  mu: -0.197787780  nElectrons: 324.000000
LCAOMinimize: Iter:   9  F: -642.3965766098848462  |grad|_K:  6.916e-03  alpha: -5.469e-02  linmin: -3.755e-01  cgtest:  7.916e-01  t[s]:     24.38
LCAOMinimize: 	Step increased F by 5.394460e-01, reducing alpha to 9.709300e-03.
	FillingsUpdate:  mu: -0.188894511  nElectrons: 324.000000
LCAOMinimize: Iter:  10  F: -642.4537081113891190  |grad|_K:  6.045e-03  alpha:  9.709e-03  linmin: -2.627e-01  cgtest:  9.388e-01  t[s]:     27.35
LCAOMinimize: Encountered beta<0, resetting CG.
LCAOMinimize: 	Predicted alpha/alphaT>3.000000, increasing alphaT to 2.912790e-02.
	FillingsUpdate:  mu: -0.156012706  nElectrons: 324.000000
LCAOMinimize: Iter:  11  F: -642.5234624279863738  |grad|_K:  6.883e-03  alpha:  8.547e-02  linmin:  1.312e-01  cgtest: -4.251e-01  t[s]:     29.11
LCAOMinimize: 	Bad step direction: g.d > 0.
LCAOMinimize: 	Undoing step.
LCAOMinimize: 	Step failed: resetting search direction.
	FillingsUpdate:  mu: -0.156012706  nElectrons: 324.000000
LCAOMinimize: Iter:  12  F: -642.5234624279863738  |grad|_K:  6.883e-03  alpha:  0.000e+00
	FillingsUpdate:  mu: -0.230013538  nElectrons: 324.000000
LCAOMinimize: Iter:  13  F: -642.5697738962620633  |grad|_K:  3.925e-03  alpha:  2.539e-02  linmin:  1.055e-01  cgtest: -2.849e-01  t[s]:     31.40
	FillingsUpdate:  mu: -0.202601899  nElectrons: 324.000000
LCAOMinimize: Iter:  14  F: -642.5904658506784699  |grad|_K:  2.019e-03  alpha:  3.786e-02  linmin:  8.849e-04  cgtest:  5.858e-01  t[s]:     34.10
LCAOMinimize: Encountered beta<0, resetting CG.
	FillingsUpdate:  mu: -0.194067814  nElectrons: 324.000000
LCAOMinimize: Iter:  15  F: -642.5958448811303469  |grad|_K:  1.406e-03  alpha:  2.758e-02  linmin:  1.567e-03  cgtest: -5.044e-03  t[s]:     35.46
	FillingsUpdate:  mu: -0.222577001  nElectrons: 324.000000
LCAOMinimize: Iter:  16  F: -642.6029868783924712  |grad|_K:  1.065e-03  alpha:  7.588e-02  linmin: -2.077e-03  cgtest:  6.256e-02  t[s]:     36.82
	FillingsUpdate:  mu: -0.217101007  nElectrons: 324.000000
LCAOMinimize: Iter:  17  F: -642.6092592648692516  |grad|_K:  8.076e-04  alpha:  1.162e-01  linmin:  3.317e-03  cgtest:  5.843e-03  t[s]:     38.17
	FillingsUpdate:  mu: -0.210601986  nElectrons: 324.000000
LCAOMinimize: Iter:  18  F: -642.6099157045238144  |grad|_K:  4.106e-04  alpha:  2.199e-02  linmin:  5.103e-03  cgtest:  1.874e-02  t[s]:     39.53
LCAOMinimize: 	Predicted alpha/alphaT>3.000000, increasing alphaT to 6.597355e-02.
LCAOMinimize: 	Predicted alpha/alphaT>3.000000, increasing alphaT to 1.979206e-01.
	FillingsUpdate:  mu: -0.216998742  nElectrons: 324.000000
LCAOMinimize: Iter:  19  F: -642.6116159233149574  |grad|_K:  3.910e-04  alpha:  2.159e-01  linmin:  1.006e-03  cgtest: -2.539e-02  t[s]:     41.68
	FillingsUpdate:  mu: -0.216717719  nElectrons: 324.000000
LCAOMinimize: Iter:  20  F: -642.6120814743312621  |grad|_K:  3.775e-04  alpha:  6.641e-02  linmin:  1.719e-03  cgtest: -5.753e-03  t[s]:     43.03
	FillingsUpdate:  mu: -0.211989768  nElectrons: 324.000000
LCAOMinimize: Iter:  21  F: -642.6122470495424750  |grad|_K:  1.631e-04  alpha:  2.490e-02  linmin: -4.452e-04  cgtest:  5.631e-02  t[s]:     44.40
LCAOMinimize: 	Predicted alpha/alphaT>3.000000, increasing alphaT to 7.470511e-02.
LCAOMinimize: 	Predicted alpha/alphaT>3.000000, increasing alphaT to 2.241153e-01.
	FillingsUpdate:  mu: -0.213933036  nElectrons: 324.000000
LCAOMinimize: Iter:  22  F: -642.6125377852611109  |grad|_K:  1.513e-04  alpha:  2.301e-01  linmin:  4.252e-05  cgtest: -3.266e-02  t[s]:     46.53
	FillingsUpdate:  mu: -0.215220386  nElectrons: 324.000000
LCAOMinimize: Iter:  23  F: -642.6125668495443506  |grad|_K:  9.895e-05  alpha:  2.679e-02  linmin:  5.074e-05  cgtest:  3.397e-03  t[s]:     47.89
	FillingsUpdate:  mu: -0.213544397  nElectrons: 324.000000
LCAOMinimize: Iter:  24  F: -642.6125887573518867  |grad|_K:  3.487e-05  alpha:  4.719e-02  linmin: -1.335e-04  cgtest: -7.900e-03  t[s]:     49.25
LCAOMinimize: 	Predicted alpha/alphaT>3.000000, increasing alphaT to 1.415578e-01.
	FillingsUpdate:  mu: -0.213317001  nElectrons: 324.000000
LCAOMinimize: Iter:  25  F: -642.6126010718586485  |grad|_K:  6.484e-05  alpha:  2.133e-01  linmin: -1.313e-04  cgtest: -2.818e-03  t[s]:     51.00
	FillingsUpdate:  mu: -0.214005790  nElectrons: 324.000000
LCAOMinimize: Iter:  26  F: -642.6126056704023313  |grad|_K:  1.801e-05  alpha:  2.245e-02  linmin: -4.553e-03  cgtest:  8.442e-02  t[s]:     52.36
LCAOMinimize: 	Predicted alpha/alphaT>3.000000, increasing alphaT to 6.735176e-02.
	FillingsUpdate:  mu: -0.213740647  nElectrons: 324.000000
LCAOMinimize: Iter:  27  F: -642.6126068441918733  |grad|_K:  1.083e-05  alpha:  7.506e-02  linmin: -7.053e-05  cgtest: -3.152e-02  t[s]:     54.11
	FillingsUpdate:  mu: -0.213553570  nElectrons: 324.000000
LCAOMinimize: Iter:  28  F: -642.6126073494471029  |grad|_K:  2.034e-05  alpha:  9.084e-02  linmin: -7.467e-06  cgtest:  4.029e-03  t[s]:     55.46
	FillingsUpdate:  mu: -0.213863047  nElectrons: 324.000000
LCAOMinimize: Iter:  29  F: -642.6126086192559796  |grad|_K:  5.245e-06  alpha:  6.469e-02  linmin:  7.146e-06  cgtest:  2.154e-03  t[s]:     56.81
	FillingsUpdate:  mu: -0.213835656  nElectrons: 324.000000
LCAOMinimize: Iter:  30  F: -642.6126087834913960  |grad|_K:  7.135e-06  alpha:  1.258e-01  linmin: -5.685e-05  cgtest:  5.099e-04  t[s]:     58.17
LCAOMinimize: None of the convergence criteria satisfied after 30 iterations.
----- createFluidSolver() ----- (Fluid-side solver setup)
   Initializing fluid molecule 'PC'
     Net charge: 0   dipole magnitude: 0
     Initializing spherical shell mfKernel with radius 0 Bohr
     deltaS corrections:

Correction to mu due to finite nuclear width = -0.00736616
   Cavity determined by nc: 0.00098 and sigma: 0.6
   Effective cavity tension: 9.53e-06 Eh/bohr^2 to account for cavitation and dispersion.


---- Citations for features of the code used in this run ----

   Software package:
      R. Sundararaman, K. Letchworth-Weaver, K.A. Schwarz, D. Gunceler, Y. Ozhabes and T.A. Arias, 'JDFTx: software for joint density-functional theory', SoftwareX 6, 278 (2017)

   gga-PBE exchange-correlation functional:
      J.P. Perdew, K. Burke and M. Ernzerhof, Phys. Rev. Lett. 77, 3865 (1996)

   Pseudopotentials:
      KF Garrity, JW Bennett, KM Rabe and D Vanderbilt, Comput. Mater. Sci. 81, 446 (2014)

   Truncated Coulomb potentials:
      R. Sundararaman and T.A. Arias, Phys. Rev. B 87, 165122 (2013)

   Linear/nonlinear dielectric/ionic fluid model with effective cavity tension:
      D. Gunceler, K. Letchworth-Weaver, R. Sundararaman, K.A. Schwarz and T.A. Arias, Modelling Simul. Mater. Sci. Eng. 21, 074005 (2013)

This list may not be complete. Please suggest additional citations or
report any other bugs at https://github.com/shankar1729/jdftx/issues

Initialization completed successfully at t[s]:     58.33

Fluid solver invoked on fresh (random / LCAO) wavefunctions
Running a vacuum solve first:

-------- Initial electronic minimization -----------
Will mix electronic density at each iteration.
	FillingsUpdate:  mu: -0.213835656  nElectrons: 324.000000
	FillingsUpdate:  mu: -0.225573683  nElectrons: 324.000000
SCF: Cycle:  0   F: -645.895645340783744   dF: -3.283e+00   |Residual|: 9.504e-01   |deigs|: 1.158e-01  t[s]:     62.26
	FillingsUpdate:  mu: -0.213616099  nElectrons: 324.000000
SCF: Cycle:  1   F: -645.559610788622535   dF: +3.360e-01   |Residual|: 6.572e-01   |deigs|: 3.314e-02  t[s]:     65.06
	FillingsUpdate:  mu: -0.147835476  nElectrons: 324.000000
SCF: Cycle:  2   F: -635.049062628334241   dF: +1.051e+01   |Residual|: 1.946e+00   |deigs|: 3.417e-02  t[s]:     67.87
	FillingsUpdate:  mu: -0.175627831  nElectrons: 324.000000
SCF: Cycle:  3   F: -646.194121402964925   dF: -1.115e+01   |Residual|: 3.270e-01   |deigs|: 2.751e-02  t[s]:     70.67
	FillingsUpdate:  mu: -0.165255565  nElectrons: 324.000000
SCF: Cycle:  4   F: -646.681375950519623   dF: -4.873e-01   |Residual|: 2.243e-01   |deigs|: 1.262e-02  t[s]:     73.47
	FillingsUpdate:  mu: -0.165483036  nElectrons: 324.000000
SCF: Cycle:  5   F: -646.758411720195909   dF: -7.704e-02   |Residual|: 1.253e-01   |deigs|: 1.661e-03  t[s]:     76.26
	FillingsUpdate:  mu: -0.154783802  nElectrons: 324.000000
SCF: Cycle:  6   F: -646.764142639391139   dF: -5.731e-03   |Residual|: 1.143e-01   |deigs|: 7.311e-03  t[s]:     79.08
	FillingsUpdate:  mu: -0.151187425  nElectrons: 324.000000
SCF: Cycle:  7   F: -646.815550868273476   dF: -5.141e-02   |Residual|: 7.979e-02   |deigs|: 6.237e-03  t[s]:     81.91
	FillingsUpdate:  mu: -0.144135571  nElectrons: 324.000000
SCF: Cycle:  8   F: -646.836471614097491   dF: -2.092e-02   |Residual|: 3.085e-02   |deigs|: 4.799e-03  t[s]:     84.72
	FillingsUpdate:  mu: -0.139384677  nElectrons: 324.000000
SCF: Cycle:  9   F: -646.839996605821625   dF: -3.525e-03   |Residual|: 2.334e-02   |deigs|: 3.981e-03  t[s]:     87.32
	FillingsUpdate:  mu: -0.134980660  nElectrons: 324.000000
SCF: Cycle: 10   F: -646.833091278605480   dF: +6.905e-03   |Residual|: 4.891e-02   |deigs|: 4.952e-03  t[s]:     89.98
	FillingsUpdate:  mu: -0.133623716  nElectrons: 324.000000
SCF: Cycle: 11   F: -646.830494770631503   dF: +2.597e-03   |Residual|: 5.693e-02   |deigs|: 2.086e-03  t[s]:     92.79
	FillingsUpdate:  mu: -0.131094817  nElectrons: 324.000000
SCF: Cycle: 12   F: -646.842002866498092   dF: -1.151e-02   |Residual|: 9.314e-03   |deigs|: 2.375e-03  t[s]:     95.26
	FillingsUpdate:  mu: -0.127535867  nElectrons: 324.000000
SCF: Cycle: 13   F: -646.837927835818846   dF: +4.075e-03   |Residual|: 2.321e-02   |deigs|: 2.894e-03  t[s]:     97.72
	FillingsUpdate:  mu: -0.125785357  nElectrons: 324.000000
SCF: Cycle: 14   F: -646.842410092724435   dF: -4.482e-03   |Residual|: 9.064e-03   |deigs|: 1.855e-03  t[s]:    100.19
	FillingsUpdate:  mu: -0.122657784  nElectrons: 324.000000
SCF: Cycle: 15   F: -646.842408778094409   dF: +1.315e-06   |Residual|: 4.712e-03   |deigs|: 3.001e-03  t[s]:    102.59
	FillingsUpdate:  mu: -0.120403475  nElectrons: 324.000000
SCF: Cycle: 16   F: -646.842540304799513   dF: -1.315e-04   |Residual|: 7.012e-03   |deigs|: 2.305e-03  t[s]:    105.04
	FillingsUpdate:  mu: -0.117507880  nElectrons: 324.000000
SCF: Cycle: 17   F: -646.842665425537234   dF: -1.251e-04   |Residual|: 4.103e-03   |deigs|: 2.811e-03  t[s]:    107.45
	FillingsUpdate:  mu: -0.116081536  nElectrons: 324.000000
SCF: Cycle: 18   F: -646.842710820751222   dF: -4.540e-05   |Residual|: 1.843e-03   |deigs|: 1.687e-03  t[s]:    109.85
	FillingsUpdate:  mu: -0.115074610  nElectrons: 324.000000
SCF: Cycle: 19   F: -646.842713562009635   dF: -2.741e-06   |Residual|: 1.430e-03   |deigs|: 1.728e-03  t[s]:    112.25
	FillingsUpdate:  mu: -0.114797611  nElectrons: 324.000000
SCF: Cycle: 20   F: -646.842720265720686   dF: -6.704e-06   |Residual|: 1.073e-03   |deigs|: 4.065e-04  t[s]:    114.66
	FillingsUpdate:  mu: -0.114748804  nElectrons: 324.000000
SCF: Cycle: 21   F: -646.842724955272388   dF: -4.690e-06   |Residual|: 6.833e-04   |deigs|: 4.462e-04  t[s]:    117.07
	FillingsUpdate:  mu: -0.114751043  nElectrons: 324.000000
SCF: Cycle: 22   F: -646.842726677490532   dF: -1.722e-06   |Residual|: 4.093e-04   |deigs|: 3.534e-04  t[s]:    119.48
	FillingsUpdate:  mu: -0.114692425  nElectrons: 324.000000
SCF: Cycle: 23   F: -646.842726930609956   dF: -2.531e-07   |Residual|: 3.875e-04   |deigs|: 4.343e-04  t[s]:    121.89
	FillingsUpdate:  mu: -0.114662534  nElectrons: 324.000000
SCF: Cycle: 24   F: -646.842727440987460   dF: -5.104e-07   |Residual|: 2.028e-04   |deigs|: 2.887e-04  t[s]:    124.31
	FillingsUpdate:  mu: -0.114606631  nElectrons: 324.000000
SCF: Cycle: 25   F: -646.842727616748562   dF: -1.758e-07   |Residual|: 1.071e-04   |deigs|: 3.769e-04  t[s]:    126.71
	FillingsUpdate:  mu: -0.114575839  nElectrons: 324.000000
SCF: Cycle: 26   F: -646.842727685005229   dF: -6.826e-08   |Residual|: 8.462e-05   |deigs|: 1.703e-04  t[s]:    129.11
	FillingsUpdate:  mu: -0.114559972  nElectrons: 324.000000
SCF: Cycle: 27   F: -646.842727776774609   dF: -9.177e-08   |Residual|: 5.448e-05   |deigs|: 1.923e-04  t[s]:    131.51
	FillingsUpdate:  mu: -0.114562914  nElectrons: 324.000000
SCF: Cycle: 28   F: -646.842727798134320   dF: -2.136e-08   |Residual|: 4.622e-05   |deigs|: 1.209e-04  t[s]:    133.90
	FillingsUpdate:  mu: -0.114569271  nElectrons: 324.000000
SCF: Cycle: 29   F: -646.842727817124683   dF: -1.899e-08   |Residual|: 3.152e-05   |deigs|: 8.488e-05  t[s]:    136.30
	FillingsUpdate:  mu: -0.114569210  nElectrons: 324.000000
SCF: Cycle: 30   F: -646.842727827178578   dF: -1.005e-08   |Residual|: 2.165e-05   |deigs|: 5.180e-05  t[s]:    138.69
	FillingsUpdate:  mu: -0.114565353  nElectrons: 324.000000
SCF: Cycle: 31   F: -646.842727833411800   dF: -6.233e-09   |Residual|: 1.615e-05   |deigs|: 5.817e-05  t[s]:    141.10
	FillingsUpdate:  mu: -0.114561863  nElectrons: 324.000000
SCF: Cycle: 32   F: -646.842727839841928   dF: -6.430e-09   |Residual|: 1.102e-05   |deigs|: 7.415e-05  t[s]:    143.51
SCF: Converged (|Delta E|<1.000000e-08 for 2 iters).

Setting wave functions to eigenvectors of Hamiltonian
Vacuum energy after initial minimize, F = -646.842727839841928


-------- Electronic minimization -----------
Will mix electronic density at each iteration.
	FillingsUpdate:  mu: -0.114561863  nElectrons: 324.000000
	Linear fluid (dielectric constant: 64) occupying 0.875584 of unit cell:	Completed after 43 iterations at t[s]:    144.49
	FillingsUpdate:  mu: -0.100578878  nElectrons: 324.000000
	Linear fluid (dielectric constant: 64) occupying 0.875567 of unit cell:	Completed after 36 iterations at t[s]:    148.13
SCF: Cycle:  0   F: -646.814092277821601   dF: +1.252e-01   |Residual|: 2.147e-01   |deigs|: 2.700e-03  t[s]:    148.28
	Linear fluid (dielectric constant: 64) occupying 0.875860 of unit cell:	Completed after 35 iterations at t[s]:    148.71
	FillingsUpdate:  mu: -0.109444331  nElectrons: 324.000000
	Linear fluid (dielectric constant: 64) occupying 0.876118 of unit cell:	Completed after 39 iterations at t[s]:    151.96
SCF: Cycle:  1   F: -644.752380887580330   dF: +2.062e+00   |Residual|: 9.840e-01   |deigs|: 1.630e-02  t[s]:    152.10
	Linear fluid (dielectric constant: 64) occupying 0.875743 of unit cell:	Completed after 37 iterations at t[s]:    152.55
	FillingsUpdate:  mu: -0.104962842  nElectrons: 324.000000
	Linear fluid (dielectric constant: 64) occupying 0.875454 of unit cell:	Completed after 34 iterations at t[s]:    155.77
SCF: Cycle:  2   F: -646.905859306837897   dF: -2.153e+00   |Residual|: 1.671e-01   |deigs|: 1.469e-02  t[s]:    155.92
	Linear fluid (dielectric constant: 64) occupying 0.875641 of unit cell:	Completed after 31 iterations at t[s]:    156.32
	FillingsUpdate:  mu: -0.097166398  nElectrons: 324.000000
	Linear fluid (dielectric constant: 64) occupying 0.875186 of unit cell:	Completed after 35 iterations at t[s]:    159.53
SCF: Cycle:  3   F: -646.674901688341606   dF: +2.310e-01   |Residual|: 3.181e-01   |deigs|: 3.699e-03  t[s]:    159.67
	Linear fluid (dielectric constant: 64) occupying 0.875594 of unit cell:	Completed after 35 iterations at t[s]:    160.10
	FillingsUpdate:  mu: -0.102508822  nElectrons: 324.000000
	Linear fluid (dielectric constant: 64) occupying 0.875410 of unit cell:	Completed after 29 iterations at t[s]:    163.23
SCF: Cycle:  4   F: -646.984354618954740   dF: -3.095e-01   |Residual|: 2.437e-02   |deigs|: 2.425e-03  t[s]:    163.38
	Linear fluid (dielectric constant: 64) occupying 0.875432 of unit cell:	Completed after 27 iterations at t[s]:    163.73
	FillingsUpdate:  mu: -0.102043117  nElectrons: 324.000000
	Linear fluid (dielectric constant: 64) occupying 0.875421 of unit cell:	Completed after 27 iterations at t[s]:    166.86
SCF: Cycle:  5   F: -646.985344239258438   dF: -9.896e-04   |Residual|: 1.706e-02   |deigs|: 1.171e-03  t[s]:    167.00
	Linear fluid (dielectric constant: 64) occupying 0.875288 of unit cell:	Completed after 23 iterations at t[s]:    167.32
	FillingsUpdate:  mu: -0.101246310  nElectrons: 324.000000
	Linear fluid (dielectric constant: 64) occupying 0.875359 of unit cell:	Completed after 26 iterations at t[s]:    170.41
SCF: Cycle:  6   F: -646.983050123789553   dF: +2.294e-03   |Residual|: 3.105e-02   |deigs|: 8.721e-04  t[s]:    170.56
	Linear fluid (dielectric constant: 64) occupying 0.875121 of unit cell:	Completed after 23 iterations at t[s]:    170.88
	FillingsUpdate:  mu: -0.100679285  nElectrons: 324.000000
	Linear fluid (dielectric constant: 64) occupying 0.875269 of unit cell:	Completed after 23 iterations at t[s]:    173.99
SCF: Cycle:  7   F: -646.980783069164545   dF: +2.267e-03   |Residual|: 4.257e-02   |deigs|: 7.827e-04  t[s]:    174.13
	Linear fluid (dielectric constant: 64) occupying 0.874981 of unit cell:	Completed after 23 iterations at t[s]:    174.45
	FillingsUpdate:  mu: -0.101182697  nElectrons: 324.000000
	Linear fluid (dielectric constant: 64) occupying 0.875227 of unit cell:	Completed after 24 iterations at t[s]:    177.55
SCF: Cycle:  8   F: -646.982603579133979   dF: -1.821e-03   |Residual|: 3.520e-02   |deigs|: 3.994e-04  t[s]:    177.70
	Linear fluid (dielectric constant: 64) occupying 0.874867 of unit cell:	Completed after 24 iterations at t[s]:    178.03
	FillingsUpdate:  mu: -0.101579790  nElectrons: 324.000000
	Linear fluid (dielectric constant: 64) occupying 0.875204 of unit cell:	Completed after 19 iterations at t[s]:    180.72
SCF: Cycle:  9   F: -646.986688113858577   dF: -4.085e-03   |Residual|: 4.845e-03   |deigs|: 4.715e-04  t[s]:    180.87
	Linear fluid (dielectric constant: 64) occupying 0.874766 of unit cell:	Completed after 18 iterations at t[s]:    181.16
	FillingsUpdate:  mu: -0.102052930  nElectrons: 324.000000
	Linear fluid (dielectric constant: 64) occupying 0.875187 of unit cell:	Completed after 19 iterations at t[s]:    183.84
SCF: Cycle: 10   F: -646.986696621524970   dF: -8.508e-06   |Residual|: 5.118e-03   |deigs|: 6.285e-04  t[s]:    183.98
	Linear fluid (dielectric constant: 64) occupying 0.874819 of unit cell:	Completed after 19 iterations at t[s]:    184.27
	FillingsUpdate:  mu: -0.102050763  nElectrons: 324.000000
	Linear fluid (dielectric constant: 64) occupying 0.875190 of unit cell:	Completed after 17 iterations at t[s]:    186.89
SCF: Cycle: 11   F: -646.986803406154877   dF: -1.068e-04   |Residual|: 3.286e-03   |deigs|: 3.352e-04  t[s]:    187.03
	Linear fluid (dielectric constant: 64) occupying 0.874959 of unit cell:	Completed after 16 iterations at t[s]:    187.29
	FillingsUpdate:  mu: -0.102222549  nElectrons: 324.000000
	Linear fluid (dielectric constant: 64) occupying 0.875212 of unit cell:	Completed after 14 iterations at t[s]:    189.92
SCF: Cycle: 12   F: -646.986840939893000   dF: -3.753e-05   |Residual|: 2.269e-03   |deigs|: 6.615e-04  t[s]:    190.06
	Linear fluid (dielectric constant: 64) occupying 0.875060 of unit cell:	Completed after 12 iterations at t[s]:    190.29
	FillingsUpdate:  mu: -0.102334292  nElectrons: 324.000000
	Linear fluid (dielectric constant: 64) occupying 0.875228 of unit cell:	Completed after 12 iterations at t[s]:    192.86
SCF: Cycle: 13   F: -646.986838399480348   dF: +2.540e-06   |Residual|: 1.910e-03   |deigs|: 6.084e-04  t[s]:    193.00
	Linear fluid (dielectric constant: 64) occupying 0.875171 of unit cell:	Completed after 13 iterations at t[s]:    193.22
	FillingsUpdate:  mu: -0.102265133  nElectrons: 324.000000
	Linear fluid (dielectric constant: 64) occupying 0.875238 of unit cell:	Completed after 13 iterations at t[s]:    195.79
SCF: Cycle: 14   F: -646.986815637668656   dF: +2.276e-05   |Residual|: 3.486e-03   |deigs|: 6.413e-04  t[s]:    195.93
	Linear fluid (dielectric constant: 64) occupying 0.875203 of unit cell:	Completed after 12 iterations at t[s]:    196.15
	FillingsUpdate:  mu: -0.102343586  nElectrons: 324.000000
	Linear fluid (dielectric constant: 64) occupying 0.875247 of unit cell:	Completed after 10 iterations at t[s]:    198.69
SCF: Cycle: 15   F: -646.986841848163294   dF: -2.621e-05   |Residual|: 1.745e-03   |deigs|: 4.971e-04  t[s]:    198.83
	Linear fluid (dielectric constant: 64) occupying 0.875212 of unit cell:	Completed after 10 iterations at t[s]:    199.02
	FillingsUpdate:  mu: -0.102353256  nElectrons: 324.000000
	Linear fluid (dielectric constant: 64) occupying 0.875252 of unit cell:	Completed after 7 iterations at t[s]:    201.53
SCF: Cycle: 16   F: -646.986842846968671   dF: -9.988e-07   |Residual|: 1.807e-03   |deigs|: 3.800e-04  t[s]:    201.68
	Linear fluid (dielectric constant: 64) occupying 0.875220 of unit cell:	Completed after 7 iterations at t[s]:    201.83
	FillingsUpdate:  mu: -0.102334486  nElectrons: 324.000000
	Linear fluid (dielectric constant: 64) occupying 0.875253 of unit cell:	Completed after 7 iterations at t[s]:    204.35
SCF: Cycle: 17   F: -646.986845320657153   dF: -2.474e-06   |Residual|: 1.236e-03   |deigs|: 1.933e-04  t[s]:    204.49
	Linear fluid (dielectric constant: 64) occupying 0.875219 of unit cell:	Completed after 7 iterations at t[s]:    204.64
	FillingsUpdate:  mu: -0.102356098  nElectrons: 324.000000
	Linear fluid (dielectric constant: 64) occupying 0.875255 of unit cell:	Completed after 8 iterations at t[s]:    207.16
SCF: Cycle: 18   F: -646.986847567729228   dF: -2.247e-06   |Residual|: 7.063e-04   |deigs|: 3.987e-04  t[s]:    207.31
	Linear fluid (dielectric constant: 64) occupying 0.875227 of unit cell:	Completed after 5 iterations at t[s]:    207.44
	FillingsUpdate:  mu: -0.102358914  nElectrons: 324.000000
	Linear fluid (dielectric constant: 64) occupying 0.875254 of unit cell:	Completed after 5 iterations at t[s]:    209.93
SCF: Cycle: 19   F: -646.986849086766370   dF: -1.519e-06   |Residual|: 5.340e-04   |deigs|: 2.258e-04  t[s]:    210.06
	Linear fluid (dielectric constant: 64) occupying 0.875241 of unit cell:	Completed after 5 iterations at t[s]:    210.21
	FillingsUpdate:  mu: -0.102365323  nElectrons: 324.000000
	Linear fluid (dielectric constant: 64) occupying 0.875255 of unit cell:	Completed after 9 iterations at t[s]:    212.74
SCF: Cycle: 20   F: -646.986841820525569   dF: +7.266e-06   |Residual|: 1.605e-03   |deigs|: 1.622e-04  t[s]:    212.88
	Linear fluid (dielectric constant: 64) occupying 0.875250 of unit cell:	Completed after 9 iterations at t[s]:    213.05
	FillingsUpdate:  mu: -0.102363149  nElectrons: 324.000000
	Linear fluid (dielectric constant: 64) occupying 0.875253 of unit cell:	Completed after 3 iterations at t[s]:    215.54
SCF: Cycle: 21   F: -646.986852067997461   dF: -1.025e-05   |Residual|: 2.442e-04   |deigs|: 1.653e-04  t[s]:    215.66
	Linear fluid (dielectric constant: 64) occupying 0.875253 of unit cell:	Completed after 1 iterations at t[s]:    215.77
	FillingsUpdate:  mu: -0.102353802  nElectrons: 324.000000
	Linear fluid (dielectric constant: 64) occupying 0.875253 of unit cell:	Completed after 4 iterations at t[s]:    218.24
SCF: Cycle: 22   F: -646.986849647923918   dF: +2.420e-06   |Residual|: 1.013e-03   |deigs|: 1.703e-04  t[s]:    218.37
	Linear fluid (dielectric constant: 64) occupying 0.875252 of unit cell:	Completed after 4 iterations at t[s]:    218.49
	FillingsUpdate:  mu: -0.102407760  nElectrons: 324.000000
	Linear fluid (dielectric constant: 64) occupying 0.875256 of unit cell:	Completed after 9 iterations at t[s]:    221.04
SCF: Cycle: 23   F: -646.986842700411444   dF: +6.948e-06   |Residual|: 1.716e-03   |deigs|: 1.021e-04  t[s]:    221.18
	Linear fluid (dielectric constant: 64) occupying 0.875252 of unit cell:	Completed after 8 iterations at t[s]:    221.35
	FillingsUpdate:  mu: -0.102381538  nElectrons: 324.000000
	Linear fluid (dielectric constant: 64) occupying 0.875255 of unit cell:	Completed after 3 iterations at t[s]:    223.83
SCF: Cycle: 24   F: -646.986852391665934   dF: -9.691e-06   |Residual|: 2.849e-04   |deigs|: 1.377e-04  t[s]:    223.96
	Linear fluid (dielectric constant: 64) occupying 0.875251 of unit cell:	Completed after 2 iterations at t[s]:    224.06
	FillingsUpdate:  mu: -0.102359245  nElectrons: 324.000000
	Linear fluid (dielectric constant: 64) occupying 0.875254 of unit cell:	Completed after 4 iterations at t[s]:    226.51
SCF: Cycle: 25   F: -646.986847617377748   dF: +4.774e-06   |Residual|: 1.316e-03   |deigs|: 1.179e-04  t[s]:    226.64
	Linear fluid (dielectric constant: 64) occupying 0.875248 of unit cell:	Completed after 4 iterations at t[s]:    226.77
	FillingsUpdate:  mu: -0.102429675  nElectrons: 324.000000
	Linear fluid (dielectric constant: 64) occupying 0.875257 of unit cell:	Completed after 10 iterations at t[s]:    229.30
SCF: Cycle: 26   F: -646.986825090777870   dF: +2.253e-05   |Residual|: 2.976e-03   |deigs|: 9.351e-05  t[s]:    229.44
	Linear fluid (dielectric constant: 64) occupying 0.875250 of unit cell:	Completed after 10 iterations at t[s]:    229.63
	FillingsUpdate:  mu: -0.102393424  nElectrons: 324.000000
	Linear fluid (dielectric constant: 64) occupying 0.875256 of unit cell:	Completed after 4 iterations at t[s]:    231.59
SCF: Cycle: 27   F: -646.986849708964883   dF: -2.462e-05   |Residual|: 1.058e-03   |deigs|: 3.976e-05  t[s]:    231.72
	Linear fluid (dielectric constant: 64) occupying 0.875250 of unit cell:	Completed after 4 iterations at t[s]:    231.85
	FillingsUpdate:  mu: -0.102389833  nElectrons: 324.000000
	Linear fluid (dielectric constant: 64) occupying 0.875255 of unit cell:	Completed after 2 iterations at t[s]:    233.79
SCF: Cycle: 28   F: -646.986852488959130   dF: -2.780e-06   |Residual|: 3.246e-04   |deigs|: 8.779e-05  t[s]:    233.92
	Linear fluid (dielectric constant: 64) occupying 0.875251 of unit cell:	Completed after 2 iterations at t[s]:    234.02
	FillingsUpdate:  mu: -0.102356116  nElectrons: 324.000000
	Linear fluid (dielectric constant: 64) occupying 0.875254 of unit cell:	Completed after 8 iterations at t[s]:    236.51
SCF: Cycle: 29   F: -646.986846484006037   dF: +6.005e-06   |Residual|: 1.423e-03   |deigs|: 5.224e-05  t[s]:    236.65
	Linear fluid (dielectric constant: 64) occupying 0.875251 of unit cell:	Completed after 4 iterations at t[s]:    236.78
	FillingsUpdate:  mu: -0.102431598  nElectrons: 324.000000
	Linear fluid (dielectric constant: 64) occupying 0.875257 of unit cell:	Completed after 11 iterations at t[s]:    238.79
SCF: Cycle: 30   F: -646.986825714513884   dF: +2.077e-05   |Residual|: 2.806e-03   |deigs|: 8.925e-05  t[s]:    238.93
	Linear fluid (dielectric constant: 64) occupying 0.875252 of unit cell:	Completed after 11 iterations at t[s]:    239.13
	FillingsUpdate:  mu: -0.102397551  nElectrons: 324.000000
	Linear fluid (dielectric constant: 64) occupying 0.875256 of unit cell:	Completed after 5 iterations at t[s]:    241.11
SCF: Cycle: 31   F: -646.986848044568092   dF: -2.233e-05   |Residual|: 1.264e-03   |deigs|: 2.076e-05  t[s]:    241.24
	Linear fluid (dielectric constant: 64) occupying 0.875251 of unit cell:	Completed after 4 iterations at t[s]:    241.37
	FillingsUpdate:  mu: -0.102394879  nElectrons: 324.000000
	Linear fluid (dielectric constant: 64) occupying 0.875255 of unit cell:	Completed after 3 iterations at t[s]:    243.30
SCF: Cycle: 32   F: -646.986851767931171   dF: -3.723e-06   |Residual|: 6.268e-04   |deigs|: 4.509e-05  t[s]:    243.43
	Linear fluid (dielectric constant: 64) occupying 0.875253 of unit cell:	Completed after 3 iterations at t[s]:    243.54
	FillingsUpdate:  mu: -0.102389067  nElectrons: 324.000000
	Linear fluid (dielectric constant: 64) occupying 0.875255 of unit cell:	Completed after 3 iterations at t[s]:    245.99
SCF: Cycle: 33   F: -646.986852340898167   dF: -5.730e-07   |Residual|: 4.013e-04   |deigs|: 1.214e-04  t[s]:    246.12
	Linear fluid (dielectric constant: 64) occupying 0.875253 of unit cell:	Completed after 3 iterations at t[s]:    246.24
	FillingsUpdate:  mu: -0.102392918  nElectrons: 324.000000
	Linear fluid (dielectric constant: 64) occupying 0.875256 of unit cell:	Completed after 4 iterations at t[s]:    248.70
SCF: Cycle: 34   F: -646.986851823912389   dF: +5.170e-07   |Residual|: 5.836e-04   |deigs|: 7.593e-05  t[s]:    248.83
	Linear fluid (dielectric constant: 64) occupying 0.875254 of unit cell:	Completed after 3 iterations at t[s]:    248.94
	FillingsUpdate:  mu: -0.102402430  nElectrons: 324.000000
	Linear fluid (dielectric constant: 64) occupying 0.875256 of unit cell:	Completed after 4 iterations at t[s]:    251.42
SCF: Cycle: 35   F: -646.986849729185337   dF: +2.095e-06   |Residual|: 1.028e-03   |deigs|: 4.946e-05  t[s]:    251.55
	Linear fluid (dielectric constant: 64) occupying 0.875254 of unit cell:	Completed after 4 iterations at t[s]:    251.68
	FillingsUpdate:  mu: -0.102397593  nElectrons: 324.000000
	Linear fluid (dielectric constant: 64) occupying 0.875256 of unit cell:	Completed after 4 iterations at t[s]:    254.16
SCF: Cycle: 36   F: -646.986851309049257   dF: -1.580e-06   |Residual|: 7.365e-04   |deigs|: 6.446e-05  t[s]:    254.29
	Linear fluid (dielectric constant: 64) occupying 0.875255 of unit cell:	Completed after 3 iterations at t[s]:    254.41
	FillingsUpdate:  mu: -0.102397446  nElectrons: 324.000000
	Linear fluid (dielectric constant: 64) occupying 0.875256 of unit cell:	Completed after 4 iterations at t[s]:    256.34
SCF: Cycle: 37   F: -646.986851353261613   dF: -4.421e-08   |Residual|: 7.113e-04   |deigs|: 5.991e-05  t[s]:    256.47
	Linear fluid (dielectric constant: 64) occupying 0.875255 of unit cell:	Completed after 4 iterations at t[s]:    256.60
	FillingsUpdate:  mu: -0.102402409  nElectrons: 324.000000
	Linear fluid (dielectric constant: 64) occupying 0.875256 of unit cell:	Completed after 4 iterations at t[s]:    259.07
SCF: Cycle: 38   F: -646.986849335767261   dF: +2.017e-06   |Residual|: 1.089e-03   |deigs|: 5.405e-05  t[s]:    259.20
	Linear fluid (dielectric constant: 64) occupying 0.875255 of unit cell:	Completed after 4 iterations at t[s]:    259.33
	FillingsUpdate:  mu: -0.102396106  nElectrons: 324.000000
	Linear fluid (dielectric constant: 64) occupying 0.875256 of unit cell:	Completed after 2 iterations at t[s]:    261.20
SCF: Cycle: 39   F: -646.986851833401261   dF: -2.498e-06   |Residual|: 6.042e-04   |deigs|: 5.489e-05  t[s]:    261.32
	Linear fluid (dielectric constant: 64) occupying 0.875255 of unit cell:	Completed after 4 iterations at t[s]:    261.45
	FillingsUpdate:  mu: -0.102397677  nElectrons: 324.000000
	Linear fluid (dielectric constant: 64) occupying 0.875256 of unit cell:	Completed after 4 iterations at t[s]:    263.37
SCF: Cycle: 40   F: -646.986850754842408   dF: +1.079e-06   |Residual|: 8.153e-04   |deigs|: 6.065e-05  t[s]:    263.50
	Linear fluid (dielectric constant: 64) occupying 0.875255 of unit cell:	Completed after 4 iterations at t[s]:    263.63
	FillingsUpdate:  mu: -0.102397511  nElectrons: 324.000000
	Linear fluid (dielectric constant: 64) occupying 0.875256 of unit cell:	Completed after 3 iterations at t[s]:    265.56
SCF: Cycle: 41   F: -646.986850997780948   dF: -2.429e-07   |Residual|: 7.886e-04   |deigs|: 3.206e-05  t[s]:    265.68
	Linear fluid (dielectric constant: 64) occupying 0.875255 of unit cell:	Completed after 4 iterations at t[s]:    265.81
	FillingsUpdate:  mu: -0.102399169  nElectrons: 324.000000
	Linear fluid (dielectric constant: 64) occupying 0.875256 of unit cell:	Completed after 4 iterations at t[s]:    267.77
SCF: Cycle: 42   F: -646.986850355114257   dF: +6.427e-07   |Residual|: 9.082e-04   |deigs|: 7.616e-06  t[s]:    267.90
	Linear fluid (dielectric constant: 64) occupying 0.875255 of unit cell:	Completed after 4 iterations at t[s]:    268.02
	FillingsUpdate:  mu: -0.102398088  nElectrons: 324.000000
	Linear fluid (dielectric constant: 64) occupying 0.875256 of unit cell:	Completed after 4 iterations at t[s]:    269.92
SCF: Cycle: 43   F: -646.986850768094996   dF: -4.130e-07   |Residual|: 8.386e-04   |deigs|: 1.845e-05  t[s]:    270.05
	Linear fluid (dielectric constant: 64) occupying 0.875255 of unit cell:	Completed after 4 iterations at t[s]:    270.18
	FillingsUpdate:  mu: -0.102399801  nElectrons: 324.000000
	Linear fluid (dielectric constant: 64) occupying 0.875256 of unit cell:	Completed after 4 iterations at t[s]:    272.11
SCF: Cycle: 44   F: -646.986850127315392   dF: +6.408e-07   |Residual|: 9.561e-04   |deigs|: 3.427e-05  t[s]:    272.25
	Linear fluid (dielectric constant: 64) occupying 0.875256 of unit cell:	Completed after 4 iterations at t[s]:    272.37
	FillingsUpdate:  mu: -0.102399358  nElectrons: 324.000000
	Linear fluid (dielectric constant: 64) occupying 0.875256 of unit cell:	Completed after 4 iterations at t[s]:    274.84
SCF: Cycle: 45   F: -646.986850209195495   dF: -8.188e-08   |Residual|: 9.383e-04   |deigs|: 1.363e-04  t[s]:    274.97
	Linear fluid (dielectric constant: 64) occupying 0.875255 of unit cell:	Completed after 4 iterations at t[s]:    275.10
	FillingsUpdate:  mu: -0.102401236  nElectrons: 324.000000
	Linear fluid (dielectric constant: 64) occupying 0.875256 of unit cell:	Completed after 4 iterations at t[s]:    277.58
SCF: Cycle: 46   F: -646.986849178837133   dF: +1.030e-06   |Residual|: 1.107e-03   |deigs|: 2.827e-05  t[s]:    277.71
	Linear fluid (dielectric constant: 64) occupying 0.875255 of unit cell:	Completed after 4 iterations at t[s]:    277.84
	FillingsUpdate:  mu: -0.102399073  nElectrons: 324.000000
	Linear fluid (dielectric constant: 64) occupying 0.875256 of unit cell:	Completed after 4 iterations at t[s]:    279.74
SCF: Cycle: 47   F: -646.986849925922229   dF: -7.471e-07   |Residual|: 9.915e-04   |deigs|: 4.237e-05  t[s]:    279.88
	Linear fluid (dielectric constant: 64) occupying 0.875255 of unit cell:	Completed after 4 iterations at t[s]:    280.00
	FillingsUpdate:  mu: -0.102400389  nElectrons: 324.000000
	Linear fluid (dielectric constant: 64) occupying 0.875256 of unit cell:	Completed after 4 iterations at t[s]:    282.47
SCF: Cycle: 48   F: -646.986849087700875   dF: +8.382e-07   |Residual|: 1.133e-03   |deigs|: 1.090e-04  t[s]:    282.60
	Linear fluid (dielectric constant: 64) occupying 0.875255 of unit cell:	Completed after 4 iterations at t[s]:    282.72
	FillingsUpdate:  mu: -0.102396614  nElectrons: 324.000000
	Linear fluid (dielectric constant: 64) occupying 0.875256 of unit cell:	Completed after 4 iterations at t[s]:    285.17
SCF: Cycle: 49   F: -646.986850569595276   dF: -1.482e-06   |Residual|: 8.911e-04   |deigs|: 9.502e-05  t[s]:    285.31
	Linear fluid (dielectric constant: 64) occupying 0.875255 of unit cell:	Completed after 4 iterations at t[s]:    285.43
Setting wave functions to eigenvectors of Hamiltonian
Single-point solvation energy estimate, DeltaF = -0.137386076802954

# Ionic positions in cartesian coordinates:
ion C  28.005857181630002   0.000000000000000   1.000001652210000 0
ion C  25.672025513790000   4.042310104620000   1.000001652210000 0
ion C  11.669128103520002  20.211535405260001   1.000001652210000 0
ion C   4.667680343250000   0.000000000000000   1.000001652210000 0
ion C  23.338288332449999   0.000000000000000   1.000001652210000 0
ion C   2.333822219190000   4.042310104620000   1.000001652210000 0
ion C  16.336708291080008  20.211535405260001   1.000001652210000 0
ion C  23.338191956219998   8.084622098970000   1.000001652210000 0
ion C   9.335305884329996  16.169223410910011   1.000001652210000 0
ion C   9.335322891900001   0.000000000000000   1.000001652210000 0
ion C  18.670626886499999   0.000000000000000   1.000001652210000 0
ion C  18.670539958920003  16.169223410910011   1.000001652210000 0
ion C  21.004371626759990  12.126913306290001   1.000001652210000 0
ion C  14.002984337850000   0.000000000000000   1.000001652210000 0
ion C   0.000000000000000   8.084622098970000   1.000001652210000 0
ion C   7.001485554870005  20.211535405260001   1.000001652210000 0
ion C  -7.001481775409994  20.211535405260001   1.000001652210000 0
ion C  -2.333822219189999  12.126913306290001   1.000001652210000 0
ion C   4.667663335679999  16.169223410910011   1.000001652210000 0
ion C  -2.333820329459996  20.211535405260001   1.000001652210000 0
ion C   2.333824108920002  20.211535405260001   1.000001652210000 0
ion C  -4.667659556220002  16.169223410910011   1.000001652210000 0
ion C   7.001483665139999   4.042310104620000   1.000001652210000 0
ion C  21.004430208389998   4.042310104620000   1.000001652210000 0
ion C  14.002948432980000  16.169223410910011   1.000001652210000 0
ion C   0.000001889729997  16.169223410910011   1.000001652210000 0
ion C  11.669126213789999   4.042310104620000   1.000001652210000 0
ion C  18.670609878929998   8.084622098970000   1.000001652210000 0
ion C  11.669126213789998  12.126913306290001   1.000001652210000 0
ion C  16.336787659739997  12.126913306290001   1.000001652210000 0
ion C  16.336789549470002   4.042310104620000   1.000001652210000 0
ion C   9.335303994600004   8.084622098970000   1.000001652210000 0
ion C  14.002948432980002   8.084622098970000   1.000001652210000 0
ion C   0.000000000000000   2.694874032990001   1.000001652210000 0
ion C  11.669128103519999  22.906390540950010   1.000001652210000 0
ion C -11.669124324059998  22.906390540950010   1.000001652210000 0
ion C  -2.333822219190000   6.737165240310004   1.000001652210000 0
ion C   9.335305884330001  18.864097443900004   1.000001652210000 0
ion C  -7.001481775409996  22.906390540950010   1.000001652210000 0
ion C   7.001485554870005  22.906390540950010   1.000001652210000 0
ion C   2.333822219189997   6.737165240310004   1.000001652210000 0
ion C  -9.335302104869998  18.864097443900004   1.000001652210000 0
ion C  -4.667661445950000  10.779477234660005   1.000001652210000 0
ion C  -2.333820329460000  22.906390540950010   1.000001652210000 0
ion C   2.333824108920002  22.906390540950010   1.000001652210000 0
ion C  -7.001483665140000  14.821787339280007   1.000001652210000 0
ion C   4.667661445950001   2.694874032990001   1.000001652210000 0
ion C  23.338269435150004   2.694874032990001   1.000001652210000 0
ion C  14.002967330279997  18.864097443900004   1.000001652210000 0
ion C   0.000000000000000  10.779477234660005   1.000001652210000 0
ion C   4.667663335679999  18.864097443900004   1.000001652210000 0
ion C  -4.667640658919996  18.864097443900004   1.000001652210000 0
ion C  -2.333822219190001  14.821787339280007   1.000001652210000 0
ion C   2.333824108919998  14.821787339280007   1.000001652210000 0
ion C   0.000001889729999  18.864097443900004   1.000001652210000 0
ion C   9.335303994599997   2.694874032990001   1.000001652210000 0
ion C  21.004430208390001   6.737165240310004   1.000001652210000 0
ion C  11.669126213790003  14.821787339280007   1.000001652210000 0
ion C  16.336789549469998  14.821787339280007   1.000001652210000 0
ion C  18.670609878930005   2.694874032990001   1.000001652210000 0
ion C   7.001483665139999   6.737165240310004   1.000001652210000 0
ion C  14.002946543250001   2.694874032990001   1.000001652210000 0
ion C  18.670607989199997  10.779477234660005   1.000001652210000 0
ion C  11.669126213789998   6.737165240310004   1.000001652210000 0
ion C  16.336787659740001   6.737165240310004   1.000001652210000 0
ion C  14.002946543250001  10.779477234660005   1.000001652210000 0
ion N   4.667661445950002   8.084622098970000   1.000001652210000 0
ion N   2.333822219190004  12.126913306290001   1.000001652210000 0
ion N   7.001485554869998  14.821787339280007   1.000001652210000 0
ion N   9.335305884330001  10.779477234660005   1.000001652210000 0
ion Fe   5.837109518069999  11.454309266310004   1.000001652210000 0
ion S  11.996321958307306  13.080363808714907   8.869696466513297 1
ion Na   8.177817050167437  12.403054816466332   5.947606613126949 1
ion Na  15.895421543116431  13.800966413369199   6.147004302818918 1

# Forces in Cartesian coordinates:
force C   0.004137269634916   0.000116323535395   0.000005636328415 0
force C   0.001422841010665  -0.001136784670737   0.000015149196471 0
force C   0.003492350865147  -0.001724397677663   0.000072767863795 0
force C   0.001391210519031   0.003073651613469   0.000014210888145 0
force C   0.002536211003269  -0.000378816253275   0.000013481775680 0
force C   0.005171658398913   0.002204109341918   0.000009762427258 0
force C   0.000956777817205  -0.000649226338075   0.000030911920748 0
force C  -0.000302145415328   0.001798255490024   0.000008510615633 0
force C  -0.032816617154293  -0.012504656463137  -0.001233714459728 0
force C  -0.000880249472321   0.000527844851281   0.000012272111599 0
force C  -0.000557188804168  -0.000005736977765   0.000014469095283 0
force C   0.000068979600209   0.001304854131004  -0.000560454852544 0
force C   0.002185959422000   0.003451302271795  -0.000009401726198 0
force C  -0.000825621639737  -0.000448597532076   0.000012820427761 0
force C   0.010932093778456   0.006293357615555   0.000035718537846 0
force C   0.003218546844928   0.002765480696445  -0.000004589626129 0
force C   0.001800806386978   0.000966789191733   0.000007941075496 0
force C   0.004554372232371   0.003386130365134   0.000005173149102 0
force C   0.028685824500957   0.011452942726231  -0.000116133773876 0
force C   0.000042489094761  -0.001021687465783   0.000018536828795 0
force C  -0.003345120491313   0.000648034139793   0.000008042071666 0
force C   0.003394639949777  -0.000278228047474   0.000025349017028 0
force C   0.005232530392754   0.007136972711803   0.000014186120882 0
force C   0.001864919763308   0.001019106515689   0.000005397575793 0
force C  -0.001913946640553  -0.000622463887866  -0.001779973982823 0
force C   0.008872888058816   0.000873004566974   0.000006512797071 0
force C  -0.001070969079221  -0.003231148407974   0.000002979562703 0
force C   0.001001638620380   0.002454663134908   0.000039474332138 0
force C  -0.027100850008597  -0.022106940684189  -0.002125005719110 0
force C   0.000402046562121   0.003447294136370  -0.003681508704766 0
force C  -0.000309504721373  -0.000460872997552   0.000017913702991 0
force C   0.024242700117632   0.018684513433841  -0.000286982706599 0
force C   0.004139785111841   0.001349153238961  -0.000001839994144 0
force C  -0.003524880873050   0.001734925699554   0.000021182010407 0
force C  -0.004146235531820  -0.000093894981521   0.000005438777480 0
force C  -0.002559615929893   0.000377108166714   0.000017628344685 0
force C   0.002030214849278   0.001143737968949   0.000014004801808 0
force C  -0.005112074436663  -0.002329967490647   0.000041503964014 0
force C   0.000473545217204   0.000067256089333   0.000012597876268 0
force C  -0.001318587655596  -0.003149287626471   0.000015867063431 0
force C   0.033032111490617   0.013422135021253  -0.000066053441215 0
force C  -0.001886835028949  -0.001107526945685   0.000007888455317 0
force C  -0.000250859498222  -0.003973306165982   0.000023362377790 0
force C   0.000811460459996   0.000458276361045   0.000013194778255 0
force C   0.000926513673426  -0.000535273053821   0.000013560750219 0
force C  -0.000971540477019  -0.002299731912531  -0.000001393667489 0
force C  -0.003243556281667  -0.002629646786376   0.000002745045864 0
force C  -0.000922491267415   0.000742298921579   0.000012582130415 0
force C  -0.001498887420344   0.000968096216357   0.000017096625403 0
force C   0.028130728758762   0.021933529846085  -0.000074685202250 0
force C  -0.005136604629074  -0.007419057536903  -0.000003163758421 0
force C   0.000230486705168   0.000392841892910   0.000006115886971 0
force C  -0.003910069278101  -0.001511960533121  -0.000000078198678 0
force C  -0.024189287296583  -0.019632561331089  -0.000015474541630 0
force C   0.001091496004090   0.003190826981251   0.000011460180153 0
force C   0.003248872502671  -0.000605551635114   0.000007252901963 0
force C   0.000199381727635  -0.001101642085208   0.000008932253378 0
force C  -0.011052174944702  -0.006098811961904  -0.001028383315063 0
force C   0.000268112657250  -0.001403419808657  -0.004626510401923 0
force C  -0.001675288126201  -0.000972193004844   0.000009431197236 0
force C  -0.028971566914323  -0.011036093548033  -0.000009966960660 0
force C   0.000001917579035   0.001073328581374   0.000012208504883 0
force C  -0.002082666394040  -0.003711366346549  -0.000303915253918 0
force C  -0.009097507493338  -0.000716249628465   0.000019830424009 0
force C  -0.003529259185952   0.000388498592147   0.000037048988843 0
force C  -0.004628452083651  -0.003562821846784  -0.001175115968095 0
force N   0.025726760643360  -0.026974205648238   0.000209695208227 0
force N  -0.010468040431320   0.035744525178160   0.000214997642868 0
force N  -0.025702443507514   0.027434343755953  -0.001215935333762 0
force N   0.010827739756819  -0.035835533077823  -0.001943542590749 0
force Fe  -0.002988456164667  -0.001199543427427  -0.006659791291799 0
force S  -0.001795140703449  -0.000479835643715   0.023459507448309 1
force Na  -0.013109665477816  -0.001982894583608   0.003321699529999 1
force Na   0.016709255993364   0.003060404156482   0.001258396004895 1

# Energy components:
   A_diel =       -0.2114146001436174
   Eewald =     4053.8525705445022140
       EH =     4568.5273400939768180
     Eloc =    -9325.1613056217320263
      Enl =      -64.2857071876859294
      Exc =     -163.5583847215843889
 Exc_core =        5.1303974300831765
       KE =      278.8213104089173271
-------------------------------------
     Etot =     -646.8851936536664198
       TS =        0.0949202629784151
-------------------------------------
        F =     -646.9801139166448820

IonicMinimize: Iter:   0  F: -646.980113916644882  |grad|_K:  1.070e-02  alpha:  1.000e+00

#--- Lowdin population analysis ---
# oxidation-state C +0.041 +0.031 +0.035 +0.032 +0.034 +0.025 +0.032 +0.030 +0.145 +0.035 +0.033 +0.032 +0.039 +0.035 +0.007 +0.045 +0.038 +0.025 +0.127 +0.034 +0.031 +0.031 +0.031 +0.041 +0.045 +0.031 +0.031 +0.033 +0.140 +0.029 +0.033 +0.127 +0.045 +0.035 +0.041 +0.034 +0.047 +0.025 +0.033 +0.032 +0.148 +0.040 +0.035 +0.035 +0.035 +0.032 +0.046 +0.034 +0.030 +0.147 +0.031 +0.032 +0.046 +0.128 +0.031 +0.031 +0.033 +0.001 +0.022 +0.039 +0.128 +0.035 +0.039 +0.031 +0.031 +0.023
# oxidation-state N -0.142 -0.142 -0.145 -0.148
# oxidation-state Fe +0.113
# oxidation-state S -1.165
# oxidation-state Na +0.852 +0.883


-------- Electronic minimization -----------
Will mix electronic density at each iteration.
	FillingsUpdate:  mu: -0.102396614  nElectrons: 324.000000
	Linear fluid (dielectric constant: 64) occupying 0.875254 of unit cell:	Completed after 19 iterations at t[s]:    287.85
	FillingsUpdate:  mu: -0.101495103  nElectrons: 324.000000
	Linear fluid (dielectric constant: 64) occupying 0.875162 of unit cell:	Completed after 22 iterations at t[s]:    291.34
SCF: Cycle:  0   F: -646.984726004348317   dF: -6.800e-03   |Residual|: 5.205e-02   |deigs|: 1.163e-04  t[s]:    291.48
	Linear fluid (dielectric constant: 64) occupying 0.875280 of unit cell:	Completed after 21 iterations at t[s]:    291.79
	FillingsUpdate:  mu: -0.105654784  nElectrons: 324.000000
	Linear fluid (dielectric constant: 64) occupying 0.875394 of unit cell:	Completed after 29 iterations at t[s]:    294.92
SCF: Cycle:  1   F: -646.818626736622946   dF: +1.661e-01   |Residual|: 2.452e-01   |deigs|: 2.322e-03  t[s]:    295.07
	Linear fluid (dielectric constant: 64) occupying 0.875267 of unit cell:	Completed after 29 iterations at t[s]:    295.44
	FillingsUpdate:  mu: -0.101812505  nElectrons: 324.000000
	Linear fluid (dielectric constant: 64) occupying 0.875181 of unit cell:	Completed after 24 iterations at t[s]:    298.54
SCF: Cycle:  2   F: -646.982246095872028   dF: -1.636e-01   |Residual|: 4.597e-02   |deigs|: 2.290e-03  t[s]:    298.69
	Linear fluid (dielectric constant: 64) occupying 0.875298 of unit cell:	Completed after 23 iterations at t[s]:    299.00
	FillingsUpdate:  mu: -0.102139022  nElectrons: 324.000000
	Linear fluid (dielectric constant: 64) occupying 0.875215 of unit cell:	Completed after 21 iterations at t[s]:    302.07
SCF: Cycle:  3   F: -646.987194733720571   dF: -4.949e-03   |Residual|: 1.219e-02   |deigs|: 6.374e-04  t[s]:    302.22
	Linear fluid (dielectric constant: 64) occupying 0.875274 of unit cell:	Completed after 20 iterations at t[s]:    302.51
	FillingsUpdate:  mu: -0.102264232  nElectrons: 324.000000
	Linear fluid (dielectric constant: 64) occupying 0.875217 of unit cell:	Completed after 17 iterations at t[s]:    309.77
SCF: Cycle:  4   F: -646.987799884433571   dF: -6.052e-04   |Residual|: 3.986e-03   |deigs|: 3.432e-04  t[s]:    309.91
	Linear fluid (dielectric constant: 64) occupying 0.875237 of unit cell:	Completed after 12 iterations at t[s]:    310.12
	FillingsUpdate:  mu: -0.102299638  nElectrons: 324.000000
	Linear fluid (dielectric constant: 64) occupying 0.875226 of unit cell:	Completed after 13 iterations at t[s]:    313.10
SCF: Cycle:  5   F: -646.987832051831447   dF: -3.217e-05   |Residual|: 1.980e-03   |deigs|: 3.527e-04  t[s]:    313.25
	Linear fluid (dielectric constant: 64) occupying 0.875220 of unit cell:	Completed after 10 iterations at t[s]:    313.44
	FillingsUpdate:  mu: -0.102306805  nElectrons: 324.000000
	Linear fluid (dielectric constant: 64) occupying 0.875226 of unit cell:	Completed after 10 iterations at t[s]:    317.56
SCF: Cycle:  6   F: -646.987843398399718   dF: -1.135e-05   |Residual|: 1.437e-03   |deigs|: 1.397e-04  t[s]:    317.71
	Linear fluid (dielectric constant: 64) occupying 0.875199 of unit cell:	Completed after 9 iterations at t[s]:    317.88
	FillingsUpdate:  mu: -0.102313301  nElectrons: 324.000000
	Linear fluid (dielectric constant: 64) occupying 0.875225 of unit cell:	Completed after 7 iterations at t[s]:    321.80
SCF: Cycle:  7   F: -646.987848319471254   dF: -4.921e-06   |Residual|: 1.436e-03   |deigs|: 1.269e-04  t[s]:    321.95
	Linear fluid (dielectric constant: 64) occupying 0.875185 of unit cell:	Completed after 10 iterations at t[s]:    322.12
	FillingsUpdate:  mu: -0.102263403  nElectrons: 324.000000
	Linear fluid (dielectric constant: 64) occupying 0.875221 of unit cell:	Completed after 10 iterations at t[s]:    324.66
SCF: Cycle:  8   F: -646.987841317885341   dF: +7.002e-06   |Residual|: 2.295e-03   |deigs|: 6.922e-05  t[s]:    324.81
	Linear fluid (dielectric constant: 64) occupying 0.875185 of unit cell:	Completed after 10 iterations at t[s]:    324.99
	FillingsUpdate:  mu: -0.102333682  nElectrons: 324.000000
	Linear fluid (dielectric constant: 64) occupying 0.875222 of unit cell:	Completed after 10 iterations at t[s]:    327.54
SCF: Cycle:  9   F: -646.987855354478256   dF: -1.404e-05   |Residual|: 8.376e-04   |deigs|: 9.360e-05  t[s]:    327.68
	Linear fluid (dielectric constant: 64) occupying 0.875189 of unit cell:	Completed after 5 iterations at t[s]:    327.82
	FillingsUpdate:  mu: -0.102323516  nElectrons: 324.000000
	Linear fluid (dielectric constant: 64) occupying 0.875221 of unit cell:	Completed after 7 iterations at t[s]:    329.79
SCF: Cycle: 10   F: -646.987857720084435   dF: -2.366e-06   |Residual|: 5.462e-04   |deigs|: 8.491e-05  t[s]:    329.93
	Linear fluid (dielectric constant: 64) occupying 0.875191 of unit cell:	Completed after 4 iterations at t[s]:    330.07
	FillingsUpdate:  mu: -0.102363020  nElectrons: 324.000000
	Linear fluid (dielectric constant: 64) occupying 0.875222 of unit cell:	Completed after 10 iterations at t[s]:    332.59
SCF: Cycle: 11   F: -646.987851555877000   dF: +6.164e-06   |Residual|: 1.636e-03   |deigs|: 9.444e-05  t[s]:    332.74
	Linear fluid (dielectric constant: 64) occupying 0.875194 of unit cell:	Completed after 8 iterations at t[s]:    332.91
	FillingsUpdate:  mu: -0.102325210  nElectrons: 324.000000
	Linear fluid (dielectric constant: 64) occupying 0.875219 of unit cell:	Completed after 9 iterations at t[s]:    334.92
SCF: Cycle: 12   F: -646.987852297760810   dF: -7.419e-07   |Residual|: 1.395e-03   |deigs|: 7.355e-05  t[s]:    335.06
	Linear fluid (dielectric constant: 64) occupying 0.875198 of unit cell:	Completed after 9 iterations at t[s]:    335.24
	FillingsUpdate:  mu: -0.102328609  nElectrons: 324.000000
	Linear fluid (dielectric constant: 64) occupying 0.875219 of unit cell:	Completed after 8 iterations at t[s]:    337.77
SCF: Cycle: 13   F: -646.987848169182143   dF: +4.129e-06   |Residual|: 2.078e-03   |deigs|: 1.452e-04  t[s]:    337.92
	Linear fluid (dielectric constant: 64) occupying 0.875200 of unit cell:	Completed after 8 iterations at t[s]:    338.08
	FillingsUpdate:  mu: -0.102359525  nElectrons: 324.000000
	Linear fluid (dielectric constant: 64) occupying 0.875221 of unit cell:	Completed after 3 iterations at t[s]:    340.04
SCF: Cycle: 14   F: -646.987860496469807   dF: -1.233e-05   |Residual|: 2.243e-04   |deigs|: 5.057e-05  t[s]:    340.17
	Linear fluid (dielectric constant: 64) occupying 0.875206 of unit cell:	Completed after 2 iterations at t[s]:    340.28
	FillingsUpdate:  mu: -0.102344919  nElectrons: 324.000000
	Linear fluid (dielectric constant: 64) occupying 0.875221 of unit cell:	Completed after 4 iterations at t[s]:    342.76
SCF: Cycle: 15   F: -646.987860406275786   dF: +9.019e-08   |Residual|: 3.964e-04   |deigs|: 2.464e-04  t[s]:    342.89
	Linear fluid (dielectric constant: 64) occupying 0.875208 of unit cell:	Completed after 3 iterations at t[s]:    343.01
	FillingsUpdate:  mu: -0.102397534  nElectrons: 324.000000
	Linear fluid (dielectric constant: 64) occupying 0.875223 of unit cell:	Completed after 8 iterations at t[s]:    345.52
SCF: Cycle: 16   F: -646.987848281079096   dF: +1.213e-05   |Residual|: 2.085e-03   |deigs|: 1.212e-04  t[s]:    345.67
	Linear fluid (dielectric constant: 64) occupying 0.875209 of unit cell:	Completed after 8 iterations at t[s]:    345.83
	FillingsUpdate:  mu: -0.102337180  nElectrons: 324.000000
	Linear fluid (dielectric constant: 64) occupying 0.875221 of unit cell:	Completed after 9 iterations at t[s]:    347.85
SCF: Cycle: 17   F: -646.987853289634700   dF: -5.009e-06   |Residual|: 1.420e-03   |deigs|: 8.513e-05  t[s]:    347.99
	Linear fluid (dielectric constant: 64) occupying 0.875210 of unit cell:	Completed after 9 iterations at t[s]:    348.16
	FillingsUpdate:  mu: -0.102376983  nElectrons: 324.000000
	Linear fluid (dielectric constant: 64) occupying 0.875223 of unit cell:	Completed after 4 iterations at t[s]:    350.13
SCF: Cycle: 18   F: -646.987859551047677   dF: -6.261e-06   |Residual|: 7.228e-04   |deigs|: 4.527e-05  t[s]:    350.26
	Linear fluid (dielectric constant: 64) occupying 0.875215 of unit cell:	Completed after 4 iterations at t[s]:    350.39
	FillingsUpdate:  mu: -0.102378165  nElectrons: 324.000000
	Linear fluid (dielectric constant: 64) occupying 0.875223 of unit cell:	Completed after 4 iterations at t[s]:    352.87
SCF: Cycle: 19   F: -646.987858394980435   dF: +1.156e-06   |Residual|: 1.045e-03   |deigs|: 2.233e-04  t[s]:    353.01
	Linear fluid (dielectric constant: 64) occupying 0.875217 of unit cell:	Completed after 4 iterations at t[s]:    353.13
	FillingsUpdate:  mu: -0.102382113  nElectrons: 324.000000
	Linear fluid (dielectric constant: 64) occupying 0.875224 of unit cell:	Completed after 5 iterations at t[s]:    355.62
SCF: Cycle: 20   F: -646.987855697723830   dF: +2.697e-06   |Residual|: 1.434e-03   |deigs|: 7.026e-05  t[s]:    355.76
	Linear fluid (dielectric constant: 64) occupying 0.875219 of unit cell:	Completed after 4 iterations at t[s]:    355.88
	FillingsUpdate:  mu: -0.102368731  nElectrons: 324.000000
	Linear fluid (dielectric constant: 64) occupying 0.875223 of unit cell:	Completed after 2 iterations at t[s]:    358.33
SCF: Cycle: 21   F: -646.987860927650900   dF: -5.230e-06   |Residual|: 2.885e-04   |deigs|: 8.069e-05  t[s]:    358.46
	Linear fluid (dielectric constant: 64) occupying 0.875222 of unit cell:	Completed after 2 iterations at t[s]:    358.57
	FillingsUpdate:  mu: -0.102342219  nElectrons: 324.000000
	Linear fluid (dielectric constant: 64) occupying 0.875222 of unit cell:	Completed after 8 iterations at t[s]:    361.07
SCF: Cycle: 22   F: -646.987852574289036   dF: +8.353e-06   |Residual|: 1.705e-03   |deigs|: 1.949e-04  t[s]:    361.21
	Linear fluid (dielectric constant: 64) occupying 0.875223 of unit cell:	Completed after 4 iterations at t[s]:    361.34
	FillingsUpdate:  mu: -0.102425336  nElectrons: 324.000000
	Linear fluid (dielectric constant: 64) occupying 0.875227 of unit cell:	Completed after 11 iterations at t[s]:    363.36
SCF: Cycle: 23   F: -646.987815475267098   dF: +3.710e-05   |Residual|: 3.604e-03   |deigs|: 5.456e-05  t[s]:    363.50
	Linear fluid (dielectric constant: 64) occupying 0.875223 of unit cell:	Completed after 11 iterations at t[s]:    363.70
	FillingsUpdate:  mu: -0.102391186  nElectrons: 324.000000
	Linear fluid (dielectric constant: 64) occupying 0.875225 of unit cell:	Completed after 9 iterations at t[s]:    365.71
SCF: Cycle: 24   F: -646.987847447996955   dF: -3.197e-05   |Residual|: 2.078e-03   |deigs|: 2.646e-05  t[s]:    365.85
	Linear fluid (dielectric constant: 64) occupying 0.875222 of unit cell:	Completed after 9 iterations at t[s]:    366.02
	FillingsUpdate:  mu: -0.102391232  nElectrons: 324.000000
	Linear fluid (dielectric constant: 64) occupying 0.875225 of unit cell:	Completed after 8 iterations at t[s]:    368.02
SCF: Cycle: 25   F: -646.987851090044273   dF: -3.642e-06   |Residual|: 1.788e-03   |deigs|: 5.889e-05  t[s]:    368.17
	Linear fluid (dielectric constant: 64) occupying 0.875222 of unit cell:	Completed after 8 iterations at t[s]:    368.33
	FillingsUpdate:  mu: -0.102385803  nElectrons: 324.000000
	Linear fluid (dielectric constant: 64) occupying 0.875224 of unit cell:	Completed after 4 iterations at t[s]:    370.30
SCF: Cycle: 26   F: -646.987855568848204   dF: -4.479e-06   |Residual|: 1.329e-03   |deigs|: 1.158e-04  t[s]:    370.43
	Linear fluid (dielectric constant: 64) occupying 0.875223 of unit cell:	Completed after 4 iterations at t[s]:    370.56
	FillingsUpdate:  mu: -0.102356736  nElectrons: 324.000000
	Linear fluid (dielectric constant: 64) occupying 0.875223 of unit cell:	Completed after 4 iterations at t[s]:    372.50
SCF: Cycle: 27   F: -646.987859117968014   dF: -3.549e-06   |Residual|: 8.603e-04   |deigs|: 5.233e-05  t[s]:    372.64
	Linear fluid (dielectric constant: 64) occupying 0.875223 of unit cell:	Completed after 3 iterations at t[s]:    372.75
	FillingsUpdate:  mu: -0.102399923  nElectrons: 324.000000
	Linear fluid (dielectric constant: 64) occupying 0.875226 of unit cell:	Completed after 9 iterations at t[s]:    374.74
SCF: Cycle: 28   F: -646.987840622177032   dF: +1.850e-05   |Residual|: 2.470e-03   |deigs|: 8.343e-05  t[s]:    374.89
	Linear fluid (dielectric constant: 64) occupying 0.875223 of unit cell:	Completed after 9 iterations at t[s]:    375.06
	FillingsUpdate:  mu: -0.102383797  nElectrons: 324.000000
	Linear fluid (dielectric constant: 64) occupying 0.875224 of unit cell:	Completed after 8 iterations at t[s]:    377.07
SCF: Cycle: 29   F: -646.987854187205812   dF: -1.357e-05   |Residual|: 1.479e-03   |deigs|: 4.320e-05  t[s]:    377.21
	Linear fluid (dielectric constant: 64) occupying 0.875223 of unit cell:	Completed after 8 iterations at t[s]:    377.37
	FillingsUpdate:  mu: -0.102384109  nElectrons: 324.000000
[...]
	FillingsUpdate:  mu: -0.101594033  nElectrons: 324.000000
	Linear fluid (dielectric constant: 64) occupying 0.873917 of unit cell:	Completed after 0 iterations at t[s]:  11985.66
SCF: Cycle: 15   F: -647.017172108823161   dF: +2.310e-08   |Residual|: 1.124e-04   |deigs|: 2.449e-06  t[s]:  11985.77
	Linear fluid (dielectric constant: 64) occupying 0.873917 of unit cell:	Completed after 0 iterations at t[s]:  11985.86
	FillingsUpdate:  mu: -0.101598321  nElectrons: 324.000000
	Linear fluid (dielectric constant: 64) occupying 0.873917 of unit cell:	Completed after 2 iterations at t[s]:  11987.84
SCF: Cycle: 16   F: -647.017171668597371   dF: +4.402e-07   |Residual|: 3.748e-04   |deigs|: 3.627e-06  t[s]:  11987.97
	Linear fluid (dielectric constant: 64) occupying 0.873917 of unit cell:	Completed after 3 iterations at t[s]:  11988.09
	FillingsUpdate:  mu: -0.101566641  nElectrons: 324.000000
	Linear fluid (dielectric constant: 64) occupying 0.873915 of unit cell:	Completed after 8 iterations at t[s]:  11990.15
SCF: Cycle: 17   F: -647.017160049461381   dF: +1.162e-05   |Residual|: 1.959e-03   |deigs|: 1.862e-05  t[s]:  11990.30
	Linear fluid (dielectric constant: 64) occupying 0.873917 of unit cell:	Completed after 8 iterations at t[s]:  11990.46
	FillingsUpdate:  mu: -0.101589344  nElectrons: 324.000000
	Linear fluid (dielectric constant: 64) occupying 0.873917 of unit cell:	Completed after 3 iterations at t[s]:  11992.54
SCF: Cycle: 18   F: -647.017171033368186   dF: -1.098e-05   |Residual|: 6.499e-04   |deigs|: 1.391e-05  t[s]:  11992.67
	Linear fluid (dielectric constant: 64) occupying 0.873917 of unit cell:	Completed after 3 iterations at t[s]:  11992.79
	FillingsUpdate:  mu: -0.101590337  nElectrons: 324.000000
	Linear fluid (dielectric constant: 64) occupying 0.873916 of unit cell:	Completed after 2 iterations at t[s]:  11994.81
SCF: Cycle: 19   F: -647.017171882897173   dF: -8.495e-07   |Residual|: 3.090e-04   |deigs|: 7.047e-06  t[s]:  11994.93
	Linear fluid (dielectric constant: 64) occupying 0.873917 of unit cell:	Completed after 3 iterations at t[s]:  11995.06
	FillingsUpdate:  mu: -0.101600438  nElectrons: 324.000000
	Linear fluid (dielectric constant: 64) occupying 0.873917 of unit cell:	Completed after 3 iterations at t[s]:  11997.11
SCF: Cycle: 20   F: -647.017170675838315   dF: +1.207e-06   |Residual|: 6.664e-04   |deigs|: 7.547e-06  t[s]:  11997.24
	Linear fluid (dielectric constant: 64) occupying 0.873917 of unit cell:	Completed after 4 iterations at t[s]:  11997.37
	FillingsUpdate:  mu: -0.101567083  nElectrons: 324.000000
	Linear fluid (dielectric constant: 64) occupying 0.873915 of unit cell:	Completed after 8 iterations at t[s]:  11999.44
SCF: Cycle: 21   F: -647.017161112642839   dF: +9.563e-06   |Residual|: 1.856e-03   |deigs|: 2.021e-05  t[s]:  11999.59
	Linear fluid (dielectric constant: 64) occupying 0.873917 of unit cell:	Completed after 8 iterations at t[s]:  11999.76
	FillingsUpdate:  mu: -0.101585833  nElectrons: 324.000000
	Linear fluid (dielectric constant: 64) occupying 0.873916 of unit cell:	Completed after 3 iterations at t[s]:  12001.81
SCF: Cycle: 22   F: -647.017170246278170   dF: -9.134e-06   |Residual|: 8.437e-04   |deigs|: 1.222e-05  t[s]:  12001.94
	Linear fluid (dielectric constant: 64) occupying 0.873917 of unit cell:	Completed after 3 iterations at t[s]:  12002.06
	FillingsUpdate:  mu: -0.101593871  nElectrons: 324.000000
	Linear fluid (dielectric constant: 64) occupying 0.873917 of unit cell:	Completed after 0 iterations at t[s]:  12004.05
SCF: Cycle: 23   F: -647.017172123614955   dF: -1.877e-06   |Residual|: 1.255e-04   |deigs|: 7.482e-06  t[s]:  12004.17
	Linear fluid (dielectric constant: 64) occupying 0.873917 of unit cell:	Completed after 0 iterations at t[s]:  12004.25
	FillingsUpdate:  mu: -0.101598128  nElectrons: 324.000000
	Linear fluid (dielectric constant: 64) occupying 0.873917 of unit cell:	Completed after 3 iterations at t[s]:  12006.25
SCF: Cycle: 24   F: -647.017171833179532   dF: +2.904e-07   |Residual|: 2.654e-04   |deigs|: 4.882e-06  t[s]:  12006.38
	Linear fluid (dielectric constant: 64) occupying 0.873917 of unit cell:	Completed after 3 iterations at t[s]:  12006.50
	FillingsUpdate:  mu: -0.101573211  nElectrons: 324.000000
	Linear fluid (dielectric constant: 64) occupying 0.873915 of unit cell:	Completed after 8 iterations at t[s]:  12008.58
SCF: Cycle: 25   F: -647.017163074866517   dF: +8.758e-06   |Residual|: 1.685e-03   |deigs|: 1.601e-05  t[s]:  12008.73
	Linear fluid (dielectric constant: 64) occupying 0.873917 of unit cell:	Completed after 8 iterations at t[s]:  12008.89
	FillingsUpdate:  mu: -0.101583289  nElectrons: 324.000000
	Linear fluid (dielectric constant: 64) occupying 0.873916 of unit cell:	Completed after 4 iterations at t[s]:  12010.96
SCF: Cycle: 26   F: -647.017169631892784   dF: -6.557e-06   |Residual|: 9.569e-04   |deigs|: 9.173e-06  t[s]:  12011.09
	Linear fluid (dielectric constant: 64) occupying 0.873917 of unit cell:	Completed after 3 iterations at t[s]:  12011.21
	FillingsUpdate:  mu: -0.101591376  nElectrons: 324.000000
	Linear fluid (dielectric constant: 64) occupying 0.873917 of unit cell:	Completed after 1 iterations at t[s]:  12013.21
SCF: Cycle: 27   F: -647.017172075958456   dF: -2.444e-06   |Residual|: 1.772e-04   |deigs|: 7.564e-06  t[s]:  12013.33
	Linear fluid (dielectric constant: 64) occupying 0.873917 of unit cell:	Completed after 0 iterations at t[s]:  12013.42
	FillingsUpdate:  mu: -0.101631159  nElectrons: 324.000000
	Linear fluid (dielectric constant: 64) occupying 0.873919 of unit cell:	Completed after 10 iterations at t[s]:  12015.50
SCF: Cycle: 28   F: -647.017150632753214   dF: +2.144e-05   |Residual|: 2.571e-03   |deigs|: 2.231e-05  t[s]:  12015.65
	Linear fluid (dielectric constant: 64) occupying 0.873917 of unit cell:	Completed after 9 iterations at t[s]:  12015.84
	FillingsUpdate:  mu: -0.101560517  nElectrons: 324.000000
	Linear fluid (dielectric constant: 64) occupying 0.873914 of unit cell:	Completed after 10 iterations at t[s]:  12017.94
SCF: Cycle: 29   F: -647.017160416992056   dF: -9.784e-06   |Residual|: 1.798e-03   |deigs|: 3.903e-05  t[s]:  12018.09
	Linear fluid (dielectric constant: 64) occupying 0.873917 of unit cell:	Completed after 9 iterations at t[s]:  12018.26
	FillingsUpdate:  mu: -0.101582180  nElectrons: 324.000000
	Linear fluid (dielectric constant: 64) occupying 0.873916 of unit cell:	Completed after 4 iterations at t[s]:  12020.31
SCF: Cycle: 30   F: -647.017166988507597   dF: -6.572e-06   |Residual|: 1.351e-03   |deigs|: 2.093e-05  t[s]:  12020.45
	Linear fluid (dielectric constant: 64) occupying 0.873917 of unit cell:	Completed after 4 iterations at t[s]:  12020.58
	FillingsUpdate:  mu: -0.101595511  nElectrons: 324.000000
	Linear fluid (dielectric constant: 64) occupying 0.873917 of unit cell:	Completed after 0 iterations at t[s]:  12022.59
SCF: Cycle: 31   F: -647.017172167847093   dF: -5.179e-06   |Residual|: 4.487e-05   |deigs|: 1.127e-05  t[s]:  12022.70
	Linear fluid (dielectric constant: 64) occupying 0.873917 of unit cell:	Completed after 0 iterations at t[s]:  12022.78
	FillingsUpdate:  mu: -0.101595481  nElectrons: 324.000000
	Linear fluid (dielectric constant: 64) occupying 0.873917 of unit cell:	Completed after 0 iterations at t[s]:  12024.69
SCF: Cycle: 32   F: -647.017172168756815   dF: -9.097e-10   |Residual|: 4.672e-05   |deigs|: 5.566e-07  t[s]:  12024.80
	Linear fluid (dielectric constant: 64) occupying 0.873917 of unit cell:	Completed after 0 iterations at t[s]:  12024.89
	FillingsUpdate:  mu: -0.101595475  nElectrons: 324.000000
	Linear fluid (dielectric constant: 64) occupying 0.873917 of unit cell:	Completed after 0 iterations at t[s]:  12026.87
SCF: Cycle: 33   F: -647.017172169011701   dF: -2.549e-10   |Residual|: 4.469e-05   |deigs|: 1.781e-07  t[s]:  12026.98
SCF: Converged (|Delta E|<1.000000e-08 for 2 iters).

Setting wave functions to eigenvectors of Hamiltonian

# Ionic positions in cartesian coordinates:
ion C  28.005857181630002   0.000000000000000   1.000001652210000 0
ion C  25.672025513790000   4.042310104620000   1.000001652210000 0
ion C  11.669128103520002  20.211535405260001   1.000001652210000 0
ion C   4.667680343250000   0.000000000000000   1.000001652210000 0
ion C  23.338288332449999   0.000000000000000   1.000001652210000 0
ion C   2.333822219190000   4.042310104620000   1.000001652210000 0
ion C  16.336708291080008  20.211535405260001   1.000001652210000 0
ion C  23.338191956219998   8.084622098970000   1.000001652210000 0
ion C   9.335305884329996  16.169223410910011   1.000001652210000 0
ion C   9.335322891900001   0.000000000000000   1.000001652210000 0
ion C  18.670626886499999   0.000000000000000   1.000001652210000 0
ion C  18.670539958920003  16.169223410910011   1.000001652210000 0
ion C  21.004371626759990  12.126913306290001   1.000001652210000 0
ion C  14.002984337850000   0.000000000000000   1.000001652210000 0
ion C   0.000000000000000   8.084622098970000   1.000001652210000 0
ion C   7.001485554870005  20.211535405260001   1.000001652210000 0
ion C  -7.001481775409994  20.211535405260001   1.000001652210000 0
ion C  -2.333822219189999  12.126913306290001   1.000001652210000 0
ion C   4.667663335679999  16.169223410910011   1.000001652210000 0
ion C  -2.333820329459996  20.211535405260001   1.000001652210000 0
ion C   2.333824108920002  20.211535405260001   1.000001652210000 0
ion C  -4.667659556220002  16.169223410910011   1.000001652210000 0
ion C   7.001483665139999   4.042310104620000   1.000001652210000 0
ion C  21.004430208389998   4.042310104620000   1.000001652210000 0
ion C  14.002948432980000  16.169223410910011   1.000001652210000 0
ion C   0.000001889729997  16.169223410910011   1.000001652210000 0
ion C  11.669126213789999   4.042310104620000   1.000001652210000 0
ion C  18.670609878929998   8.084622098970000   1.000001652210000 0
ion C  11.669126213789998  12.126913306290001   1.000001652210000 0
ion C  16.336787659739997  12.126913306290001   1.000001652210000 0
ion C  16.336789549470002   4.042310104620000   1.000001652210000 0
ion C   9.335303994600004   8.084622098970000   1.000001652210000 0
ion C  14.002948432980002   8.084622098970000   1.000001652210000 0
ion C   0.000000000000000   2.694874032990001   1.000001652210000 0
ion C  11.669128103519999  22.906390540950010   1.000001652210000 0
ion C -11.669124324059998  22.906390540950010   1.000001652210000 0
ion C  -2.333822219190000   6.737165240310004   1.000001652210000 0
ion C   9.335305884330001  18.864097443900004   1.000001652210000 0
ion C  -7.001481775409996  22.906390540950010   1.000001652210000 0
ion C   7.001485554870005  22.906390540950010   1.000001652210000 0
ion C   2.333822219189997   6.737165240310004   1.000001652210000 0
ion C  -9.335302104869998  18.864097443900004   1.000001652210000 0
ion C  -4.667661445950000  10.779477234660005   1.000001652210000 0
ion C  -2.333820329460000  22.906390540950010   1.000001652210000 0
ion C   2.333824108920002  22.906390540950010   1.000001652210000 0
ion C  -7.001483665140000  14.821787339280007   1.000001652210000 0
ion C   4.667661445950001   2.694874032990001   1.000001652210000 0
ion C  23.338269435150004   2.694874032990001   1.000001652210000 0
ion C  14.002967330279997  18.864097443900004   1.000001652210000 0
ion C   0.000000000000000  10.779477234660005   1.000001652210000 0
ion C   4.667663335679999  18.864097443900004   1.000001652210000 0
ion C  -4.667640658919996  18.864097443900004   1.000001652210000 0
ion C  -2.333822219190001  14.821787339280007   1.000001652210000 0
ion C   2.333824108919998  14.821787339280007   1.000001652210000 0
ion C   0.000001889729999  18.864097443900004   1.000001652210000 0
ion C   9.335303994599997   2.694874032990001   1.000001652210000 0
ion C  21.004430208390001   6.737165240310004   1.000001652210000 0
ion C  11.669126213790003  14.821787339280007   1.000001652210000 0
ion C  16.336789549469998  14.821787339280007   1.000001652210000 0
ion C  18.670609878930005   2.694874032990001   1.000001652210000 0
ion C   7.001483665139999   6.737165240310004   1.000001652210000 0
ion C  14.002946543250001   2.694874032990001   1.000001652210000 0
ion C  18.670607989199997  10.779477234660005   1.000001652210000 0
ion C  11.669126213789998   6.737165240310004   1.000001652210000 0
ion C  16.336787659740001   6.737165240310004   1.000001652210000 0
ion C  14.002946543250001  10.779477234660005   1.000001652210000 0
ion N   4.667661445950002   8.084622098970000   1.000001652210000 0
ion N   2.333822219190004  12.126913306290001   1.000001652210000 0
ion N   7.001485554869998  14.821787339280007   1.000001652210000 0
ion N   9.335305884330001  10.779477234660005   1.000001652210000 0
ion Fe   5.837109518069999  11.454309266310004   1.000001652210000 0
ion S  12.015944559249942  13.073062194947928  10.091554534131079 1
ion Na   7.520696046420199  12.338088042770311   6.633990027622314 1
ion Na  16.728370164676964  13.950050965481703   6.677156194991062 1

# Forces in Cartesian coordinates:
force C   0.004136441225849   0.000140084191387   0.000009457254067 0
force C   0.001417542918251  -0.001083302354969   0.000016795752133 0
force C   0.003480635708676  -0.001695106579603   0.000040635498575 0
force C   0.001338058812863   0.003117288155736   0.000016260634300 0
force C   0.002537063342111  -0.000352854888519   0.000015253635541 0
force C   0.005148551741717   0.002218590367759   0.000013010753061 0
force C   0.000951509907957  -0.000663309909183   0.000024005367075 0
force C  -0.000227170595855   0.001762542267292   0.000010640982937 0
force C  -0.032937477666947  -0.013104513384995  -0.000276054288044 0
force C  -0.000863606633169   0.000530379589906   0.000013742470551 0
force C  -0.000537475165017   0.000004231719327   0.000016649289822 0
force C  -0.000200042823941   0.001202714605028  -0.000555666948510 0
force C   0.002236396307018   0.003514362361623  -0.000037541252768 0
force C  -0.000774007659906  -0.000405702472550   0.000013851059617 0
force C   0.011028096278169   0.006363682899865   0.000043725134512 0
force C   0.003232793153542   0.002762882058077  -0.000007424633826 0
force C   0.001782659107670   0.001022771181392   0.000011865059586 0
force C   0.004536933578658   0.003333028325053   0.000006945614567 0
force C   0.028788845008532   0.011313400086132  -0.000099231698750 0
force C   0.000024838004102  -0.000992389275764   0.000018296715782 0
force C  -0.003270384027677   0.000635291896651   0.000017313191443 0
force C   0.003441316948634  -0.000322949741188   0.000026817370611 0
force C   0.005235959058976   0.007239527795537   0.000005847490547 0
force C   0.001897726393209   0.001057076160123   0.000006239645470 0
force C  -0.001657715537320  -0.001022005545947  -0.000321529697657 0
force C   0.008914126356575   0.000909473935353   0.000004197318329 0
force C  -0.001067136299530  -0.003172504809960   0.000018242068823 0
force C   0.000988966459147   0.002356449993540   0.000033406174403 0
force C  -0.027899432940728  -0.021963444213130  -0.000301621960821 0
force C   0.000224325647397   0.003824113911103  -0.001503588162718 0
force C  -0.000275623320927  -0.000459480615876   0.000018019475587 0
force C   0.024202705714638   0.019229607277019  -0.000103449626138 0
force C   0.004038180456983   0.001334949172384   0.000016258399798 0
force C  -0.003500189712583   0.001710627891787   0.000021688314704 0
force C  -0.004150561153055  -0.000109420198310   0.000011382117986 0
force C  -0.002531535964065   0.000392632602449   0.000015960923093 0
force C   0.001913230686140   0.001086881045235   0.000011592652803 0
force C  -0.005110505032693  -0.002239794874885   0.000029530688977 0
force C   0.000502802518850   0.000019605271793   0.000014211793932 0
force C  -0.001335042437181  -0.003141359528132   0.000017215542826 0
force C   0.032967172221411   0.013362976928763  -0.000063352776438 0
force C  -0.001906119129597  -0.001070291882959   0.000001061653961 0
force C  -0.000223641822062  -0.003936271278271   0.000022596808173 0
force C   0.000766800254272   0.000423405356990   0.000014267218382 0
force C   0.000898375036919  -0.000512958447599   0.000014541564905 0
force C  -0.000920305260186  -0.002370263499324  -0.000048462738978 0
force C  -0.003254098576760  -0.002685999217985   0.000004536474694 0
force C  -0.000935651792326   0.000716829318984   0.000014341347993 0
force C  -0.001475602218476   0.001050194289722   0.000034418072860 0
force C   0.028034426944991   0.021869775972414  -0.000068472383830 0
force C  -0.005219139718564  -0.007311588609119   0.000008356326219 0
force C   0.000255314888160   0.000411871569694   0.000007063778830 0
force C  -0.003966096062540  -0.001471586094831  -0.000001464568925 0
force C  -0.024173638415837  -0.019479085321816  -0.000043260243949 0
force C   0.001078532061113   0.003141044633170   0.000014326072658 0
force C   0.003251978881041  -0.000627635520445   0.000012779985861 0
force C   0.000150126448552  -0.001145309929161   0.000015117169074 0
force C  -0.011123422298286  -0.006382334995472   0.000091037113615 0
force C   0.000058554328395  -0.001644557166093  -0.002388279849335 0
force C  -0.001725201226953  -0.000990620077698   0.000011525126108 0
force C  -0.028949046407197  -0.011198693579895  -0.000040716614210 0
force C   0.000003123381405   0.001017215774708   0.000014726543717 0
force C  -0.002252051465868  -0.003611236950607  -0.000226718910615 0
force C  -0.008967141414661  -0.000857178837029   0.000028249081479 0
force C  -0.003444925255694   0.000376360646594   0.000019485907383 0
force C  -0.004452379953011  -0.003301879133106  -0.000067907272417 0
force N   0.025721558005398  -0.026900456578183   0.000160574866845 0
force N  -0.010376926929527   0.035685848884876   0.000157378908709 0
force N  -0.025578109569990   0.027218977332606  -0.000428713765058 0
force N   0.010827331264447  -0.035786857471486  -0.000587865168733 0
force Fe  -0.001195935372080  -0.000672818721853  -0.004205443231775 0
force S   0.000386455451737  -0.000021870114057   0.005580497245503 1
force Na  -0.003273061500109  -0.000147494747589   0.004113853546992 1
force Na   0.004133084885883   0.000717482251787   0.002774435852695 1

# Energy components:
   A_diel =       -0.2734135000122274
   Eewald =     4007.4372166095467946
       EH =     4521.5475830574578140
     Eloc =    -9231.6781436304463568
      Enl =      -64.2877119830037032
      Exc =     -163.5149539192909458
 Exc_core =        5.1303967823333130
       KE =      278.7175985607988196
-------------------------------------
     Etot =     -646.9214280226157143
       TS =        0.0957441463960392
-------------------------------------
        F =     -647.0171721690117010

IonicMinimize: Iter:  40  F: -647.017172169011701  |grad|_K:  3.060e-03  alpha:  9.284e-08  linmin: -7.309e-02  t[s]:  12028.09
IonicMinimize: Converged (|Delta F|<1.000000e-06 for 2 iters).

#--- Lowdin population analysis ---
# oxidation-state C +0.040 +0.030 +0.034 +0.031 +0.033 +0.024 +0.031 +0.029 +0.144 +0.034 +0.032 +0.030 +0.037 +0.034 +0.006 +0.045 +0.037 +0.023 +0.126 +0.034 +0.030 +0.030 +0.030 +0.040 +0.044 +0.030 +0.030 +0.033 +0.142 +0.032 +0.032 +0.126 +0.044 +0.034 +0.040 +0.033 +0.046 +0.024 +0.032 +0.031 +0.146 +0.039 +0.034 +0.034 +0.034 +0.031 +0.045 +0.033 +0.028 +0.146 +0.030 +0.031 +0.045 +0.127 +0.030 +0.030 +0.032 +0.002 +0.027 +0.038 +0.127 +0.034 +0.037 +0.030 +0.030 +0.022
# oxidation-state N -0.144 -0.144 -0.144 -0.144
# oxidation-state Fe +0.119
# oxidation-state S -1.186
# oxidation-state Na +0.888 +0.921


Dumping 'Na2S@FeN4-PC.fillings' ... done
Dumping 'Na2S@FeN4-PC.wfns' ... done
Dumping 'Na2S@FeN4-PC.fluidState' ... done
Dumping 'Na2S@FeN4-PC.ionpos' ... done
Dumping 'Na2S@FeN4-PC.eigenvals' ... done
End date and time: Thu Sep 26 08:22:56 2024  (Duration: 0-3:20:29.61)
Done!
