
*************** JDFTx 1.7.0  ***************

Start date and time: Wed Oct  2 16:49:01 2024
Executable jdftx_gpu with command-line: -i /home/akim2/JDFTx/Na2S6@FeN4-PC/Na2S6@FeN4-PC.in -o /home/akim2/JDFTx/Na2S6@FeN4-PC/Na2S6@FeN4-PC.out
Running on hosts (process indices):  exp-2-59 (0)
Divided in process groups (process indices):  0 (0)
gpuInit: Found compatible cuda device 0 'Tesla V100-SXM2-32GB'
gpuInit: Selected device 0
Resource initialization completed at t[s]:      0.39
Run totals: 1 processes, 1 threads, 1 GPUs


Input parsed successfully to the following command list (including defaults):

basis kpoint-dependent
coords-type Cartesian
core-overlap-check vector
coulomb-interaction Slab 001
coulomb-truncation-embed 0 0 4
davidson-band-ratio 1.1
dump End State
dump-name Na2S6@FeN4-PC.$VAR
elec-cutoff 20 100
elec-eigen-algo Davidson
elec-ex-corr gga-PBE
elec-smearing Fermi 0.01
electronic-minimize  \
	dirUpdateScheme      FletcherReeves \
	linminMethod         DirUpdateRecommended \
	nIterations          100 \
	history              15 \
	knormThreshold       0 \
	energyDiffThreshold  1e-08 \
	nEnergyDiff          2 \
	alphaTstart          1 \
	alphaTmin            1e-10 \
	updateTestStepSize   yes \
	alphaTreduceFactor   0.1 \
	alphaTincreaseFactor 3 \
	nAlphaAdjustMax      3 \
	wolfeEnergy          0.0001 \
	wolfeGradient        0.9 \
	fdTest               no
exchange-regularization WignerSeitzTruncated
fluid LinearPCM 298.000000 1.013250
fluid-ex-corr lda-TF lda-PZ
fluid-gummel-loop 10 1.000000e-05
fluid-minimize  \
	dirUpdateScheme      PolakRibiere \
	linminMethod         DirUpdateRecommended \
	nIterations          400 \
	history              15 \
	knormThreshold       1e-11 \
	energyDiffThreshold  0 \
	nEnergyDiff          2 \
	alphaTstart          1 \
	alphaTmin            1e-10 \
	updateTestStepSize   yes \
	alphaTreduceFactor   0.1 \
	alphaTincreaseFactor 3 \
	nAlphaAdjustMax      6 \
	wolfeEnergy          0.0001 \
	wolfeGradient        0.9 \
	fdTest               no
fluid-solvent PC 11.6429 ScalarEOS \
	epsBulk 64 \
	pMol 2.95 \
	epsInf 2.02 \
	Pvap 1.53277e-13 \
	sigmaBulk 2.88e-05 \
	Rvdw 0 \
	Res 0 \
	tauNuc 343133
forces-output-coords Positions
initial-state Na2S6@FeN4-PC.$VAR
ion C   0.000000000000000   0.000000000000000   1.000007321400000 0
ion C  -2.333835447300000   4.042302545699999   1.000007321400000 0
ion C  11.669120544600000  20.211531625799999   1.000007321400000 0
ion C   4.667689791900001   0.000000000000000   1.000007321400000 0
ion C  23.338297781100000   0.000000000000000   1.000007321400000 0
ion C   2.333816549999999   4.042302545699999   1.000007321400000 0
ion C -11.669158339200006  20.211531625799999   1.000007321400000 0
ion C  -4.667670894600000   8.084623988700001   1.000007321400000 0
ion C   9.335303994599997  16.169229080099999   1.000007321400000 0
ion C   9.335322891900001   0.000000000000000   1.000007321400000 0
ion C  18.670626886499999   0.000000000000000   1.000007321400000 0
ion C  -9.335322891900001  16.169229080099999   1.000007321400000 0
ion C  -7.001487444600000  12.126907637100000   1.000007321400000 0
ion C  14.002993786499999   0.000000000000000   1.000007321400000 0
ion C   0.000000000000000   8.084623988700001   1.000007321400000 0
ion C   7.001487444599997  20.211531625799999   1.000007321400000 0
ion C  -7.001487444600007  20.211531625799999   1.000007321400000 0
ion C  -2.333816549999999  12.126907637100000   1.000007321400000 0
ion C   4.667670894600002  16.169229080099999   1.000007321400000 0
ion C  -2.333816550000000  20.211531625799999   1.000007321400000 0
ion C   2.333816550000000  20.211531625799999   1.000007321400000 0
ion C  -4.667651997299995  16.169229080099999   1.000007321400000 0
ion C   7.001487444600000   4.042302545699999   1.000007321400000 0
ion C  21.004424539199999   4.042302545699999   1.000007321400000 0
ion C  14.002955991899999  16.169229080099999   1.000007321400000 0
ion C   0.000000000000000  16.169229080099999   1.000007321400000 0
ion C  11.669120544600000   4.042302545699999   1.000007321400000 0
ion C  18.670607989199997   8.084623988700001   1.000007321400000 0
ion C  11.669120544599998  12.126907637100000   1.000007321400000 0
ion C  16.336791439199999  12.126907637100000   1.000007321400000 0
ion C  16.336791439199999   4.042302545699999   1.000007321400000 0
ion C   9.335303994599997   8.084623988700001   1.000007321400000 0
ion C  14.002955991899999   8.084623988700001   1.000007321400000 0
ion C   0.000000000000000   2.694868363800000   1.000007321400000 0
ion C  11.669120544600000  22.906399989600001   1.000007321400000 0
ion C -11.669120544600000  22.906399989600001   1.000007321400000 0
ion C  -2.333816550000000   6.737170909500000   1.000007321400000 0
ion C   9.335303994599995  18.864097443900000   1.000007321400000 0
ion C  -7.001487444600000  22.906399989600001   1.000007321400000 0
ion C   7.001487444600000  22.906399989600001   1.000007321400000 0
ion C   2.333816550000000   6.737170909500000   1.000007321400000 0
ion C  -9.335303994599998  18.864097443900000   1.000007321400000 0
ion C  -4.667670894599997  10.779473455200000   1.000007321400000 0
ion C  -2.333816550000000  22.906399989600001   1.000007321400000 0
ion C   2.333816550000000  22.906399989600001   1.000007321400000 0
ion C  -7.001487444600004  14.821794898200000   1.000007321400000 0
ion C   4.667670894600000   2.694868363800000   1.000007321400000 0
ion C  23.338259986499999   2.694868363800000   1.000007321400000 0
ion C  14.002974889199999  18.864097443900000   1.000007321400000 0
ion C   0.000000000000000  10.779473455200000   1.000007321400000 0
ion C   4.667670894600001  18.864097443900000   1.000007321400000 0
ion C  -4.667633100000006  18.864097443900000   1.000007321400000 0
ion C  -2.333816550000003  14.821794898200000   1.000007321400000 0
ion C   2.333816549999993  14.821794898200000   1.000007321400000 0
ion C  -0.000000000000005  18.864097443900000   1.000007321400000 0
ion C   9.335303994599998   2.694868363800000   1.000007321400000 0
ion C  21.004424539199999   6.737170909500000   1.000007321400000 0
ion C  11.669120544600000  14.821794898200000   1.000007321400000 0
ion C  16.336791439199999  14.821794898200000   1.000007321400000 0
ion C  18.670607989199997   2.694868363800000   1.000007321400000 0
ion C   7.001487444600001   6.737170909500000   1.000007321400000 0
ion C  14.002955991899999   2.694868363800000   1.000007321400000 0
ion C  18.670607989200004  10.779473455200000   1.000007321400000 0
ion C  11.669120544599998   6.737170909500000   1.000007321400000 0
ion C  16.336791439199999   6.737170909500000   1.000007321400000 0
ion C  14.002955991899999  10.779473455200000   1.000007321400000 0
ion N   4.667670894599999   8.084623988700001   1.000007321400000 0
ion N   2.333816549999999  12.126907637100000   1.000007321400000 0
ion N   7.001487444599997  14.821794898200000   1.000007321400000 0
ion N   9.335303994599997  10.779473455200000   1.000007321400000 0
ion Fe   5.837111407799997  11.454314935499999   1.000007321400000 0
ion S  -0.635945061666720  13.153947751592424  11.339380667305521 1
ion S   3.012579411784090  14.161073816249063  12.012213520679099 1
ion S   5.371784189348908  13.323251964645573   9.014238979378611 1
ion S   6.359632603982610   9.400701674854085   9.022886839475744 1
ion S   8.822911960779731   8.596802153219201  11.943933245625537 1
ion S  12.451976734453091   9.591307108940018  11.126169188564624 1
ion Na  -0.827872773651057   5.601427804667066   9.503999052581893 1
ion Na  12.371307491411377  17.262917683947173   9.636948654552240 1
ion-species GBRV/$ID_pbe.uspp
ion-width Ecut
ionic-minimize  \
	dirUpdateScheme      FletcherReeves \
	linminMethod         DirUpdateRecommended \
	nIterations          200 \
	history              15 \
	knormThreshold       0.0001 \
	energyDiffThreshold  1e-06 \
	nEnergyDiff          2 \
	alphaTstart          1 \
	alphaTmin            1e-10 \
	updateTestStepSize   yes \
	alphaTreduceFactor   0.1 \
	alphaTincreaseFactor 3 \
	nAlphaAdjustMax      3 \
	wolfeEnergy          0.0001 \
	wolfeGradient        0.9 \
	fdTest               no
kpoint   0.000000000000   0.000000000000   0.000000000000  1.00000000000000
kpoint-folding 1 1 1 
latt-move-scale 1 1 1
latt-scale 1 1 1 
lattice Triclinic 28.0058 28.0058 37.7946 90 90 120
lattice-minimize  \
	dirUpdateScheme      L-BFGS \
	linminMethod         DirUpdateRecommended \
	nIterations          0 \
	history              15 \
	knormThreshold       0 \
	energyDiffThreshold  1e-06 \
	nEnergyDiff          2 \
	alphaTstart          1 \
	alphaTmin            1e-10 \
	updateTestStepSize   yes \
	alphaTreduceFactor   0.1 \
	alphaTincreaseFactor 3 \
	nAlphaAdjustMax      3 \
	wolfeEnergy          0.0001 \
	wolfeGradient        0.9 \
	fdTest               no
lcao-params -1 1e-06 0.01
pcm-variant GLSSA13
spintype no-spin
subspace-rotation-factor 1 yes
symmetries automatic
symmetry-threshold 0.0001



---------- Setting up symmetries ----------

Found 24 point-group symmetries of the bravais lattice
Found 1 space-group symmetries with basis
Applied RMS atom displacement 0 bohrs to make symmetries exact.

---------- Initializing the Grid ----------
R = 
[      28.0058     -14.0029            0  ]
[            0      24.2537            0  ]
[            0            0      37.7946  ]
unit cell volume = 25671.8
G =
[   0.224353    0.12953         -0  ]
[          0   0.259061          0  ]
[          0         -0   0.166246  ]
Minimum fftbox size, Smin = [  128  128  172  ]
Chosen fftbox size, S = [  128  128  180  ]

---------- Initializing tighter grid for wavefunction operations ----------
R = 
[      28.0058     -14.0029            0  ]
[            0      24.2537            0  ]
[            0            0      37.7946  ]
unit cell volume = 25671.8
G =
[   0.224353    0.12953         -0  ]
[          0   0.259061          0  ]
[          0         -0   0.166246  ]
Minimum fftbox size, Smin = [  116  116  156  ]
Chosen fftbox size, S = [  120  120  160  ]

---------- Exchange Correlation functional ----------
Initalized PBE GGA exchange.
Initalized PBE GGA correlation.

---------- Setting up pseudopotentials ----------
Width of ionic core gaussian charges (only for fluid interactions / plotting) set to 0.397384

Reading pseudopotential file '/home/akim2/jdftx_install/build/pseudopotentials/GBRV/c_pbe.uspp':
  Title: C.  Created by USPP 7.3.6 on 3-2-2014
  Reference state energy: -5.406344.  4 valence electrons in orbitals:
    |200>  occupation: 2  eigenvalue: -0.504890
    |210>  occupation: 2  eigenvalue: -0.194356
  lMax: 1  lLocal: 2  QijEcut: 5
  4 projectors sampled on a log grid with 503 points:
    l: 0  eig: -0.504890  rCut: 1.3
    l: 0  eig: 0.000000  rCut: 1.3
    l: 1  eig: -0.194357  rCut: 1.3
    l: 1  eig: 0.000000  rCut: 1.3
  Partial core density with radius 1.1
  Transforming core density to a uniform radial grid of dG=0.02 with 1625 points.
  Transforming local potential to a uniform radial grid of dG=0.02 with 1625 points.
  Transforming nonlocal projectors to a uniform radial grid of dG=0.02 with 432 points.
  Transforming density augmentations to a uniform radial grid of dG=0.02 with 1625 points.
  Transforming atomic orbitals to a uniform radial grid of dG=0.02 with 432 points.
  Core radius for overlap checks: 1.30 bohrs.

Reading pseudopotential file '/home/akim2/jdftx_install/build/pseudopotentials/GBRV/n_pbe.uspp':
  Title: N.  Created by USPP 7.3.6 on 3-2-2014
  Reference state energy: -9.763716.  5 valence electrons in orbitals:
    |200>  occupation: 2  eigenvalue: -0.681964
    |210>  occupation: 3  eigenvalue: -0.260726
  lMax: 1  lLocal: 2  QijEcut: 6
  4 projectors sampled on a log grid with 491 points:
    l: 0  eig: -0.681964  rCut: 1.15
    l: 0  eig: 0.000000  rCut: 1.15
    l: 1  eig: -0.260729  rCut: 1.2
    l: 1  eig: 0.500000  rCut: 1.2
  Partial core density with radius 0.8
  Transforming core density to a uniform radial grid of dG=0.02 with 1625 points.
  Transforming local potential to a uniform radial grid of dG=0.02 with 1625 points.
  Transforming nonlocal projectors to a uniform radial grid of dG=0.02 with 432 points.
  Transforming density augmentations to a uniform radial grid of dG=0.02 with 1625 points.
  Transforming atomic orbitals to a uniform radial grid of dG=0.02 with 432 points.
  Core radius for overlap checks: 1.20 bohrs.

Reading pseudopotential file '/home/akim2/jdftx_install/build/pseudopotentials/GBRV/fe_pbe.uspp':
  Title: Fe.  Created by USPP 7.3.6 on 15-6-15
  Reference state energy: -124.316937.  16 valence electrons in orbitals:
    |300>  occupation: 2  eigenvalue: -4.008817
    |310>  occupation: 6  eigenvalue: -2.753096
    |320>  occupation: 5  eigenvalue: -0.791264
    |400>  occupation: 2  eigenvalue: -0.516384
    |410>  occupation: 0  eigenvalue: -0.312222
  lMax: 2  lLocal: 3  QijEcut: 6
  6 projectors sampled on a log grid with 607 points:
    l: 0  eig: -4.008819  rCut: 1.55
    l: 0  eig: -0.516386  rCut: 1.55
    l: 1  eig: -2.753096  rCut: 1.55
    l: 1  eig: -0.312226  rCut: 1.55
    l: 2  eig: -0.791264  rCut: 1.65
    l: 2  eig: -0.450000  rCut: 1.65
  Partial core density with radius 0.65
  Transforming core density to a uniform radial grid of dG=0.02 with 1625 points.
  Transforming local potential to a uniform radial grid of dG=0.02 with 1625 points.
  Transforming nonlocal projectors to a uniform radial grid of dG=0.02 with 432 points.
  Transforming density augmentations to a uniform radial grid of dG=0.02 with 1625 points.
  Transforming atomic orbitals to a uniform radial grid of dG=0.02 with 432 points.
  Core radius for overlap checks: 1.65 bohrs.

Reading pseudopotential file '/home/akim2/jdftx_install/build/pseudopotentials/GBRV/s_pbe.uspp':
  Title: S.  Created by USPP 7.3.6 on 1-4-15
  Reference state energy: -11.898476.  6 valence electrons in orbitals:
    |300>  occupation: 2  eigenvalue: -0.634167
    |310>  occupation: 4  eigenvalue: -0.257568
  lMax: 2  lLocal: 3  QijEcut: 6
  6 projectors sampled on a log grid with 635 points:
    l: 0  eig: -0.634161  rCut: 1.5
    l: 0  eig: 1.500000  rCut: 1.5
    l: 1  eig: -0.257567  rCut: 1.5
    l: 1  eig: 1.500000  rCut: 1.5
    l: 2  eig: -1.000000  rCut: 1.5
    l: 2  eig: 1.500000  rCut: 1.5
  Partial core density with radius 1.15
  Transforming core density to a uniform radial grid of dG=0.02 with 1625 points.
  Transforming local potential to a uniform radial grid of dG=0.02 with 1625 points.
  Transforming nonlocal projectors to a uniform radial grid of dG=0.02 with 432 points.
  Transforming density augmentations to a uniform radial grid of dG=0.02 with 1625 points.
  Transforming atomic orbitals to a uniform radial grid of dG=0.02 with 432 points.
  Core radius for overlap checks: 1.50 bohrs.

Reading pseudopotential file '/home/akim2/jdftx_install/build/pseudopotentials/GBRV/na_pbe.uspp':
  Title: Na.  Created by USPP 7.3.6 on 23-9-15
  Reference state energy: -47.625620.  9 valence electrons in orbitals:
    |200>  occupation: 2  eigenvalue: -2.085638
    |210>  occupation: 6  eigenvalue: -1.053708
    |300>  occupation: 1  eigenvalue: -0.100838
  lMax: 2  lLocal: 0  QijEcut: 6
  5 projectors sampled on a log grid with 657 points:
    l: 0  eig: -2.085640  rCut: 1.37
    l: 0  eig: -0.100839  rCut: 1.37
    l: 1  eig: -1.053708  rCut: 1.47
    l: 1  eig: 0.500000  rCut: 1.47
    l: 2  eig: 0.750000  rCut: 2
  Transforming local potential to a uniform radial grid of dG=0.02 with 1625 points.
  Transforming nonlocal projectors to a uniform radial grid of dG=0.02 with 432 points.
  Transforming density augmentations to a uniform radial grid of dG=0.02 with 1625 points.
  Transforming atomic orbitals to a uniform radial grid of dG=0.02 with 432 points.
  Core radius for overlap checks: 2.00 bohrs.

Initialized 5 species with 79 total atoms.

Folded 1 k-points by 1x1x1 to 1 k-points.

---------- Setting up k-points, bands, fillings ----------
No reducable k-points. 
Computing the number of bands and number of electrons
Reading initial fillings from file Na2S6@FeN4-PC.fillings.
nElectrons: 354.000000   nBands: 327   nStates: 1

----- Setting up reduced wavefunction bases (one per k-point) -----
average nbasis = 109673.000 , ideal nbasis = 109671.883

---------- Setting up coulomb interaction ----------
Fluid mode embedding: using embedded box, but periodic Coulomb kernel.
(Fluid response is responsible for (approximate) separation between periodic images.)
Setting up double-sized grid for truncated Coulomb potentials:
R = 
[      28.0058     -14.0029            0  ]
[            0      24.2537            0  ]
[            0            0      75.5892  ]
unit cell volume = 51343.6
G =
[   0.224353    0.12953         -0  ]
[          0   0.259061          0  ]
[          0         -0  0.0831228  ]
Chosen fftbox size, S = [  128  128  360  ]
Integer grid location selected as the embedding center:
   Grid: [  0  0  19  ]
   Lattice: [  0  0  0.105835  ]
   Cartesian: [  0  0  4  ]
Constructing Wigner-Seitz cell: 8 faces (6 quadrilaterals, 2 hexagons)
Range-separation parameter for embedded mesh potentials due to point charges: 0.590105 bohrs.

---------- Setting up ewald sum ----------
Optimum gaussian width for ewald sums = 7.158153 bohr.
Real space sum over 405 unit cells with max indices [  4  4  2  ]
Reciprocal space sum over 7875 terms with max indices [  7  7  17  ]

---------- Allocating electronic variables ----------
Initializing wave functions:  reading from 'Na2S6@FeN4-PC.wfns'
----- createFluidSolver() ----- (Fluid-side solver setup)
   Initializing fluid molecule 'PC'
     Net charge: 0   dipole magnitude: 0
     Initializing spherical shell mfKernel with radius 0 Bohr
     deltaS corrections:

Correction to mu due to finite nuclear width = -0.00684095
   Cavity determined by nc: 0.00098 and sigma: 0.6
   Effective cavity tension: 9.53e-06 Eh/bohr^2 to account for cavitation and dispersion.
Reading fluid state from 'Na2S6@FeN4-PC.fluidState'


---- Citations for features of the code used in this run ----

   Software package:
      R. Sundararaman, K. Letchworth-Weaver, K.A. Schwarz, D. Gunceler, Y. Ozhabes and T.A. Arias, 'JDFTx: software for joint density-functional theory', SoftwareX 6, 278 (2017)

   gga-PBE exchange-correlation functional:
      J.P. Perdew, K. Burke and M. Ernzerhof, Phys. Rev. Lett. 77, 3865 (1996)

   Pseudopotentials:
      KF Garrity, JW Bennett, KM Rabe and D Vanderbilt, Comput. Mater. Sci. 81, 446 (2014)

   Truncated Coulomb potentials:
      R. Sundararaman and T.A. Arias, Phys. Rev. B 87, 165122 (2013)

   Linear/nonlinear dielectric/ionic fluid model with effective cavity tension:
      D. Gunceler, K. Letchworth-Weaver, R. Sundararaman, K.A. Schwarz and T.A. Arias, Modelling Simul. Mater. Sci. Eng. 21, 074005 (2013)

   Total energy minimization with Auxiliary Hamiltonian:
      C. Freysoldt, S. Boeck, and J. Neugebauer, Phys. Rev. B 79, 241103(R) (2009)

This list may not be complete. Please suggest additional citations or
report any other bugs at https://github.com/shankar1729/jdftx/issues

Initialization completed successfully at t[s]:      5.29


-------- Electronic minimization -----------
	Linear fluid (dielectric constant: 64) occupying 0.873550 of unit cell:	Completed after 4 iterations at t[s]:      6.05
	FillingsUpdate:  mu: -0.104570377  nElectrons: 354.000000
ElecMinimize: Iter:   0  F: -698.481655523826475  |grad|_K:  8.053e-07  alpha:  1.000e+00
	Linear fluid (dielectric constant: 64) occupying 0.873542 of unit cell:	Completed after 17 iterations at t[s]:      8.14
	Linear fluid (dielectric constant: 64) occupying 0.873550 of unit cell:	Completed after 17 iterations at t[s]:      9.15
	FillingsUpdate:  mu: -0.104829865  nElectrons: 354.000000
	SubspaceRotationAdjust: set factor to 0.61
ElecMinimize: Iter:   1  F: -698.481656259726492  |grad|_K:  7.022e-08  alpha:  2.596e-02  linmin: -1.131e-02  t[s]:     10.19
	Linear fluid (dielectric constant: 64) occupying 0.873550 of unit cell:	Completed after 0 iterations at t[s]:     10.94
ElecMinimize: 	Predicted alpha/alphaT>3.000000, increasing alphaT to 7.787052e-02.
	Linear fluid (dielectric constant: 64) occupying 0.873550 of unit cell:	Completed after 0 iterations at t[s]:     11.68
	Linear fluid (dielectric constant: 64) occupying 0.873550 of unit cell:	Completed after 0 iterations at t[s]:     12.43
ElecMinimize: 	Step increased F by 7.284484e-09, reducing alpha to 4.374659e-03.
	Linear fluid (dielectric constant: 64) occupying 0.873550 of unit cell:	Completed after 0 iterations at t[s]:     14.00
ElecMinimize: 	Step increased F by 1.951230e-08, reducing alpha to 4.374659e-04.
	Linear fluid (dielectric constant: 64) occupying 0.873550 of unit cell:	Completed after 0 iterations at t[s]:     15.56
ElecMinimize: 	Step increased F by 2.074671e-08, reducing alpha to 4.374659e-05.
ElecMinimize: 	Step failed to reduce F after 3 attempts. Quitting step.
ElecMinimize: 	Undoing step.
	Linear fluid (dielectric constant: 64) occupying 0.873550 of unit cell:	Completed after 0 iterations at t[s]:     17.13
ElecMinimize: 	Step failed: resetting search direction.
	FillingsUpdate:  mu: -0.104834343  nElectrons: 354.000000
	SubspaceRotationAdjust: set factor to 0.446
ElecMinimize: Iter:   2  F: -698.481656238965002  |grad|_K:  5.053e-08  alpha:  4.375e-05
	Linear fluid (dielectric constant: 64) occupying 0.873550 of unit cell:	Completed after 0 iterations at t[s]:     18.84
ElecMinimize: 	Predicted alpha/alphaT>3.000000, increasing alphaT to 7.787052e-02.
	Linear fluid (dielectric constant: 64) occupying 0.873550 of unit cell:	Completed after 0 iterations at t[s]:     19.58
ElecMinimize: 	Predicted alpha/alphaT>3.000000, increasing alphaT to 2.336116e-01.
	Linear fluid (dielectric constant: 64) occupying 0.873550 of unit cell:	Completed after 0 iterations at t[s]:     20.34
ElecMinimize: 	Predicted alpha/alphaT>3.000000, increasing alphaT to 7.008347e-01.
	Linear fluid (dielectric constant: 64) occupying 0.873551 of unit cell:	Completed after 4 iterations at t[s]:     21.14
ElecMinimize: 	Step increased F by 2.178028e-06, reducing alpha to 2.198937e-01.
	Linear fluid (dielectric constant: 64) occupying 0.873550 of unit cell:	Completed after 4 iterations at t[s]:     22.78
ElecMinimize: 	Step increased F by 2.026184e-08, reducing alpha to 2.198937e-02.
	Linear fluid (dielectric constant: 64) occupying 0.873550 of unit cell:	Completed after 0 iterations at t[s]:     24.40
	FillingsUpdate:  mu: -0.104897209  nElectrons: 354.000000
	SubspaceRotationAdjust: set factor to 0.245
ElecMinimize: Iter:   3  F: -698.481656260483192  |grad|_K:  1.110e-07  alpha:  2.199e-02  linmin:  1.010e-02  t[s]:     25.38
ElecMinimize: 	Bad step direction: g.d > 0.
ElecMinimize: 	Undoing step.
	Linear fluid (dielectric constant: 64) occupying 0.873550 of unit cell:	Completed after 0 iterations at t[s]:     26.12
ElecMinimize: 	Step failed: resetting search direction.
	FillingsUpdate:  mu: -0.104897209  nElectrons: 354.000000
	SubspaceRotationAdjust: set factor to 0.144
ElecMinimize: Iter:   4  F: -698.481656260485011  |grad|_K:  8.518e-08  alpha:  0.000e+00
	Linear fluid (dielectric constant: 64) occupying 0.873550 of unit cell:	Completed after 0 iterations at t[s]:     27.83
ElecMinimize: 	Wrong curvature in test step, increasing alphaT to 6.596812e-02.
	Linear fluid (dielectric constant: 64) occupying 0.873550 of unit cell:	Completed after 0 iterations at t[s]:     28.38
	FillingsUpdate:  mu: -0.104897593  nElectrons: 354.000000
	SubspaceRotationAdjust: set factor to 0.0929
	SubspaceRotationAdjust: resetting CG because factor has changed by 0.0929252
	Linear fluid (dielectric constant: 64) occupying 0.873550 of unit cell:	Completed after 0 iterations at t[s]:     29.80
ElecMinimize: 	State modified externally: resetting search direction.
ElecMinimize: Iter:   5  F: -698.481656271962152  |grad|_K:  5.832e-08  alpha: -7.806e+00
	Linear fluid (dielectric constant: 64) occupying 0.873550 of unit cell:	Completed after 3 iterations at t[s]:     31.56
	Linear fluid (dielectric constant: 64) occupying 0.873550 of unit cell:	Completed after 3 iterations at t[s]:     32.36
ElecMinimize: 	Step increased F by 1.226382e-07, reducing alpha to 1.191946e-02.
	Linear fluid (dielectric constant: 64) occupying 0.873550 of unit cell:	Completed after 0 iterations at t[s]:     33.94
ElecMinimize: 	Step increased F by 9.635949e-08, reducing alpha to 1.191946e-03.
	Linear fluid (dielectric constant: 64) occupying 0.873550 of unit cell:	Completed after 0 iterations at t[s]:     35.52
ElecMinimize: 	Step increased F by 9.379653e-08, reducing alpha to 1.191946e-04.
ElecMinimize: 	Step failed to reduce F after 3 attempts. Quitting step.
ElecMinimize: 	Undoing step.
	Linear fluid (dielectric constant: 64) occupying 0.873550 of unit cell:	Completed after 0 iterations at t[s]:     37.09
ElecMinimize: 	Step failed along negative gradient direction.
ElecMinimize: Probably at roundoff error limit. (Stopping)
Setting wave functions to eigenvectors of Hamiltonian

# Ionic positions in cartesian coordinates:
ion C   0.000000000000000   0.000000000000000   1.000007321400000 0
ion C  -2.333835447300000   4.042302545699999   1.000007321400000 0
ion C  11.669120544600000  20.211531625799999   1.000007321400000 0
ion C   4.667689791900001   0.000000000000000   1.000007321400000 0
ion C  23.338297781100000   0.000000000000000   1.000007321400000 0
ion C   2.333816549999999   4.042302545699999   1.000007321400000 0
ion C -11.669158339200006  20.211531625799999   1.000007321400000 0
ion C  -4.667670894600000   8.084623988700001   1.000007321400000 0
ion C   9.335303994599997  16.169229080099999   1.000007321400000 0
ion C   9.335322891900001   0.000000000000000   1.000007321400000 0
ion C  18.670626886499999   0.000000000000000   1.000007321400000 0
ion C  -9.335322891900001  16.169229080099999   1.000007321400000 0
ion C  -7.001487444600000  12.126907637100000   1.000007321400000 0
ion C  14.002993786499999   0.000000000000000   1.000007321400000 0
ion C   0.000000000000000   8.084623988700001   1.000007321400000 0
ion C   7.001487444599997  20.211531625799999   1.000007321400000 0
ion C  -7.001487444600007  20.211531625799999   1.000007321400000 0
ion C  -2.333816549999999  12.126907637100000   1.000007321400000 0
ion C   4.667670894600002  16.169229080099999   1.000007321400000 0
ion C  -2.333816550000000  20.211531625799999   1.000007321400000 0
ion C   2.333816550000000  20.211531625799999   1.000007321400000 0
ion C  -4.667651997299995  16.169229080099999   1.000007321400000 0
ion C   7.001487444600000   4.042302545699999   1.000007321400000 0
ion C  21.004424539199999   4.042302545699999   1.000007321400000 0
ion C  14.002955991899999  16.169229080099999   1.000007321400000 0
ion C   0.000000000000000  16.169229080099999   1.000007321400000 0
ion C  11.669120544600000   4.042302545699999   1.000007321400000 0
ion C  18.670607989199997   8.084623988700001   1.000007321400000 0
ion C  11.669120544599998  12.126907637100000   1.000007321400000 0
ion C  16.336791439199999  12.126907637100000   1.000007321400000 0
ion C  16.336791439199999   4.042302545699999   1.000007321400000 0
ion C   9.335303994599997   8.084623988700001   1.000007321400000 0
ion C  14.002955991899999   8.084623988700001   1.000007321400000 0
ion C   0.000000000000000   2.694868363800000   1.000007321400000 0
ion C  11.669120544600000  22.906399989600001   1.000007321400000 0
ion C -11.669120544600000  22.906399989600001   1.000007321400000 0
ion C  -2.333816550000000   6.737170909500000   1.000007321400000 0
ion C   9.335303994599995  18.864097443900000   1.000007321400000 0
ion C  -7.001487444600000  22.906399989600001   1.000007321400000 0
ion C   7.001487444600000  22.906399989600001   1.000007321400000 0
ion C   2.333816550000000   6.737170909500000   1.000007321400000 0
ion C  -9.335303994599998  18.864097443900000   1.000007321400000 0
ion C  -4.667670894599997  10.779473455200000   1.000007321400000 0
ion C  -2.333816550000000  22.906399989600001   1.000007321400000 0
ion C   2.333816550000000  22.906399989600001   1.000007321400000 0
ion C  -7.001487444600004  14.821794898200000   1.000007321400000 0
ion C   4.667670894600000   2.694868363800000   1.000007321400000 0
ion C  23.338259986499999   2.694868363800000   1.000007321400000 0
ion C  14.002974889199999  18.864097443900000   1.000007321400000 0
ion C   0.000000000000000  10.779473455200000   1.000007321400000 0
ion C   4.667670894600001  18.864097443900000   1.000007321400000 0
ion C  -4.667633100000006  18.864097443900000   1.000007321400000 0
ion C  -2.333816550000003  14.821794898200000   1.000007321400000 0
ion C   2.333816549999993  14.821794898200000   1.000007321400000 0
ion C  -0.000000000000005  18.864097443900000   1.000007321400000 0
ion C   9.335303994599998   2.694868363800000   1.000007321400000 0
ion C  21.004424539199999   6.737170909500000   1.000007321400000 0
ion C  11.669120544600000  14.821794898200000   1.000007321400000 0
ion C  16.336791439199999  14.821794898200000   1.000007321400000 0
ion C  18.670607989199997   2.694868363800000   1.000007321400000 0
ion C   7.001487444600001   6.737170909500000   1.000007321400000 0
ion C  14.002955991899999   2.694868363800000   1.000007321400000 0
ion C  18.670607989200004  10.779473455200000   1.000007321400000 0
ion C  11.669120544599998   6.737170909500000   1.000007321400000 0
ion C  16.336791439199999   6.737170909500000   1.000007321400000 0
ion C  14.002955991899999  10.779473455200000   1.000007321400000 0
ion N   4.667670894599999   8.084623988700001   1.000007321400000 0
ion N   2.333816549999999  12.126907637100000   1.000007321400000 0
ion N   7.001487444599997  14.821794898200000   1.000007321400000 0
ion N   9.335303994599997  10.779473455200000   1.000007321400000 0
ion Fe   5.837111407799997  11.454314935499999   1.000007321400000 0
ion S  -0.635945061666720  13.153947751592424  11.339380667305521 1
ion S   3.012579411784090  14.161073816249063  12.012213520679099 1
ion S   5.371784189348908  13.323251964645573   9.014238979378611 1
ion S   6.359632603982610   9.400701674854085   9.022886839475744 1
ion S   8.822911960779731   8.596802153219201  11.943933245625537 1
ion S  12.451976734453091   9.591307108940018  11.126169188564624 1
ion Na  -0.827872773651057   5.601427804667066   9.503999052581893 1
ion Na  12.371307491411377  17.262917683947173   9.636948654552240 1

# Forces in Cartesian coordinates:
force C   0.004160093269003   0.000061788756477   0.000003613693572 0
force C   0.001444680499302  -0.001265484065677   0.000034124675564 0
force C   0.003641181120413  -0.001728837848928   0.000029166669879 0
force C   0.001408205392025   0.003068508100481   0.000007571818014 0
force C   0.002546704664635  -0.000384885933616   0.000004662182938 0
force C   0.005317367697252   0.002188181807554   0.000025852703772 0
force C   0.000927931789323  -0.000733351517343   0.000009048170910 0
force C  -0.000373817575138   0.001897088873435   0.000014467193021 0
force C  -0.033210162807801  -0.013488282202808  -0.000010273868936 0
force C  -0.000974983007832   0.000685359013041   0.000005397475833 0
force C  -0.000532309137814  -0.000048181624685   0.000005776189335 0
force C  -0.000177393660929   0.001130917277107   0.000004414059529 0
force C   0.002107224428125   0.003580375989630   0.000010365247587 0
force C  -0.001092734211929  -0.000537621336521   0.000009560023642 0
force C   0.010685788194229   0.006166279618897   0.000078012954340 0
force C   0.003177827661017   0.002594294312573   0.000005594024480 0
force C   0.001577302174106   0.000893213545008   0.000002392670694 0
force C   0.004507940261101   0.003503628021288   0.000053595609599 0
force C   0.029348252180235   0.011282104023140   0.000065981779674 0
force C   0.000080137026173  -0.001134132400237   0.000011022926197 0
force C  -0.003528985348893   0.000759675795557   0.000012957252449 0
force C   0.003321230315483  -0.000273629329147   0.000030290438429 0
force C   0.005005923633676   0.007516195526247   0.000043192064592 0
force C   0.001671420157899   0.001006402016844  -0.000004299120241 0
force C  -0.002271846433086  -0.001366301764472   0.000012738787369 0
force C   0.008967024013154   0.000557464847502   0.000058363485940 0
force C  -0.001093996923789  -0.003403842218023   0.000018806106222 0
force C   0.000885797343836   0.002466884957853   0.000013774728041 0
force C  -0.028293696210590  -0.022112325107158   0.000006843578985 0
force C   0.000297493382423   0.003988526432114   0.000029954867345 0
force C  -0.000340808872175  -0.000341159356739   0.000012941799509 0
force C   0.024523385310725   0.019848752543857   0.000086547971375 0
force C   0.003798866200531   0.001480545940160   0.000061579737113 0
force C  -0.003630878327593   0.001724410784655   0.000031256643810 0
force C  -0.004132351993948  -0.000061704824739   0.000002769406823 0
force C  -0.002571438547921   0.000395777188256   0.000005825682473 0
force C   0.002265604024741   0.001374232040688   0.000013761952571 0
force C  -0.005315360303035  -0.002215962822568   0.000024844867706 0
force C   0.000532794917464   0.000044329990973   0.000004837965217 0
force C  -0.001431972391614  -0.003073298036591   0.000006396287987 0
force C   0.033318399132205   0.013555454666503  -0.000015367825407 0
force C  -0.001679565797580  -0.001008294771225  -0.000003692758505 0
force C  -0.000296209595806  -0.003970264582582   0.000030868098012 0
force C   0.001084717056601   0.000552437383098   0.000008128574729 0
force C   0.000986784894576  -0.000683283352067   0.000007152275925 0
force C  -0.000883443367677  -0.002487967483784   0.000012162120625 0
force C  -0.003191268353317  -0.002576006108744   0.000007519391081 0
force C  -0.000901898985666   0.000739532280305   0.000009674386259 0
force C  -0.001454049535982   0.001262803880999   0.000033836337679 0
force C   0.028394706073476   0.022184218892963   0.000001777324856 0
force C  -0.004998231171863  -0.007530683436870   0.000039820647540 0
force C   0.000320359349041   0.000333795440023   0.000010772548838 0
force C  -0.003796443490182  -0.001511765505611   0.000057156464831 0
force C  -0.024506636332433  -0.019984427083184   0.000087579880227 0
force C   0.001099515425742   0.003399182415149   0.000017098205747 0
force C   0.003542051133894  -0.000762783089531   0.000014034345146 0
force C   0.000194464092384  -0.001123565416132   0.000004064522563 0
force C  -0.010707451827585  -0.006201488533118   0.000073652747038 0
force C   0.000373800118169  -0.001914275463768   0.000016074299189 0
force C  -0.001577642155170  -0.000898919031591   0.000003078133863 0
force C  -0.029451351865014  -0.011256442039449   0.000060701392460 0
force C  -0.000078403674979   0.001138094074232   0.000011062206694 0
force C  -0.002101800554712  -0.003560184807604   0.000012436720434 0
force C  -0.008972581956861  -0.000521769685891   0.000064378995869 0
force C  -0.003339602027511   0.000275454261531   0.000034511047785 0
force C  -0.004546565161164  -0.003495399554937   0.000054959915197 0
force N   0.025731333152602  -0.027428233970428  -0.000042009302591 0
force N  -0.010863046263537   0.036004270311970  -0.000074929469210 0
force N  -0.025541678511728   0.027560348097062  -0.000048917491091 0
force N   0.011167174666070  -0.035960346662996  -0.000069867671657 0
force Fe  -0.000023099479063   0.000141384117292   0.002662292560495 0
force S  -0.000824308338849  -0.000317231150992  -0.000312093135833 1
force S   0.000639729892606   0.000695137993568   0.000191598571255 1
force S   0.000100652644067   0.000497985106523  -0.000080429397027 1
force S  -0.000151447860096  -0.000600661827745  -0.000044303423172 1
force S   0.000187821767664  -0.000365431610281   0.000067869922036 1
force S  -0.000045231422809   0.000059795268861  -0.000165934252335 1
force Na  -0.000018852162330  -0.000015247441786   0.000078872882235 1
force Na   0.000018820396654  -0.000010196738843   0.000121720836270 1

# Energy components:
   A_diel =       -0.3592977199998186
   Eewald =     5246.6534410011063301
       EH =     5810.5603332398841303
     Eloc =   -11826.9086841140069737
      Enl =      -55.5271328828117134
      Exc =     -184.4829850431406442
 Exc_core =       13.9690349596364083
       KE =      297.7040175873255521
  MuShift =       -0.0000000000001594
-------------------------------------
     Etot =     -698.3912729720057087
       TS =        0.0903832061966154
-------------------------------------
        F =     -698.4816561782023427

IonicMinimize: Iter:   0  F: -698.481656178202343  |grad|_K:  3.345e-04  alpha:  1.000e+00

#--- Lowdin population analysis ---
# oxidation-state C +0.041 +0.031 +0.035 +0.033 +0.035 +0.025 +0.034 +0.032 +0.149 +0.036 +0.034 +0.035 +0.042 +0.037 +0.008 +0.047 +0.040 +0.027 +0.131 +0.037 +0.033 +0.034 +0.032 +0.042 +0.047 +0.033 +0.033 +0.036 +0.150 +0.037 +0.034 +0.131 +0.048 +0.035 +0.041 +0.035 +0.047 +0.025 +0.034 +0.033 +0.149 +0.042 +0.037 +0.037 +0.036 +0.036 +0.047 +0.034 +0.031 +0.150 +0.032 +0.034 +0.048 +0.131 +0.033 +0.033 +0.035 +0.008 +0.032 +0.040 +0.131 +0.037 +0.042 +0.033 +0.034 +0.027
# oxidation-state N -0.141 -0.140 -0.140 -0.139
# oxidation-state Fe +0.109
# oxidation-state S -0.580 +0.078 -0.035 -0.035 +0.077 -0.582
# oxidation-state Na +0.975 +0.974


-------- Electronic minimization -----------
	Linear fluid (dielectric constant: 64) occupying 0.873546 of unit cell:	Completed after 10 iterations at t[s]:     40.25
	FillingsUpdate:  mu: -0.106647305  nElectrons: 354.000000
ElecMinimize: Iter:   0  F: -698.481626542899903  |grad|_K:  2.122e-06  alpha:  1.000e+00
	Linear fluid (dielectric constant: 64) occupying 0.873551 of unit cell:	Completed after 16 iterations at t[s]:     42.27
	Linear fluid (dielectric constant: 64) occupying 0.873547 of unit cell:	Completed after 15 iterations at t[s]:     43.24
	FillingsUpdate:  mu: -0.105117580  nElectrons: 354.000000
	SubspaceRotationAdjust: set factor to 0.206
ElecMinimize: Iter:   1  F: -698.481653594169757  |grad|_K:  5.613e-07  alpha:  1.659e-01  linmin: -1.158e-04  t[s]:     44.28
	Linear fluid (dielectric constant: 64) occupying 0.873547 of unit cell:	Completed after 3 iterations at t[s]:     45.06
	Linear fluid (dielectric constant: 64) occupying 0.873547 of unit cell:	Completed after 3 iterations at t[s]:     45.86
	FillingsUpdate:  mu: -0.104902534  nElectrons: 354.000000
	SubspaceRotationAdjust: set factor to 0.287
ElecMinimize: Iter:   2  F: -698.481657838755609  |grad|_K:  1.572e-07  alpha:  3.503e-01  linmin: -1.596e-02  t[s]:     46.87
	Linear fluid (dielectric constant: 64) occupying 0.873547 of unit cell:	Completed after 2 iterations at t[s]:     47.66
	Linear fluid (dielectric constant: 64) occupying 0.873547 of unit cell:	Completed after 0 iterations at t[s]:     48.44
	FillingsUpdate:  mu: -0.104794941  nElectrons: 354.000000
	SubspaceRotationAdjust: set factor to 0.226
ElecMinimize: Iter:   3  F: -698.481658243885022  |grad|_K:  1.318e-07  alpha:  3.966e-01  linmin: -6.811e-03  t[s]:     49.43
	Linear fluid (dielectric constant: 64) occupying 0.873547 of unit cell:	Completed after 2 iterations at t[s]:     50.21
	Linear fluid (dielectric constant: 64) occupying 0.873547 of unit cell:	Completed after 0 iterations at t[s]:     50.97
	FillingsUpdate:  mu: -0.104905559  nElectrons: 354.000000
	SubspaceRotationAdjust: set factor to 0.17
ElecMinimize: Iter:   4  F: -698.481658449316342  |grad|_K:  1.459e-07  alpha:  2.716e-01  linmin:  1.776e-03  t[s]:     51.96
	Linear fluid (dielectric constant: 64) occupying 0.873547 of unit cell:	Completed after 1 iterations at t[s]:     52.73
	Linear fluid (dielectric constant: 64) occupying 0.873547 of unit cell:	Completed after 0 iterations at t[s]:     53.49
	FillingsUpdate:  mu: -0.104869332  nElectrons: 354.000000
	SubspaceRotationAdjust: set factor to 0.256
ElecMinimize: Iter:   5  F: -698.481658568154785  |grad|_K:  9.204e-08  alpha:  2.087e-01  linmin: -2.040e-03  t[s]:     54.47
	Linear fluid (dielectric constant: 64) occupying 0.873547 of unit cell:	Completed after 0 iterations at t[s]:     55.22
	Linear fluid (dielectric constant: 64) occupying 0.873547 of unit cell:	Completed after 2 iterations at t[s]:     56.00
ElecMinimize: 	Step increased F by 3.934995e-07, reducing alpha to 4.519957e-02.
	Linear fluid (dielectric constant: 64) occupying 0.873547 of unit cell:	Completed after 1 iterations at t[s]:     57.61
	FillingsUpdate:  mu: -0.104775589  nElectrons: 354.000000
	SubspaceRotationAdjust: set factor to 0.185
ElecMinimize: Iter:   6  F: -698.481658587382867  |grad|_K:  1.227e-07  alpha:  4.520e-02  linmin:  4.831e-03  t[s]:     58.62
	Linear fluid (dielectric constant: 64) occupying 0.873547 of unit cell:	Completed after 0 iterations at t[s]:     59.37
	Linear fluid (dielectric constant: 64) occupying 0.873547 of unit cell:	Completed after 0 iterations at t[s]:     60.12
	FillingsUpdate:  mu: -0.104775421  nElectrons: 354.000000
	SubspaceRotationAdjust: set factor to 0.156
ElecMinimize: Iter:   7  F: -698.481658630225752  |grad|_K:  1.128e-07  alpha:  1.253e-01  linmin: -9.238e-06  t[s]:     61.11
	Linear fluid (dielectric constant: 64) occupying 0.873547 of unit cell:	Completed after 1 iterations at t[s]:     61.89
	Linear fluid (dielectric constant: 64) occupying 0.873547 of unit cell:	Completed after 0 iterations at t[s]:     62.65
ElecMinimize: 	Step increased F by 9.177597e-09, reducing alpha to 6.462261e-03.
	Linear fluid (dielectric constant: 64) occupying 0.873547 of unit cell:	Completed after 0 iterations at t[s]:     64.21
ElecMinimize: 	Step increased F by 3.212631e-08, reducing alpha to 6.462261e-04.
	Linear fluid (dielectric constant: 64) occupying 0.873547 of unit cell:	Completed after 0 iterations at t[s]:     65.78
ElecMinimize: 	Step increased F by 3.499838e-08, reducing alpha to 6.462261e-05.
ElecMinimize: 	Step failed to reduce F after 3 attempts. Quitting step.
ElecMinimize: 	Undoing step.
	Linear fluid (dielectric constant: 64) occupying 0.873547 of unit cell:	Completed after 0 iterations at t[s]:     67.37
ElecMinimize: 	Step failed: resetting search direction.
	FillingsUpdate:  mu: -0.104811919  nElectrons: 354.000000
	SubspaceRotationAdjust: set factor to 0.268
ElecMinimize: Iter:   8  F: -698.481658595194062  |grad|_K:  7.031e-08  alpha:  6.462e-05
	Linear fluid (dielectric constant: 64) occupying 0.873547 of unit cell:	Completed after 0 iterations at t[s]:     69.08
ElecMinimize: 	Predicted alpha/alphaT>3.000000, increasing alphaT to 3.757914e-01.
	Linear fluid (dielectric constant: 64) occupying 0.873547 of unit cell:	Completed after 0 iterations at t[s]:     69.84
	Linear fluid (dielectric constant: 64) occupying 0.873547 of unit cell:	Completed after 2 iterations at t[s]:     70.62
ElecMinimize: 	Step increased F by 3.699059e-07, reducing alpha to 8.839420e-02.
	Linear fluid (dielectric constant: 64) occupying 0.873547 of unit cell:	Completed after 3 iterations at t[s]:     72.25
	FillingsUpdate:  mu: -0.104842708  nElectrons: 354.000000
	SubspaceRotationAdjust: set factor to 0.297
ElecMinimize: Iter:   9  F: -698.481658620821349  |grad|_K:  4.342e-08  alpha:  8.839e-02  linmin: -1.950e-02  t[s]:     73.26
	Linear fluid (dielectric constant: 64) occupying 0.873547 of unit cell:	Completed after 0 iterations at t[s]:     74.01
ElecMinimize: 	Predicted alpha/alphaT>3.000000, increasing alphaT to 2.651826e-01.
	Linear fluid (dielectric constant: 64) occupying 0.873547 of unit cell:	Completed after 0 iterations at t[s]:     74.77
	Linear fluid (dielectric constant: 64) occupying 0.873547 of unit cell:	Completed after 0 iterations at t[s]:     75.51
	FillingsUpdate:  mu: -0.104840849  nElectrons: 354.000000
	SubspaceRotationAdjust: set factor to 0.373
ElecMinimize: Iter:  10  F: -698.481658673639345  |grad|_K:  3.338e-08  alpha:  5.490e-01  linmin:  6.134e-06  t[s]:     76.50
	Linear fluid (dielectric constant: 64) occupying 0.873547 of unit cell:	Completed after 0 iterations at t[s]:     77.25
	Linear fluid (dielectric constant: 64) occupying 0.873547 of unit cell:	Completed after 0 iterations at t[s]:     77.99
	FillingsUpdate:  mu: -0.104839986  nElectrons: 354.000000
	SubspaceRotationAdjust: set factor to 0.455
ElecMinimize: Iter:  11  F: -698.481658694167663  |grad|_K:  3.102e-08  alpha:  5.131e-01  linmin: -4.121e-07  t[s]:     78.97
	Linear fluid (dielectric constant: 64) occupying 0.873547 of unit cell:	Completed after 0 iterations at t[s]:     79.71
	Linear fluid (dielectric constant: 64) occupying 0.873547 of unit cell:	Completed after 0 iterations at t[s]:     80.46
	FillingsUpdate:  mu: -0.104839206  nElectrons: 354.000000
	SubspaceRotationAdjust: set factor to 0.578
ElecMinimize: Iter:  12  F: -698.481658708955820  |grad|_K:  2.303e-08  alpha:  4.278e-01  linmin:  8.563e-07  t[s]:     81.45
	Linear fluid (dielectric constant: 64) occupying 0.873547 of unit cell:	Completed after 0 iterations at t[s]:     82.19
	Linear fluid (dielectric constant: 64) occupying 0.873547 of unit cell:	Completed after 2 iterations at t[s]:     82.98
ElecMinimize: 	Step increased F by 1.482946e-07, reducing alpha to 6.279001e-02.
	Linear fluid (dielectric constant: 64) occupying 0.873547 of unit cell:	Completed after 0 iterations at t[s]:     84.56
ElecMinimize: 	Step increased F by 8.173038e-08, reducing alpha to 6.279001e-03.
	Linear fluid (dielectric constant: 64) occupying 0.873547 of unit cell:	Completed after 0 iterations at t[s]:     86.14
ElecMinimize: 	Step increased F by 7.612130e-08, reducing alpha to 6.279001e-04.
ElecMinimize: 	Step failed to reduce F after 3 attempts. Quitting step.
ElecMinimize: 	Undoing step.
	Linear fluid (dielectric constant: 64) occupying 0.873547 of unit cell:	Completed after 0 iterations at t[s]:     87.70
ElecMinimize: 	Step failed: resetting search direction.
	FillingsUpdate:  mu: -0.104927934  nElectrons: 354.000000
	SubspaceRotationAdjust: set factor to 0.311
ElecMinimize: Iter:  13  F: -698.481658632883295  |grad|_K:  1.881e-07  alpha:  6.279e-04
	Linear fluid (dielectric constant: 64) occupying 0.873547 of unit cell:	Completed after 4 iterations at t[s]:     89.46
	Linear fluid (dielectric constant: 64) occupying 0.873547 of unit cell:	Completed after 4 iterations at t[s]:     90.29
	FillingsUpdate:  mu: -0.104813488  nElectrons: 354.000000
	SubspaceRotationAdjust: set factor to 0.124
ElecMinimize: Iter:  14  F: -698.481658695204487  |grad|_K:  7.315e-08  alpha:  4.663e-02  linmin:  1.312e-02  t[s]:     91.30
	Linear fluid (dielectric constant: 64) occupying 0.873547 of unit cell:	Completed after 0 iterations at t[s]:     92.04
ElecMinimize: 	Predicted alpha/alphaT>3.000000, increasing alphaT to 1.398960e-01.
	Linear fluid (dielectric constant: 64) occupying 0.873547 of unit cell:	Completed after 0 iterations at t[s]:     92.80
ElecMinimize: 	Predicted alpha/alphaT>3.000000, increasing alphaT to 4.196879e-01.
	Linear fluid (dielectric constant: 64) occupying 0.873547 of unit cell:	Completed after 0 iterations at t[s]:     93.55
ElecMinimize: 	Predicted alpha/alphaT>3.000000, increasing alphaT to 1.259064e+00.
	Linear fluid (dielectric constant: 64) occupying 0.873547 of unit cell:	Completed after 3 iterations at t[s]:     94.33
ElecMinimize: 	Step increased F by 6.391767e-07, reducing alpha to 1.362971e-01.
	Linear fluid (dielectric constant: 64) occupying 0.873547 of unit cell:	Completed after 2 iterations at t[s]:     95.97
	FillingsUpdate:  mu: -0.104873250  nElectrons: 354.000000
	SubspaceRotationAdjust: set factor to 0.0572
ElecMinimize: Iter:  15  F: -698.481658705050108  |grad|_K:  4.374e-08  alpha:  1.363e-01  linmin:  8.299e-04  t[s]:     96.97
	Linear fluid (dielectric constant: 64) occupying 0.873547 of unit cell:	Completed after 0 iterations at t[s]:     97.72
ElecMinimize: 	Predicted alpha/alphaT>3.000000, increasing alphaT to 4.088912e-01.
	Linear fluid (dielectric constant: 64) occupying 0.873547 of unit cell:	Completed after 0 iterations at t[s]:     98.47
	Linear fluid (dielectric constant: 64) occupying 0.873547 of unit cell:	Completed after 0 iterations at t[s]:     99.23
	FillingsUpdate:  mu: -0.104870073  nElectrons: 354.000000
	SubspaceRotationAdjust: set factor to 0.0542
ElecMinimize: Iter:  16  F: -698.481658715171420  |grad|_K:  2.378e-08  alpha:  3.035e-01  linmin: -2.782e-02  t[s]:    100.22
	Linear fluid (dielectric constant: 64) occupying 0.873547 of unit cell:	Completed after 0 iterations at t[s]:    100.97
ElecMinimize: 	Predicted alpha/alphaT>3.000000, increasing alphaT to 9.105774e-01.
	Linear fluid (dielectric constant: 64) occupying 0.873547 of unit cell:	Completed after 1 iterations at t[s]:    101.74
	Linear fluid (dielectric constant: 64) occupying 0.873547 of unit cell:	Completed after 0 iterations at t[s]:    102.51
ElecMinimize: 	Step increased F by 2.636432e-08, reducing alpha to 1.328367e-02.
	Linear fluid (dielectric constant: 64) occupying 0.873547 of unit cell:	Completed after 0 iterations at t[s]:    104.09
ElecMinimize: 	Step increased F by 8.199095e-09, reducing alpha to 1.328367e-03.
	Linear fluid (dielectric constant: 64) occupying 0.873547 of unit cell:	Completed after 0 iterations at t[s]:    105.65
ElecMinimize: 	Step increased F by 6.406822e-09, reducing alpha to 1.328367e-04.
ElecMinimize: 	Step failed to reduce F after 3 attempts. Quitting step.
ElecMinimize: 	Undoing step.
	Linear fluid (dielectric constant: 64) occupying 0.873547 of unit cell:	Completed after 0 iterations at t[s]:    107.22
ElecMinimize: 	Step failed: resetting search direction.
	FillingsUpdate:  mu: -0.104779645  nElectrons: 354.000000
	SubspaceRotationAdjust: set factor to 0.0489
ElecMinimize: Iter:  17  F: -698.481658708777218  |grad|_K:  8.624e-08  alpha:  1.328e-04
	Linear fluid (dielectric constant: 64) occupying 0.873547 of unit cell:	Completed after 0 iterations at t[s]:    108.92
	Linear fluid (dielectric constant: 64) occupying 0.873547 of unit cell:	Completed after 2 iterations at t[s]:    109.70
ElecMinimize: 	Step increased F by 8.048220e-07, reducing alpha to 8.041017e-02.
	Linear fluid (dielectric constant: 64) occupying 0.873547 of unit cell:	Completed after 3 iterations at t[s]:    111.32
ElecMinimize: 	Step increased F by 1.163926e-08, reducing alpha to 8.041017e-03.
	Linear fluid (dielectric constant: 64) occupying 0.873547 of unit cell:	Completed after 0 iterations at t[s]:    112.92
ElecMinimize: 	Step increased F by 7.581889e-09, reducing alpha to 8.041017e-04.
ElecMinimize: 	Step failed to reduce F after 3 attempts. Quitting step.
ElecMinimize: 	Undoing step.
	Linear fluid (dielectric constant: 64) occupying 0.873547 of unit cell:	Completed after 0 iterations at t[s]:    114.49
ElecMinimize: 	Step failed along negative gradient direction.
ElecMinimize: Probably at roundoff error limit. (Stopping)
Setting wave functions to eigenvectors of Hamiltonian
IonicMinimize: 	Predicted alpha/alphaT>3.000000, increasing alphaT to 3.000000e+00.

-------- Electronic minimization -----------
	Linear fluid (dielectric constant: 64) occupying 0.873543 of unit cell:	Completed after 4 iterations at t[s]:    116.56
	FillingsUpdate:  mu: -0.104361516  nElectrons: 354.000000
ElecMinimize: Iter:   0  F: -698.481657958432947  |grad|_K:  5.061e-07  alpha:  1.000e+00
	Linear fluid (dielectric constant: 64) occupying 0.873542 of unit cell:	Completed after 6 iterations at t[s]:    118.48
	Linear fluid (dielectric constant: 64) occupying 0.873543 of unit cell:	Completed after 4 iterations at t[s]:    119.32
	FillingsUpdate:  mu: -0.104786570  nElectrons: 354.000000
	SubspaceRotationAdjust: set factor to 0.0624
ElecMinimize: Iter:   1  F: -698.481660101978946  |grad|_K:  2.495e-07  alpha:  2.351e-01  linmin:  6.560e-04  t[s]:    120.35
	Linear fluid (dielectric constant: 64) occupying 0.873542 of unit cell:	Completed after 0 iterations at t[s]:    121.09
ElecMinimize: 	Predicted alpha/alphaT>3.000000, increasing alphaT to 7.052435e-01.
	Linear fluid (dielectric constant: 64) occupying 0.873542 of unit cell:	Completed after 2 iterations at t[s]:    121.85
	Linear fluid (dielectric constant: 64) occupying 0.873542 of unit cell:	Completed after 0 iterations at t[s]:    122.62
	FillingsUpdate:  mu: -0.104873809  nElectrons: 354.000000
	SubspaceRotationAdjust: set factor to 0.0646
ElecMinimize: Iter:   2  F: -698.481661350715626  |grad|_K:  9.667e-08  alpha:  5.633e-01  linmin:  5.226e-03  t[s]:    123.60
	Linear fluid (dielectric constant: 64) occupying 0.873542 of unit cell:	Completed after 0 iterations at t[s]:    124.35
	Linear fluid (dielectric constant: 64) occupying 0.873542 of unit cell:	Completed after 0 iterations at t[s]:    125.12
	FillingsUpdate:  mu: -0.104869043  nElectrons: 354.000000
	SubspaceRotationAdjust: set factor to 0.0822
ElecMinimize: Iter:   3  F: -698.481661581094500  |grad|_K:  6.275e-08  alpha:  6.730e-01  linmin: -1.041e-02  t[s]:    126.10
	Linear fluid (dielectric constant: 64) occupying 0.873542 of unit cell:	Completed after 0 iterations at t[s]:    126.86
	Linear fluid (dielectric constant: 64) occupying 0.873542 of unit cell:	Completed after 0 iterations at t[s]:    127.61
	FillingsUpdate:  mu: -0.104857968  nElectrons: 354.000000
	SubspaceRotationAdjust: set factor to 0.106
ElecMinimize: Iter:   4  F: -698.481661646272755  |grad|_K:  5.705e-08  alpha:  4.628e-01  linmin: -3.049e-03  t[s]:    128.59
	Linear fluid (dielectric constant: 64) occupying 0.873542 of unit cell:	Completed after 0 iterations at t[s]:    129.36
	Linear fluid (dielectric constant: 64) occupying 0.873542 of unit cell:	Completed after 0 iterations at t[s]:    130.11
	FillingsUpdate:  mu: -0.104852182  nElectrons: 354.000000
	SubspaceRotationAdjust: set factor to 0.0879
ElecMinimize: Iter:   5  F: -698.481661700896211  |grad|_K:  4.446e-08  alpha:  4.247e-01  linmin: -6.993e-03  t[s]:    131.09
	Linear fluid (dielectric constant: 64) occupying 0.873542 of unit cell:	Completed after 0 iterations at t[s]:    131.84
	Linear fluid (dielectric constant: 64) occupying 0.873542 of unit cell:	Completed after 1 iterations at t[s]:    132.61
ElecMinimize: 	Step increased F by 3.000457e-08, reducing alpha to 1.134876e-01.
	Linear fluid (dielectric constant: 64) occupying 0.873542 of unit cell:	Completed after 0 iterations at t[s]:    134.20
ElecMinimize: 	Step increased F by 5.924926e-08, reducing alpha to 1.134876e-02.
	Linear fluid (dielectric constant: 64) occupying 0.873542 of unit cell:	Completed after 0 iterations at t[s]:    135.77
ElecMinimize: 	Step increased F by 7.217022e-08, reducing alpha to 1.134876e-03.
ElecMinimize: 	Step failed to reduce F after 3 attempts. Quitting step.
ElecMinimize: 	Undoing step.
	Linear fluid (dielectric constant: 64) occupying 0.873542 of unit cell:	Completed after 0 iterations at t[s]:    137.33
ElecMinimize: 	Step failed: resetting search direction.
	FillingsUpdate:  mu: -0.104762691  nElectrons: 354.000000
	SubspaceRotationAdjust: set factor to 0.0676
ElecMinimize: Iter:   6  F: -698.481661628590132  |grad|_K:  1.035e-07  alpha:  1.135e-03
	Linear fluid (dielectric constant: 64) occupying 0.873542 of unit cell:	Completed after 2 iterations at t[s]:    139.07
	Linear fluid (dielectric constant: 64) occupying 0.873542 of unit cell:	Completed after 0 iterations at t[s]:    139.84
	FillingsUpdate:  mu: -0.104900478  nElectrons: 354.000000
	SubspaceRotationAdjust: set factor to 0.0526
ElecMinimize: Iter:   7  F: -698.481661716497683  |grad|_K:  9.096e-08  alpha:  2.353e-01  linmin:  7.998e-03  t[s]:    140.82
	Linear fluid (dielectric constant: 64) occupying 0.873542 of unit cell:	Completed after 0 iterations at t[s]:    141.57
	Linear fluid (dielectric constant: 64) occupying 0.873542 of unit cell:	Completed after 0 iterations at t[s]:    142.32
	FillingsUpdate:  mu: -0.104899736  nElectrons: 354.000000
	SubspaceRotationAdjust: set factor to 0.0544
ElecMinimize: Iter:   8  F: -698.481661815048710  |grad|_K:  5.195e-08  alpha:  5.102e-01  linmin: -2.424e-05  t[s]:    143.31
	Linear fluid (dielectric constant: 64) occupying 0.873542 of unit cell:	Completed after 2 iterations at t[s]:    144.09
	Linear fluid (dielectric constant: 64) occupying 0.873542 of unit cell:	Completed after 0 iterations at t[s]:    144.86
ElecMinimize: 	Step increased F by 5.670620e-08, reducing alpha to 9.752421e-03.
	Linear fluid (dielectric constant: 64) occupying 0.873542 of unit cell:	Completed after 0 iterations at t[s]:    146.44
ElecMinimize: 	Step increased F by 6.471555e-08, reducing alpha to 9.752421e-04.
	Linear fluid (dielectric constant: 64) occupying 0.873542 of unit cell:	Completed after 0 iterations at t[s]:    148.01
ElecMinimize: 	Step increased F by 6.326536e-08, reducing alpha to 9.752421e-05.
ElecMinimize: 	Step failed to reduce F after 3 attempts. Quitting step.
ElecMinimize: 	Undoing step.
	Linear fluid (dielectric constant: 64) occupying 0.873542 of unit cell:	Completed after 0 iterations at t[s]:    149.58
ElecMinimize: 	Step failed: resetting search direction.
	FillingsUpdate:  mu: -0.104816121  nElectrons: 354.000000
	SubspaceRotationAdjust: set factor to 0.0524
ElecMinimize: Iter:   9  F: -698.481661751793126  |grad|_K:  9.388e-08  alpha:  9.752e-05
	Linear fluid (dielectric constant: 64) occupying 0.873542 of unit cell:	Completed after 2 iterations at t[s]:    151.33
	Linear fluid (dielectric constant: 64) occupying 0.873542 of unit cell:	Completed after 0 iterations at t[s]:    152.10
	FillingsUpdate:  mu: -0.104981320  nElectrons: 354.000000
	SubspaceRotationAdjust: set factor to 0.048
ElecMinimize: Iter:  10  F: -698.481661828925212  |grad|_K:  1.411e-07  alpha:  1.469e-01  linmin:  4.156e-02  t[s]:    153.09
ElecMinimize: 	Bad step direction: g.d > 0.
ElecMinimize: 	Undoing step.
	Linear fluid (dielectric constant: 64) occupying 0.873542 of unit cell:	Completed after 0 iterations at t[s]:    153.82
ElecMinimize: 	Step failed: resetting search direction.
	FillingsUpdate:  mu: -0.104981320  nElectrons: 354.000000
	SubspaceRotationAdjust: set factor to 0.0684
ElecMinimize: Iter:  11  F: -698.481661828925212  |grad|_K:  1.388e-07  alpha:  0.000e+00
	Linear fluid (dielectric constant: 64) occupying 0.873542 of unit cell:	Completed after 2 iterations at t[s]:    155.55
	Linear fluid (dielectric constant: 64) occupying 0.873542 of unit cell:	Completed after 0 iterations at t[s]:    159.98
ElecMinimize: 	Step increased F by 4.377102e-08, reducing alpha to 5.534276e-03.
	Linear fluid (dielectric constant: 64) occupying 0.873542 of unit cell:	Completed after 0 iterations at t[s]:    168.45
ElecMinimize: 	Step increased F by 3.622540e-08, reducing alpha to 5.534276e-04.
	Linear fluid (dielectric constant: 64) occupying 0.873542 of unit cell:	Completed after 0 iterations at t[s]:    170.01
ElecMinimize: 	Step increased F by 3.566720e-08, reducing alpha to 5.534276e-05.
ElecMinimize: 	Step failed to reduce F after 3 attempts. Quitting step.
ElecMinimize: 	Undoing step.
	Linear fluid (dielectric constant: 64) occupying 0.873542 of unit cell:	Completed after 0 iterations at t[s]:    171.57
ElecMinimize: 	Step failed along negative gradient direction.
ElecMinimize: Probably at roundoff error limit. (Stopping)
Setting wave functions to eigenvectors of Hamiltonian

-------- Electronic minimization -----------
	Linear fluid (dielectric constant: 64) occupying 0.873536 of unit cell:	Completed after 4 iterations at t[s]:    173.66
	FillingsUpdate:  mu: -0.105163738  nElectrons: 354.000000
ElecMinimize: Iter:   0  F: -698.481660620428897  |grad|_K:  3.653e-07  alpha:  1.000e+00
	Linear fluid (dielectric constant: 64) occupying 0.873536 of unit cell:	Completed after 5 iterations at t[s]:    175.55
	Linear fluid (dielectric constant: 64) occupying 0.873536 of unit cell:	Completed after 4 iterations at t[s]:    176.38
	FillingsUpdate:  mu: -0.104837633  nElectrons: 354.000000
	SubspaceRotationAdjust: set factor to 0.0633
ElecMinimize: Iter:   1  F: -698.481661792164118  |grad|_K:  2.232e-07  alpha:  2.537e-01  linmin:  1.209e-03  t[s]:    177.39
	Linear fluid (dielectric constant: 64) occupying 0.873536 of unit cell:	Completed after 0 iterations at t[s]:    178.14
	Linear fluid (dielectric constant: 64) occupying 0.873536 of unit cell:	Completed after 2 iterations at t[s]:    178.93
	FillingsUpdate:  mu: -0.104835602  nElectrons: 354.000000
	SubspaceRotationAdjust: set factor to 0.0682
ElecMinimize: Iter:   2  F: -698.481662492033365  |grad|_K:  1.361e-07  alpha:  6.835e-01  linmin:  2.134e-02  t[s]:    179.94
	Linear fluid (dielectric constant: 64) occupying 0.873536 of unit cell:	Completed after 1 iterations at t[s]:    180.71
	Linear fluid (dielectric constant: 64) occupying 0.873536 of unit cell:	Completed after 0 iterations at t[s]:    181.47
	FillingsUpdate:  mu: -0.104821605  nElectrons: 354.000000
	SubspaceRotationAdjust: set factor to 0.0847
ElecMinimize: Iter:   3  F: -698.481662688139295  |grad|_K:  8.318e-08  alpha:  4.882e-01  linmin: -8.035e-04  t[s]:    182.45
	Linear fluid (dielectric constant: 64) occupying 0.873536 of unit cell:	Completed after 0 iterations at t[s]:    183.20
	Linear fluid (dielectric constant: 64) occupying 0.873536 of unit cell:	Completed after 2 iterations at t[s]:    183.98
	FillingsUpdate:  mu: -0.104913196  nElectrons: 354.000000
	SubspaceRotationAdjust: set factor to 0.0795
ElecMinimize: Iter:   4  F: -698.481662760283029  |grad|_K:  1.017e-07  alpha:  9.381e-01  linmin:  9.803e-03  t[s]:    184.98
	Linear fluid (dielectric constant: 64) occupying 0.873536 of unit cell:	Completed after 0 iterations at t[s]:    185.75
	Linear fluid (dielectric constant: 64) occupying 0.873536 of unit cell:	Completed after 0 iterations at t[s]:    186.51
	FillingsUpdate:  mu: -0.104922488  nElectrons: 354.000000
	SubspaceRotationAdjust: set factor to 0.108
ElecMinimize: Iter:   5  F: -698.481662770973003  |grad|_K:  8.808e-08  alpha:  2.038e-01  linmin:  1.923e-04  t[s]:    187.50
	Linear fluid (dielectric constant: 64) occupying 0.873536 of unit cell:	Completed after 0 iterations at t[s]:    188.25
	Linear fluid (dielectric constant: 64) occupying 0.873536 of unit cell:	Completed after 0 iterations at t[s]:    189.00
	FillingsUpdate:  mu: -0.104924260  nElectrons: 354.000000
	SubspaceRotationAdjust: set factor to 0.13
ElecMinimize: Iter:   6  F: -698.481662878381940  |grad|_K:  1.183e-07  alpha:  3.899e-01  linmin: -8.571e-07  t[s]:    189.97
	Linear fluid (dielectric constant: 64) occupying 0.873535 of unit cell:	Completed after 3 iterations at t[s]:    190.77
	Linear fluid (dielectric constant: 64) occupying 0.873536 of unit cell:	Completed after 1 iterations at t[s]:    191.57
	FillingsUpdate:  mu: -0.104780048  nElectrons: 354.000000
	SubspaceRotationAdjust: set factor to 0.111
ElecMinimize: Iter:   7  F: -698.481662936493308  |grad|_K:  1.535e-07  alpha:  1.129e-01  linmin:  3.167e-03  t[s]:    192.56
	Linear fluid (dielectric constant: 64) occupying 0.873535 of unit cell:	Completed after 0 iterations at t[s]:    193.31
	Linear fluid (dielectric constant: 64) occupying 0.873536 of unit cell:	Completed after 0 iterations at t[s]:    194.06
	FillingsUpdate:  mu: -0.104780649  nElectrons: 354.000000
	SubspaceRotationAdjust: set factor to 0.126
ElecMinimize: Iter:   8  F: -698.481662952560100  |grad|_K:  1.314e-07  alpha:  5.732e-02  linmin:  4.547e-07  t[s]:    195.04
	Linear fluid (dielectric constant: 64) occupying 0.873535 of unit cell:	Completed after 0 iterations at t[s]:    195.78
	Linear fluid (dielectric constant: 64) occupying 0.873535 of unit cell:	Completed after 0 iterations at t[s]:    196.54
	FillingsUpdate:  mu: -0.104779863  nElectrons: 354.000000
	SubspaceRotationAdjust: set factor to 0.109
ElecMinimize: Iter:   9  F: -698.481663025369016  |grad|_K:  1.218e-07  alpha:  1.173e-01  linmin: -3.122e-06  t[s]:    197.52
	Linear fluid (dielectric constant: 64) occupying 0.873535 of unit cell:	Completed after 3 iterations at t[s]:    198.30
	Linear fluid (dielectric constant: 64) occupying 0.873535 of unit cell:	Completed after 0 iterations at t[s]:    199.08
ElecMinimize: 	Step increased F by 6.034884e-08, reducing alpha to 2.173640e-03.
	Linear fluid (dielectric constant: 64) occupying 0.873535 of unit cell:	Completed after 0 iterations at t[s]:    200.64
ElecMinimize: 	Step increased F by 3.589560e-08, reducing alpha to 2.173640e-04.
	Linear fluid (dielectric constant: 64) occupying 0.873535 of unit cell:	Completed after 0 iterations at t[s]:    202.20
ElecMinimize: 	Step increased F by 3.357104e-08, reducing alpha to 2.173640e-05.
ElecMinimize: 	Step failed to reduce F after 3 attempts. Quitting step.
ElecMinimize: 	Undoing step.
	Linear fluid (dielectric constant: 64) occupying 0.873535 of unit cell:	Completed after 0 iterations at t[s]:    203.76
ElecMinimize: 	Step failed: resetting search direction.
	FillingsUpdate:  mu: -0.104926951  nElectrons: 354.000000
	SubspaceRotationAdjust: set factor to 0.089
ElecMinimize: Iter:  10  F: -698.481662991817757  |grad|_K:  1.530e-07  alpha:  2.174e-05
	Linear fluid (dielectric constant: 64) occupying 0.873535 of unit cell:	Completed after 0 iterations at t[s]:    205.46
ElecMinimize: 	Predicted alpha/alphaT>3.000000, increasing alphaT to 3.520102e-01.
	Linear fluid (dielectric constant: 64) occupying 0.873536 of unit cell:	Completed after 1 iterations at t[s]:    206.22
	Linear fluid (dielectric constant: 64) occupying 0.873535 of unit cell:	Completed after 2 iterations at t[s]:    207.02
ElecMinimize: 	Step increased F by 1.333206e-09, reducing alpha to 1.118919e-02.
	Linear fluid (dielectric constant: 64) occupying 0.873535 of unit cell:	Completed after 0 iterations at t[s]:    208.60
	FillingsUpdate:  mu: -0.104770564  nElectrons: 354.000000
	SubspaceRotationAdjust: set factor to 0.0648
ElecMinimize: Iter:  11  F: -698.481663033909967  |grad|_K:  1.185e-07  alpha:  1.119e-02  linmin:  1.254e-02  t[s]:    209.58
	Linear fluid (dielectric constant: 64) occupying 0.873535 of unit cell:	Completed after 0 iterations at t[s]:    210.33
ElecMinimize: 	Predicted alpha/alphaT>3.000000, increasing alphaT to 3.356757e-02.
	Linear fluid (dielectric constant: 64) occupying 0.873535 of unit cell:	Completed after 0 iterations at t[s]:    211.07
ElecMinimize: 	Predicted alpha/alphaT>3.000000, increasing alphaT to 1.007027e-01.
	Linear fluid (dielectric constant: 64) occupying 0.873535 of unit cell:	Completed after 0 iterations at t[s]:    211.83
ElecMinimize: 	Predicted alpha/alphaT>3.000000, increasing alphaT to 3.021082e-01.
	Linear fluid (dielectric constant: 64) occupying 0.873535 of unit cell:	Completed after 0 iterations at t[s]:    212.60
	FillingsUpdate:  mu: -0.104787940  nElectrons: 354.000000
	SubspaceRotationAdjust: set factor to 0.101
ElecMinimize: Iter:  12  F: -698.481663140677028  |grad|_K:  1.126e-07  alpha:  3.580e-01  linmin:  1.776e-03  t[s]:    213.59
	Linear fluid (dielectric constant: 64) occupying 0.873536 of unit cell:	Completed after 2 iterations at t[s]:    214.36
	Linear fluid (dielectric constant: 64) occupying 0.873536 of unit cell:	Completed after 1 iterations at t[s]:    215.15
ElecMinimize: 	Step increased F by 6.675612e-08, reducing alpha to 7.766105e-03.
	Linear fluid (dielectric constant: 64) occupying 0.873536 of unit cell:	Completed after 0 iterations at t[s]:    216.72
	FillingsUpdate:  mu: -0.104998887  nElectrons: 354.000000
	SubspaceRotationAdjust: set factor to 0.0824
ElecMinimize: Iter:  13  F: -698.481663141121430  |grad|_K:  1.660e-07  alpha:  7.766e-03  linmin:  1.695e-02  t[s]:    217.70
ElecMinimize: 	Bad step direction: g.d > 0.
ElecMinimize: 	Undoing step.
	Linear fluid (dielectric constant: 64) occupying 0.873536 of unit cell:	Completed after 0 iterations at t[s]:    218.44
ElecMinimize: 	Step failed: resetting search direction.
	FillingsUpdate:  mu: -0.104998887  nElectrons: 354.000000
	SubspaceRotationAdjust: set factor to 0.0846
ElecMinimize: Iter:  14  F: -698.481663141117792  |grad|_K:  1.577e-07  alpha:  0.000e+00
	Linear fluid (dielectric constant: 64) occupying 0.873536 of unit cell:	Completed after 0 iterations at t[s]:    220.15
ElecMinimize: 	Predicted alpha/alphaT>3.000000, increasing alphaT to 2.329831e-02.
	Linear fluid (dielectric constant: 64) occupying 0.873536 of unit cell:	Completed after 0 iterations at t[s]:    220.90
ElecMinimize: 	Predicted alpha/alphaT>3.000000, increasing alphaT to 6.989494e-02.
	Linear fluid (dielectric constant: 64) occupying 0.873536 of unit cell:	Completed after 2 iterations at t[s]:    221.69
	Linear fluid (dielectric constant: 64) occupying 0.873536 of unit cell:	Completed after 0 iterations at t[s]:    222.45
ElecMinimize: 	Step increased F by 8.833558e-08, reducing alpha to 2.157370e-03.
	Linear fluid (dielectric constant: 64) occupying 0.873536 of unit cell:	Completed after 0 iterations at t[s]:    224.01
ElecMinimize: 	Step increased F by 9.434791e-08, reducing alpha to 2.157370e-04.
	Linear fluid (dielectric constant: 64) occupying 0.873536 of unit cell:	Completed after 0 iterations at t[s]:    225.57
ElecMinimize: 	Step increased F by 9.500422e-08, reducing alpha to 2.157370e-05.
ElecMinimize: 	Step failed to reduce F after 3 attempts. Quitting step.
ElecMinimize: 	Undoing step.
	Linear fluid (dielectric constant: 64) occupying 0.873536 of unit cell:	Completed after 0 iterations at t[s]:    227.13
ElecMinimize: 	Step failed along negative gradient direction.
ElecMinimize: Probably at roundoff error limit. (Stopping)
Setting wave functions to eigenvectors of Hamiltonian

# Ionic positions in cartesian coordinates:
ion C   0.000000000000000   0.000000000000000   1.000007321400000 0
ion C  -2.333835447300000   4.042302545699999   1.000007321400000 0
ion C  11.669120544600000  20.211531625799999   1.000007321400000 0
ion C   4.667689791900001   0.000000000000000   1.000007321400000 0
ion C  23.338297781100000   0.000000000000000   1.000007321400000 0
ion C   2.333816549999999   4.042302545699999   1.000007321400000 0
ion C -11.669158339200006  20.211531625799999   1.000007321400000 0
ion C  -4.667670894600000   8.084623988700001   1.000007321400000 0
ion C   9.335303994599997  16.169229080099999   1.000007321400000 0
ion C   9.335322891900001   0.000000000000000   1.000007321400000 0
ion C  18.670626886499999   0.000000000000000   1.000007321400000 0
ion C  -9.335322891900001  16.169229080099999   1.000007321400000 0
ion C  -7.001487444600000  12.126907637100000   1.000007321400000 0
ion C  14.002993786499999   0.000000000000000   1.000007321400000 0
ion C   0.000000000000000   8.084623988700001   1.000007321400000 0
ion C   7.001487444599997  20.211531625799999   1.000007321400000 0
ion C  -7.001487444600007  20.211531625799999   1.000007321400000 0
ion C  -2.333816549999999  12.126907637100000   1.000007321400000 0
ion C   4.667670894600002  16.169229080099999   1.000007321400000 0
ion C  -2.333816550000000  20.211531625799999   1.000007321400000 0
ion C   2.333816550000000  20.211531625799999   1.000007321400000 0
ion C  -4.667651997299995  16.169229080099999   1.000007321400000 0
ion C   7.001487444600000   4.042302545699999   1.000007321400000 0
ion C  21.004424539199999   4.042302545699999   1.000007321400000 0
ion C  14.002955991899999  16.169229080099999   1.000007321400000 0
ion C   0.000000000000000  16.169229080099999   1.000007321400000 0
ion C  11.669120544600000   4.042302545699999   1.000007321400000 0
ion C  18.670607989199997   8.084623988700001   1.000007321400000 0
ion C  11.669120544599998  12.126907637100000   1.000007321400000 0
ion C  16.336791439199999  12.126907637100000   1.000007321400000 0
ion C  16.336791439199999   4.042302545699999   1.000007321400000 0
ion C   9.335303994599997   8.084623988700001   1.000007321400000 0
ion C  14.002955991899999   8.084623988700001   1.000007321400000 0
ion C   0.000000000000000   2.694868363800000   1.000007321400000 0
ion C  11.669120544600000  22.906399989600001   1.000007321400000 0
ion C -11.669120544600000  22.906399989600001   1.000007321400000 0
ion C  -2.333816550000000   6.737170909500000   1.000007321400000 0
ion C   9.335303994599995  18.864097443900000   1.000007321400000 0
ion C  -7.001487444600000  22.906399989600001   1.000007321400000 0
ion C   7.001487444600000  22.906399989600001   1.000007321400000 0
ion C   2.333816550000000   6.737170909500000   1.000007321400000 0
ion C  -9.335303994599998  18.864097443900000   1.000007321400000 0
ion C  -4.667670894599997  10.779473455200000   1.000007321400000 0
ion C  -2.333816550000000  22.906399989600001   1.000007321400000 0
ion C   2.333816550000000  22.906399989600001   1.000007321400000 0
ion C  -7.001487444600004  14.821794898200000   1.000007321400000 0
ion C   4.667670894600000   2.694868363800000   1.000007321400000 0
ion C  23.338259986499999   2.694868363800000   1.000007321400000 0
ion C  14.002974889199999  18.864097443900000   1.000007321400000 0
ion C   0.000000000000000  10.779473455200000   1.000007321400000 0
ion C   4.667670894600001  18.864097443900000   1.000007321400000 0
ion C  -4.667633100000006  18.864097443900000   1.000007321400000 0
ion C  -2.333816550000003  14.821794898200000   1.000007321400000 0
ion C   2.333816549999993  14.821794898200000   1.000007321400000 0
ion C  -0.000000000000005  18.864097443900000   1.000007321400000 0
ion C   9.335303994599998   2.694868363800000   1.000007321400000 0
ion C  21.004424539199999   6.737170909500000   1.000007321400000 0
ion C  11.669120544600000  14.821794898200000   1.000007321400000 0
ion C  16.336791439199999  14.821794898200000   1.000007321400000 0
ion C  18.670607989199997   2.694868363800000   1.000007321400000 0
ion C   7.001487444600001   6.737170909500000   1.000007321400000 0
ion C  14.002955991899999   2.694868363800000   1.000007321400000 0
ion C  18.670607989200004  10.779473455200000   1.000007321400000 0
ion C  11.669120544599998   6.737170909500000   1.000007321400000 0
ion C  16.336791439199999   6.737170909500000   1.000007321400000 0
ion C  14.002955991899999  10.779473455200000   1.000007321400000 0
ion N   4.667670894599999   8.084623988700001   1.000007321400000 0
ion N   2.333816549999999  12.126907637100000   1.000007321400000 0
ion N   7.001487444599997  14.821794898200000   1.000007321400000 0
ion N   9.335303994599997  10.779473455200000   1.000007321400000 0
ion Fe   5.837111407799997  11.454314935499999   1.000007321400000 0
ion S  -0.640024743985569  13.152377705219365  11.337836050093632 1
ion S   3.015745574988687  14.164514206268018  12.013161783927968 1
ion S   5.372282341306120  13.325716601891589   9.013840916695628 1
ion S   6.358883055387816   9.397728868050162   9.022667572141348 1
ion S   8.823841531801307   8.594993552227377  11.944269148718909 1
ion S  12.451752874245454   9.591603048808180  11.125347943645172 1
ion Na  -0.827966077127079   5.601352341741691   9.504389411732625 1
ion Na  12.371400637672121  17.262867218055700   9.637551077602163 1

# Forces in Cartesian coordinates:
force C   0.004158708468479   0.000062718491625   0.000011513657821 0
force C   0.001448713287079  -0.001261948788514   0.000040144238743 0
force C   0.003636858287043  -0.001741322983539   0.000035975119497 0
force C   0.001412979937678   0.003070699572141   0.000014151243565 0
force C   0.002541500847028  -0.000383840601802   0.000012682271156 0
force C   0.005318378381477   0.002193739281485   0.000026692410165 0
force C   0.000927746092066  -0.000735157911468   0.000017388925923 0
force C  -0.000368736128117   0.001899062146229   0.000020412422957 0
force C  -0.033210547094636  -0.013475566381768  -0.000012307627571 0
force C  -0.000982114616638   0.000694889701079   0.000012117345743 0
force C  -0.000526376918311  -0.000052706263758   0.000013220034930 0
force C  -0.000179002916614   0.001131431385571   0.000012705736682 0
force C   0.002107351979526   0.003578778180043   0.000018003295988 0
force C  -0.001097671123639  -0.000540566956135   0.000017165851053 0
force C   0.010658440826792   0.006151182036236   0.000074596559636 0
force C   0.003171018777953   0.002585782600473   0.000008090443868 0
force C   0.001570056581907   0.000888817212526   0.000010251111852 0
force C   0.004513615774204   0.003502023352424   0.000053560844129 0
force C   0.029347228130994   0.011345537299770   0.000060996023756 0
force C   0.000085027361106  -0.001145283874643   0.000017129328942 0
force C  -0.003525452961763   0.000758029784850   0.000015373263191 0
force C   0.003325781831605  -0.000270788921056   0.000036013780567 0
force C   0.004998266478429   0.007504794201771   0.000040327533587 0
force C   0.001666040764166   0.001003248167626   0.000003688778503 0
force C  -0.002286971177949  -0.001375368412142   0.000018742031498 0
force C   0.008953463018524   0.000556178490183   0.000054334128359 0
force C  -0.001093451625371  -0.003399834284194   0.000021845889300 0
force C   0.000883999485085   0.002462046843629   0.000021956325342 0
force C  -0.028283305221943  -0.022119925798629   0.000006236756165 0
force C   0.000283947760082   0.003991020186998   0.000037234307667 0
force C  -0.000341700208391  -0.000333849673701   0.000020484989892 0
force C   0.024578871056591   0.019816712110905   0.000082868599140 0
force C   0.003788119047501   0.001479487116502   0.000064836569309 0
force C  -0.003626689022480   0.001736831421164   0.000036850187290 0
force C  -0.004131002102561  -0.000062249514827   0.000010931123382 0
force C  -0.002566125411351   0.000394929891598   0.000013933588969 0
force C   0.002280684868660   0.001383013587199   0.000017210376256 0
force C  -0.005316605247383  -0.002221654578544   0.000027365093472 0
force C   0.000526842689936   0.000048712176509   0.000012338202558 0
force C  -0.001436776803644  -0.003075612460117   0.000013172947331 0
force C   0.033318966988266   0.013542774465638  -0.000019866232397 0
force C  -0.001673866490610  -0.001005187450545   0.000004773050316 0
force C  -0.000282843882187  -0.003972758441561   0.000036004376895 0
force C   0.001089601755124   0.000555033869593   0.000015614156252 0
force C   0.000994006044368  -0.000693165396727   0.000013762250264 0
force C  -0.000881457013418  -0.002482950317449   0.000019874483292 0
force C  -0.003184716495475  -0.002567682045675   0.000009310553663 0
force C  -0.000901420896013   0.000741489153362   0.000017307248288 0
force C  -0.001458062233217   0.001259112600075   0.000041382887294 0
force C   0.028384156308190   0.022191925456290  -0.000002648789265 0
force C  -0.004990578908018  -0.007519632930421   0.000036991826417 0
force C   0.000321177772650   0.000326337437167   0.000017715730017 0
force C  -0.003785706239088  -0.001510519709704   0.000057779564501 0
force C  -0.024561956507186  -0.019952288765916   0.000081776447818 0
force C   0.001098980374563   0.003395035307478   0.000019120215385 0
force C   0.003538464819361  -0.000761219892612   0.000016839484452 0
force C   0.000196532164947  -0.001124034543308   0.000011688305296 0
force C  -0.010680540372734  -0.006186785727137   0.000073659883858 0
force C   0.000368627805154  -0.001916319131466   0.000023981226120 0
force C  -0.001570115861579  -0.000894681307808   0.000010938453871 0
force C  -0.029450705686931  -0.011318948113874   0.000055939993616 0
force C  -0.000083307269965   0.001149124837090   0.000017747235884 0
force C  -0.002101732790524  -0.003558533127081   0.000020830871296 0
force C  -0.008959165548517  -0.000520227721944   0.000062586116102 0
force C  -0.003344256686817   0.000272831522943   0.000041470873364 0
force C  -0.004552432948292  -0.003493470401145   0.000058289238909 0
force N   0.025695507030344  -0.027433755736838  -0.000039454791503 0
force N  -0.010885679341738   0.035977118952870  -0.000073451650079 0
force N  -0.025505372550393   0.027565709538751  -0.000044392887366 0
[...]
ElecMinimize: Iter:   0  F: -698.481656942616610  |grad|_K:  1.538e-06  alpha:  1.000e+00
	Linear fluid (dielectric constant: 64) occupying 0.873527 of unit cell:	Completed after 12 iterations at t[s]:   1076.03
	Linear fluid (dielectric constant: 64) occupying 0.873528 of unit cell:	Completed after 10 iterations at t[s]:   1076.93
	FillingsUpdate:  mu: -0.104278090  nElectrons: 354.000000
	SubspaceRotationAdjust: set factor to 0.0553
ElecMinimize: Iter:   1  F: -698.481675434863178  |grad|_K:  5.751e-07  alpha:  2.168e-01  linmin:  3.573e-04  t[s]:   1077.96
	Linear fluid (dielectric constant: 64) occupying 0.873528 of unit cell:	Completed after 3 iterations at t[s]:   1078.75
	Linear fluid (dielectric constant: 64) occupying 0.873528 of unit cell:	Completed after 4 iterations at t[s]:   1079.57
	FillingsUpdate:  mu: -0.104693844  nElectrons: 354.000000
	SubspaceRotationAdjust: set factor to 0.0915
ElecMinimize: Iter:   2  F: -698.481682320017512  |grad|_K:  2.343e-07  alpha:  5.856e-01  linmin:  1.240e-03  t[s]:   1080.58
	Linear fluid (dielectric constant: 64) occupying 0.873527 of unit cell:	Completed after 3 iterations at t[s]:   1081.37
	Linear fluid (dielectric constant: 64) occupying 0.873527 of unit cell:	Completed after 0 iterations at t[s]:   1082.15
	FillingsUpdate:  mu: -0.104896830  nElectrons: 354.000000
	SubspaceRotationAdjust: set factor to 0.0868
ElecMinimize: Iter:   3  F: -698.481683636141724  |grad|_K:  2.086e-07  alpha:  6.624e-01  linmin: -4.037e-03  t[s]:   1083.13
	Linear fluid (dielectric constant: 64) occupying 0.873527 of unit cell:	Completed after 3 iterations at t[s]:   1083.91
	Linear fluid (dielectric constant: 64) occupying 0.873527 of unit cell:	Completed after 0 iterations at t[s]:   1084.69
	FillingsUpdate:  mu: -0.104727221  nElectrons: 354.000000
	SubspaceRotationAdjust: set factor to 0.0814
ElecMinimize: Iter:   4  F: -698.481684332512600  |grad|_K:  2.233e-07  alpha:  3.619e-01  linmin:  7.732e-03  t[s]:   1085.67
	Linear fluid (dielectric constant: 64) occupying 0.873526 of unit cell:	Completed after 2 iterations at t[s]:   1086.45
	Linear fluid (dielectric constant: 64) occupying 0.873527 of unit cell:	Completed after 0 iterations at t[s]:   1087.22
	FillingsUpdate:  mu: -0.104989922  nElectrons: 354.000000
	SubspaceRotationAdjust: set factor to 0.0581
ElecMinimize: Iter:   5  F: -698.481684466265847  |grad|_K:  1.866e-07  alpha:  1.612e-01  linmin:  5.003e-03  t[s]:   1088.20
	Linear fluid (dielectric constant: 64) occupying 0.873527 of unit cell:	Completed after 1 iterations at t[s]:   1088.97
	Linear fluid (dielectric constant: 64) occupying 0.873527 of unit cell:	Completed after 0 iterations at t[s]:   1089.74
	FillingsUpdate:  mu: -0.104920892  nElectrons: 354.000000
	SubspaceRotationAdjust: set factor to 0.0913
ElecMinimize: Iter:   6  F: -698.481684547471900  |grad|_K:  1.017e-07  alpha:  1.223e-01  linmin: -4.208e-02  t[s]:   1090.72
	Linear fluid (dielectric constant: 64) occupying 0.873527 of unit cell:	Completed after 0 iterations at t[s]:   1091.46
ElecMinimize: 	Predicted alpha/alphaT>3.000000, increasing alphaT to 3.668563e-01.
	Linear fluid (dielectric constant: 64) occupying 0.873527 of unit cell:	Completed after 2 iterations at t[s]:   1092.24
	Linear fluid (dielectric constant: 64) occupying 0.873527 of unit cell:	Completed after 0 iterations at t[s]:   1093.01
	FillingsUpdate:  mu: -0.104782654  nElectrons: 354.000000
	SubspaceRotationAdjust: set factor to 0.082
ElecMinimize: Iter:   7  F: -698.481684573618054  |grad|_K:  1.442e-07  alpha:  1.477e-01  linmin:  2.102e-02  t[s]:   1093.98
	Linear fluid (dielectric constant: 64) occupying 0.873527 of unit cell:	Completed after 0 iterations at t[s]:   1094.73
	Linear fluid (dielectric constant: 64) occupying 0.873527 of unit cell:	Completed after 0 iterations at t[s]:   1095.48
	FillingsUpdate:  mu: -0.104782931  nElectrons: 354.000000
	SubspaceRotationAdjust: set factor to 0.101
ElecMinimize: Iter:   8  F: -698.481684620427245  |grad|_K:  1.468e-07  alpha:  9.811e-02  linmin: -3.344e-06  t[s]:   1096.45
	Linear fluid (dielectric constant: 64) occupying 0.873526 of unit cell:	Completed after 0 iterations at t[s]:   1097.20
	Linear fluid (dielectric constant: 64) occupying 0.873526 of unit cell:	Completed after 0 iterations at t[s]:   1097.96
	FillingsUpdate:  mu: -0.104787945  nElectrons: 354.000000
	SubspaceRotationAdjust: set factor to 0.121
ElecMinimize: Iter:   9  F: -698.481684705720795  |grad|_K:  1.432e-07  alpha:  1.589e-01  linmin:  1.951e-03  t[s]:   1098.94
	Linear fluid (dielectric constant: 64) occupying 0.873526 of unit cell:	Completed after 2 iterations at t[s]:   1099.72
	Linear fluid (dielectric constant: 64) occupying 0.873526 of unit cell:	Completed after 0 iterations at t[s]:   1100.48
ElecMinimize: 	Step increased F by 6.584060e-09, reducing alpha to 2.439582e-03.
	Linear fluid (dielectric constant: 64) occupying 0.873526 of unit cell:	Completed after 0 iterations at t[s]:   1102.06
	FillingsUpdate:  mu: -0.105001511  nElectrons: 354.000000
	SubspaceRotationAdjust: set factor to 0.105
ElecMinimize: Iter:  10  F: -698.481684759843120  |grad|_K:  2.419e-07  alpha:  2.440e-03  linmin:  1.837e-02  t[s]:   1103.04
ElecMinimize: 	Bad step direction: g.d > 0.
ElecMinimize: 	Undoing step.
	Linear fluid (dielectric constant: 64) occupying 0.873526 of unit cell:	Completed after 0 iterations at t[s]:   1103.78
ElecMinimize: 	Step failed: resetting search direction.
	FillingsUpdate:  mu: -0.105001511  nElectrons: 354.000000
	SubspaceRotationAdjust: set factor to 0.151
ElecMinimize: Iter:  11  F: -698.481684759837549  |grad|_K:  2.358e-07  alpha:  0.000e+00
	Linear fluid (dielectric constant: 64) occupying 0.873526 of unit cell:	Completed after 0 iterations at t[s]:   1105.49
ElecMinimize: 	Predicted alpha/alphaT>3.000000, increasing alphaT to 7.318745e-03.
	Linear fluid (dielectric constant: 64) occupying 0.873526 of unit cell:	Completed after 0 iterations at t[s]:   1106.25
ElecMinimize: 	Predicted alpha/alphaT>3.000000, increasing alphaT to 2.195624e-02.
	Linear fluid (dielectric constant: 64) occupying 0.873526 of unit cell:	Completed after 0 iterations at t[s]:   1107.00
ElecMinimize: 	Predicted alpha/alphaT>3.000000, increasing alphaT to 6.586871e-02.
	Linear fluid (dielectric constant: 64) occupying 0.873527 of unit cell:	Completed after 3 iterations at t[s]:   1107.79
ElecMinimize: 	Step increased F by 3.091785e-06, reducing alpha to 5.451572e-02.
	Linear fluid (dielectric constant: 64) occupying 0.873526 of unit cell:	Completed after 3 iterations at t[s]:   1109.42
ElecMinimize: 	Step increased F by 8.939287e-08, reducing alpha to 5.451572e-03.
	Linear fluid (dielectric constant: 64) occupying 0.873526 of unit cell:	Completed after 0 iterations at t[s]:   1111.00
ElecMinimize: 	Step increased F by 9.257747e-08, reducing alpha to 5.451572e-04.
ElecMinimize: 	Step failed to reduce F after 3 attempts. Quitting step.
ElecMinimize: 	Undoing step.
	Linear fluid (dielectric constant: 64) occupying 0.873526 of unit cell:	Completed after 0 iterations at t[s]:   1112.57
ElecMinimize: 	Step failed along negative gradient direction.
ElecMinimize: Probably at roundoff error limit. (Stopping)
Setting wave functions to eigenvectors of Hamiltonian

# Ionic positions in cartesian coordinates:
ion C   0.000000000000000   0.000000000000000   1.000007321400000 0
ion C  -2.333835447300000   4.042302545699999   1.000007321400000 0
ion C  11.669120544600000  20.211531625799999   1.000007321400000 0
ion C   4.667689791900001   0.000000000000000   1.000007321400000 0
ion C  23.338297781100000   0.000000000000000   1.000007321400000 0
ion C   2.333816549999999   4.042302545699999   1.000007321400000 0
ion C -11.669158339200006  20.211531625799999   1.000007321400000 0
ion C  -4.667670894600000   8.084623988700001   1.000007321400000 0
ion C   9.335303994599997  16.169229080099999   1.000007321400000 0
ion C   9.335322891900001   0.000000000000000   1.000007321400000 0
ion C  18.670626886499999   0.000000000000000   1.000007321400000 0
ion C  -9.335322891900001  16.169229080099999   1.000007321400000 0
ion C  -7.001487444600000  12.126907637100000   1.000007321400000 0
ion C  14.002993786499999   0.000000000000000   1.000007321400000 0
ion C   0.000000000000000   8.084623988700001   1.000007321400000 0
ion C   7.001487444599997  20.211531625799999   1.000007321400000 0
ion C  -7.001487444600007  20.211531625799999   1.000007321400000 0
ion C  -2.333816549999999  12.126907637100000   1.000007321400000 0
ion C   4.667670894600002  16.169229080099999   1.000007321400000 0
ion C  -2.333816550000000  20.211531625799999   1.000007321400000 0
ion C   2.333816550000000  20.211531625799999   1.000007321400000 0
ion C  -4.667651997299995  16.169229080099999   1.000007321400000 0
ion C   7.001487444600000   4.042302545699999   1.000007321400000 0
ion C  21.004424539199999   4.042302545699999   1.000007321400000 0
ion C  14.002955991899999  16.169229080099999   1.000007321400000 0
ion C   0.000000000000000  16.169229080099999   1.000007321400000 0
ion C  11.669120544600000   4.042302545699999   1.000007321400000 0
ion C  18.670607989199997   8.084623988700001   1.000007321400000 0
ion C  11.669120544599998  12.126907637100000   1.000007321400000 0
ion C  16.336791439199999  12.126907637100000   1.000007321400000 0
ion C  16.336791439199999   4.042302545699999   1.000007321400000 0
ion C   9.335303994599997   8.084623988700001   1.000007321400000 0
ion C  14.002955991899999   8.084623988700001   1.000007321400000 0
ion C   0.000000000000000   2.694868363800000   1.000007321400000 0
ion C  11.669120544600000  22.906399989600001   1.000007321400000 0
ion C -11.669120544600000  22.906399989600001   1.000007321400000 0
ion C  -2.333816550000000   6.737170909500000   1.000007321400000 0
ion C   9.335303994599995  18.864097443900000   1.000007321400000 0
ion C  -7.001487444600000  22.906399989600001   1.000007321400000 0
ion C   7.001487444600000  22.906399989600001   1.000007321400000 0
ion C   2.333816550000000   6.737170909500000   1.000007321400000 0
ion C  -9.335303994599998  18.864097443900000   1.000007321400000 0
ion C  -4.667670894599997  10.779473455200000   1.000007321400000 0
ion C  -2.333816550000000  22.906399989600001   1.000007321400000 0
ion C   2.333816550000000  22.906399989600001   1.000007321400000 0
ion C  -7.001487444600004  14.821794898200000   1.000007321400000 0
ion C   4.667670894600000   2.694868363800000   1.000007321400000 0
ion C  23.338259986499999   2.694868363800000   1.000007321400000 0
ion C  14.002974889199999  18.864097443900000   1.000007321400000 0
ion C   0.000000000000000  10.779473455200000   1.000007321400000 0
ion C   4.667670894600001  18.864097443900000   1.000007321400000 0
ion C  -4.667633100000006  18.864097443900000   1.000007321400000 0
ion C  -2.333816550000003  14.821794898200000   1.000007321400000 0
ion C   2.333816549999993  14.821794898200000   1.000007321400000 0
ion C  -0.000000000000005  18.864097443900000   1.000007321400000 0
ion C   9.335303994599998   2.694868363800000   1.000007321400000 0
ion C  21.004424539199999   6.737170909500000   1.000007321400000 0
ion C  11.669120544600000  14.821794898200000   1.000007321400000 0
ion C  16.336791439199999  14.821794898200000   1.000007321400000 0
ion C  18.670607989199997   2.694868363800000   1.000007321400000 0
ion C   7.001487444600001   6.737170909500000   1.000007321400000 0
ion C  14.002955991899999   2.694868363800000   1.000007321400000 0
ion C  18.670607989200004  10.779473455200000   1.000007321400000 0
ion C  11.669120544599998   6.737170909500000   1.000007321400000 0
ion C  16.336791439199999   6.737170909500000   1.000007321400000 0
ion C  14.002955991899999  10.779473455200000   1.000007321400000 0
ion N   4.667670894599999   8.084623988700001   1.000007321400000 0
ion N   2.333816549999999  12.126907637100000   1.000007321400000 0
ion N   7.001487444599997  14.821794898200000   1.000007321400000 0
ion N   9.335303994599997  10.779473455200000   1.000007321400000 0
ion Fe   5.837111407799997  11.454314935499999   1.000007321400000 0
ion S  -0.634974327032389  13.147327699757836  11.324088787324703 1
ion S   3.008293728786947  14.197115975517567  11.996128588906492 1
ion S   5.378348598473887  13.328860134854470   9.017748259429830 1
ion S   6.355369288868064   9.390729529493001   9.028203531691572 1
ion S   8.829151633767570   8.565423382736466  11.933067366571381 1
ion S  12.446589473717207   9.597845416656863  11.109690489072173 1
ion Na  -0.831254754488261   5.598513867086956   9.515147267393285 1
ion Na  12.374500297609138  17.261967889887774   9.653648285285643 1

# Forces in Cartesian coordinates:
force C   0.004159466112382   0.000060651186051   0.000006426437451 0
force C   0.001443100975762  -0.001265023002453   0.000035952894204 0
force C   0.003643170355897  -0.001732080704500   0.000030563697027 0
force C   0.001409794641327   0.003064547019752   0.000009650003026 0
force C   0.002544332624440  -0.000383323158173   0.000007466520978 0
force C   0.005325757041108   0.002193980552298   0.000026019102970 0
force C   0.000928907153943  -0.000736712685460   0.000012088134532 0
force C  -0.000374634237422   0.001896132931106   0.000015724532403 0
force C  -0.033229897365500  -0.013494576329792  -0.000015709016764 0
force C  -0.000978811418756   0.000685428371467   0.000007585867261 0
force C  -0.000529256427817  -0.000046893604624   0.000008375021265 0
force C  -0.000179196284949   0.001132812176481   0.000007246061583 0
force C   0.002105999806483   0.003580429167467   0.000012734009190 0
force C  -0.001094563170013  -0.000538643111611   0.000012066544137 0
force C   0.010683139328407   0.006165710523082   0.000074137017164 0
force C   0.003174557417089   0.002580462610040   0.000005948866016 0
force C   0.001572670879417   0.000889907224959   0.000005405361702 0
force C   0.004517326783713   0.003508506485093   0.000052341830110 0
force C   0.029365167906783   0.011298941428229   0.000050101359228 0
force C   0.000078279170755  -0.001138176451874   0.000012874044952 0
force C  -0.003528470664696   0.000755031814320   0.000013603151077 0
force C   0.003318986059484  -0.000270672740007   0.000031660733737 0
force C   0.004996712645009   0.007524308389553   0.000043205715370 0
force C   0.001668480244015   0.001005004395717  -0.000000931224006 0
force C  -0.002277970759741  -0.001370039981084   0.000012729532666 0
force C   0.008969333040199   0.000544763817942   0.000056516043031 0
force C  -0.001096956062835  -0.003400961580897   0.000019285380976 0
force C   0.000885907857104   0.002464514721338   0.000016234817748 0
force C  -0.028308502230292  -0.022126745701017   0.000001231742978 0
force C   0.000295418663998   0.003991431380990   0.000031149491592 0
force C  -0.000338151022252  -0.000338705523537   0.000015267778561 0
force C   0.024547480394231   0.019855267486796   0.000071024221337 0
force C   0.003785638972905   0.001484738232669   0.000061639543133 0
force C  -0.003633000639332   0.001727683522329   0.000032677627433 0
force C  -0.004131752584146  -0.000060653534689   0.000005611660571 0
force C  -0.002569073952113   0.000394134877020   0.000008681712278 0
force C   0.002271731022150   0.001377923709204   0.000013409119944 0
force C  -0.005323939815220  -0.002221661307791   0.000024928726814 0
force C   0.000529665762341   0.000042947997419   0.000007473136446 0
force C  -0.001433548053960  -0.003069346319797   0.000008452077686 0
force C   0.033337978135045   0.013561645907947  -0.000020859297483 0
force C  -0.001676551674298  -0.001006966535174  -0.000000281354538 0
force C  -0.000294308331508  -0.003973195768381   0.000031596737268 0
force C   0.001086643199243   0.000553265563666   0.000010516084125 0
force C   0.000990689821271  -0.000683493346608   0.000009305476174 0
force C  -0.000883564503237  -0.002485452375582   0.000014503649527 0
force C  -0.003188030409640  -0.002562272119641   0.000007922814140 0
force C  -0.000902949175559   0.000742746610510   0.000012656646874 0
force C  -0.001452593668507   0.001262297880861   0.000035414233663 0
force C   0.028409441283433   0.022199061786096  -0.000005007710162 0
force C  -0.004988902270969  -0.007539238798944   0.000039489248989 0
force C   0.000317662133845   0.000331224113296   0.000012980969644 0
force C  -0.003783246801086  -0.001516132563228   0.000056744907390 0
force C  -0.024530291906719  -0.019990506569183   0.000071583134551 0
force C   0.001102927467204   0.003395715747867   0.000017919271392 0
force C   0.003541438021217  -0.000758195178207   0.000015144647329 0
force C   0.000196377694478  -0.001125400759475   0.000006873505867 0
force C  -0.010704862185661  -0.006200940438533   0.000070275001477 0
force C   0.000374586856612  -0.001913364503536   0.000017514388616 0
force C  -0.001572896743300  -0.000895856594373   0.000006115243035 0
force C  -0.029467934463881  -0.011273528463231   0.000044676496571 0
force C  -0.000076440934808   0.001142142457782   0.000013147464445 0
force C  -0.002100454299461  -0.003560245572582   0.000014998799038 0
force C  -0.008974661853081  -0.000509102722418   0.000063353393447 0
force C  -0.003337329779119   0.000272737084201   0.000036129049473 0
force C  -0.004556036519285  -0.003500033786792   0.000054226362139 0
force N   0.025723336767863  -0.027458816629601  -0.000084582455046 0
force N  -0.010893796685138   0.036014296207936  -0.000114658881247 0
force N  -0.025534034999138   0.027591372616605  -0.000091118287620 0
force N   0.011197329558574  -0.035969789621260  -0.000108651506379 0
force Fe  -0.000022719807756   0.000144437362969   0.002481376663489 0
force S   0.000111931115090   0.000080605705890  -0.000056102712169 1
force S  -0.000120048903979  -0.000064507038229  -0.000157610200293 1
force S   0.000101690391782  -0.000029925933217  -0.000007837660013 1
force S  -0.000119255511587   0.000033918051492   0.000059066093960 1
force S   0.000154474495450   0.000086862407728  -0.000176818689823 1
force S  -0.000088323796915  -0.000076384644679  -0.000030362629622 1
force Na  -0.000029908196686  -0.000032193514056   0.000094161256777 1
force Na   0.000028294982525   0.000004276673369   0.000125301930375 1

# Energy components:
   A_diel =       -0.3592923654296755
   Eewald =     5246.6372750822783928
       EH =     5810.6349581498625412
     Eloc =   -11826.9614575516188779
      Enl =      -55.5284721510315080
      Exc =     -184.4799446448058973
 Exc_core =       13.9690351117229259
       KE =      297.6965556992765300
  MuShift =       -0.0000000000001594
-------------------------------------
     Etot =     -698.3913426697464502
       TS =        0.0903419973758878
-------------------------------------
        F =     -698.4816846671222947

IonicMinimize: Iter:   7  F: -698.481684667122295  |grad|_K:  9.135e-05  alpha:  5.384e+00  linmin: -7.063e-04  t[s]:   1114.56
IonicMinimize: Converged (|grad|_K<1.000000e-04).

#--- Lowdin population analysis ---
# oxidation-state C +0.041 +0.031 +0.035 +0.033 +0.035 +0.025 +0.034 +0.032 +0.149 +0.036 +0.034 +0.035 +0.042 +0.037 +0.008 +0.047 +0.040 +0.027 +0.131 +0.037 +0.033 +0.034 +0.032 +0.042 +0.047 +0.033 +0.033 +0.036 +0.150 +0.037 +0.035 +0.131 +0.049 +0.035 +0.041 +0.035 +0.047 +0.025 +0.034 +0.033 +0.149 +0.042 +0.037 +0.037 +0.036 +0.036 +0.047 +0.034 +0.031 +0.150 +0.032 +0.035 +0.049 +0.131 +0.033 +0.033 +0.035 +0.008 +0.032 +0.040 +0.131 +0.037 +0.042 +0.033 +0.034 +0.027
# oxidation-state N -0.141 -0.140 -0.140 -0.139
# oxidation-state Fe +0.109
# oxidation-state S -0.581 +0.079 -0.037 -0.038 +0.079 -0.582
# oxidation-state Na +0.975 +0.974


Dumping 'Na2S6@FeN4-PC.fillings' ... done
Dumping 'Na2S6@FeN4-PC.wfns' ... done
Dumping 'Na2S6@FeN4-PC.fluidState' ... done
Dumping 'Na2S6@FeN4-PC.ionpos' ... done
Dumping 'Na2S6@FeN4-PC.eigenvals' ... done
End date and time: Wed Oct  2 17:07:38 2024  (Duration: 0-0:18:36.52)
Done!
