
*************** JDFTx 1.7.0  ***************

Start date and time: Fri Dec 27 14:00:59 2024
Executable jdftx_gpu with command-line: -i /home/akim2/JDFTx/Na2S4@FeN4-glyme/Na2S4@FeN4-glyme.in -o /home/akim2/JDFTx/Na2S4@FeN4-glyme/Na2S4@FeN4-glyme.out
Running on hosts (process indices):  exp-3-57 (0)
Divided in process groups (process indices):  0 (0)
gpuInit: Found compatible cuda device 0 'Tesla V100-SXM2-32GB'
gpuInit: Selected device 0
Resource initialization completed at t[s]:      0.37
Run totals: 1 processes, 1 threads, 1 GPUs


Input parsed successfully to the following command list (including defaults):

basis kpoint-dependent
coords-type Cartesian
core-overlap-check vector
coulomb-interaction Slab 001
coulomb-truncation-embed 0 0 2.00001
davidson-band-ratio 1.1
dump End State
dump-name Na2S4@FeN4-glyme.$VAR
elec-cutoff 20 100
elec-eigen-algo Davidson
elec-ex-corr gga-PBE
elec-smearing Fermi 0.01
electronic-minimize  \
	dirUpdateScheme      FletcherReeves \
	linminMethod         DirUpdateRecommended \
	nIterations          100 \
	history              15 \
	knormThreshold       0 \
	energyDiffThreshold  1e-08 \
	nEnergyDiff          2 \
	alphaTstart          1 \
	alphaTmin            1e-10 \
	updateTestStepSize   yes \
	alphaTreduceFactor   0.1 \
	alphaTincreaseFactor 3 \
	nAlphaAdjustMax      3 \
	wolfeEnergy          0.0001 \
	wolfeGradient        0.9 \
	fdTest               no
electronic-scf  \
	nIterations	50 \
	energyDiffThreshold	1e-08 \
	residualThreshold	1e-07 \
	mixFraction	0.5 \
	qMetric	0.8 \
	history	10 \
	nEigSteps	2 \
	eigDiffThreshold	1e-08 \
	mixedVariable	Density \
	qKerker	0.8 \
	qKappa	-1 \
	verbose	no \
	mixFractionMag	1.5
exchange-regularization WignerSeitzTruncated
fluid LinearPCM 298.000000 1.013250
fluid-ex-corr lda-TF lda-PZ
fluid-gummel-loop 10 1.000000e-05
fluid-minimize  \
	dirUpdateScheme      PolakRibiere \
	linminMethod         DirUpdateRecommended \
	nIterations          400 \
	history              15 \
	knormThreshold       1e-11 \
	energyDiffThreshold  0 \
	nEnergyDiff          2 \
	alphaTstart          1 \
	alphaTmin            1e-10 \
	updateTestStepSize   yes \
	alphaTreduceFactor   0.1 \
	alphaTincreaseFactor 3 \
	nAlphaAdjustMax      6 \
	wolfeEnergy          0.0001 \
	wolfeGradient        0.9 \
	fdTest               no
fluid-solvent Glyme 9.62137 ScalarEOS \
	epsBulk 7.2 \
	pMol 0 \
	epsInf 1.9 \
	Pvap 0 \
	sigmaBulk 0 \
	Rvdw 0 \
	Res 0 \
	tauNuc 343133
forces-output-coords Positions
ion C   0.000000000000000   0.000000000000000   1.000007321400000 0
ion C  -2.333835447300000   4.042302545699999   1.000007321400000 0
ion C  11.669120544600000  20.211531625799999   1.000007321400000 0
ion C   4.667689791900001   0.000000000000000   1.000007321400000 0
ion C  23.338297781100000   0.000000000000000   1.000007321400000 0
ion C   2.333816549999999   4.042302545699999   1.000007321400000 0
ion C -11.669158339200004  20.211531625799999   1.000007321400000 0
ion C  -4.667670894600000   8.084623988700001   1.000007321400000 0
ion C   9.335303994599997  16.169229080099999   1.000007321400000 0
ion C   9.335322891900001   0.000000000000000   1.000007321400000 0
ion C  18.670626886499999   0.000000000000000   1.000007321400000 0
ion C  -9.335322891900001  16.169229080099999   1.000007321400000 0
ion C  -7.001487444600000  12.126907637100000   1.000007321400000 0
ion C  14.002993786499999   0.000000000000000   1.000007321400000 0
ion C   0.000000000000000   8.084623988700001   1.000007321400000 0
ion C   7.001487444599997  20.211531625799999   1.000007321400000 0
ion C  -7.001487444600005  20.211531625799999   1.000007321400000 0
ion C  -2.333816549999999  12.126907637100000   1.000007321400000 0
ion C   4.667670894600002  16.169229080099999   1.000007321400000 0
ion C  -2.333816550000000  20.211531625799999   1.000007321400000 0
ion C   2.333816550000000  20.211531625799999   1.000007321400000 0
ion C  -4.667651997299996  16.169229080099999   1.000007321400000 0
ion C   7.001487444600000   4.042302545699999   1.000007321400000 0
ion C  21.004424539199999   4.042302545699999   1.000007321400000 0
ion C  14.002955991899999  16.169229080099999   1.000007321400000 0
ion C   0.000000000000000  16.169229080099999   1.000007321400000 0
ion C  11.669120544600000   4.042302545699999   1.000007321400000 0
ion C  18.670607989199997   8.084623988700001   1.000007321400000 0
ion C  11.669120544599998  12.126907637100000   1.000007321400000 0
ion C  16.336791439199999  12.126907637100000   1.000007321400000 0
ion C  16.336791439199999   4.042302545699999   1.000007321400000 0
ion C   9.335303994599997   8.084623988700001   1.000007321400000 0
ion C  14.002955991899999   8.084623988700001   1.000007321400000 0
ion C   0.000000000000000   2.694868363800000   1.000007321400000 0
ion C  11.669120544600000  22.906399989600001   1.000007321400000 0
ion C -11.669120544600000  22.906399989600001   1.000007321400000 0
ion C  -2.333816550000000   6.737170909500000   1.000007321400000 0
ion C   9.335303994599995  18.864097443900000   1.000007321400000 0
ion C  -7.001487444600000  22.906399989600001   1.000007321400000 0
ion C   7.001487444600000  22.906399989600001   1.000007321400000 0
ion C   2.333816550000000   6.737170909500000   1.000007321400000 0
ion C  -9.335303994599998  18.864097443900000   1.000007321400000 0
ion C  -4.667670894599997  10.779473455200000   1.000007321400000 0
ion C  -2.333816550000000  22.906399989600001   1.000007321400000 0
ion C   2.333816550000000  22.906399989600001   1.000007321400000 0
ion C  -7.001487444600004  14.821794898200000   1.000007321400000 0
ion C   4.667670894600000   2.694868363800000   1.000007321400000 0
ion C  23.338259986499999   2.694868363800000   1.000007321400000 0
ion C  14.002974889199999  18.864097443900000   1.000007321400000 0
ion C   0.000000000000000  10.779473455200000   1.000007321400000 0
ion C   4.667670894600001  18.864097443900000   1.000007321400000 0
ion C  -4.667633100000004  18.864097443900000   1.000007321400000 0
ion C  -2.333816550000003  14.821794898200000   1.000007321400000 0
ion C   2.333816549999995  14.821794898200000   1.000007321400000 0
ion C  -0.000000000000005  18.864097443900000   1.000007321400000 0
ion C   9.335303994599998   2.694868363800000   1.000007321400000 0
ion C  21.004424539199999   6.737170909500000   1.000007321400000 0
ion C  11.669120544600000  14.821794898200000   1.000007321400000 0
ion C  16.336791439199999  14.821794898200000   1.000007321400000 0
ion C  18.670607989199997   2.694868363800000   1.000007321400000 0
ion C   7.001487444600001   6.737170909500000   1.000007321400000 0
ion C  14.002955991899999   2.694868363800000   1.000007321400000 0
ion C  18.670607989200004  10.779473455200000   1.000007321400000 0
ion C  11.669120544599998   6.737170909500000   1.000007321400000 0
ion C  16.336791439199999   6.737170909500000   1.000007321400000 0
ion C  14.002955991899999  10.779473455200000   1.000007321400000 0
ion N   4.667670894599999   8.084623988700001   1.000007321400000 0
ion N   2.333816549999999  12.126907637100000   1.000007321400000 0
ion N   7.001487444599997  14.821794898200000   1.000007321400000 0
ion N   9.335303994599997  10.779473455200000   1.000007321400000 0
ion Fe   5.837111407799997  11.454314935499999   1.000007321400000 0
ion S   5.468204798104988  11.362534507786290   5.336785219362401 1
ion S   8.070808428515150  13.504650156018911   7.430805225604459 1
ion S   9.853203388601669  11.184101881026494  10.093829239225848 1
ion S  12.833201592618561   9.175275240526799   8.508169628990180 1
ion Na   8.687030711533254   7.230359205990412   6.209972494311719 1
ion Na  13.380327782281922  13.410495232840686   5.793200734643123 1
ion-species GBRV/$ID_pbe.uspp
ion-width Ecut
ionic-minimize  \
	dirUpdateScheme      FletcherReeves \
	linminMethod         DirUpdateRecommended \
	nIterations          200 \
	history              15 \
	knormThreshold       0.0001 \
	energyDiffThreshold  1e-06 \
	nEnergyDiff          2 \
	alphaTstart          1 \
	alphaTmin            1e-10 \
	updateTestStepSize   yes \
	alphaTreduceFactor   0.1 \
	alphaTincreaseFactor 3 \
	nAlphaAdjustMax      3 \
	wolfeEnergy          0.0001 \
	wolfeGradient        0.9 \
	fdTest               no
kpoint   0.000000000000   0.000000000000   0.000000000000  1.00000000000000
kpoint-folding 1 1 1 
latt-move-scale 1 1 1
latt-scale 1 1 1 
lattice Triclinic 28.0058 28.0058 37.7946 90 90 120
lattice-minimize  \
	dirUpdateScheme      L-BFGS \
	linminMethod         DirUpdateRecommended \
	nIterations          0 \
	history              15 \
	knormThreshold       0 \
	energyDiffThreshold  1e-06 \
	nEnergyDiff          2 \
	alphaTstart          1 \
	alphaTmin            1e-10 \
	updateTestStepSize   yes \
	alphaTreduceFactor   0.1 \
	alphaTincreaseFactor 3 \
	nAlphaAdjustMax      3 \
	wolfeEnergy          0.0001 \
	wolfeGradient        0.9 \
	fdTest               no
lcao-params -1 1e-06 0.01
pcm-variant GLSSA13
spintype no-spin
subspace-rotation-factor 1 yes
symmetries automatic
symmetry-threshold 0.0001



---------- Setting up symmetries ----------

Found 24 point-group symmetries of the bravais lattice
Found 1 space-group symmetries with basis
Applied RMS atom displacement 0 bohrs to make symmetries exact.

---------- Initializing the Grid ----------
R = 
[      28.0058     -14.0029            0  ]
[            0      24.2537            0  ]
[            0            0      37.7946  ]
unit cell volume = 25671.8
G =
[   0.224353    0.12953         -0  ]
[          0   0.259061          0  ]
[          0         -0   0.166246  ]
Minimum fftbox size, Smin = [  128  128  172  ]
Chosen fftbox size, S = [  128  128  180  ]

---------- Initializing tighter grid for wavefunction operations ----------
R = 
[      28.0058     -14.0029            0  ]
[            0      24.2537            0  ]
[            0            0      37.7946  ]
unit cell volume = 25671.8
G =
[   0.224353    0.12953         -0  ]
[          0   0.259061          0  ]
[          0         -0   0.166246  ]
Minimum fftbox size, Smin = [  116  116  156  ]
Chosen fftbox size, S = [  120  120  160  ]

---------- Exchange Correlation functional ----------
Initalized PBE GGA exchange.
Initalized PBE GGA correlation.

---------- Setting up pseudopotentials ----------
Width of ionic core gaussian charges (only for fluid interactions / plotting) set to 0.397384

Reading pseudopotential file '/home/akim2/jdftx_install/build/pseudopotentials/GBRV/c_pbe.uspp':
  Title: C.  Created by USPP 7.3.6 on 3-2-2014
  Reference state energy: -5.406344.  4 valence electrons in orbitals:
    |200>  occupation: 2  eigenvalue: -0.504890
    |210>  occupation: 2  eigenvalue: -0.194356
  lMax: 1  lLocal: 2  QijEcut: 5
  4 projectors sampled on a log grid with 503 points:
    l: 0  eig: -0.504890  rCut: 1.3
    l: 0  eig: 0.000000  rCut: 1.3
    l: 1  eig: -0.194357  rCut: 1.3
    l: 1  eig: 0.000000  rCut: 1.3
  Partial core density with radius 1.1
  Transforming core density to a uniform radial grid of dG=0.02 with 1625 points.
  Transforming local potential to a uniform radial grid of dG=0.02 with 1625 points.
  Transforming nonlocal projectors to a uniform radial grid of dG=0.02 with 432 points.
  Transforming density augmentations to a uniform radial grid of dG=0.02 with 1625 points.
  Transforming atomic orbitals to a uniform radial grid of dG=0.02 with 432 points.
  Core radius for overlap checks: 1.30 bohrs.

Reading pseudopotential file '/home/akim2/jdftx_install/build/pseudopotentials/GBRV/n_pbe.uspp':
  Title: N.  Created by USPP 7.3.6 on 3-2-2014
  Reference state energy: -9.763716.  5 valence electrons in orbitals:
    |200>  occupation: 2  eigenvalue: -0.681964
    |210>  occupation: 3  eigenvalue: -0.260726
  lMax: 1  lLocal: 2  QijEcut: 6
  4 projectors sampled on a log grid with 491 points:
    l: 0  eig: -0.681964  rCut: 1.15
    l: 0  eig: 0.000000  rCut: 1.15
    l: 1  eig: -0.260729  rCut: 1.2
    l: 1  eig: 0.500000  rCut: 1.2
  Partial core density with radius 0.8
  Transforming core density to a uniform radial grid of dG=0.02 with 1625 points.
  Transforming local potential to a uniform radial grid of dG=0.02 with 1625 points.
  Transforming nonlocal projectors to a uniform radial grid of dG=0.02 with 432 points.
  Transforming density augmentations to a uniform radial grid of dG=0.02 with 1625 points.
  Transforming atomic orbitals to a uniform radial grid of dG=0.02 with 432 points.
  Core radius for overlap checks: 1.20 bohrs.

Reading pseudopotential file '/home/akim2/jdftx_install/build/pseudopotentials/GBRV/fe_pbe.uspp':
  Title: Fe.  Created by USPP 7.3.6 on 15-6-15
  Reference state energy: -124.316937.  16 valence electrons in orbitals:
    |300>  occupation: 2  eigenvalue: -4.008817
    |310>  occupation: 6  eigenvalue: -2.753096
    |320>  occupation: 5  eigenvalue: -0.791264
    |400>  occupation: 2  eigenvalue: -0.516384
    |410>  occupation: 0  eigenvalue: -0.312222
  lMax: 2  lLocal: 3  QijEcut: 6
  6 projectors sampled on a log grid with 607 points:
    l: 0  eig: -4.008819  rCut: 1.55
    l: 0  eig: -0.516386  rCut: 1.55
    l: 1  eig: -2.753096  rCut: 1.55
    l: 1  eig: -0.312226  rCut: 1.55
    l: 2  eig: -0.791264  rCut: 1.65
    l: 2  eig: -0.450000  rCut: 1.65
  Partial core density with radius 0.65
  Transforming core density to a uniform radial grid of dG=0.02 with 1625 points.
  Transforming local potential to a uniform radial grid of dG=0.02 with 1625 points.
  Transforming nonlocal projectors to a uniform radial grid of dG=0.02 with 432 points.
  Transforming density augmentations to a uniform radial grid of dG=0.02 with 1625 points.
  Transforming atomic orbitals to a uniform radial grid of dG=0.02 with 432 points.
  Core radius for overlap checks: 1.65 bohrs.

Reading pseudopotential file '/home/akim2/jdftx_install/build/pseudopotentials/GBRV/s_pbe.uspp':
  Title: S.  Created by USPP 7.3.6 on 1-4-15
  Reference state energy: -11.898476.  6 valence electrons in orbitals:
    |300>  occupation: 2  eigenvalue: -0.634167
    |310>  occupation: 4  eigenvalue: -0.257568
  lMax: 2  lLocal: 3  QijEcut: 6
  6 projectors sampled on a log grid with 635 points:
    l: 0  eig: -0.634161  rCut: 1.5
    l: 0  eig: 1.500000  rCut: 1.5
    l: 1  eig: -0.257567  rCut: 1.5
    l: 1  eig: 1.500000  rCut: 1.5
    l: 2  eig: -1.000000  rCut: 1.5
    l: 2  eig: 1.500000  rCut: 1.5
  Partial core density with radius 1.15
  Transforming core density to a uniform radial grid of dG=0.02 with 1625 points.
  Transforming local potential to a uniform radial grid of dG=0.02 with 1625 points.
  Transforming nonlocal projectors to a uniform radial grid of dG=0.02 with 432 points.
  Transforming density augmentations to a uniform radial grid of dG=0.02 with 1625 points.
  Transforming atomic orbitals to a uniform radial grid of dG=0.02 with 432 points.
  Core radius for overlap checks: 1.50 bohrs.

Reading pseudopotential file '/home/akim2/jdftx_install/build/pseudopotentials/GBRV/na_pbe.uspp':
  Title: Na.  Created by USPP 7.3.6 on 23-9-15
  Reference state energy: -47.625620.  9 valence electrons in orbitals:
    |200>  occupation: 2  eigenvalue: -2.085638
    |210>  occupation: 6  eigenvalue: -1.053708
    |300>  occupation: 1  eigenvalue: -0.100838
  lMax: 2  lLocal: 0  QijEcut: 6
  5 projectors sampled on a log grid with 657 points:
    l: 0  eig: -2.085640  rCut: 1.37
    l: 0  eig: -0.100839  rCut: 1.37
    l: 1  eig: -1.053708  rCut: 1.47
    l: 1  eig: 0.500000  rCut: 1.47
    l: 2  eig: 0.750000  rCut: 2
  Transforming local potential to a uniform radial grid of dG=0.02 with 1625 points.
  Transforming nonlocal projectors to a uniform radial grid of dG=0.02 with 432 points.
  Transforming density augmentations to a uniform radial grid of dG=0.02 with 1625 points.
  Transforming atomic orbitals to a uniform radial grid of dG=0.02 with 432 points.
  Core radius for overlap checks: 2.00 bohrs.

Initialized 5 species with 77 total atoms.

Folded 1 k-points by 1x1x1 to 1 k-points.

---------- Setting up k-points, bands, fillings ----------
No reducable k-points. 
Computing the number of bands and number of electrons
Calculating initial fillings.
nElectrons: 342.000000   nBands: 319   nStates: 1

----- Setting up reduced wavefunction bases (one per k-point) -----
average nbasis = 109673.000 , ideal nbasis = 109671.883

---------- Setting up coulomb interaction ----------
Fluid mode embedding: using embedded box, but periodic Coulomb kernel.
(Fluid response is responsible for (approximate) separation between periodic images.)
Setting up double-sized grid for truncated Coulomb potentials:
R = 
[      28.0058     -14.0029            0  ]
[            0      24.2537            0  ]
[            0            0      75.5892  ]
unit cell volume = 51343.6
G =
[   0.224353    0.12953         -0  ]
[          0   0.259061          0  ]
[          0         -0  0.0831228  ]
Chosen fftbox size, S = [  128  128  360  ]
Integer grid location selected as the embedding center:
   Grid: [  0  0  10  ]
   Lattice: [  0  0  0.0529178  ]
   Cartesian: [  0  0  2.00001  ]
Constructing Wigner-Seitz cell: 8 faces (6 quadrilaterals, 2 hexagons)
Range-separation parameter for embedded mesh potentials due to point charges: 0.590105 bohrs.

---------- Setting up ewald sum ----------
Optimum gaussian width for ewald sums = 7.188811 bohr.
Real space sum over 405 unit cells with max indices [  4  4  2  ]
Reciprocal space sum over 7875 terms with max indices [  7  7  17  ]

---------- Allocating electronic variables ----------
Initializing wave functions:  linear combination of atomic orbitals
C pseudo-atom occupations:   s ( 2 )  p ( 2 )
N pseudo-atom occupations:   s ( 2 )  p ( 3 )
Fe pseudo-atom occupations:   s ( 2 0 )  p ( 6 0 )  d ( 8 )
S pseudo-atom occupations:   s ( 2 )  p ( 4 )
Na pseudo-atom occupations:   s ( 2 1 )  p ( 6 )
	FillingsUpdate:  mu: -0.207847254  nElectrons: 342.000000
LCAOMinimize: Iter:   0  F: -656.7600079242560014  |grad|_K:  2.726e-02  alpha:  1.000e+00
	FillingsUpdate:  mu: -0.264405493  nElectrons: 342.000000
LCAOMinimize: Iter:   1  F: -662.6131868816871702  |grad|_K:  1.587e-02  alpha:  1.609e-01  linmin: -1.766e-01  cgtest:  6.621e-01  t[s]:      8.25
LCAOMinimize: Encountered beta<0, resetting CG.
	FillingsUpdate:  mu: -0.194396290  nElectrons: 342.000000
LCAOMinimize: Iter:   2  F: -671.6522628187150303  |grad|_K:  2.897e-02  alpha:  6.279e-02  linmin: -4.412e-01  cgtest:  1.820e-01  t[s]:      9.88
LCAOMinimize: 	Step increased F by 9.653920e+00, reducing alpha to 2.665763e-03.
	FillingsUpdate:  mu: -0.126442637  nElectrons: 342.000000
LCAOMinimize: Iter:   3  F: -672.1578449161871731  |grad|_K:  1.981e-02  alpha:  2.666e-03  linmin:  3.298e-01  cgtest: -6.790e-01  t[s]:     12.62
LCAOMinimize: 	Bad step direction: g.d > 0.
LCAOMinimize: 	Undoing step.
LCAOMinimize: 	Step failed: resetting search direction.
	FillingsUpdate:  mu: -0.126442637  nElectrons: 342.000000
LCAOMinimize: Iter:   4  F: -672.1578449161871731  |grad|_K:  1.981e-02  alpha:  0.000e+00
LCAOMinimize: 	Predicted alpha/alphaT>3.000000, increasing alphaT to 7.997288e-03.
LCAOMinimize: 	Predicted alpha/alphaT>3.000000, increasing alphaT to 2.399186e-02.
	FillingsUpdate:  mu: -0.186493509  nElectrons: 342.000000
LCAOMinimize: Iter:   5  F: -672.6871310091196392  |grad|_K:  9.485e-03  alpha:  2.660e-02  linmin:  3.782e-02  cgtest: -1.949e-02  t[s]:     16.30
LCAOMinimize: 	Predicted alpha/alphaT>3.000000, increasing alphaT to 7.978608e-02.
	FillingsUpdate:  mu: -0.180350010  nElectrons: 342.000000
LCAOMinimize: Iter:   6  F: -673.2506981128072994  |grad|_K:  5.727e-03  alpha:  1.342e-01  linmin:  2.062e-02  cgtest: -5.972e-01  t[s]:     18.40
	FillingsUpdate:  mu: -0.205782150  nElectrons: 342.000000
LCAOMinimize: Iter:   7  F: -673.2982757808186989  |grad|_K:  1.926e-03  alpha:  3.527e-02  linmin:  2.590e-02  cgtest:  5.238e-01  t[s]:     20.00
LCAOMinimize: Encountered beta<0, resetting CG.
LCAOMinimize: 	Predicted alpha/alphaT>3.000000, increasing alphaT to 1.058112e-01.
	FillingsUpdate:  mu: -0.235153092  nElectrons: 342.000000
LCAOMinimize: Iter:   8  F: -673.3245320699228387  |grad|_K:  2.815e-03  alpha:  1.414e-01  linmin:  1.117e-02  cgtest: -1.782e-01  t[s]:     22.08
	FillingsUpdate:  mu: -0.234806090  nElectrons: 342.000000
LCAOMinimize: Iter:   9  F: -673.3301541722039474  |grad|_K:  2.047e-03  alpha:  9.812e-03  linmin: -7.998e-02  cgtest:  9.831e-01  t[s]:     23.68
LCAOMinimize: Encountered beta<0, resetting CG.
	FillingsUpdate:  mu: -0.219277978  nElectrons: 342.000000
LCAOMinimize: Iter:  10  F: -673.3356005381053819  |grad|_K:  5.886e-04  alpha:  2.510e-02  linmin: -2.362e-02  cgtest:  6.671e-02  t[s]:     25.31
LCAOMinimize: 	Predicted alpha/alphaT>3.000000, increasing alphaT to 7.531242e-02.
LCAOMinimize: 	Predicted alpha/alphaT>3.000000, increasing alphaT to 2.259373e-01.
	FillingsUpdate:  mu: -0.218721504  nElectrons: 342.000000
LCAOMinimize: Iter:  11  F: -673.3401387468942403  |grad|_K:  4.470e-04  alpha:  2.500e-01  linmin: -1.030e-02  cgtest:  9.469e-03  t[s]:     27.88
	FillingsUpdate:  mu: -0.224062422  nElectrons: 342.000000
LCAOMinimize: Iter:  12  F: -673.3427135425529286  |grad|_K:  3.369e-04  alpha:  2.407e-01  linmin:  2.613e-03  cgtest: -6.034e-02  t[s]:     29.50
	FillingsUpdate:  mu: -0.218883937  nElectrons: 342.000000
LCAOMinimize: Iter:  13  F: -673.3429177260593406  |grad|_K:  2.288e-04  alpha:  3.567e-02  linmin: -4.303e-04  cgtest:  5.793e-02  t[s]:     31.14
LCAOMinimize: 	Predicted alpha/alphaT>3.000000, increasing alphaT to 1.070034e-01.
	FillingsUpdate:  mu: -0.220019627  nElectrons: 342.000000
LCAOMinimize: Iter:  14  F: -673.3435434808610580  |grad|_K:  6.571e-05  alpha:  2.313e-01  linmin: -6.305e-03  cgtest: -3.759e-02  t[s]:     33.22
	FillingsUpdate:  mu: -0.220800290  nElectrons: 342.000000
LCAOMinimize: Iter:  15  F: -673.3435844260877730  |grad|_K:  5.420e-05  alpha:  1.820e-01  linmin:  2.327e-04  cgtest: -1.627e-02  t[s]:     34.85
	FillingsUpdate:  mu: -0.219940519  nElectrons: 342.000000
LCAOMinimize: Iter:  16  F: -673.3435898593202182  |grad|_K:  3.415e-05  alpha:  3.622e-02  linmin:  2.738e-04  cgtest:  7.266e-03  t[s]:     36.48
LCAOMinimize: 	Predicted alpha/alphaT>3.000000, increasing alphaT to 1.086490e-01.
	FillingsUpdate:  mu: -0.220149380  nElectrons: 342.000000
LCAOMinimize: Iter:  17  F: -673.3436002876113662  |grad|_K:  1.339e-05  alpha:  1.747e-01  linmin: -9.503e-04  cgtest:  1.102e-02  t[s]:     38.57
	FillingsUpdate:  mu: -0.220436732  nElectrons: 342.000000
LCAOMinimize: Iter:  18  F: -673.3436027708905840  |grad|_K:  1.643e-05  alpha:  2.698e-01  linmin:  2.105e-05  cgtest: -2.254e-03  t[s]:     40.22
	FillingsUpdate:  mu: -0.220198063  nElectrons: 342.000000
LCAOMinimize: Iter:  19  F: -673.3436032295885525  |grad|_K:  8.166e-06  alpha:  3.320e-02  linmin: -3.207e-05  cgtest:  2.115e-03  t[s]:     41.84
LCAOMinimize: 	Predicted alpha/alphaT>3.000000, increasing alphaT to 9.959646e-02.
	FillingsUpdate:  mu: -0.220219651  nElectrons: 342.000000
LCAOMinimize: Iter:  20  F: -673.3436040911540204  |grad|_K:  3.903e-06  alpha:  2.521e-01  linmin: -3.219e-04  cgtest:  3.002e-03  t[s]:     43.92
LCAOMinimize: Converged (|Delta F|<1.000000e-06 for 2 iters).
----- createFluidSolver() ----- (Fluid-side solver setup)
   Initializing fluid molecule 'Glyme'
     Net charge: 0   dipole magnitude: 0
     Initializing spherical shell mfKernel with radius 0 Bohr
     deltaS corrections:

Correction to mu due to finite nuclear width = -0.00660906
   Cavity determined by nc: 8.36e-05 and sigma: 0.6
   Effective cavity tension: -8.03e-06 Eh/bohr^2 to account for cavitation and dispersion.


---- Citations for features of the code used in this run ----

   Software package:
      R. Sundararaman, K. Letchworth-Weaver, K.A. Schwarz, D. Gunceler, Y. Ozhabes and T.A. Arias, 'JDFTx: software for joint density-functional theory', SoftwareX 6, 278 (2017)

   gga-PBE exchange-correlation functional:
      J.P. Perdew, K. Burke and M. Ernzerhof, Phys. Rev. Lett. 77, 3865 (1996)

   Pseudopotentials:
      KF Garrity, JW Bennett, KM Rabe and D Vanderbilt, Comput. Mater. Sci. 81, 446 (2014)

   Truncated Coulomb potentials:
      R. Sundararaman and T.A. Arias, Phys. Rev. B 87, 165122 (2013)

   Linear/nonlinear dielectric/ionic fluid model with effective cavity tension:
      D. Gunceler, K. Letchworth-Weaver, R. Sundararaman, K.A. Schwarz and T.A. Arias, Modelling Simul. Mater. Sci. Eng. 21, 074005 (2013)

This list may not be complete. Please suggest additional citations or
report any other bugs at https://github.com/shankar1729/jdftx/issues

Initialization completed successfully at t[s]:     44.10

Fluid solver invoked on fresh (random / LCAO) wavefunctions
Running a vacuum solve first:

-------- Initial electronic minimization -----------
Will mix electronic density at each iteration.
	FillingsUpdate:  mu: -0.220219651  nElectrons: 342.000000
	FillingsUpdate:  mu: -0.233115830  nElectrons: 342.000000
SCF: Cycle:  0   F: -676.841012310545466   dF: -3.497e+00   |Residual|: 9.815e-01   |deigs|: 1.184e-01  t[s]:     48.60
	FillingsUpdate:  mu: -0.219060212  nElectrons: 342.000000
SCF: Cycle:  1   F: -675.413785677149804   dF: +1.427e+00   |Residual|: 9.049e-01   |deigs|: 3.237e-02  t[s]:     51.96
	FillingsUpdate:  mu: -0.162601271  nElectrons: 342.000000
SCF: Cycle:  2   F: -668.031643838160335   dF: +7.382e+00   |Residual|: 1.846e+00   |deigs|: 3.261e-02  t[s]:     55.30
	FillingsUpdate:  mu: -0.182483629  nElectrons: 342.000000
SCF: Cycle:  3   F: -677.072290923663331   dF: -9.041e+00   |Residual|: 4.112e-01   |deigs|: 2.953e-02  t[s]:     58.63
	FillingsUpdate:  mu: -0.171179815  nElectrons: 342.000000
SCF: Cycle:  4   F: -677.659462141433210   dF: -5.872e-01   |Residual|: 1.894e-01   |deigs|: 9.036e-03  t[s]:     61.98
	FillingsUpdate:  mu: -0.167842688  nElectrons: 342.000000
SCF: Cycle:  5   F: -677.651695964665578   dF: +7.766e-03   |Residual|: 1.440e-01   |deigs|: 3.656e-03  t[s]:     65.31
	FillingsUpdate:  mu: -0.153972931  nElectrons: 342.000000
SCF: Cycle:  6   F: -677.699092999867503   dF: -4.740e-02   |Residual|: 1.446e-01   |deigs|: 9.819e-03  t[s]:     68.66
	FillingsUpdate:  mu: -0.152485209  nElectrons: 342.000000
SCF: Cycle:  7   F: -677.715746970533246   dF: -1.665e-02   |Residual|: 1.024e-01   |deigs|: 4.148e-03  t[s]:     72.00
	FillingsUpdate:  mu: -0.147334854  nElectrons: 342.000000
SCF: Cycle:  8   F: -677.741298864159944   dF: -2.555e-02   |Residual|: 3.689e-02   |deigs|: 3.715e-03  t[s]:     75.37
	FillingsUpdate:  mu: -0.144287503  nElectrons: 342.000000
SCF: Cycle:  9   F: -677.734238215958726   dF: +7.061e-03   |Residual|: 5.622e-02   |deigs|: 3.305e-03  t[s]:     78.29
	FillingsUpdate:  mu: -0.137787385  nElectrons: 342.000000
SCF: Cycle: 10   F: -677.744669379061634   dF: -1.043e-02   |Residual|: 1.762e-02   |deigs|: 5.628e-03  t[s]:     81.65
	FillingsUpdate:  mu: -0.132985785  nElectrons: 342.000000
SCF: Cycle: 11   F: -677.743302961821996   dF: +1.366e-03   |Residual|: 2.618e-02   |deigs|: 4.696e-03  t[s]:     84.74
	FillingsUpdate:  mu: -0.131277573  nElectrons: 342.000000
SCF: Cycle: 12   F: -677.744416044099808   dF: -1.113e-03   |Residual|: 2.362e-02   |deigs|: 2.258e-03  t[s]:     87.63
	FillingsUpdate:  mu: -0.127627428  nElectrons: 342.000000
SCF: Cycle: 13   F: -677.745910650492760   dF: -1.495e-03   |Residual|: 1.211e-02   |deigs|: 3.059e-03  t[s]:     90.58
	FillingsUpdate:  mu: -0.125760041  nElectrons: 342.000000
SCF: Cycle: 14   F: -677.746102286320365   dF: -1.916e-04   |Residual|: 1.106e-02   |deigs|: 1.696e-03  t[s]:     93.48
	FillingsUpdate:  mu: -0.122739696  nElectrons: 342.000000
SCF: Cycle: 15   F: -677.746470729850103   dF: -3.684e-04   |Residual|: 5.176e-03   |deigs|: 2.684e-03  t[s]:     96.36
	FillingsUpdate:  mu: -0.120704805  nElectrons: 342.000000
SCF: Cycle: 16   F: -677.746461445030832   dF: +9.285e-06   |Residual|: 6.279e-03   |deigs|: 1.838e-03  t[s]:     99.23
	FillingsUpdate:  mu: -0.117595427  nElectrons: 342.000000
SCF: Cycle: 17   F: -677.746491059459345   dF: -2.961e-05   |Residual|: 4.132e-03   |deigs|: 2.804e-03  t[s]:    102.12
	FillingsUpdate:  mu: -0.115740016  nElectrons: 342.000000
SCF: Cycle: 18   F: -677.746498070990469   dF: -7.012e-06   |Residual|: 3.455e-03   |deigs|: 1.973e-03  t[s]:    105.03
	FillingsUpdate:  mu: -0.114699245  nElectrons: 342.000000
SCF: Cycle: 19   F: -677.746507080199876   dF: -9.009e-06   |Residual|: 2.514e-03   |deigs|: 1.480e-03  t[s]:    107.95
	FillingsUpdate:  mu: -0.113388673  nElectrons: 342.000000
SCF: Cycle: 20   F: -677.746530654909407   dF: -2.357e-05   |Residual|: 1.475e-03   |deigs|: 1.815e-03  t[s]:    110.83
	FillingsUpdate:  mu: -0.112285609  nElectrons: 342.000000
SCF: Cycle: 21   F: -677.746544326467074   dF: -1.367e-05   |Residual|: 1.001e-03   |deigs|: 1.207e-03  t[s]:    113.73
	FillingsUpdate:  mu: -0.111897388  nElectrons: 342.000000
SCF: Cycle: 22   F: -677.746548311216316   dF: -3.985e-06   |Residual|: 1.218e-03   |deigs|: 4.526e-04  t[s]:    116.58
	FillingsUpdate:  mu: -0.111656975  nElectrons: 342.000000
SCF: Cycle: 23   F: -677.746550708209270   dF: -2.397e-06   |Residual|: 1.128e-03   |deigs|: 3.011e-04  t[s]:    119.44
	FillingsUpdate:  mu: -0.111436466  nElectrons: 342.000000
SCF: Cycle: 24   F: -677.746557007247247   dF: -6.299e-06   |Residual|: 7.871e-04   |deigs|: 6.599e-04  t[s]:    122.34
	FillingsUpdate:  mu: -0.111280618  nElectrons: 342.000000
SCF: Cycle: 25   F: -677.746559358622903   dF: -2.351e-06   |Residual|: 5.443e-04   |deigs|: 4.422e-04  t[s]:    125.22
	FillingsUpdate:  mu: -0.111251071  nElectrons: 342.000000
SCF: Cycle: 26   F: -677.746560199485884   dF: -8.409e-07   |Residual|: 5.377e-04   |deigs|: 2.436e-04  t[s]:    128.13
	FillingsUpdate:  mu: -0.111281999  nElectrons: 342.000000
SCF: Cycle: 27   F: -677.746562344956374   dF: -2.145e-06   |Residual|: 2.300e-04   |deigs|: 3.530e-04  t[s]:    131.01
	FillingsUpdate:  mu: -0.111314118  nElectrons: 342.000000
SCF: Cycle: 28   F: -677.746563106441499   dF: -7.615e-07   |Residual|: 1.804e-04   |deigs|: 2.678e-04  t[s]:    133.91
	FillingsUpdate:  mu: -0.111324247  nElectrons: 342.000000
SCF: Cycle: 29   F: -677.746563641169814   dF: -5.347e-07   |Residual|: 1.306e-04   |deigs|: 2.107e-04  t[s]:    136.78
	FillingsUpdate:  mu: -0.111315905  nElectrons: 342.000000
SCF: Cycle: 30   F: -677.746563910906730   dF: -2.697e-07   |Residual|: 9.825e-05   |deigs|: 1.658e-04  t[s]:    139.71
	FillingsUpdate:  mu: -0.111288674  nElectrons: 342.000000
SCF: Cycle: 31   F: -677.746563963499511   dF: -5.259e-08   |Residual|: 8.571e-05   |deigs|: 2.626e-04  t[s]:    142.61
	FillingsUpdate:  mu: -0.111258640  nElectrons: 342.000000
SCF: Cycle: 32   F: -677.746563980992050   dF: -1.749e-08   |Residual|: 8.506e-05   |deigs|: 2.128e-04  t[s]:    145.48
	FillingsUpdate:  mu: -0.111222387  nElectrons: 342.000000
SCF: Cycle: 33   F: -677.746564012576300   dF: -3.158e-08   |Residual|: 4.818e-05   |deigs|: 2.058e-04  t[s]:    148.37
	FillingsUpdate:  mu: -0.111202861  nElectrons: 342.000000
SCF: Cycle: 34   F: -677.746564016150501   dF: -3.574e-09   |Residual|: 4.553e-05   |deigs|: 1.659e-04  t[s]:    151.30
	FillingsUpdate:  mu: -0.111188100  nElectrons: 342.000000
SCF: Cycle: 35   F: -677.746564026317515   dF: -1.017e-08   |Residual|: 2.887e-05   |deigs|: 1.388e-04  t[s]:    154.19
	FillingsUpdate:  mu: -0.111179033  nElectrons: 342.000000
SCF: Cycle: 36   F: -677.746564024456234   dF: +1.861e-09   |Residual|: 4.029e-05   |deigs|: 1.119e-04  t[s]:    161.22
	FillingsUpdate:  mu: -0.111173963  nElectrons: 342.000000
SCF: Cycle: 37   F: -677.746564030584977   dF: -6.129e-09   |Residual|: 2.420e-05   |deigs|: 3.457e-05  t[s]:    164.12
	FillingsUpdate:  mu: -0.111165111  nElectrons: 342.000000
SCF: Cycle: 38   F: -677.746564033682148   dF: -3.097e-09   |Residual|: 1.818e-05   |deigs|: 9.909e-05  t[s]:    167.68
SCF: Converged (|Delta E|<1.000000e-08 for 2 iters).

Setting wave functions to eigenvectors of Hamiltonian
Vacuum energy after initial minimize, F = -677.746564033682148


-------- Electronic minimization -----------
Will mix electronic density at each iteration.
	FillingsUpdate:  mu: -0.111165111  nElectrons: 342.000000
	Linear fluid (dielectric constant: 7.2) occupying 0.842632 of unit cell:	Completed after 13 iterations at t[s]:    168.53
	FillingsUpdate:  mu: -0.114262912  nElectrons: 342.000000
	Linear fluid (dielectric constant: 7.2) occupying 0.842813 of unit cell:	Completed after 10 iterations at t[s]:    172.55
SCF: Cycle:  0   F: -677.778056638564635   dF: -2.901e-03   |Residual|: 1.688e-02   |deigs|: 3.823e-03  t[s]:    172.72
	Linear fluid (dielectric constant: 7.2) occupying 0.842792 of unit cell:	Completed after 10 iterations at t[s]:    172.95
	FillingsUpdate:  mu: -0.115187894  nElectrons: 342.000000
	Linear fluid (dielectric constant: 7.2) occupying 0.843089 of unit cell:	Completed after 10 iterations at t[s]:    176.15
SCF: Cycle:  1   F: -677.771868103250426   dF: +6.189e-03   |Residual|: 5.462e-02   |deigs|: 9.520e-04  t[s]:    176.32
	Linear fluid (dielectric constant: 7.2) occupying 0.842784 of unit cell:	Completed after 10 iterations at t[s]:    176.54
	FillingsUpdate:  mu: -0.113871556  nElectrons: 342.000000
	Linear fluid (dielectric constant: 7.2) occupying 0.843068 of unit cell:	Completed after 10 iterations at t[s]:    179.62
SCF: Cycle:  2   F: -677.777523657813617   dF: -5.656e-03   |Residual|: 3.171e-02   |deigs|: 8.504e-04  t[s]:    179.79
	Linear fluid (dielectric constant: 7.2) occupying 0.842880 of unit cell:	Completed after 9 iterations at t[s]:    179.99
	FillingsUpdate:  mu: -0.114323515  nElectrons: 342.000000
	Linear fluid (dielectric constant: 7.2) occupying 0.842996 of unit cell:	Completed after 10 iterations at t[s]:    183.52
SCF: Cycle:  3   F: -677.780599174511167   dF: -3.076e-03   |Residual|: 4.740e-03   |deigs|: 7.522e-04  t[s]:    183.69
	Linear fluid (dielectric constant: 7.2) occupying 0.842844 of unit cell:	Completed after 9 iterations at t[s]:    183.90
	FillingsUpdate:  mu: -0.114147040  nElectrons: 342.000000
	Linear fluid (dielectric constant: 7.2) occupying 0.843395 of unit cell:	Completed after 10 iterations at t[s]:    187.40
SCF: Cycle:  4   F: -677.781064018733787   dF: -4.648e-04   |Residual|: 3.798e-03   |deigs|: 1.208e-03  t[s]:    187.58
	Linear fluid (dielectric constant: 7.2) occupying 0.842875 of unit cell:	Completed after 9 iterations at t[s]:    187.80
	FillingsUpdate:  mu: -0.113967409  nElectrons: 342.000000
	Linear fluid (dielectric constant: 7.2) occupying 0.841976 of unit cell:	Completed after 9 iterations at t[s]:    191.29
SCF: Cycle:  5   F: -677.773871008374954   dF: +7.193e-03   |Residual|: 5.395e-03   |deigs|: 1.468e-03  t[s]:    191.45
	Linear fluid (dielectric constant: 7.2) occupying 0.842781 of unit cell:	Completed after 9 iterations at t[s]:    191.66
	FillingsUpdate:  mu: -0.113807802  nElectrons: 342.000000
	Linear fluid (dielectric constant: 7.2) occupying 0.843564 of unit cell:	Completed after 9 iterations at t[s]:    194.99
SCF: Cycle:  6   F: -677.781568907788255   dF: -7.698e-03   |Residual|: 2.327e-03   |deigs|: 1.699e-03  t[s]:    195.16
	Linear fluid (dielectric constant: 7.2) occupying 0.842866 of unit cell:	Completed after 8 iterations at t[s]:    195.36
	FillingsUpdate:  mu: -0.113565203  nElectrons: 342.000000
	Linear fluid (dielectric constant: 7.2) occupying 0.843593 of unit cell:	Completed after 9 iterations at t[s]:    198.86
SCF: Cycle:  7   F: -677.781883944544802   dF: -3.150e-04   |Residual|: 2.079e-03   |deigs|: 4.024e-04  t[s]:    199.04
	Linear fluid (dielectric constant: 7.2) occupying 0.843110 of unit cell:	Completed after 8 iterations at t[s]:    199.22
	FillingsUpdate:  mu: -0.113200419  nElectrons: 342.000000
	Linear fluid (dielectric constant: 7.2) occupying 0.843354 of unit cell:	Completed after 8 iterations at t[s]:    202.73
SCF: Cycle:  8   F: -677.782322147206742   dF: -4.382e-04   |Residual|: 2.237e-03   |deigs|: 1.369e-03  t[s]:    202.90
	Linear fluid (dielectric constant: 7.2) occupying 0.843338 of unit cell:	Completed after 8 iterations at t[s]:    203.09
	FillingsUpdate:  mu: -0.112834106  nElectrons: 342.000000
	Linear fluid (dielectric constant: 7.2) occupying 0.843402 of unit cell:	Completed after 8 iterations at t[s]:    206.59
SCF: Cycle:  9   F: -677.782594780758473   dF: -2.726e-04   |Residual|: 4.406e-03   |deigs|: 9.762e-04  t[s]:    206.76
	Linear fluid (dielectric constant: 7.2) occupying 0.843344 of unit cell:	Completed after 8 iterations at t[s]:    206.96
	FillingsUpdate:  mu: -0.112818677  nElectrons: 342.000000
	Linear fluid (dielectric constant: 7.2) occupying 0.843409 of unit cell:	Completed after 8 iterations at t[s]:    210.00
SCF: Cycle: 10   F: -677.782599739712964   dF: -4.959e-06   |Residual|: 4.501e-03   |deigs|: 2.683e-04  t[s]:    210.17
	Linear fluid (dielectric constant: 7.2) occupying 0.843305 of unit cell:	Completed after 8 iterations at t[s]:    210.37
	FillingsUpdate:  mu: -0.112929803  nElectrons: 342.000000
	Linear fluid (dielectric constant: 7.2) occupying 0.843173 of unit cell:	Completed after 8 iterations at t[s]:    213.86
SCF: Cycle: 11   F: -677.782260128793155   dF: +3.396e-04   |Residual|: 3.030e-03   |deigs|: 1.138e-03  t[s]:    214.04
	Linear fluid (dielectric constant: 7.2) occupying 0.843325 of unit cell:	Completed after 8 iterations at t[s]:    214.23
	FillingsUpdate:  mu: -0.112778309  nElectrons: 342.000000
	Linear fluid (dielectric constant: 7.2) occupying 0.843252 of unit cell:	Completed after 7 iterations at t[s]:    217.69
SCF: Cycle: 12   F: -677.782190210505632   dF: +6.992e-05   |Residual|: 1.440e-03   |deigs|: 8.456e-04  t[s]:    217.86
	Linear fluid (dielectric constant: 7.2) occupying 0.843231 of unit cell:	Completed after 8 iterations at t[s]:    218.07
	FillingsUpdate:  mu: -0.112652084  nElectrons: 342.000000
	Linear fluid (dielectric constant: 7.2) occupying 0.843531 of unit cell:	Completed after 7 iterations at t[s]:    221.54
SCF: Cycle: 13   F: -677.782657388183566   dF: -4.672e-04   |Residual|: 2.275e-03   |deigs|: 7.971e-04  t[s]:    221.71
	Linear fluid (dielectric constant: 7.2) occupying 0.843242 of unit cell:	Completed after 8 iterations at t[s]:    221.91
	FillingsUpdate:  mu: -0.112639992  nElectrons: 342.000000
	Linear fluid (dielectric constant: 7.2) occupying 0.843027 of unit cell:	Completed after 7 iterations at t[s]:    225.37
SCF: Cycle: 14   F: -677.781377134957324   dF: +1.280e-03   |Residual|: 2.621e-03   |deigs|: 8.632e-04  t[s]:    225.54
	Linear fluid (dielectric constant: 7.2) occupying 0.843212 of unit cell:	Completed after 7 iterations at t[s]:    225.72
	FillingsUpdate:  mu: -0.112603079  nElectrons: 342.000000
	Linear fluid (dielectric constant: 7.2) occupying 0.843461 of unit cell:	Completed after 7 iterations at t[s]:    228.79
SCF: Cycle: 15   F: -677.782749172248373   dF: -1.372e-03   |Residual|: 2.924e-03   |deigs|: 8.585e-04  t[s]:    228.96
	Linear fluid (dielectric constant: 7.2) occupying 0.843240 of unit cell:	Completed after 7 iterations at t[s]:    229.15
	FillingsUpdate:  mu: -0.112568307  nElectrons: 342.000000
	Linear fluid (dielectric constant: 7.2) occupying 0.843416 of unit cell:	Completed after 7 iterations at t[s]:    232.28
SCF: Cycle: 16   F: -677.782698679037708   dF: +5.049e-05   |Residual|: 1.303e-03   |deigs|: 6.099e-04  t[s]:    232.46
	Linear fluid (dielectric constant: 7.2) occupying 0.843225 of unit cell:	Completed after 7 iterations at t[s]:    232.64
	FillingsUpdate:  mu: -0.112624698  nElectrons: 342.000000
	Linear fluid (dielectric constant: 7.2) occupying 0.843347 of unit cell:	Completed after 7 iterations at t[s]:    235.78
SCF: Cycle: 17   F: -677.782732747711634   dF: -3.407e-05   |Residual|: 1.333e-03   |deigs|: 5.752e-04  t[s]:    235.95
	Linear fluid (dielectric constant: 7.2) occupying 0.843168 of unit cell:	Completed after 6 iterations at t[s]:    236.13
	FillingsUpdate:  mu: -0.112651507  nElectrons: 342.000000
	Linear fluid (dielectric constant: 7.2) occupying 0.843416 of unit cell:	Completed after 7 iterations at t[s]:    239.17
SCF: Cycle: 18   F: -677.782758733792434   dF: -2.599e-05   |Residual|: 1.826e-03   |deigs|: 1.156e-03  t[s]:    239.33
	Linear fluid (dielectric constant: 7.2) occupying 0.843201 of unit cell:	Completed after 7 iterations at t[s]:    239.53
	FillingsUpdate:  mu: -0.112575788  nElectrons: 342.000000
	Linear fluid (dielectric constant: 7.2) occupying 0.843410 of unit cell:	Completed after 7 iterations at t[s]:    242.58
SCF: Cycle: 19   F: -677.782762883464898   dF: -4.150e-06   |Residual|: 1.485e-03   |deigs|: 6.376e-04  t[s]:    242.75
	Linear fluid (dielectric constant: 7.2) occupying 0.843226 of unit cell:	Completed after 8 iterations at t[s]:    242.94
	FillingsUpdate:  mu: -0.112535356  nElectrons: 342.000000
	Linear fluid (dielectric constant: 7.2) occupying 0.843366 of unit cell:	Completed after 7 iterations at t[s]:    245.97
SCF: Cycle: 20   F: -677.782745563299045   dF: +1.732e-05   |Residual|: 1.041e-03   |deigs|: 2.145e-04  t[s]:    246.14
	Linear fluid (dielectric constant: 7.2) occupying 0.843258 of unit cell:	Completed after 7 iterations at t[s]:    246.33
	FillingsUpdate:  mu: -0.112610397  nElectrons: 342.000000
	Linear fluid (dielectric constant: 7.2) occupying 0.843369 of unit cell:	Completed after 7 iterations at t[s]:    249.48
SCF: Cycle: 21   F: -677.782844526465396   dF: -9.896e-05   |Residual|: 8.319e-04   |deigs|: 5.706e-04  t[s]:    249.65
	Linear fluid (dielectric constant: 7.2) occupying 0.843265 of unit cell:	Completed after 7 iterations at t[s]:    249.83
	FillingsUpdate:  mu: -0.112621672  nElectrons: 342.000000
	Linear fluid (dielectric constant: 7.2) occupying 0.843227 of unit cell:	Completed after 7 iterations at t[s]:    252.88
SCF: Cycle: 22   F: -677.782962194770789   dF: -1.177e-04   |Residual|: 9.385e-04   |deigs|: 6.846e-04  t[s]:    253.05
	Linear fluid (dielectric constant: 7.2) occupying 0.843258 of unit cell:	Completed after 7 iterations at t[s]:    253.24
	FillingsUpdate:  mu: -0.112612369  nElectrons: 342.000000
	Linear fluid (dielectric constant: 7.2) occupying 0.843340 of unit cell:	Completed after 7 iterations at t[s]:    256.26
SCF: Cycle: 23   F: -677.782816035871747   dF: +1.462e-04   |Residual|: 7.196e-04   |deigs|: 6.005e-04  t[s]:    256.43
	Linear fluid (dielectric constant: 7.2) occupying 0.843237 of unit cell:	Completed after 7 iterations at t[s]:    256.63
	FillingsUpdate:  mu: -0.112639292  nElectrons: 342.000000
	Linear fluid (dielectric constant: 7.2) occupying 0.843293 of unit cell:	Completed after 7 iterations at t[s]:    259.69
SCF: Cycle: 24   F: -677.782638541831261   dF: +1.775e-04   |Residual|: 4.624e-04   |deigs|: 7.386e-04  t[s]:    259.86
	Linear fluid (dielectric constant: 7.2) occupying 0.843206 of unit cell:	Completed after 6 iterations at t[s]:    260.03
	FillingsUpdate:  mu: -0.112654363  nElectrons: 342.000000
	Linear fluid (dielectric constant: 7.2) occupying 0.843441 of unit cell:	Completed after 6 iterations at t[s]:    263.08
SCF: Cycle: 25   F: -677.782712393857764   dF: -7.385e-05   |Residual|: 1.090e-03   |deigs|: 7.604e-04  t[s]:    263.25
	Linear fluid (dielectric constant: 7.2) occupying 0.843204 of unit cell:	Completed after 6 iterations at t[s]:    263.42
	FillingsUpdate:  mu: -0.112703128  nElectrons: 342.000000
	Linear fluid (dielectric constant: 7.2) occupying 0.843390 of unit cell:	Completed after 5 iterations at t[s]:    266.47
SCF: Cycle: 26   F: -677.782717998853173   dF: -5.605e-06   |Residual|: 1.122e-03   |deigs|: 3.635e-04  t[s]:    266.63
	Linear fluid (dielectric constant: 7.2) occupying 0.843197 of unit cell:	Completed after 6 iterations at t[s]:    266.81
	FillingsUpdate:  mu: -0.112694336  nElectrons: 342.000000
	Linear fluid (dielectric constant: 7.2) occupying 0.843398 of unit cell:	Completed after 6 iterations at t[s]:    269.77
SCF: Cycle: 27   F: -677.782715363445163   dF: +2.635e-06   |Residual|: 1.233e-03   |deigs|: 4.946e-05  t[s]:    269.94
	Linear fluid (dielectric constant: 7.2) occupying 0.843199 of unit cell:	Completed after 6 iterations at t[s]:    270.12
	FillingsUpdate:  mu: -0.112699486  nElectrons: 342.000000
	Linear fluid (dielectric constant: 7.2) occupying 0.843397 of unit cell:	Completed after 6 iterations at t[s]:    273.09
SCF: Cycle: 28   F: -677.782712747007395   dF: +2.616e-06   |Residual|: 1.221e-03   |deigs|: 2.456e-05  t[s]:    273.24
	Linear fluid (dielectric constant: 7.2) occupying 0.843195 of unit cell:	Completed after 5 iterations at t[s]:    273.41
	FillingsUpdate:  mu: -0.112704364  nElectrons: 342.000000
	Linear fluid (dielectric constant: 7.2) occupying 0.843406 of unit cell:	Completed after 6 iterations at t[s]:    276.37
SCF: Cycle: 29   F: -677.782711800200332   dF: +9.468e-07   |Residual|: 1.207e-03   |deigs|: 4.241e-05  t[s]:    276.53
	Linear fluid (dielectric constant: 7.2) occupying 0.843195 of unit cell:	Completed after 5 iterations at t[s]:    276.70
	FillingsUpdate:  mu: -0.112706124  nElectrons: 342.000000
	Linear fluid (dielectric constant: 7.2) occupying 0.843394 of unit cell:	Completed after 6 iterations at t[s]:    279.75
SCF: Cycle: 30   F: -677.782712791118115   dF: -9.909e-07   |Residual|: 1.124e-03   |deigs|: 6.176e-05  t[s]:    279.91
	Linear fluid (dielectric constant: 7.2) occupying 0.843223 of unit cell:	Completed after 7 iterations at t[s]:    280.10
	FillingsUpdate:  mu: -0.112677077  nElectrons: 342.000000
	Linear fluid (dielectric constant: 7.2) occupying 0.843331 of unit cell:	Completed after 6 iterations at t[s]:    283.55
SCF: Cycle: 31   F: -677.782741178372930   dF: -2.839e-05   |Residual|: 6.869e-04   |deigs|: 3.837e-04  t[s]:    283.71
	Linear fluid (dielectric constant: 7.2) occupying 0.843251 of unit cell:	Completed after 7 iterations at t[s]:    283.90
	FillingsUpdate:  mu: -0.112682089  nElectrons: 342.000000
	Linear fluid (dielectric constant: 7.2) occupying 0.843275 of unit cell:	Completed after 6 iterations at t[s]:    286.91
SCF: Cycle: 32   F: -677.782621931278413   dF: +1.192e-04   |Residual|: 5.836e-04   |deigs|: 6.532e-04  t[s]:    287.08
	Linear fluid (dielectric constant: 7.2) occupying 0.843277 of unit cell:	Completed after 6 iterations at t[s]:    287.24
	FillingsUpdate:  mu: -0.112723684  nElectrons: 342.000000
	Linear fluid (dielectric constant: 7.2) occupying 0.843396 of unit cell:	Completed after 5 iterations at t[s]:    290.34
SCF: Cycle: 33   F: -677.782804027537054   dF: -1.821e-04   |Residual|: 1.182e-03   |deigs|: 5.456e-04  t[s]:    290.50
	Linear fluid (dielectric constant: 7.2) occupying 0.843280 of unit cell:	Completed after 5 iterations at t[s]:    290.66
	FillingsUpdate:  mu: -0.112721689  nElectrons: 342.000000
	Linear fluid (dielectric constant: 7.2) occupying 0.843332 of unit cell:	Completed after 5 iterations at t[s]:    293.69
SCF: Cycle: 34   F: -677.782821749997197   dF: -1.772e-05   |Residual|: 9.100e-04   |deigs|: 3.987e-04  t[s]:    293.85
	Linear fluid (dielectric constant: 7.2) occupying 0.843284 of unit cell:	Completed after 6 iterations at t[s]:    294.03
	FillingsUpdate:  mu: -0.112720691  nElectrons: 342.000000
	Linear fluid (dielectric constant: 7.2) occupying 0.843306 of unit cell:	Completed after 5 iterations at t[s]:    297.02
SCF: Cycle: 35   F: -677.782986805461974   dF: -1.651e-04   |Residual|: 1.038e-03   |deigs|: 4.668e-04  t[s]:    297.18
	Linear fluid (dielectric constant: 7.2) occupying 0.843277 of unit cell:	Completed after 5 iterations at t[s]:    297.34
	FillingsUpdate:  mu: -0.112738813  nElectrons: 342.000000
	Linear fluid (dielectric constant: 7.2) occupying 0.843051 of unit cell:	Completed after 6 iterations at t[s]:    300.34
SCF: Cycle: 36   F: -677.781918464391310   dF: +1.068e-03   |Residual|: 1.234e-03   |deigs|: 3.374e-04  t[s]:    300.51
	Linear fluid (dielectric constant: 7.2) occupying 0.843242 of unit cell:	Completed after 6 iterations at t[s]:    300.68
	FillingsUpdate:  mu: -0.112709988  nElectrons: 342.000000
	Linear fluid (dielectric constant: 7.2) occupying 0.843346 of unit cell:	Completed after 5 iterations at t[s]:    303.69
SCF: Cycle: 37   F: -677.782746914896620   dF: -8.285e-04   |Residual|: 5.929e-04   |deigs|: 1.268e-03  t[s]:    303.85
	Linear fluid (dielectric constant: 7.2) occupying 0.843224 of unit cell:	Completed after 6 iterations at t[s]:    304.02
	FillingsUpdate:  mu: -0.112704679  nElectrons: 342.000000
	Linear fluid (dielectric constant: 7.2) occupying 0.843344 of unit cell:	Completed after 5 iterations at t[s]:    307.05
SCF: Cycle: 38   F: -677.782755041343535   dF: -8.126e-06   |Residual|: 1.275e-03   |deigs|: 2.557e-04  t[s]:    307.21
	Linear fluid (dielectric constant: 7.2) occupying 0.843234 of unit cell:	Completed after 6 iterations at t[s]:    307.40
	FillingsUpdate:  mu: -0.112702035  nElectrons: 342.000000
	Linear fluid (dielectric constant: 7.2) occupying 0.843350 of unit cell:	Completed after 5 iterations at t[s]:    310.38
SCF: Cycle: 39   F: -677.782767423221571   dF: -1.238e-05   |Residual|: 1.336e-03   |deigs|: 4.824e-05  t[s]:    310.54
	Linear fluid (dielectric constant: 7.2) occupying 0.843258 of unit cell:	Completed after 5 iterations at t[s]:    310.71
	FillingsUpdate:  mu: -0.112700605  nElectrons: 342.000000
	Linear fluid (dielectric constant: 7.2) occupying 0.843373 of unit cell:	Completed after 5 iterations at t[s]:    313.71
SCF: Cycle: 40   F: -677.782798533008304   dF: -3.111e-05   |Residual|: 1.574e-03   |deigs|: 2.548e-04  t[s]:    313.87
	Linear fluid (dielectric constant: 7.2) occupying 0.843242 of unit cell:	Completed after 5 iterations at t[s]:    314.04
	FillingsUpdate:  mu: -0.112713245  nElectrons: 342.000000
	Linear fluid (dielectric constant: 7.2) occupying 0.843346 of unit cell:	Completed after 5 iterations at t[s]:    317.01
SCF: Cycle: 41   F: -677.782767086539479   dF: +3.145e-05   |Residual|: 1.391e-03   |deigs|: 2.487e-04  t[s]:    317.17
	Linear fluid (dielectric constant: 7.2) occupying 0.843242 of unit cell:	Completed after 6 iterations at t[s]:    317.35
	FillingsUpdate:  mu: -0.112709993  nElectrons: 342.000000
	Linear fluid (dielectric constant: 7.2) occupying 0.843336 of unit cell:	Completed after 5 iterations at t[s]:    320.22
SCF: Cycle: 42   F: -677.782751360272755   dF: +1.573e-05   |Residual|: 1.375e-03   |deigs|: 4.924e-05  t[s]:    320.38
	Linear fluid (dielectric constant: 7.2) occupying 0.843245 of unit cell:	Completed after 6 iterations at t[s]:    320.56
	FillingsUpdate:  mu: -0.112707998  nElectrons: 342.000000
	Linear fluid (dielectric constant: 7.2) occupying 0.843323 of unit cell:	Completed after 5 iterations at t[s]:    323.42
SCF: Cycle: 43   F: -677.782728815785276   dF: +2.254e-05   |Residual|: 1.456e-03   |deigs|: 5.774e-05  t[s]:    323.58
	Linear fluid (dielectric constant: 7.2) occupying 0.843242 of unit cell:	Completed after 6 iterations at t[s]:    323.75
	FillingsUpdate:  mu: -0.112724726  nElectrons: 342.000000
	Linear fluid (dielectric constant: 7.2) occupying 0.843289 of unit cell:	Completed after 6 iterations at t[s]:    326.79
SCF: Cycle: 44   F: -677.782642940921050   dF: +8.587e-05   |Residual|: 1.285e-03   |deigs|: 1.154e-04  t[s]:    326.96
	Linear fluid (dielectric constant: 7.2) occupying 0.843243 of unit cell:	Completed after 6 iterations at t[s]:    327.13
	FillingsUpdate:  mu: -0.112725822  nElectrons: 342.000000
	Linear fluid (dielectric constant: 7.2) occupying 0.843323 of unit cell:	Completed after 6 iterations at t[s]:    330.17
SCF: Cycle: 45   F: -677.782734689397898   dF: -9.175e-05   |Residual|: 1.313e-03   |deigs|: 9.730e-05  t[s]:    330.34
	Linear fluid (dielectric constant: 7.2) occupying 0.843240 of unit cell:	Completed after 6 iterations at t[s]:    330.52
	FillingsUpdate:  mu: -0.112750115  nElectrons: 342.000000
	Linear fluid (dielectric constant: 7.2) occupying 0.843211 of unit cell:	Completed after 6 iterations at t[s]:    333.57
SCF: Cycle: 46   F: -677.782387798562468   dF: +3.469e-04   |Residual|: 1.799e-03   |deigs|: 4.829e-04  t[s]:    333.74
	Linear fluid (dielectric constant: 7.2) occupying 0.843256 of unit cell:	Completed after 6 iterations at t[s]:    333.94
	FillingsUpdate:  mu: -0.112760667  nElectrons: 342.000000
	Linear fluid (dielectric constant: 7.2) occupying 0.843344 of unit cell:	Completed after 6 iterations at t[s]:    337.07
SCF: Cycle: 47   F: -677.782882083244772   dF: -4.943e-04   |Residual|: 2.473e-03   |deigs|: 6.156e-04  t[s]:    337.23
	Linear fluid (dielectric constant: 7.2) occupying 0.843249 of unit cell:	Completed after 6 iterations at t[s]:    337.41
	FillingsUpdate:  mu: -0.112779051  nElectrons: 342.000000
	Linear fluid (dielectric constant: 7.2) occupying 0.843365 of unit cell:	Completed after 6 iterations at t[s]:    340.45
SCF: Cycle: 48   F: -677.782864303589918   dF: +1.778e-05   |Residual|: 3.148e-03   |deigs|: 1.047e-04  t[s]:    340.62
	Linear fluid (dielectric constant: 7.2) occupying 0.843253 of unit cell:	Completed after 6 iterations at t[s]:    340.79
	FillingsUpdate:  mu: -0.112774577  nElectrons: 342.000000
	Linear fluid (dielectric constant: 7.2) occupying 0.843366 of unit cell:	Completed after 6 iterations at t[s]:    343.81
SCF: Cycle: 49   F: -677.782870476613880   dF: -6.173e-06   |Residual|: 2.919e-03   |deigs|: 1.852e-05  t[s]:    343.97
	Linear fluid (dielectric constant: 7.2) occupying 0.843258 of unit cell:	Completed after 7 iterations at t[s]:    344.15
Setting wave functions to eigenvectors of Hamiltonian
Single-point solvation energy estimate, DeltaF = -0.019061331774765

# Ionic positions in cartesian coordinates:
ion C   0.000000000000000   0.000000000000000   1.000007321400000 0
ion C  -2.333835447300000   4.042302545699999   1.000007321400000 0
ion C  11.669120544600000  20.211531625799999   1.000007321400000 0
ion C   4.667689791900001   0.000000000000000   1.000007321400000 0
ion C  23.338297781100000   0.000000000000000   1.000007321400000 0
ion C   2.333816549999999   4.042302545699999   1.000007321400000 0
ion C -11.669158339200004  20.211531625799999   1.000007321400000 0
ion C  -4.667670894600000   8.084623988700001   1.000007321400000 0
ion C   9.335303994599997  16.169229080099999   1.000007321400000 0
ion C   9.335322891900001   0.000000000000000   1.000007321400000 0
ion C  18.670626886499999   0.000000000000000   1.000007321400000 0
ion C  -9.335322891900001  16.169229080099999   1.000007321400000 0
ion C  -7.001487444600000  12.126907637100000   1.000007321400000 0
ion C  14.002993786499999   0.000000000000000   1.000007321400000 0
ion C   0.000000000000000   8.084623988700001   1.000007321400000 0
ion C   7.001487444599997  20.211531625799999   1.000007321400000 0
ion C  -7.001487444600005  20.211531625799999   1.000007321400000 0
ion C  -2.333816549999999  12.126907637100000   1.000007321400000 0
ion C   4.667670894600002  16.169229080099999   1.000007321400000 0
ion C  -2.333816550000000  20.211531625799999   1.000007321400000 0
ion C   2.333816550000000  20.211531625799999   1.000007321400000 0
ion C  -4.667651997299996  16.169229080099999   1.000007321400000 0
ion C   7.001487444600000   4.042302545699999   1.000007321400000 0
ion C  21.004424539199999   4.042302545699999   1.000007321400000 0
ion C  14.002955991899999  16.169229080099999   1.000007321400000 0
ion C   0.000000000000000  16.169229080099999   1.000007321400000 0
ion C  11.669120544600000   4.042302545699999   1.000007321400000 0
ion C  18.670607989199997   8.084623988700001   1.000007321400000 0
ion C  11.669120544599998  12.126907637100000   1.000007321400000 0
ion C  16.336791439199999  12.126907637100000   1.000007321400000 0
ion C  16.336791439199999   4.042302545699999   1.000007321400000 0
ion C   9.335303994599997   8.084623988700001   1.000007321400000 0
ion C  14.002955991899999   8.084623988700001   1.000007321400000 0
ion C   0.000000000000000   2.694868363800000   1.000007321400000 0
ion C  11.669120544600000  22.906399989600001   1.000007321400000 0
ion C -11.669120544600000  22.906399989600001   1.000007321400000 0
ion C  -2.333816550000000   6.737170909500000   1.000007321400000 0
ion C   9.335303994599995  18.864097443900000   1.000007321400000 0
ion C  -7.001487444600000  22.906399989600001   1.000007321400000 0
ion C   7.001487444600000  22.906399989600001   1.000007321400000 0
ion C   2.333816550000000   6.737170909500000   1.000007321400000 0
ion C  -9.335303994599998  18.864097443900000   1.000007321400000 0
ion C  -4.667670894599997  10.779473455200000   1.000007321400000 0
ion C  -2.333816550000000  22.906399989600001   1.000007321400000 0
ion C   2.333816550000000  22.906399989600001   1.000007321400000 0
ion C  -7.001487444600004  14.821794898200000   1.000007321400000 0
ion C   4.667670894600000   2.694868363800000   1.000007321400000 0
ion C  23.338259986499999   2.694868363800000   1.000007321400000 0
ion C  14.002974889199999  18.864097443900000   1.000007321400000 0
ion C   0.000000000000000  10.779473455200000   1.000007321400000 0
ion C   4.667670894600001  18.864097443900000   1.000007321400000 0
ion C  -4.667633100000004  18.864097443900000   1.000007321400000 0
ion C  -2.333816550000003  14.821794898200000   1.000007321400000 0
ion C   2.333816549999995  14.821794898200000   1.000007321400000 0
ion C  -0.000000000000005  18.864097443900000   1.000007321400000 0
ion C   9.335303994599998   2.694868363800000   1.000007321400000 0
ion C  21.004424539199999   6.737170909500000   1.000007321400000 0
ion C  11.669120544600000  14.821794898200000   1.000007321400000 0
ion C  16.336791439199999  14.821794898200000   1.000007321400000 0
ion C  18.670607989199997   2.694868363800000   1.000007321400000 0
ion C   7.001487444600001   6.737170909500000   1.000007321400000 0
ion C  14.002955991899999   2.694868363800000   1.000007321400000 0
ion C  18.670607989200004  10.779473455200000   1.000007321400000 0
ion C  11.669120544599998   6.737170909500000   1.000007321400000 0
ion C  16.336791439199999   6.737170909500000   1.000007321400000 0
ion C  14.002955991899999  10.779473455200000   1.000007321400000 0
ion N   4.667670894599999   8.084623988700001   1.000007321400000 0
ion N   2.333816549999999  12.126907637100000   1.000007321400000 0
ion N   7.001487444599997  14.821794898200000   1.000007321400000 0
ion N   9.335303994599997  10.779473455200000   1.000007321400000 0
ion Fe   5.837111407799997  11.454314935499999   1.000007321400000 0
ion S   5.468204798104988  11.362534507786290   5.336785219362401 1
ion S   8.070808428515150  13.504650156018911   7.430805225604459 1
ion S   9.853203388601669  11.184101881026494  10.093829239225848 1
ion S  12.833201592618561   9.175275240526799   8.508169628990180 1
ion Na   8.687030711533254   7.230359205990412   6.209972494311719 1
ion Na  13.380327782281922  13.410495232840686   5.793200734643123 1

# Forces in Cartesian coordinates:
force C   0.003827396050522  -0.000270577585060   0.000216731093270 0
force C   0.001157292819866  -0.001088048426001   0.000242979944011 0
force C   0.003204364895484  -0.001816223658291   0.000082028621159 0
force C   0.001539560042176   0.002390073386342   0.000211119166148 0
force C   0.001610291703490  -0.000444052955010   0.000250607579214 0
force C   0.004568221482444   0.001781186183639   0.000484615106548 0
force C   0.000723133503933  -0.000317791245041   0.000198494368475 0
force C  -0.000852075070599   0.001779633064422   0.000240826353636 0
force C  -0.037927129773501  -0.013970335291537   0.000109557551941 0
force C  -0.000996081553623  -0.000350827794006   0.000277956382428 0
force C  -0.000814707000327  -0.000156313777053   0.000245567564006 0
force C   0.001327042941575   0.001369748695596   0.000341052286311 0
force C   0.001917165135875   0.002901610595789   0.000136883479970 0
force C  -0.000498952229921  -0.000434895033562   0.000195449878195 0
force C   0.010666320548539   0.005810739762591   0.000416673713135 0
force C   0.002452999326777   0.001734138962248   0.000211095142910 0
force C   0.001701804958431   0.000295545602780   0.000254249497456 0
force C   0.004256185199052   0.004031928543364   0.000610840316836 0
force C   0.031538603285044   0.009028186359306   0.000549436632919 0
force C  -0.000111578232136  -0.000695594192529   0.000227375745587 0
force C  -0.003006921415397   0.000294168763528   0.000196594401858 0
force C   0.001979658866544  -0.000165479882028   0.000247198574367 0
force C   0.005200317149231   0.002421160566156   0.000074909108299 0
force C   0.001399941217525   0.000596245770798   0.000234612153382 0
force C  -0.000016179800411   0.001015195449309  -0.000909000153388 0
force C   0.006911454283750   0.001408880334858   0.000631957952776 0
force C   0.000075300228938  -0.002424934988235  -0.000241841994247 0
force C   0.001310162531057   0.002414164930474   0.000154680652420 0
force C  -0.031457311123022  -0.024091493765709  -0.001484687714864 0
force C   0.000629692062339   0.002817791434010  -0.000128402995462 0
force C  -0.001299581436600  -0.000489598525327   0.000217828412246 0
force C   0.022287464353150   0.022541178950612   0.000009479397522 0
force C   0.004670446195908  -0.000929364182401  -0.000147193483818 0
force C  -0.003106395545693   0.002418171717106   0.000221343098464 0
force C  -0.003612605975985   0.000062117227070   0.000241649380321 0
force C  -0.002418813128070   0.000086402549407   0.000251115576166 0
force C   0.002192423985879   0.000925152976669   0.000223358947863 0
force C  -0.005147735761492  -0.001829428543459   0.000366579389807 0
force C   0.000497288441656   0.000851848271471   0.000229680627481 0
force C  -0.000633697672123  -0.002137903242153   0.000234283013620 0
force C   0.033728670949703   0.014633164930830   0.000368536288586 0
force C  -0.001585389930428  -0.000937181866881   0.000140160453868 0
force C  -0.000127473497242  -0.004086383899302   0.000227119161595 0
force C   0.000557761170542   0.000081976168794   0.000221678357482 0
force C   0.000926292786487  -0.000234498705268   0.000213206698124 0
force C  -0.000589156961681  -0.001368210926609   0.000182573480865 0
force C  -0.002999076912306  -0.002590804970290   0.000116200091709 0
force C  -0.000569120088220   0.000640116979187   0.000265829373340 0
force C  -0.001157029974127   0.002475666140355   0.000277044362011 0
force C   0.030936279467618   0.023355049667980   0.000269808230444 0
force C  -0.004679706225703  -0.005842709394698   0.000585849559062 0
force C   0.000386113501128   0.000303934984779   0.000259938911337 0
force C  -0.002595799985315  -0.001689579858910   0.000178393304911 0
force C  -0.023317870799942  -0.023892890711212   0.000439050941733 0
force C   0.001205251303233   0.002649607397512   0.000183913884101 0
force C   0.001797162071269  -0.000928611201852  -0.000377268951141 0
force C   0.000220209044537  -0.000338606702763   0.000262457626932 0
force C  -0.012635936122918  -0.005794161504220  -0.000178856916732 0
force C   0.001275058296848  -0.000569620922697  -0.000299340311174 0
force C  -0.000920431472001  -0.000957507443556   0.000248600479144 0
force C  -0.031425623813471  -0.007605615790008   0.000200969935991 0
force C   0.001094045439058   0.001068248304865   0.000302828845591 0
force C  -0.000384160761492  -0.004509478632020   0.000351683550230 0
force C  -0.004778148130678  -0.003054754374391   0.000315755485219 0
force C  -0.003779373813486   0.000501689120238  -0.000070529802031 0
force C  -0.003320005295314  -0.004242742893434  -0.000328490947148 0
force N   0.024280834107686  -0.034298709422841  -0.011200792131280 0
force N  -0.020269619980747   0.040543253088085  -0.013010427821055 0
force N  -0.024453755666487   0.036231248820319  -0.010793224200926 0
force N   0.015886066581337  -0.037348616803132  -0.010331966600731 0
force Fe   0.001590658761195  -0.000430661937268   0.070267981049133 0
force S  -0.000283247013880   0.001776356127703   0.000130512066650 1
force S  -0.001266006340040  -0.000730739486734  -0.000458965143350 1
force S   0.001519913139298  -0.000626151046142  -0.000273279297139 1
force S  -0.000788536791432   0.000312321045650   0.002415583906756 1
force Na  -0.002025021120585  -0.005290631416081   0.002734327843952 1
force Na   0.003540295196203   0.004288408254382   0.003205245002402 1

# Energy components:
   A_diel =       -0.0456286206785498
   Eewald =     5388.4396513944566323
       EH =     5934.0165838804632585
     Eloc =   -12065.9043123692372319
      Enl =      -58.8019796592428037
      Exc =     -176.2501061422634905
 Exc_core =       10.4335678128360438
       KE =      290.4198198208604254
-------------------------------------
     Etot =     -677.6924038828061612
       TS =        0.0732214826507286
-------------------------------------
        F =     -677.7656253654569127

IonicMinimize: Iter:   0  F: -677.765625365456913  |grad|_K:  2.306e-03  alpha:  1.000e+00

#--- Lowdin population analysis ---
# oxidation-state C +0.041 +0.032 +0.033 +0.032 +0.035 +0.022 +0.032 +0.032 +0.139 +0.034 +0.036 +0.030 +0.040 +0.037 +0.008 +0.046 +0.040 +0.025 +0.128 +0.036 +0.033 +0.032 +0.018 +0.043 +0.015 +0.035 +0.022 +0.035 +0.104 +0.008 +0.036 +0.083 +0.041 +0.035 +0.041 +0.034 +0.048 +0.023 +0.034 +0.034 +0.144 +0.041 +0.036 +0.037 +0.038 +0.034 +0.040 +0.036 +0.026 +0.148 +0.034 +0.036 +0.048 +0.130 +0.033 +0.023 +0.035 -0.034 +0.006 +0.042 +0.087 +0.036 +0.039 +0.015 +0.035 -0.006
# oxidation-state N -0.130 -0.119 -0.121 -0.134
# oxidation-state Fe -0.011
# oxidation-state S -0.072 +0.011 +0.040 -0.539
# oxidation-state Na +0.821 +0.830


-------- Electronic minimization -----------
Will mix electronic density at each iteration.
	FillingsUpdate:  mu: -0.112774577  nElectrons: 342.000000
	Linear fluid (dielectric constant: 7.2) occupying 0.843362 of unit cell:	Completed after 7 iterations at t[s]:    346.73
	FillingsUpdate:  mu: -0.111452660  nElectrons: 342.000000
	Linear fluid (dielectric constant: 7.2) occupying 0.843291 of unit cell:	Completed after 9 iterations at t[s]:    350.44
SCF: Cycle:  0   F: -677.763237785291494   dF: +1.972e-02   |Residual|: 7.698e-02   |deigs|: 6.193e-04  t[s]:    350.61
	Linear fluid (dielectric constant: 7.2) occupying 0.843584 of unit cell:	Completed after 9 iterations at t[s]:    350.81
	FillingsUpdate:  mu: -0.119247116  nElectrons: 342.000000
	Linear fluid (dielectric constant: 7.2) occupying 0.843239 of unit cell:	Completed after 12 iterations at t[s]:    354.33
SCF: Cycle:  1   F: -677.109912152693937   dF: +6.533e-01   |Residual|: 4.934e-01   |deigs|: 6.583e-03  t[s]:    354.50
	Linear fluid (dielectric constant: 7.2) occupying 0.843435 of unit cell:	Completed after 12 iterations at t[s]:    354.74
	FillingsUpdate:  mu: -0.113324528  nElectrons: 342.000000
	Linear fluid (dielectric constant: 7.2) occupying 0.843222 of unit cell:	Completed after 7 iterations at t[s]:    358.19
SCF: Cycle:  2   F: -677.778608235293177   dF: -6.687e-01   |Residual|: 3.900e-02   |deigs|: 5.479e-03  t[s]:    358.37
	Linear fluid (dielectric constant: 7.2) occupying 0.843416 of unit cell:	Completed after 6 iterations at t[s]:    358.53
	FillingsUpdate:  mu: -0.112916129  nElectrons: 342.000000
	Linear fluid (dielectric constant: 7.2) occupying 0.843362 of unit cell:	Completed after 5 iterations at t[s]:    361.57
SCF: Cycle:  3   F: -677.782792707341400   dF: -4.184e-03   |Residual|: 1.096e-02   |deigs|: 4.822e-04  t[s]:    361.73
	Linear fluid (dielectric constant: 7.2) occupying 0.843423 of unit cell:	Completed after 5 iterations at t[s]:    361.90
	FillingsUpdate:  mu: -0.118670896  nElectrons: 342.000000
	Linear fluid (dielectric constant: 7.2) occupying 0.834050 of unit cell:	Completed after 17 iterations at t[s]:    365.13
SCF: Cycle:  4   F: -677.096773311438596   dF: +6.860e-01   |Residual|: 2.117e-01   |deigs|: 2.041e-03  t[s]:    365.30
	Linear fluid (dielectric constant: 7.2) occupying 0.843417 of unit cell:	Completed after 14 iterations at t[s]:    365.59
	FillingsUpdate:  mu: -0.113503621  nElectrons: 342.000000
	Linear fluid (dielectric constant: 7.2) occupying 0.839013 of unit cell:	Completed after 10 iterations at t[s]:    368.66
SCF: Cycle:  5   F: -677.738869808479876   dF: -6.421e-01   |Residual|: 1.975e-02   |deigs|: 1.127e-03  t[s]:    368.84
	Linear fluid (dielectric constant: 7.2) occupying 0.843419 of unit cell:	Completed after 11 iterations at t[s]:    369.06
	FillingsUpdate:  mu: -0.121307502  nElectrons: 342.000000
	Linear fluid (dielectric constant: 7.2) occupying 0.834743 of unit cell:	Completed after 18 iterations at t[s]:    372.32
SCF: Cycle:  6   F: -676.406096391885512   dF: +1.333e+00   |Residual|: 3.432e-01   |deigs|: 1.606e-03  t[s]:    372.49
	Linear fluid (dielectric constant: 7.2) occupying 0.843416 of unit cell:	Completed after 15 iterations at t[s]:    372.79
	FillingsUpdate:  mu: -0.121222561  nElectrons: 342.000000
	Linear fluid (dielectric constant: 7.2) occupying 0.834624 of unit cell:	Completed after 18 iterations at t[s]:    376.04
SCF: Cycle:  7   F: -676.388016268159731   dF: +1.808e-02   |Residual|: 3.520e-01   |deigs|: 5.042e-04  t[s]:    376.21
	Linear fluid (dielectric constant: 7.2) occupying 0.843415 of unit cell:	Completed after 15 iterations at t[s]:    376.50
	FillingsUpdate:  mu: -0.120456474  nElectrons: 342.000000
	Linear fluid (dielectric constant: 7.2) occupying 0.833846 of unit cell:	Completed after 18 iterations at t[s]:    379.78
SCF: Cycle:  8   F: -676.670361405564677   dF: -2.823e-01   |Residual|: 2.992e-01   |deigs|: 7.278e-04  t[s]:    379.95
	Linear fluid (dielectric constant: 7.2) occupying 0.843411 of unit cell:	Completed after 15 iterations at t[s]:    380.25
	FillingsUpdate:  mu: -0.112972289  nElectrons: 342.000000
	Linear fluid (dielectric constant: 7.2) occupying 0.841600 of unit cell:	Completed after 8 iterations at t[s]:    383.43
SCF: Cycle:  9   F: -677.773239268973953   dF: -1.103e+00   |Residual|: 4.477e-03   |deigs|: 1.611e-03  t[s]:    383.61
	Linear fluid (dielectric constant: 7.2) occupying 0.843350 of unit cell:	Completed after 9 iterations at t[s]:    383.82
	FillingsUpdate:  mu: -0.112805322  nElectrons: 342.000000
	Linear fluid (dielectric constant: 7.2) occupying 0.843441 of unit cell:	Completed after 5 iterations at t[s]:    386.96
SCF: Cycle: 10   F: -677.782741801089969   dF: -9.503e-03   |Residual|: 2.248e-03   |deigs|: 1.592e-03  t[s]:    387.12
	Linear fluid (dielectric constant: 7.2) occupying 0.843334 of unit cell:	Completed after 5 iterations at t[s]:    387.28
	FillingsUpdate:  mu: -0.112779736  nElectrons: 342.000000
	Linear fluid (dielectric constant: 7.2) occupying 0.843439 of unit cell:	Completed after 5 iterations at t[s]:    394.65
SCF: Cycle: 11   F: -677.782773529737597   dF: -3.173e-05   |Residual|: 7.206e-04   |deigs|: 7.377e-05  t[s]:    394.81
	Linear fluid (dielectric constant: 7.2) occupying 0.843329 of unit cell:	Completed after 5 iterations at t[s]:    395.01
	FillingsUpdate:  mu: -0.112793068  nElectrons: 342.000000
	Linear fluid (dielectric constant: 7.2) occupying 0.843429 of unit cell:	Completed after 4 iterations at t[s]:    397.99
SCF: Cycle: 12   F: -677.782800118589876   dF: -2.659e-05   |Residual|: 4.702e-04   |deigs|: 6.511e-05  t[s]:    398.15
	Linear fluid (dielectric constant: 7.2) occupying 0.843339 of unit cell:	Completed after 4 iterations at t[s]:    398.30
	FillingsUpdate:  mu: -0.112792777  nElectrons: 342.000000
	Linear fluid (dielectric constant: 7.2) occupying 0.843420 of unit cell:	Completed after 4 iterations at t[s]:    401.28
SCF: Cycle: 13   F: -677.782838983393276   dF: -3.886e-05   |Residual|: 3.418e-04   |deigs|: 1.213e-04  t[s]:    401.43
	Linear fluid (dielectric constant: 7.2) occupying 0.843354 of unit cell:	Completed after 4 iterations at t[s]:    401.58
	FillingsUpdate:  mu: -0.112793309  nElectrons: 342.000000
	Linear fluid (dielectric constant: 7.2) occupying 0.843398 of unit cell:	Completed after 4 iterations at t[s]:    404.53
SCF: Cycle: 14   F: -677.782895835959948   dF: -5.685e-05   |Residual|: 3.992e-04   |deigs|: 2.346e-04  t[s]:    404.69
	Linear fluid (dielectric constant: 7.2) occupying 0.843374 of unit cell:	Completed after 4 iterations at t[s]:    404.84
	FillingsUpdate:  mu: -0.112800999  nElectrons: 342.000000
	Linear fluid (dielectric constant: 7.2) occupying 0.843342 of unit cell:	Completed after 4 iterations at t[s]:    407.96
SCF: Cycle: 15   F: -677.782990763094745   dF: -9.493e-05   |Residual|: 4.065e-04   |deigs|: 5.352e-04  t[s]:    408.13
	Linear fluid (dielectric constant: 7.2) occupying 0.843376 of unit cell:	Completed after 4 iterations at t[s]:    408.27
	FillingsUpdate:  mu: -0.112802042  nElectrons: 342.000000
	Linear fluid (dielectric constant: 7.2) occupying 0.843356 of unit cell:	Completed after 4 iterations at t[s]:    411.20
SCF: Cycle: 16   F: -677.782993234430705   dF: -2.471e-06   |Residual|: 3.839e-04   |deigs|: 5.688e-05  t[s]:    411.36
	Linear fluid (dielectric constant: 7.2) occupying 0.843377 of unit cell:	Completed after 4 iterations at t[s]:    411.51
	FillingsUpdate:  mu: -0.112810027  nElectrons: 342.000000
	Linear fluid (dielectric constant: 7.2) occupying 0.843275 of unit cell:	Completed after 4 iterations at t[s]:    414.60
SCF: Cycle: 17   F: -677.782949658194184   dF: +4.358e-05   |Residual|: 4.636e-04   |deigs|: 5.270e-04  t[s]:    414.75
	Linear fluid (dielectric constant: 7.2) occupying 0.843376 of unit cell:	Completed after 5 iterations at t[s]:    414.91
	FillingsUpdate:  mu: -0.112809770  nElectrons: 342.000000
	Linear fluid (dielectric constant: 7.2) occupying 0.843273 of unit cell:	Completed after 4 iterations at t[s]:    417.84
SCF: Cycle: 18   F: -677.782989371926078   dF: -3.971e-05   |Residual|: 4.231e-04   |deigs|: 1.534e-04  t[s]:    418.00
	Linear fluid (dielectric constant: 7.2) occupying 0.843375 of unit cell:	Completed after 4 iterations at t[s]:    418.15
	FillingsUpdate:  mu: -0.112808989  nElectrons: 342.000000
	Linear fluid (dielectric constant: 7.2) occupying 0.843311 of unit cell:	Completed after 4 iterations at t[s]:    421.00
SCF: Cycle: 19   F: -677.783063098115008   dF: -7.373e-05   |Residual|: 3.533e-04   |deigs|: 1.072e-04  t[s]:    421.16
	Linear fluid (dielectric constant: 7.2) occupying 0.843377 of unit cell:	Completed after 4 iterations at t[s]:    421.33
	FillingsUpdate:  mu: -0.112855373  nElectrons: 342.000000
	Linear fluid (dielectric constant: 7.2) occupying 0.842548 of unit cell:	Completed after 6 iterations at t[s]:    424.25
SCF: Cycle: 20   F: -677.780423008731759   dF: +2.640e-03   |Residual|: 1.446e-03   |deigs|: 7.282e-04  t[s]:    424.42
	Linear fluid (dielectric constant: 7.2) occupying 0.843377 of unit cell:	Completed after 7 iterations at t[s]:    424.61
	FillingsUpdate:  mu: -0.112849422  nElectrons: 342.000000
	Linear fluid (dielectric constant: 7.2) occupying 0.842619 of unit cell:	Completed after 6 iterations at t[s]:    427.44
SCF: Cycle: 21   F: -677.780721275193400   dF: -2.983e-04   |Residual|: 1.225e-03   |deigs|: 4.926e-05  t[s]:    427.61
	Linear fluid (dielectric constant: 7.2) occupying 0.843378 of unit cell:	Completed after 7 iterations at t[s]:    427.79
	FillingsUpdate:  mu: -0.112877879  nElectrons: 342.000000
	Linear fluid (dielectric constant: 7.2) occupying 0.842236 of unit cell:	Completed after 7 iterations at t[s]:    430.65
SCF: Cycle: 22   F: -677.778967103127229   dF: +1.754e-03   |Residual|: 2.086e-03   |deigs|: 2.083e-04  t[s]:    430.82
	Linear fluid (dielectric constant: 7.2) occupying 0.843377 of unit cell:	Completed after 7 iterations at t[s]:    431.01
	FillingsUpdate:  mu: -0.112922864  nElectrons: 342.000000
	Linear fluid (dielectric constant: 7.2) occupying 0.841765 of unit cell:	Completed after 8 iterations at t[s]:    433.91
SCF: Cycle: 23   F: -677.776064340679568   dF: +2.903e-03   |Residual|: 3.463e-03   |deigs|: 2.763e-04  t[s]:    434.08
	Linear fluid (dielectric constant: 7.2) occupying 0.843377 of unit cell:	Completed after 8 iterations at t[s]:    434.28
	FillingsUpdate:  mu: -0.112917102  nElectrons: 342.000000
	Linear fluid (dielectric constant: 7.2) occupying 0.841809 of unit cell:	Completed after 7 iterations at t[s]:    437.06
SCF: Cycle: 24   F: -677.776342819026354   dF: -2.785e-04   |Residual|: 3.385e-03   |deigs|: 2.219e-05  t[s]:    437.23
	Linear fluid (dielectric constant: 7.2) occupying 0.843373 of unit cell:	Completed after 8 iterations at t[s]:    437.42
	FillingsUpdate:  mu: -0.112808720  nElectrons: 342.000000
	Linear fluid (dielectric constant: 7.2) occupying 0.843236 of unit cell:	Completed after 4 iterations at t[s]:    440.51
SCF: Cycle: 25   F: -677.782830554958650   dF: -6.488e-03   |Residual|: 7.054e-04   |deigs|: 8.195e-04  t[s]:    440.67
	Linear fluid (dielectric constant: 7.2) occupying 0.843378 of unit cell:	Completed after 5 iterations at t[s]:    440.84
	FillingsUpdate:  mu: -0.112958545  nElectrons: 342.000000
	Linear fluid (dielectric constant: 7.2) occupying 0.841528 of unit cell:	Completed after 8 iterations at t[s]:    443.95
SCF: Cycle: 26   F: -677.774316295990957   dF: +8.514e-03   |Residual|: 4.279e-03   |deigs|: 8.874e-04  t[s]:    444.13
	Linear fluid (dielectric constant: 7.2) occupying 0.843377 of unit cell:	Completed after 8 iterations at t[s]:    444.33
	FillingsUpdate:  mu: -0.112919997  nElectrons: 342.000000
	Linear fluid (dielectric constant: 7.2) occupying 0.841864 of unit cell:	Completed after 8 iterations at t[s]:    447.29
SCF: Cycle: 27   F: -677.776208619707745   dF: -1.892e-03   |Residual|: 3.385e-03   |deigs|: 1.685e-04  t[s]:    447.46
	Linear fluid (dielectric constant: 7.2) occupying 0.843375 of unit cell:	Completed after 8 iterations at t[s]:    447.66
	FillingsUpdate:  mu: -0.112810595  nElectrons: 342.000000
	Linear fluid (dielectric constant: 7.2) occupying 0.843287 of unit cell:	Completed after 4 iterations at t[s]:    450.65
SCF: Cycle: 28   F: -677.783071386220968   dF: -6.863e-03   |Residual|: 6.110e-04   |deigs|: 7.507e-04  t[s]:    450.81
	Linear fluid (dielectric constant: 7.2) occupying 0.843374 of unit cell:	Completed after 4 iterations at t[s]:    450.97
	FillingsUpdate:  mu: -0.112813584  nElectrons: 342.000000
	Linear fluid (dielectric constant: 7.2) occupying 0.843295 of unit cell:	Completed after 4 iterations at t[s]:    453.83
SCF: Cycle: 29   F: -677.783096611746714   dF: -2.523e-05   |Residual|: 6.545e-04   |deigs|: 4.580e-05  t[s]:    453.99
	Linear fluid (dielectric constant: 7.2) occupying 0.843370 of unit cell:	Completed after 4 iterations at t[s]:    454.14
	FillingsUpdate:  mu: -0.112815251  nElectrons: 342.000000
	Linear fluid (dielectric constant: 7.2) occupying 0.843211 of unit cell:	Completed after 5 iterations at t[s]:    457.25
SCF: Cycle: 30   F: -677.782849745746603   dF: +2.469e-04   |Residual|: 4.843e-04   |deigs|: 1.970e-04  t[s]:    457.41
	Linear fluid (dielectric constant: 7.2) occupying 0.843373 of unit cell:	Completed after 5 iterations at t[s]:    457.59
	FillingsUpdate:  mu: -0.112964161  nElectrons: 342.000000
	Linear fluid (dielectric constant: 7.2) occupying 0.841582 of unit cell:	Completed after 8 iterations at t[s]:    460.67
SCF: Cycle: 31   F: -677.773335162079547   dF: +9.515e-03   |Residual|: 4.875e-03   |deigs|: 8.224e-04  t[s]:    460.85
	Linear fluid (dielectric constant: 7.2) occupying 0.843372 of unit cell:	Completed after 8 iterations at t[s]:    461.06
	FillingsUpdate:  mu: -0.112876874  nElectrons: 342.000000
	Linear fluid (dielectric constant: 7.2) occupying 0.842285 of unit cell:	Completed after 7 iterations at t[s]:    463.96
SCF: Cycle: 32   F: -677.778480659952038   dF: -5.145e-03   |Residual|: 2.398e-03   |deigs|: 4.069e-04  t[s]:    464.13
	Linear fluid (dielectric constant: 7.2) occupying 0.843373 of unit cell:	Completed after 7 iterations at t[s]:    464.32
[...]
	Linear fluid (dielectric constant: 7.2) occupying 0.842246 of unit cell:	Completed after 0 iterations at t[s]:   9652.24
	FillingsUpdate:  mu: -0.105390784  nElectrons: 342.000000
	SubspaceRotationAdjust: set factor to 0.0642
ElecMinimize: Iter:  14  F: -677.788464296033112  |grad|_K:  1.555e-07  alpha:  6.097e-02  linmin:  2.519e-03  t[s]:   9653.20
	Linear fluid (dielectric constant: 7.2) occupying 0.842245 of unit cell:	Completed after 0 iterations at t[s]:   9653.92
ElecMinimize: 	Wrong curvature in test step, increasing alphaT to 1.829001e-01.
	Linear fluid (dielectric constant: 7.2) occupying 0.842245 of unit cell:	Completed after 0 iterations at t[s]:   9654.47
	FillingsUpdate:  mu: -0.105388053  nElectrons: 342.000000
	SubspaceRotationAdjust: set factor to 0.0677
ElecMinimize: Iter:  15  F: -677.788464373189072  |grad|_K:  1.550e-07  alpha: -9.561e+00  linmin:  1.580e-03  t[s]:   9655.43
	Linear fluid (dielectric constant: 7.2) occupying 0.842244 of unit cell:	Completed after 1 iterations at t[s]:   9656.16
	Linear fluid (dielectric constant: 7.2) occupying 0.842245 of unit cell:	Completed after 1 iterations at t[s]:   9656.92
	FillingsUpdate:  mu: -0.105390351  nElectrons: 342.000000
	SubspaceRotationAdjust: set factor to 0.0732
ElecMinimize: Iter:  16  F: -677.788464435791980  |grad|_K:  1.473e-07  alpha:  4.808e-02  linmin:  2.354e-04  t[s]:   9657.88
	Linear fluid (dielectric constant: 7.2) occupying 0.842246 of unit cell:	Completed after 0 iterations at t[s]:   9658.59
	Linear fluid (dielectric constant: 7.2) occupying 0.842246 of unit cell:	Completed after 0 iterations at t[s]:   9659.32
	FillingsUpdate:  mu: -0.105392063  nElectrons: 342.000000
	SubspaceRotationAdjust: set factor to 0.0804
ElecMinimize: Iter:  17  F: -677.788464482323775  |grad|_K:  1.328e-07  alpha:  7.057e-02  linmin:  1.834e-03  t[s]:   9660.26
	Linear fluid (dielectric constant: 7.2) occupying 0.842246 of unit cell:	Completed after 0 iterations at t[s]:   9660.97
	Linear fluid (dielectric constant: 7.2) occupying 0.842246 of unit cell:	Completed after 0 iterations at t[s]:   9661.69
	FillingsUpdate:  mu: -0.105392924  nElectrons: 342.000000
	SubspaceRotationAdjust: set factor to 0.0882
ElecMinimize: Iter:  18  F: -677.788464487443775  |grad|_K:  1.294e-07  alpha:  2.698e-02  linmin: -1.076e-03  t[s]:   9662.64
	Linear fluid (dielectric constant: 7.2) occupying 0.842246 of unit cell:	Completed after 0 iterations at t[s]:   9663.36
	Linear fluid (dielectric constant: 7.2) occupying 0.842246 of unit cell:	Completed after 0 iterations at t[s]:   9664.08
	FillingsUpdate:  mu: -0.105393718  nElectrons: 342.000000
	SubspaceRotationAdjust: set factor to 0.0975
ElecMinimize: Iter:  19  F: -677.788464494708023  |grad|_K:  1.260e-07  alpha:  1.729e-02  linmin: -3.836e-03  t[s]:   9665.03
ElecMinimize: Converged (|Delta F|<1.000000e-08 for 2 iters).
Setting wave functions to eigenvectors of Hamiltonian

-------- Electronic minimization -----------
	Linear fluid (dielectric constant: 7.2) occupying 0.842248 of unit cell:	Completed after 2 iterations at t[s]:   9666.08
	FillingsUpdate:  mu: -0.105011590  nElectrons: 342.000000
ElecMinimize: Iter:   0  F: -677.788459328558815  |grad|_K:  7.629e-07  alpha:  1.000e+00
	Linear fluid (dielectric constant: 7.2) occupying 0.842260 of unit cell:	Completed after 4 iterations at t[s]:   9667.87
	Linear fluid (dielectric constant: 7.2) occupying 0.842251 of unit cell:	Completed after 3 iterations at t[s]:   9668.67
	FillingsUpdate:  mu: -0.105367775  nElectrons: 342.000000
	SubspaceRotationAdjust: set factor to 0.0842
ElecMinimize: Iter:   1  F: -677.788463222238988  |grad|_K:  3.091e-07  alpha:  2.002e-01  linmin:  3.730e-03  t[s]:   9669.65
	Linear fluid (dielectric constant: 7.2) occupying 0.842247 of unit cell:	Completed after 1 iterations at t[s]:   9670.40
ElecMinimize: 	Predicted alpha/alphaT>3.000000, increasing alphaT to 6.005382e-01.
	Linear fluid (dielectric constant: 7.2) occupying 0.842238 of unit cell:	Completed after 1 iterations at t[s]:   9671.14
	Linear fluid (dielectric constant: 7.2) occupying 0.842245 of unit cell:	Completed after 1 iterations at t[s]:   9671.90
	FillingsUpdate:  mu: -0.105377933  nElectrons: 342.000000
	SubspaceRotationAdjust: set factor to 0.0568
ElecMinimize: Iter:   2  F: -677.788464348319167  |grad|_K:  2.331e-07  alpha:  2.815e-01  linmin:  7.108e-03  t[s]:   9672.87
	Linear fluid (dielectric constant: 7.2) occupying 0.842247 of unit cell:	Completed after 1 iterations at t[s]:   9673.59
	Linear fluid (dielectric constant: 7.2) occupying 0.842246 of unit cell:	Completed after 1 iterations at t[s]:   9674.35
	FillingsUpdate:  mu: -0.105374589  nElectrons: 342.000000
	SubspaceRotationAdjust: set factor to 0.0991
ElecMinimize: Iter:   3  F: -677.788464454077598  |grad|_K:  1.179e-07  alpha:  1.383e-01  linmin: -1.567e-02  t[s]:   9675.31
	Linear fluid (dielectric constant: 7.2) occupying 0.842247 of unit cell:	Completed after 0 iterations at t[s]:   9676.02
	Linear fluid (dielectric constant: 7.2) occupying 0.842246 of unit cell:	Completed after 0 iterations at t[s]:   9676.74
ElecMinimize: 	Step increased F by 9.000814e-09, reducing alpha to 4.851930e-03.
	Linear fluid (dielectric constant: 7.2) occupying 0.842246 of unit cell:	Completed after 0 iterations at t[s]:   9678.25
ElecMinimize: 	Step increased F by 7.025847e-11, reducing alpha to 4.851930e-04.
	Linear fluid (dielectric constant: 7.2) occupying 0.842246 of unit cell:	Completed after 0 iterations at t[s]:   9679.75
ElecMinimize: 	Step increased F by 1.432454e-11, reducing alpha to 4.851930e-05.
ElecMinimize: 	Step failed to reduce F after 3 attempts. Quitting step.
ElecMinimize: 	Undoing step.
	Linear fluid (dielectric constant: 7.2) occupying 0.842246 of unit cell:	Completed after 0 iterations at t[s]:   9681.26
ElecMinimize: 	Step failed: resetting search direction.
	FillingsUpdate:  mu: -0.105374609  nElectrons: 342.000000
	SubspaceRotationAdjust: set factor to 0.12
ElecMinimize: Iter:   4  F: -677.788464454066457  |grad|_K:  1.295e-07  alpha:  4.852e-05
	Linear fluid (dielectric constant: 7.2) occupying 0.842248 of unit cell:	Completed after 0 iterations at t[s]:   9682.88
	Linear fluid (dielectric constant: 7.2) occupying 0.842247 of unit cell:	Completed after 0 iterations at t[s]:   9683.61
ElecMinimize: 	Step increased F by 8.728421e-09, reducing alpha to 4.827926e-03.
	Linear fluid (dielectric constant: 7.2) occupying 0.842246 of unit cell:	Completed after 0 iterations at t[s]:   9685.11
ElecMinimize: 	Step increased F by 1.003855e-10, reducing alpha to 4.827926e-04.
	Linear fluid (dielectric constant: 7.2) occupying 0.842246 of unit cell:	Completed after 0 iterations at t[s]:   9686.61
	FillingsUpdate:  mu: -0.105374631  nElectrons: 342.000000
	SubspaceRotationAdjust: set factor to 0.131
ElecMinimize: Iter:   5  F: -677.788464454070777  |grad|_K:  1.347e-07  alpha:  4.828e-04  linmin: -1.390e-02  t[s]:   9687.58
	Linear fluid (dielectric constant: 7.2) occupying 0.842246 of unit cell:	Completed after 0 iterations at t[s]:   9688.29
	Linear fluid (dielectric constant: 7.2) occupying 0.842246 of unit cell:	Completed after 0 iterations at t[s]:   9689.01
	FillingsUpdate:  mu: -0.105374654  nElectrons: 342.000000
	SubspaceRotationAdjust: set factor to 0.136
ElecMinimize: Iter:   6  F: -677.788464454081236  |grad|_K:  1.370e-07  alpha:  2.376e-04  linmin: -1.316e-02  t[s]:   9689.96
ElecMinimize: Converged (|Delta F|<1.000000e-08 for 2 iters).
Setting wave functions to eigenvectors of Hamiltonian

# Ionic positions in cartesian coordinates:
ion C   0.000000000000000   0.000000000000000   1.000007321400000 0
ion C  -2.333835447300000   4.042302545699999   1.000007321400000 0
ion C  11.669120544600000  20.211531625799999   1.000007321400000 0
ion C   4.667689791900001   0.000000000000000   1.000007321400000 0
ion C  23.338297781100000   0.000000000000000   1.000007321400000 0
ion C   2.333816549999999   4.042302545699999   1.000007321400000 0
ion C -11.669158339200006  20.211531625799999   1.000007321400000 0
ion C  -4.667670894600000   8.084623988700001   1.000007321400000 0
ion C   9.335303994599997  16.169229080099999   1.000007321400000 0
ion C   9.335322891900001   0.000000000000000   1.000007321400000 0
ion C  18.670626886499999   0.000000000000000   1.000007321400000 0
ion C  -9.335322891900001  16.169229080099999   1.000007321400000 0
ion C  -7.001487444600000  12.126907637100000   1.000007321400000 0
ion C  14.002993786499999   0.000000000000000   1.000007321400000 0
ion C   0.000000000000000   8.084623988700001   1.000007321400000 0
ion C   7.001487444599997  20.211531625799999   1.000007321400000 0
ion C  -7.001487444600006  20.211531625799999   1.000007321400000 0
ion C  -2.333816549999999  12.126907637100000   1.000007321400000 0
ion C   4.667670894600002  16.169229080099999   1.000007321400000 0
ion C  -2.333816550000000  20.211531625799999   1.000007321400000 0
ion C   2.333816550000000  20.211531625799999   1.000007321400000 0
ion C  -4.667651997299995  16.169229080099999   1.000007321400000 0
ion C   7.001487444600000   4.042302545699999   1.000007321400000 0
ion C  21.004424539199999   4.042302545699999   1.000007321400000 0
ion C  14.002955991899999  16.169229080099999   1.000007321400000 0
ion C   0.000000000000000  16.169229080099999   1.000007321400000 0
ion C  11.669120544600000   4.042302545699999   1.000007321400000 0
ion C  18.670607989199997   8.084623988700001   1.000007321400000 0
ion C  11.669120544599998  12.126907637100000   1.000007321400000 0
ion C  16.336791439199999  12.126907637100000   1.000007321400000 0
ion C  16.336791439199999   4.042302545699999   1.000007321400000 0
ion C   9.335303994599997   8.084623988700001   1.000007321400000 0
ion C  14.002955991899999   8.084623988700001   1.000007321400000 0
ion C   0.000000000000000   2.694868363800000   1.000007321400000 0
ion C  11.669120544600000  22.906399989600001   1.000007321400000 0
ion C -11.669120544600000  22.906399989600001   1.000007321400000 0
ion C  -2.333816550000000   6.737170909500000   1.000007321400000 0
ion C   9.335303994599995  18.864097443900000   1.000007321400000 0
ion C  -7.001487444600000  22.906399989600001   1.000007321400000 0
ion C   7.001487444600000  22.906399989600001   1.000007321400000 0
ion C   2.333816550000000   6.737170909500000   1.000007321400000 0
ion C  -9.335303994599998  18.864097443900000   1.000007321400000 0
ion C  -4.667670894599997  10.779473455200000   1.000007321400000 0
ion C  -2.333816550000000  22.906399989600001   1.000007321400000 0
ion C   2.333816550000000  22.906399989600001   1.000007321400000 0
ion C  -7.001487444600004  14.821794898200000   1.000007321400000 0
ion C   4.667670894600000   2.694868363800000   1.000007321400000 0
ion C  23.338259986499999   2.694868363800000   1.000007321400000 0
ion C  14.002974889199999  18.864097443900000   1.000007321400000 0
ion C   0.000000000000000  10.779473455200000   1.000007321400000 0
ion C   4.667670894600001  18.864097443900000   1.000007321400000 0
ion C  -4.667633100000005  18.864097443900000   1.000007321400000 0
ion C  -2.333816550000003  14.821794898200000   1.000007321400000 0
ion C   2.333816549999993  14.821794898200000   1.000007321400000 0
ion C  -0.000000000000005  18.864097443900000   1.000007321400000 0
ion C   9.335303994599998   2.694868363800000   1.000007321400000 0
ion C  21.004424539199999   6.737170909500000   1.000007321400000 0
ion C  11.669120544600000  14.821794898200000   1.000007321400000 0
ion C  16.336791439199999  14.821794898200000   1.000007321400000 0
ion C  18.670607989199997   2.694868363800000   1.000007321400000 0
ion C   7.001487444600001   6.737170909500000   1.000007321400000 0
ion C  14.002955991899999   2.694868363800000   1.000007321400000 0
ion C  18.670607989200004  10.779473455200000   1.000007321400000 0
ion C  11.669120544599998   6.737170909500000   1.000007321400000 0
ion C  16.336791439199999   6.737170909500000   1.000007321400000 0
ion C  14.002955991899999  10.779473455200000   1.000007321400000 0
ion N   4.667670894599999   8.084623988700001   1.000007321400000 0
ion N   2.333816549999999  12.126907637100000   1.000007321400000 0
ion N   7.001487444599997  14.821794898200000   1.000007321400000 0
ion N   9.335303994599997  10.779473455200000   1.000007321400000 0
ion Fe   5.837111407799997  11.454314935499999   1.000007321400000 0
ion S   5.468043578692722  11.367129871524424   5.341811318514708 1
ion S   8.001189167186983  13.626343544003282   7.328898186075727 1
ion S   9.885699965875030  11.409659497322618  10.019390028125661 1
ion S  12.716147918034736   9.266667394480400   8.375297172305677 1
ion Na   8.158140646707395   6.886796298931275   7.119420176972388 1
ion Na  14.416473735484695  13.931614451248182   6.928838779097016 1

# Forces in Cartesian coordinates:
force C   0.003677572271552  -0.000095805377320   0.000186697789655 0
force C   0.001000973324899  -0.001177294294569   0.000226619591286 0
force C   0.003103168379148  -0.001978508745634   0.000101481297384 0
force C   0.001172221209509   0.002487626592636   0.000210685002001 0
force C   0.001758645646369  -0.000255668305551   0.000231953715735 0
force C   0.004667424525550   0.001861955109830   0.000451160547297 0
force C   0.000534047379087  -0.000220239487281   0.000145880128732 0
force C  -0.000740453275350   0.001559451353988   0.000227361314294 0
force C  -0.036374375341107  -0.014699377561796  -0.000032886372910 0
force C  -0.000970294800668  -0.000119661241456   0.000221031059441 0
force C  -0.000703735515217  -0.000196593597453   0.000226442402696 0
force C   0.001091517951394   0.001325175180992   0.000069378854321 0
force C   0.001957631709368   0.002907732325314   0.000099586195440 0
force C  -0.000451340221438  -0.000302195563338   0.000195823416697 0
force C   0.010591425789210   0.005811565801664   0.000421436105189 0
force C   0.002521485894310   0.001905164135097   0.000201647363749 0
force C   0.001559011226540   0.000544128820451   0.000233100783588 0
force C   0.004059677340721   0.003724489700082   0.000625710184443 0
force C   0.031518073898323   0.008838418822075   0.000524501135201 0
force C  -0.000146423835346  -0.000828412049639   0.000207831229731 0
force C  -0.002822960652903   0.000452075921792   0.000182384098083 0
force C   0.002298459882760  -0.000203114305366   0.000230229985397 0
force C   0.005092451400644   0.003886372916231   0.000210243021057 0
force C   0.001377625414589   0.000767119185393   0.000218313961004 0
force C  -0.002002134252184  -0.000311467844304   0.000017813860017 0
force C   0.007034851463988   0.001439419817564   0.000632370941447 0
force C  -0.000285761962768  -0.002243062308050  -0.000240702244269 0
force C   0.000877402418749   0.002087411328180   0.000199712080989 0
force C  -0.031226750911880  -0.023951708183047   0.000342492184695 0
force C  -0.000331217522239   0.002551725685472   0.000225978812925 0
force C  -0.001009182198547  -0.000202851902522   0.000242299503763 0
force C   0.023298682440706   0.023737992082546   0.001366772657749 0
force C   0.003528275233083   0.000520122189039  -0.000238088942772 0
force C  -0.003151145300946   0.002207767813143   0.000198595575348 0
force C  -0.003651162257263   0.000113788622648   0.000197329220783 0
force C  -0.002148398887574   0.000125825084742   0.000252987292151 0
force C   0.002129856196104   0.001092389800126   0.000185457650648 0
force C  -0.005183495432017  -0.002027811443626   0.000377261670405 0
force C   0.000710713685445   0.000532933544123   0.000216049252414 0
force C  -0.000883884657548  -0.002305671067511   0.000211892106589 0
force C   0.033933450828726   0.014746516157059   0.000294755966734 0
force C  -0.001390553053869  -0.000875937566824   0.000082960407922 0
force C   0.000099246472847  -0.003854202219822   0.000230776217746 0
force C   0.000576137086941   0.000145816528833   0.000210440824691 0
force C   0.000900922506426  -0.000382322774602   0.000201963611913 0
force C  -0.000507516134561  -0.001531480204692   0.000138712433825 0
force C  -0.002926780390146  -0.002602113184108   0.000005267666288 0
force C  -0.000474295065239   0.000559163431001   0.000252240469355 0
force C  -0.001162193838059   0.002195543208494   0.000085871714819 0
force C   0.031146348444229   0.023513241392134   0.000212617766291 0
force C  -0.004790323412484  -0.005789000311791   0.000558079389185 0
force C   0.000615259802698   0.000310243276211   0.000234284396746 0
force C  -0.002695353307832  -0.001460889514048   0.000141029954091 0
force C  -0.023316719268418  -0.023865472417363   0.000400861808489 0
force C   0.001083090772805   0.002536845322384   0.000183756347333 0
force C   0.002469356942524  -0.000719814543359  -0.000230850344244 0
force C   0.000291192938263  -0.000555228971906   0.000240639947240 0
force C  -0.011658691766851  -0.006459572861862   0.000626539778580 0
force C   0.000959040167474  -0.001143673497488   0.000481997997384 0
force C  -0.001091145161283  -0.000881623041773   0.000221350791926 0
force C  -0.030821546897241  -0.008103349708170   0.001129160475440 0
force C   0.000590404883586   0.001038430358541   0.000257707551711 0
force C  -0.000913700479176  -0.004080540693965   0.000159340365002 0
force C  -0.005843414808024  -0.001945047410891   0.000386454129637 0
force C  -0.003284774980761   0.000314974421072  -0.000014971086678 0
force C  -0.004425252667842  -0.003974125287505   0.000176054179972 0
force N   0.024552036979857  -0.034903909065345  -0.010882418405333 0
force N  -0.020889470993937   0.040571715681183  -0.013279300140706 0
force N  -0.024480706147449   0.036391785549655  -0.010931625168260 0
force N   0.017814655423085  -0.038613764145747  -0.010661820148594 0
force Fe   0.001327165455084  -0.001486138491124   0.044050384965202 0
force S  -0.000195562973345   0.000257494185932  -0.000307533590869 1
force S  -0.000650661255768   0.000233845036924  -0.000102373124490 1
force S   0.000401527920118  -0.000935514614241   0.000032829501388 1
force S   0.000013784969117   0.000224736396061   0.000290857802459 1
force Na   0.000060901211353   0.000040281692123   0.000043456555165 1
force Na   0.000122232180288  -0.000073192387081   0.000053932030119 1

# Energy components:
   A_diel =       -0.0700196549180078
   Eewald =     5343.3908336584672725
       EH =     5892.0096387933635924
     Eloc =   -11978.7922509817435639
      Enl =      -58.8338515680361667
      Exc =     -176.2308780411040914
 Exc_core =       10.4335673588517199
       KE =      290.3775674396879367
-------------------------------------
     Etot =     -677.7153929954320120
       TS =        0.0730714586492687
-------------------------------------
        F =     -677.7884644540812360

IonicMinimize: Iter:  58  F: -677.788464454081236  |grad|_K:  3.241e-04  alpha:  3.647e+00  linmin: -8.466e-03  t[s]:   9690.95
IonicMinimize: Converged (|Delta F|<1.000000e-06 for 2 iters).

#--- Lowdin population analysis ---
# oxidation-state C +0.037 +0.029 +0.030 +0.028 +0.032 +0.018 +0.028 +0.029 +0.142 +0.031 +0.033 +0.025 +0.036 +0.034 +0.004 +0.043 +0.036 +0.022 +0.126 +0.034 +0.030 +0.029 +0.017 +0.040 +0.021 +0.032 +0.024 +0.032 +0.135 +0.014 +0.033 +0.107 +0.045 +0.031 +0.038 +0.030 +0.045 +0.021 +0.030 +0.031 +0.140 +0.036 +0.032 +0.034 +0.034 +0.029 +0.037 +0.032 +0.022 +0.144 +0.031 +0.032 +0.044 +0.127 +0.030 +0.022 +0.032 -0.010 +0.004 +0.038 +0.098 +0.034 +0.035 +0.026 +0.033 +0.013
# oxidation-state N -0.130 -0.122 -0.122 -0.124
# oxidation-state Fe +0.001
# oxidation-state S -0.073 +0.015 +0.010 -0.561
# oxidation-state Na +0.844 +0.880


Dumping 'Na2S4@FeN4-glyme.fillings' ... done
Dumping 'Na2S4@FeN4-glyme.wfns' ... done
Dumping 'Na2S4@FeN4-glyme.fluidState' ... done
Dumping 'Na2S4@FeN4-glyme.ionpos' ... done
Dumping 'Na2S4@FeN4-glyme.eigenvals' ... done
End date and time: Sat Dec 28 15:21:44 2024  (Duration: 0-2:41:32.88)
Done!
