
*************** JDFTx 1.7.0  ***************

Start date and time: Tue Jun 18 19:27:48 2024
Executable jdftx with command-line: -i Na2S6@FeN4.in -o Na2S6@FeN4.out
Running on hosts (process indices):  Topper2 (0)
Divided in process groups (process indices):  0 (0)
Resource initialization completed at t[s]:      0.00
Run totals: 1 processes, 4 threads, 0 GPUs


Input parsed successfully to the following command list (including defaults):

basis kpoint-dependent
coords-type Cartesian
core-overlap-check vector
coulomb-interaction Slab 001
coulomb-truncation-embed 0 0 5
davidson-band-ratio 1.1
dump End State
dump-name Na2S6@FeN4.$VAR
elec-cutoff 20 100
elec-eigen-algo Davidson
elec-ex-corr gga-PBE
elec-smearing Fermi 0.01
electronic-minimize  \
	dirUpdateScheme      FletcherReeves \
	linminMethod         DirUpdateRecommended \
	nIterations          100 \
	history              15 \
	knormThreshold       0 \
	energyDiffThreshold  1e-08 \
	nEnergyDiff          2 \
	alphaTstart          1 \
	alphaTmin            1e-10 \
	updateTestStepSize   yes \
	alphaTreduceFactor   0.1 \
	alphaTincreaseFactor 3 \
	nAlphaAdjustMax      3 \
	wolfeEnergy          0.0001 \
	wolfeGradient        0.9 \
	fdTest               no
electronic-scf  \
	nIterations	50 \
	energyDiffThreshold	1e-08 \
	residualThreshold	1e-07 \
	mixFraction	0.5 \
	qMetric	0.8 \
	history	10 \
	nEigSteps	2 \
	eigDiffThreshold	1e-08 \
	mixedVariable	Density \
	qKerker	0.8 \
	qKappa	-1 \
	verbose	no \
	mixFractionMag	1.5
exchange-regularization WignerSeitzTruncated
fluid None
fluid-ex-corr lda-TF lda-PZ
fluid-gummel-loop 10 1.000000e-05
fluid-minimize  \
	dirUpdateScheme      PolakRibiere \
	linminMethod         DirUpdateRecommended \
	nIterations          100 \
	history              15 \
	knormThreshold       0 \
	energyDiffThreshold  0 \
	nEnergyDiff          2 \
	alphaTstart          1 \
	alphaTmin            1e-10 \
	updateTestStepSize   yes \
	alphaTreduceFactor   0.1 \
	alphaTincreaseFactor 3 \
	nAlphaAdjustMax      3 \
	wolfeEnergy          0.0001 \
	wolfeGradient        0.9 \
	fdTest               no
fluid-solvent H2O 55.338 ScalarEOS \
	epsBulk 78.4 \
	pMol 0.92466 \
	epsInf 1.77 \
	Pvap 1.06736e-10 \
	sigmaBulk 4.62e-05 \
	Rvdw 2.61727 \
	Res 1.42 \
	tauNuc 343133 \
	poleEl 15 7 1
forces-output-coords Positions
ion C   0.000000000000000   0.000000000000000   1.000007321400000 0
ion C  -2.333835447300000   4.042302545699999   1.000007321400000 0
ion C  11.669120544600000  20.211531625799999   1.000007321400000 0
ion C   4.667689791900001   0.000000000000000   1.000007321400000 0
ion C  23.338297781100000   0.000000000000000   1.000007321400000 0
ion C   2.333816549999999   4.042302545699999   1.000007321400000 0
ion C -11.669158339200001  20.211531625799999   1.000007321400000 0
ion C  -4.667670894600000   8.084623988700001   1.000007321400000 0
ion C   9.335303994599997  16.169229080099999   1.000007321400000 0
ion C   9.335322891900001   0.000000000000000   1.000007321400000 0
ion C  18.670626886499999   0.000000000000000   1.000007321400000 0
ion C  -9.335322891900001  16.169229080099999   1.000007321400000 0
ion C  -7.001487444600000  12.126907637100000   1.000007321400000 0
ion C  14.002993786499999   0.000000000000000   1.000007321400000 0
ion C   0.000000000000000   8.084623988700001   1.000007321400000 0
ion C   7.001487444599997  20.211531625799999   1.000007321400000 0
ion C  -7.001487444600001  20.211531625799999   1.000007321400000 0
ion C  -2.333816549999999  12.126907637100000   1.000007321400000 0
ion C   4.667670894600002  16.169229080099999   1.000007321400000 0
ion C  -2.333816550000000  20.211531625799999   1.000007321400000 0
ion C   2.333816550000000  20.211531625799999   1.000007321400000 0
ion C  -4.667651997299998  16.169229080099999   1.000007321400000 0
ion C   7.001487444600000   4.042302545699999   1.000007321400000 0
ion C  21.004424539199999   4.042302545699999   1.000007321400000 0
ion C  14.002955991899999  16.169229080099999   1.000007321400000 0
ion C   0.000000000000000  16.169229080099999   1.000007321400000 0
ion C  11.669120544600000   4.042302545699999   1.000007321400000 0
ion C  18.670607989199997   8.084623988700001   1.000007321400000 0
ion C  11.669120544599998  12.126907637100000   1.000007321400000 0
ion C  16.336791439199999  12.126907637100000   1.000007321400000 0
ion C  16.336791439199999   4.042302545699999   1.000007321400000 0
ion C   9.335303994599997   8.084623988700001   1.000007321400000 0
ion C  14.002955991899999   8.084623988700001   1.000007321400000 0
ion C   0.000000000000000   2.694868363800000   1.000007321400000 0
ion C  11.669120544600000  22.906399989600001   1.000007321400000 0
ion C -11.669120544600000  22.906399989600001   1.000007321400000 0
ion C  -2.333816550000000   6.737170909500000   1.000007321400000 0
ion C   9.335303994599995  18.864097443900000   1.000007321400000 0
ion C  -7.001487444600000  22.906399989600001   1.000007321400000 0
ion C   7.001487444600000  22.906399989600001   1.000007321400000 0
ion C   2.333816550000000   6.737170909500000   1.000007321400000 0
ion C  -9.335303994599998  18.864097443900000   1.000007321400000 0
ion C  -4.667670894599999  10.779473455200000   1.000007321400000 0
ion C  -2.333816550000000  22.906399989600001   1.000007321400000 0
ion C   2.333816550000000  22.906399989600001   1.000007321400000 0
ion C  -7.001487444600001  14.821794898200000   1.000007321400000 0
ion C   4.667670894600000   2.694868363800000   1.000007321400000 0
ion C  23.338259986499999   2.694868363800000   1.000007321400000 0
ion C  14.002974889199999  18.864097443900000   1.000007321400000 0
ion C   0.000000000000000  10.779473455200000   1.000007321400000 0
ion C   4.667670894600001  18.864097443900000   1.000007321400000 0
ion C  -4.667633100000001  18.864097443900000   1.000007321400000 0
ion C  -2.333816550000001  14.821794898200000   1.000007321400000 0
ion C   2.333816549999998  14.821794898200000   1.000007321400000 0
ion C  -0.000000000000002  18.864097443900000   1.000007321400000 0
ion C   9.335303994599998   2.694868363800000   1.000007321400000 0
ion C  21.004424539199999   6.737170909500000   1.000007321400000 0
ion C  11.669120544600000  14.821794898200000   1.000007321400000 0
ion C  16.336791439199999  14.821794898200000   1.000007321400000 0
ion C  18.670607989199997   2.694868363800000   1.000007321400000 0
ion C   7.001487444600001   6.737170909500000   1.000007321400000 0
ion C  14.002955991899999   2.694868363800000   1.000007321400000 0
ion C  18.670607989200001  10.779473455200000   1.000007321400000 0
ion C  11.669120544599998   6.737170909500000   1.000007321400000 0
ion C  16.336791439199999   6.737170909500000   1.000007321400000 0
ion C  14.002955991899999  10.779473455200000   1.000007321400000 0
ion N   4.667670894599999   8.084623988700001   1.000007321400000 0
ion N   2.333816549999999  12.126907637100000   1.000007321400000 0
ion N   7.001487444599997  14.821794898200000   1.000007321400000 0
ion N   9.335303994599997  10.779473455200000   1.000007321400000 0
ion Fe   5.837111407799997  11.454314935499999   1.000007321400000 0
ion S   1.481038092900000  10.619545605299999  10.936018688399999 1
ion S   4.422119378399998  12.907895251499999  10.366227298800000 1
ion S   4.456890410400000  14.254271184600000   6.771356125200000 1
ion S   8.044637301900000   8.454538636199999   6.521722792199999 1
ion S   8.333728197299997   9.642592989900001  10.160360112599998 1
ion S  11.319652775700000  11.899327453200000  10.621869973200001 1
ion Na   2.889926294400000   9.260262816299999   6.201167892300000 1
ion Na   9.576452439899999  13.476968543700000   6.072911917199999 1
ion-species GBRV/$ID_pbe.uspp
ion-width 0
ionic-minimize  \
	dirUpdateScheme      FletcherReeves \
	linminMethod         DirUpdateRecommended \
	nIterations          200 \
	history              15 \
	knormThreshold       0.0001 \
	energyDiffThreshold  1e-06 \
	nEnergyDiff          2 \
	alphaTstart          1 \
	alphaTmin            1e-10 \
	updateTestStepSize   yes \
	alphaTreduceFactor   0.1 \
	alphaTincreaseFactor 3 \
	nAlphaAdjustMax      3 \
	wolfeEnergy          0.0001 \
	wolfeGradient        0.9 \
	fdTest               no
kpoint   0.000000000000   0.000000000000   0.000000000000  1.00000000000000
kpoint-folding 1 1 1 
latt-move-scale 1 1 1
latt-scale 1 1 1 
lattice Triclinic 28.0058 28.0058 37.7946 90 90 120
lattice-minimize  \
	dirUpdateScheme      L-BFGS \
	linminMethod         DirUpdateRecommended \
	nIterations          0 \
	history              15 \
	knormThreshold       0 \
	energyDiffThreshold  1e-06 \
	nEnergyDiff          2 \
	alphaTstart          1 \
	alphaTmin            1e-10 \
	updateTestStepSize   yes \
	alphaTreduceFactor   0.1 \
	alphaTincreaseFactor 3 \
	nAlphaAdjustMax      3 \
	wolfeEnergy          0.0001 \
	wolfeGradient        0.9 \
	fdTest               no
lcao-params -1 1e-06 0.01
pcm-variant GLSSA13
spintype no-spin
subspace-rotation-factor 1 yes
symmetries automatic
symmetry-threshold 0.0001



---------- Setting up symmetries ----------

Found 24 point-group symmetries of the bravais lattice
Found 1 space-group symmetries with basis
Applied RMS atom displacement 0 bohrs to make symmetries exact.

---------- Initializing the Grid ----------
R = 
[      28.0058     -14.0029            0  ]
[            0      24.2537            0  ]
[            0            0      37.7946  ]
unit cell volume = 25671.8
G =
[   0.224353    0.12953         -0  ]
[          0   0.259061          0  ]
[          0         -0   0.166246  ]
Minimum fftbox size, Smin = [  128  128  172  ]
Chosen fftbox size, S = [  128  128  180  ]

---------- Initializing tighter grid for wavefunction operations ----------
R = 
[      28.0058     -14.0029            0  ]
[            0      24.2537            0  ]
[            0            0      37.7946  ]
unit cell volume = 25671.8
G =
[   0.224353    0.12953         -0  ]
[          0   0.259061          0  ]
[          0         -0   0.166246  ]
Minimum fftbox size, Smin = [  116  116  156  ]
Chosen fftbox size, S = [  120  120  160  ]

---------- Exchange Correlation functional ----------
Initalized PBE GGA exchange.
Initalized PBE GGA correlation.

---------- Setting up pseudopotentials ----------
Width of ionic core gaussian charges (only for fluid interactions / plotting) set to 0

Reading pseudopotential file '/home/topper2/jdftx_install/build/pseudopotentials/GBRV/c_pbe.uspp':
  Title: C.  Created by USPP 7.3.6 on 3-2-2014
  Reference state energy: -5.406344.  4 valence electrons in orbitals:
    |200>  occupation: 2  eigenvalue: -0.504890
    |210>  occupation: 2  eigenvalue: -0.194356
  lMax: 1  lLocal: 2  QijEcut: 5
  4 projectors sampled on a log grid with 503 points:
    l: 0  eig: -0.504890  rCut: 1.3
    l: 0  eig: 0.000000  rCut: 1.3
    l: 1  eig: -0.194357  rCut: 1.3
    l: 1  eig: 0.000000  rCut: 1.3
  Partial core density with radius 1.1
  Transforming core density to a uniform radial grid of dG=0.02 with 1625 points.
  Transforming local potential to a uniform radial grid of dG=0.02 with 1625 points.
  Transforming nonlocal projectors to a uniform radial grid of dG=0.02 with 432 points.
  Transforming density augmentations to a uniform radial grid of dG=0.02 with 1625 points.
  Transforming atomic orbitals to a uniform radial grid of dG=0.02 with 432 points.
  Core radius for overlap checks: 1.30 bohrs.

Reading pseudopotential file '/home/topper2/jdftx_install/build/pseudopotentials/GBRV/n_pbe.uspp':
  Title: N.  Created by USPP 7.3.6 on 3-2-2014
  Reference state energy: -9.763716.  5 valence electrons in orbitals:
    |200>  occupation: 2  eigenvalue: -0.681964
    |210>  occupation: 3  eigenvalue: -0.260726
  lMax: 1  lLocal: 2  QijEcut: 6
  4 projectors sampled on a log grid with 491 points:
    l: 0  eig: -0.681964  rCut: 1.15
    l: 0  eig: 0.000000  rCut: 1.15
    l: 1  eig: -0.260729  rCut: 1.2
    l: 1  eig: 0.500000  rCut: 1.2
  Partial core density with radius 0.8
  Transforming core density to a uniform radial grid of dG=0.02 with 1625 points.
  Transforming local potential to a uniform radial grid of dG=0.02 with 1625 points.
  Transforming nonlocal projectors to a uniform radial grid of dG=0.02 with 432 points.
  Transforming density augmentations to a uniform radial grid of dG=0.02 with 1625 points.
  Transforming atomic orbitals to a uniform radial grid of dG=0.02 with 432 points.
  Core radius for overlap checks: 1.20 bohrs.

Reading pseudopotential file '/home/topper2/jdftx_install/build/pseudopotentials/GBRV/fe_pbe.uspp':
  Title: Fe.  Created by USPP 7.3.6 on 15-6-15
  Reference state energy: -124.316937.  16 valence electrons in orbitals:
    |300>  occupation: 2  eigenvalue: -4.008817
    |310>  occupation: 6  eigenvalue: -2.753096
    |320>  occupation: 5  eigenvalue: -0.791264
    |400>  occupation: 2  eigenvalue: -0.516384
    |410>  occupation: 0  eigenvalue: -0.312222
  lMax: 2  lLocal: 3  QijEcut: 6
  6 projectors sampled on a log grid with 607 points:
    l: 0  eig: -4.008819  rCut: 1.55
    l: 0  eig: -0.516386  rCut: 1.55
    l: 1  eig: -2.753096  rCut: 1.55
    l: 1  eig: -0.312226  rCut: 1.55
    l: 2  eig: -0.791264  rCut: 1.65
    l: 2  eig: -0.450000  rCut: 1.65
  Partial core density with radius 0.65
  Transforming core density to a uniform radial grid of dG=0.02 with 1625 points.
  Transforming local potential to a uniform radial grid of dG=0.02 with 1625 points.
  Transforming nonlocal projectors to a uniform radial grid of dG=0.02 with 432 points.
  Transforming density augmentations to a uniform radial grid of dG=0.02 with 1625 points.
  Transforming atomic orbitals to a uniform radial grid of dG=0.02 with 432 points.
  Core radius for overlap checks: 1.65 bohrs.

Reading pseudopotential file '/home/topper2/jdftx_install/build/pseudopotentials/GBRV/s_pbe.uspp':
  Title: S.  Created by USPP 7.3.6 on 1-4-15
  Reference state energy: -11.898476.  6 valence electrons in orbitals:
    |300>  occupation: 2  eigenvalue: -0.634167
    |310>  occupation: 4  eigenvalue: -0.257568
  lMax: 2  lLocal: 3  QijEcut: 6
  6 projectors sampled on a log grid with 635 points:
    l: 0  eig: -0.634161  rCut: 1.5
    l: 0  eig: 1.500000  rCut: 1.5
    l: 1  eig: -0.257567  rCut: 1.5
    l: 1  eig: 1.500000  rCut: 1.5
    l: 2  eig: -1.000000  rCut: 1.5
    l: 2  eig: 1.500000  rCut: 1.5
  Partial core density with radius 1.15
  Transforming core density to a uniform radial grid of dG=0.02 with 1625 points.
  Transforming local potential to a uniform radial grid of dG=0.02 with 1625 points.
  Transforming nonlocal projectors to a uniform radial grid of dG=0.02 with 432 points.
  Transforming density augmentations to a uniform radial grid of dG=0.02 with 1625 points.
  Transforming atomic orbitals to a uniform radial grid of dG=0.02 with 432 points.
  Core radius for overlap checks: 1.50 bohrs.

Reading pseudopotential file '/home/topper2/jdftx_install/build/pseudopotentials/GBRV/na_pbe.uspp':
  Title: Na.  Created by USPP 7.3.6 on 23-9-15
  Reference state energy: -47.625620.  9 valence electrons in orbitals:
    |200>  occupation: 2  eigenvalue: -2.085638
    |210>  occupation: 6  eigenvalue: -1.053708
    |300>  occupation: 1  eigenvalue: -0.100838
  lMax: 2  lLocal: 0  QijEcut: 6
  5 projectors sampled on a log grid with 657 points:
    l: 0  eig: -2.085640  rCut: 1.37
    l: 0  eig: -0.100839  rCut: 1.37
    l: 1  eig: -1.053708  rCut: 1.47
    l: 1  eig: 0.500000  rCut: 1.47
    l: 2  eig: 0.750000  rCut: 2
  Transforming local potential to a uniform radial grid of dG=0.02 with 1625 points.
  Transforming nonlocal projectors to a uniform radial grid of dG=0.02 with 432 points.
  Transforming density augmentations to a uniform radial grid of dG=0.02 with 1625 points.
  Transforming atomic orbitals to a uniform radial grid of dG=0.02 with 432 points.
  Core radius for overlap checks: 2.00 bohrs.

Initialized 5 species with 79 total atoms.

Folded 1 k-points by 1x1x1 to 1 k-points.

---------- Setting up k-points, bands, fillings ----------
No reducable k-points. 
Computing the number of bands and number of electrons
Calculating initial fillings.
nElectrons: 354.000000   nBands: 327   nStates: 1

----- Setting up reduced wavefunction bases (one per k-point) -----
average nbasis = 109673.000 , ideal nbasis = 109671.883

---------- Setting up coulomb interaction ----------
Setting up double-sized grid for truncated Coulomb potentials:
R = 
[      28.0058     -14.0029            0  ]
[            0      24.2537            0  ]
[            0            0      75.5892  ]
unit cell volume = 51343.6
G =
[   0.224353    0.12953         -0  ]
[          0   0.259061          0  ]
[          0         -0  0.0831228  ]
Chosen fftbox size, S = [  128  128  360  ]
Integer grid location selected as the embedding center:
   Grid: [  0  0  24  ]
   Lattice: [  0  0  0.132294  ]
   Cartesian: [  0  0  5  ]
Constructing Wigner-Seitz cell: 8 faces (6 quadrilaterals, 2 hexagons)
Range-separation parameter for embedded mesh potentials due to point charges: 0.590105 bohrs.
Initialized slab truncation along lattice direction 001

---------- Setting up 2D ewald sum ----------
Optimum gaussian width for ewald sums = 15.547689 bohr.
Real space sums over 289 unit cells with max indices [  8  8  0  ]
Reciprocal space sums over 81 terms with max indices [  4  4  0  ]

---------- Allocating electronic variables ----------
Initializing wave functions:  linear combination of atomic orbitals
C pseudo-atom occupations:   s ( 2 )  p ( 2 )
N pseudo-atom occupations:   s ( 2 )  p ( 3 )
Fe pseudo-atom occupations:   s ( 2 0 )  p ( 6 0 )  d ( 8 )
S pseudo-atom occupations:   s ( 2 )  p ( 4 )
Na pseudo-atom occupations:   s ( 2 1 )  p ( 6 )
	FillingsUpdate:  mu: -0.273585654  nElectrons: 354.000000
LCAOMinimize: Iter:   0  F: -676.9224760941243630  |grad|_K:  2.344e-02  alpha:  1.000e+00
	FillingsUpdate:  mu: -0.308429424  nElectrons: 354.000000
LCAOMinimize: Iter:   1  F: -681.5888063243162378  |grad|_K:  1.314e-02  alpha:  1.312e-01  linmin: -1.694e-01  cgtest:  9.786e-01  t[s]:    521.29
LCAOMinimize: Encountered beta<0, resetting CG.
LCAOMinimize: 	Wrong curvature in test step, increasing alphaT to 3.934582e-01.
	FillingsUpdate:  mu: -0.005391210  nElectrons: 354.000000
LCAOMinimize: Iter:   2  F: -685.0786217789811872  |grad|_K:  6.030e-02  alpha: -1.516e-01  linmin:  2.221e-01  cgtest: -1.604e-01  t[s]:    666.00
LCAOMinimize: 	Bad step direction: g.d > 0.
LCAOMinimize: 	Undoing step.
LCAOMinimize: 	Step failed: resetting search direction.
	FillingsUpdate:  mu: -0.005391210  nElectrons: 354.000000
LCAOMinimize: Iter:   3  F: -685.0786217789793682  |grad|_K:  6.030e-02  alpha:  0.000e+00
LCAOMinimize: 	Step increased F by 2.562900e+01, reducing alpha to 2.840397e-02.
	FillingsUpdate:  mu: -0.174122400  nElectrons: 354.000000
LCAOMinimize: Iter:   4  F: -691.2568627653611202  |grad|_K:  2.772e-02  alpha:  2.840e-02  linmin: -3.339e-01  cgtest:  1.068e+00  t[s]:   1059.22
LCAOMinimize: Encountered beta<0, resetting CG.
LCAOMinimize: 	Predicted alpha/alphaT>3.000000, increasing alphaT to 8.521190e-02.
	FillingsUpdate:  mu: -0.220964040  nElectrons: 354.000000
LCAOMinimize: Iter:   5  F: -693.2759710168206766  |grad|_K:  1.194e-02  alpha:  2.122e-02  linmin: -3.886e-01  cgtest:  6.385e-01  t[s]:   1263.93
LCAOMinimize: Encountered beta<0, resetting CG.
	FillingsUpdate:  mu: -0.263064671  nElectrons: 354.000000
LCAOMinimize: Iter:   6  F: -693.4478621184122176  |grad|_K:  4.889e-03  alpha:  2.251e-02  linmin:  3.430e-02  cgtest: -8.139e-02  t[s]:   1427.77
LCAOMinimize: 	Predicted alpha/alphaT>3.000000, increasing alphaT to 6.753311e-02.
	FillingsUpdate:  mu: -0.287456828  nElectrons: 354.000000
LCAOMinimize: Iter:   7  F: -693.6496877424252716  |grad|_K:  1.628e-03  alpha:  1.904e-01  linmin:  1.559e-01  cgtest: -4.517e-01  t[s]:   1631.75
	FillingsUpdate:  mu: -0.275257586  nElectrons: 354.000000
LCAOMinimize: Iter:   8  F: -693.6598214836591296  |grad|_K:  1.529e-03  alpha:  1.511e-01  linmin:  1.307e-03  cgtest:  7.279e-01  t[s]:   1795.90
	FillingsUpdate:  mu: -0.296299267  nElectrons: 354.000000
LCAOMinimize: Iter:   9  F: -693.6671363130527652  |grad|_K:  1.802e-03  alpha:  5.719e-02  linmin: -1.933e-03  cgtest:  9.264e-03  t[s]:   1959.40
	FillingsUpdate:  mu: -0.279016650  nElectrons: 354.000000
LCAOMinimize: Iter:  10  F: -693.6773012177549163  |grad|_K:  3.817e-04  alpha:  5.752e-02  linmin:  2.666e-03  cgtest: -2.922e-01  t[s]:   2123.18
	FillingsUpdate:  mu: -0.286298369  nElectrons: 354.000000
LCAOMinimize: Iter:  11  F: -693.6780823043815190  |grad|_K:  5.425e-04  alpha:  1.005e-01  linmin: -3.332e-04  cgtest:  1.153e-02  t[s]:   2287.20
	FillingsUpdate:  mu: -0.278419478  nElectrons: 354.000000
LCAOMinimize: Iter:  12  F: -693.6788269237407576  |grad|_K:  3.143e-04  alpha:  4.627e-02  linmin: -1.354e-03  cgtest: -2.751e-02  t[s]:   2450.82
	FillingsUpdate:  mu: -0.284493105  nElectrons: 354.000000
LCAOMinimize: Iter:  13  F: -693.6794582638723341  |grad|_K:  3.375e-04  alpha:  1.174e-01  linmin: -5.802e-04  cgtest:  6.667e-03  t[s]:   2614.10
	FillingsUpdate:  mu: -0.279436887  nElectrons: 354.000000
LCAOMinimize: Iter:  14  F: -693.6796791379171054  |grad|_K:  2.214e-04  alpha:  3.535e-02  linmin: -1.581e-03  cgtest:  2.031e-02  t[s]:   2778.17
LCAOMinimize: 	Predicted alpha/alphaT>3.000000, increasing alphaT to 1.060481e-01.
	FillingsUpdate:  mu: -0.283168266  nElectrons: 354.000000
LCAOMinimize: Iter:  15  F: -693.6799711102784158  |grad|_K:  1.734e-04  alpha:  1.096e-01  linmin:  1.296e-04  cgtest: -1.891e-02  t[s]:   2981.30
	FillingsUpdate:  mu: -0.280149769  nElectrons: 354.000000
LCAOMinimize: Iter:  16  F: -693.6800324615811633  |grad|_K:  1.305e-04  alpha:  3.790e-02  linmin: -2.546e-04  cgtest:  9.045e-03  t[s]:   3144.74
	FillingsUpdate:  mu: -0.281751782  nElectrons: 354.000000
LCAOMinimize: Iter:  17  F: -693.6800991530338933  |grad|_K:  6.611e-05  alpha:  7.251e-02  linmin: -1.139e-03  cgtest:  1.985e-03  t[s]:   3308.16
	FillingsUpdate:  mu: -0.280412245  nElectrons: 354.000000
LCAOMinimize: Iter:  18  F: -693.6801107734725065  |grad|_K:  6.307e-05  alpha:  4.918e-02  linmin:  5.007e-06  cgtest: -6.303e-03  t[s]:   3472.01
	FillingsUpdate:  mu: -0.281211179  nElectrons: 354.000000
LCAOMinimize: Iter:  19  F: -693.6801232222254612  |grad|_K:  3.175e-05  alpha:  5.819e-02  linmin:  3.510e-05  cgtest:  9.695e-03  t[s]:   3635.43
	FillingsUpdate:  mu: -0.280515517  nElectrons: 354.000000
LCAOMinimize: Iter:  20  F: -693.6801280177672879  |grad|_K:  4.044e-05  alpha:  8.841e-02  linmin: -2.798e-05  cgtest:  1.914e-04  t[s]:   3799.58
	FillingsUpdate:  mu: -0.281156458  nElectrons: 354.000000
LCAOMinimize: Iter:  21  F: -693.6801317256747552  |grad|_K:  2.096e-05  alpha:  4.214e-02  linmin: -4.022e-05  cgtest: -8.252e-05  t[s]:   3962.68
	FillingsUpdate:  mu: -0.280812797  nElectrons: 354.000000
LCAOMinimize: Iter:  22  F: -693.6801345416381537  |grad|_K:  2.418e-05  alpha:  1.194e-01  linmin:  4.264e-04  cgtest: -1.782e-03  t[s]:   4125.99
	FillingsUpdate:  mu: -0.281241808  nElectrons: 354.000000
LCAOMinimize: Iter:  23  F: -693.6801356594203298  |grad|_K:  1.563e-05  alpha:  3.567e-02  linmin:  1.194e-04  cgtest:  5.370e-03  t[s]:   4290.34
LCAOMinimize: 	Predicted alpha/alphaT>3.000000, increasing alphaT to 1.070173e-01.
	FillingsUpdate:  mu: -0.281024681  nElectrons: 354.000000
LCAOMinimize: Iter:  24  F: -693.6801373623292193  |grad|_K:  1.410e-05  alpha:  1.296e-01  linmin:  5.124e-05  cgtest: -3.326e-03  t[s]:   4494.78
	FillingsUpdate:  mu: -0.281275648  nElectrons: 354.000000
LCAOMinimize: Iter:  25  F: -693.6801377717320065  |grad|_K:  1.085e-05  alpha:  3.830e-02  linmin:  6.614e-05  cgtest:  4.993e-05  t[s]:   4659.08
	FillingsUpdate:  mu: -0.281120236  nElectrons: 354.000000
LCAOMinimize: Iter:  26  F: -693.6801382411547365  |grad|_K:  5.154e-06  alpha:  7.421e-02  linmin:  4.526e-04  cgtest: -3.287e-03  t[s]:   4823.60
LCAOMinimize: Converged (|Delta F|<1.000000e-06 for 2 iters).


---- Citations for features of the code used in this run ----

   Software package:
      R. Sundararaman, K. Letchworth-Weaver, K.A. Schwarz, D. Gunceler, Y. Ozhabes and T.A. Arias, 'JDFTx: software for joint density-functional theory', SoftwareX 6, 278 (2017)

   gga-PBE exchange-correlation functional:
      J.P. Perdew, K. Burke and M. Ernzerhof, Phys. Rev. Lett. 77, 3865 (1996)

   Pseudopotentials:
      KF Garrity, JW Bennett, KM Rabe and D Vanderbilt, Comput. Mater. Sci. 81, 446 (2014)

   Truncated Coulomb potentials:
      R. Sundararaman and T.A. Arias, Phys. Rev. B 87, 165122 (2013)

This list may not be complete. Please suggest additional citations or
report any other bugs at https://github.com/shankar1729/jdftx/issues

Initialization completed successfully at t[s]:   4929.76


-------- Electronic minimization -----------
Will mix electronic density at each iteration.
	FillingsUpdate:  mu: -0.281120236  nElectrons: 354.000000
	FillingsUpdate:  mu: -0.294283215  nElectrons: 354.000000
SCF: Cycle:  0   F: -697.269018321955969   dF: -3.589e+00   |Residual|: 9.986e-01   |deigs|: 1.186e-01  t[s]:   5796.46
	FillingsUpdate:  mu: -0.278690363  nElectrons: 354.000000
SCF: Cycle:  1   F: -696.324856289516333   dF: +9.442e-01   |Residual|: 8.123e-01   |deigs|: 3.156e-02  t[s]:   6580.58
	FillingsUpdate:  mu: -0.226758757  nElectrons: 354.000000
SCF: Cycle:  2   F: -686.487566824721966   dF: +9.837e+00   |Residual|: 1.976e+00   |deigs|: 3.433e-02  t[s]:   7363.13
	FillingsUpdate:  mu: -0.244916301  nElectrons: 354.000000
SCF: Cycle:  3   F: -697.827352640402410   dF: -1.134e+01   |Residual|: 2.791e-01   |deigs|: 2.985e-02  t[s]:   8145.17
	FillingsUpdate:  mu: -0.231379568  nElectrons: 354.000000
SCF: Cycle:  4   F: -698.179843688494884   dF: -3.525e-01   |Residual|: 2.338e-01   |deigs|: 7.876e-03  t[s]:   8925.31
	FillingsUpdate:  mu: -0.235216946  nElectrons: 354.000000
SCF: Cycle:  5   F: -697.810560393677179   dF: +3.693e-01   |Residual|: 3.429e-01   |deigs|: 4.541e-03  t[s]:   9706.89
	FillingsUpdate:  mu: -0.224524956  nElectrons: 354.000000
SCF: Cycle:  6   F: -698.224002933718339   dF: -4.134e-01   |Residual|: 1.352e-01   |deigs|: 7.240e-03  t[s]:  10490.37
	FillingsUpdate:  mu: -0.219134940  nElectrons: 354.000000
SCF: Cycle:  7   F: -698.136567183219768   dF: +8.744e-02   |Residual|: 2.198e-01   |deigs|: 6.060e-03  t[s]:  11270.16
	FillingsUpdate:  mu: -0.209112280  nElectrons: 354.000000
SCF: Cycle:  8   F: -698.213157786620059   dF: -7.659e-02   |Residual|: 1.521e-01   |deigs|: 5.297e-03  t[s]:  12049.59
	FillingsUpdate:  mu: -0.208403446  nElectrons: 354.000000
SCF: Cycle:  9   F: -698.270770864183191   dF: -5.761e-02   |Residual|: 7.032e-02   |deigs|: 4.133e-03  t[s]:  12831.34
	FillingsUpdate:  mu: -0.204515836  nElectrons: 354.000000
SCF: Cycle: 10   F: -698.289270410862855   dF: -1.850e-02   |Residual|: 2.135e-02   |deigs|: 2.724e-03  t[s]:  13502.18
	FillingsUpdate:  mu: -0.202184975  nElectrons: 354.000000
SCF: Cycle: 11   F: -698.279271220818828   dF: +9.999e-03   |Residual|: 5.962e-02   |deigs|: 3.990e-03  t[s]:  14220.56
	FillingsUpdate:  mu: -0.198846702  nElectrons: 354.000000
SCF: Cycle: 12   F: -698.290953754143061   dF: -1.168e-02   |Residual|: 9.123e-03   |deigs|: 2.582e-03  t[s]:  14891.71
	FillingsUpdate:  mu: -0.195886166  nElectrons: 354.000000
SCF: Cycle: 13   F: -698.289513131309832   dF: +1.441e-03   |Residual|: 1.986e-02   |deigs|: 3.121e-03  t[s]:  15572.04
	FillingsUpdate:  mu: -0.193829881  nElectrons: 354.000000
SCF: Cycle: 14   F: -698.290194352108642   dF: -6.812e-04   |Residual|: 1.157e-02   |deigs|: 1.828e-03  t[s]:  16226.63
	FillingsUpdate:  mu: -0.189327085  nElectrons: 354.000000
SCF: Cycle: 15   F: -698.290494804182913   dF: -3.005e-04   |Residual|: 1.173e-02   |deigs|: 4.008e-03  t[s]:  16886.59
	FillingsUpdate:  mu: -0.186461944  nElectrons: 354.000000
SCF: Cycle: 16   F: -698.290686903989240   dF: -1.921e-04   |Residual|: 7.679e-03   |deigs|: 3.029e-03  t[s]:  17542.22
	FillingsUpdate:  mu: -0.182308332  nElectrons: 354.000000
SCF: Cycle: 17   F: -698.291241045144488   dF: -5.541e-04   |Residual|: 3.978e-03   |deigs|: 4.208e-03  t[s]:  18197.43
	FillingsUpdate:  mu: -0.179088069  nElectrons: 354.000000
SCF: Cycle: 18   F: -698.291466694927294   dF: -2.256e-04   |Residual|: 6.751e-03   |deigs|: 3.725e-03  t[s]:  18851.60
	FillingsUpdate:  mu: -0.177751349  nElectrons: 354.000000
SCF: Cycle: 19   F: -698.291665894859307   dF: -1.992e-04   |Residual|: 3.161e-03   |deigs|: 1.386e-03  t[s]:  19507.47
	FillingsUpdate:  mu: -0.175853322  nElectrons: 354.000000
SCF: Cycle: 20   F: -698.291727250508757   dF: -6.136e-05   |Residual|: 3.006e-03   |deigs|: 1.604e-03  t[s]:  20163.91
	FillingsUpdate:  mu: -0.173604734  nElectrons: 354.000000
SCF: Cycle: 21   F: -698.291748232496161   dF: -2.098e-05   |Residual|: 2.308e-03   |deigs|: 2.043e-03  t[s]:  20815.88
	FillingsUpdate:  mu: -0.172297034  nElectrons: 354.000000
SCF: Cycle: 22   F: -698.291751953581297   dF: -3.721e-06   |Residual|: 1.502e-03   |deigs|: 1.356e-03  t[s]:  21469.33
	FillingsUpdate:  mu: -0.171586341  nElectrons: 354.000000
SCF: Cycle: 23   F: -698.291747720042622   dF: +4.234e-06   |Residual|: 2.308e-03   |deigs|: 9.283e-04  t[s]:  22121.67
	FillingsUpdate:  mu: -0.170752769  nElectrons: 354.000000
SCF: Cycle: 24   F: -698.291773416874207   dF: -2.570e-05   |Residual|: 9.022e-04   |deigs|: 1.236e-03  t[s]:  22778.77
	FillingsUpdate:  mu: -0.170522870  nElectrons: 354.000000
SCF: Cycle: 25   F: -698.291777548482173   dF: -4.132e-06   |Residual|: 6.943e-04   |deigs|: 4.760e-04  t[s]:  23431.37
	FillingsUpdate:  mu: -0.170323115  nElectrons: 354.000000
SCF: Cycle: 26   F: -698.291780334047758   dF: -2.786e-06   |Residual|: 6.047e-04   |deigs|: 2.817e-04  t[s]:  24085.66
	FillingsUpdate:  mu: -0.170285432  nElectrons: 354.000000
SCF: Cycle: 27   F: -698.291783109733160   dF: -2.776e-06   |Residual|: 5.024e-04   |deigs|: 3.058e-04  t[s]:  24740.60
	FillingsUpdate:  mu: -0.170156232  nElectrons: 354.000000
SCF: Cycle: 28   F: -698.291783961198803   dF: -8.515e-07   |Residual|: 5.237e-04   |deigs|: 2.041e-04  t[s]:  25394.08
	FillingsUpdate:  mu: -0.170089837  nElectrons: 354.000000
SCF: Cycle: 29   F: -698.291786027389435   dF: -2.066e-06   |Residual|: 4.368e-04   |deigs|: 3.427e-04  t[s]:  26047.82
	FillingsUpdate:  mu: -0.170000631  nElectrons: 354.000000
SCF: Cycle: 30   F: -698.291786904512151   dF: -8.771e-07   |Residual|: 1.915e-04   |deigs|: 3.416e-04  t[s]:  26706.90
	FillingsUpdate:  mu: -0.169954206  nElectrons: 354.000000
SCF: Cycle: 31   F: -698.291787351006519   dF: -4.465e-07   |Residual|: 1.202e-04   |deigs|: 5.251e-04  t[s]:  27360.77
	FillingsUpdate:  mu: -0.169911715  nElectrons: 354.000000
SCF: Cycle: 32   F: -698.291787560814555   dF: -2.098e-07   |Residual|: 9.267e-05   |deigs|: 4.328e-04  t[s]:  28017.01
	FillingsUpdate:  mu: -0.169892544  nElectrons: 354.000000
SCF: Cycle: 33   F: -698.291787659839883   dF: -9.903e-08   |Residual|: 7.796e-05   |deigs|: 1.378e-04  t[s]:  28673.12
	FillingsUpdate:  mu: -0.169913775  nElectrons: 354.000000
SCF: Cycle: 34   F: -698.291787722408003   dF: -6.257e-08   |Residual|: 4.948e-05   |deigs|: 7.684e-05  t[s]:  29330.13
	FillingsUpdate:  mu: -0.169951996  nElectrons: 354.000000
SCF: Cycle: 35   F: -698.291787751558331   dF: -2.915e-08   |Residual|: 6.491e-05   |deigs|: 1.375e-04  t[s]:  29984.75
	FillingsUpdate:  mu: -0.169973192  nElectrons: 354.000000
SCF: Cycle: 36   F: -698.291787771964323   dF: -2.041e-08   |Residual|: 6.003e-05   |deigs|: 1.080e-04  t[s]:  30638.87
	FillingsUpdate:  mu: -0.169982412  nElectrons: 354.000000
SCF: Cycle: 37   F: -698.291787787125486   dF: -1.516e-08   |Residual|: 1.900e-05   |deigs|: 1.011e-04  t[s]:  31295.19
	FillingsUpdate:  mu: -0.169985099  nElectrons: 354.000000
SCF: Cycle: 38   F: -698.291787789126829   dF: -2.001e-09   |Residual|: 2.127e-05   |deigs|: 4.648e-05  t[s]:  31949.85
	FillingsUpdate:  mu: -0.169988133  nElectrons: 354.000000
SCF: Cycle: 39   F: -698.291787791234810   dF: -2.108e-09   |Residual|: 1.504e-05   |deigs|: 3.200e-05  t[s]:  32561.68
SCF: Converged (|Delta E|<1.000000e-08 for 2 iters).

Setting wave functions to eigenvectors of Hamiltonian

# Ionic positions in cartesian coordinates:
ion C   0.000000000000000   0.000000000000000   1.000007321400000 0
ion C  -2.333835447300000   4.042302545699999   1.000007321400000 0
ion C  11.669120544600000  20.211531625799999   1.000007321400000 0
ion C   4.667689791900001   0.000000000000000   1.000007321400000 0
ion C  23.338297781100000   0.000000000000000   1.000007321400000 0
ion C   2.333816549999999   4.042302545699999   1.000007321400000 0
ion C -11.669158339200001  20.211531625799999   1.000007321400000 0
ion C  -4.667670894600000   8.084623988700001   1.000007321400000 0
ion C   9.335303994599997  16.169229080099999   1.000007321400000 0
ion C   9.335322891900001   0.000000000000000   1.000007321400000 0
ion C  18.670626886499999   0.000000000000000   1.000007321400000 0
ion C  -9.335322891900001  16.169229080099999   1.000007321400000 0
ion C  -7.001487444600000  12.126907637100000   1.000007321400000 0
ion C  14.002993786499999   0.000000000000000   1.000007321400000 0
ion C   0.000000000000000   8.084623988700001   1.000007321400000 0
ion C   7.001487444599997  20.211531625799999   1.000007321400000 0
ion C  -7.001487444600001  20.211531625799999   1.000007321400000 0
ion C  -2.333816549999999  12.126907637100000   1.000007321400000 0
ion C   4.667670894600002  16.169229080099999   1.000007321400000 0
ion C  -2.333816550000000  20.211531625799999   1.000007321400000 0
ion C   2.333816550000000  20.211531625799999   1.000007321400000 0
ion C  -4.667651997299998  16.169229080099999   1.000007321400000 0
ion C   7.001487444600000   4.042302545699999   1.000007321400000 0
ion C  21.004424539199999   4.042302545699999   1.000007321400000 0
ion C  14.002955991899999  16.169229080099999   1.000007321400000 0
ion C   0.000000000000000  16.169229080099999   1.000007321400000 0
ion C  11.669120544600000   4.042302545699999   1.000007321400000 0
ion C  18.670607989199997   8.084623988700001   1.000007321400000 0
ion C  11.669120544599998  12.126907637100000   1.000007321400000 0
ion C  16.336791439199999  12.126907637100000   1.000007321400000 0
ion C  16.336791439199999   4.042302545699999   1.000007321400000 0
ion C   9.335303994599997   8.084623988700001   1.000007321400000 0
ion C  14.002955991899999   8.084623988700001   1.000007321400000 0
ion C   0.000000000000000   2.694868363800000   1.000007321400000 0
ion C  11.669120544600000  22.906399989600001   1.000007321400000 0
ion C -11.669120544600000  22.906399989600001   1.000007321400000 0
ion C  -2.333816550000000   6.737170909500000   1.000007321400000 0
ion C   9.335303994599995  18.864097443900000   1.000007321400000 0
ion C  -7.001487444600000  22.906399989600001   1.000007321400000 0
ion C   7.001487444600000  22.906399989600001   1.000007321400000 0
ion C   2.333816550000000   6.737170909500000   1.000007321400000 0
ion C  -9.335303994599998  18.864097443900000   1.000007321400000 0
ion C  -4.667670894599999  10.779473455200000   1.000007321400000 0
ion C  -2.333816550000000  22.906399989600001   1.000007321400000 0
ion C   2.333816550000000  22.906399989600001   1.000007321400000 0
ion C  -7.001487444600001  14.821794898200000   1.000007321400000 0
ion C   4.667670894600000   2.694868363800000   1.000007321400000 0
ion C  23.338259986499999   2.694868363800000   1.000007321400000 0
ion C  14.002974889199999  18.864097443900000   1.000007321400000 0
ion C   0.000000000000000  10.779473455200000   1.000007321400000 0
ion C   4.667670894600001  18.864097443900000   1.000007321400000 0
ion C  -4.667633100000001  18.864097443900000   1.000007321400000 0
ion C  -2.333816550000001  14.821794898200000   1.000007321400000 0
ion C   2.333816549999998  14.821794898200000   1.000007321400000 0
ion C  -0.000000000000002  18.864097443900000   1.000007321400000 0
ion C   9.335303994599998   2.694868363800000   1.000007321400000 0
ion C  21.004424539199999   6.737170909500000   1.000007321400000 0
ion C  11.669120544600000  14.821794898200000   1.000007321400000 0
ion C  16.336791439199999  14.821794898200000   1.000007321400000 0
ion C  18.670607989199997   2.694868363800000   1.000007321400000 0
ion C   7.001487444600001   6.737170909500000   1.000007321400000 0
ion C  14.002955991899999   2.694868363800000   1.000007321400000 0
ion C  18.670607989200001  10.779473455200000   1.000007321400000 0
ion C  11.669120544599998   6.737170909500000   1.000007321400000 0
ion C  16.336791439199999   6.737170909500000   1.000007321400000 0
ion C  14.002955991899999  10.779473455200000   1.000007321400000 0
ion N   4.667670894599999   8.084623988700001   1.000007321400000 0
ion N   2.333816549999999  12.126907637100000   1.000007321400000 0
ion N   7.001487444599997  14.821794898200000   1.000007321400000 0
ion N   9.335303994599997  10.779473455200000   1.000007321400000 0
ion Fe   5.837111407799997  11.454314935499999   1.000007321400000 0
ion S   1.481038092900000  10.619545605299999  10.936018688399999 1
ion S   4.422119378399998  12.907895251499999  10.366227298800000 1
ion S   4.456890410400000  14.254271184600000   6.771356125200000 1
ion S   8.044637301900000   8.454538636199999   6.521722792199999 1
ion S   8.333728197299997   9.642592989900001  10.160360112599998 1
ion S  11.319652775700000  11.899327453200000  10.621869973200001 1
ion Na   2.889926294400000   9.260262816299999   6.201167892300000 1
ion Na   9.576452439899999  13.476968543700000   6.072911917199999 1

# Forces in Cartesian coordinates:
force C   0.004276506688055  -0.000293427542242   0.000004260620960 0
force C   0.001262213405868  -0.001226718555809  -0.000156608387863 0
force C   0.003614990419770  -0.001596358045463  -0.000062709243514 0
force C   0.001458278524016   0.002775215388271   0.000004051565218 0
force C   0.002435089299598  -0.000366510307121  -0.000020242289325 0
force C   0.004988256283299   0.000675611519671   0.000159656361621 0
force C   0.001028003788265  -0.000638679518748  -0.000015189802837 0
force C  -0.000461552896700   0.001826649048279  -0.000113698158346 0
force C  -0.034467230152846  -0.011662604495247  -0.001078856507182 0
force C  -0.001093332550922   0.000651746730875  -0.000007603672203 0
force C  -0.000613361873892  -0.000193249046575  -0.000006140070785 0
force C  -0.000086923670949   0.001284237751185  -0.000010879564643 0
force C   0.001925370768080   0.003735194011822   0.000004176003811 0
force C  -0.001197731467333  -0.000592021747769  -0.000015973924539 0
force C   0.010111371583084   0.006126613469142   0.001011288292409 0
force C   0.002678963271070   0.002592348802533  -0.000113209178969 0
force C   0.001420442955109   0.000769300628743  -0.000014590034731 0
force C   0.003427659476942   0.004001560920150   0.000161563901264 0
force C   0.028448669210094   0.011401341348112  -0.000363736779686 0
force C   0.000052578766379  -0.001111764734796  -0.000009349890510 0
force C  -0.003227856525795   0.000593237255217  -0.000002676973438 0
force C   0.002918625974466  -0.000090228214658  -0.000015518703396 0
force C   0.005361328651315   0.006373163358402  -0.000664712099362 0
force C   0.001470511977705   0.000925209520957  -0.000010323962973 0
force C   0.000230998944821   0.000042518205742   0.000315923464314 0
force C   0.008515261935965   0.000945782350242  -0.000379646653998 0
force C  -0.000983088452126  -0.002591965281533  -0.000025324515316 0
force C   0.000829319554638   0.002436016694960  -0.000003466085121 0
force C  -0.027956412941232  -0.024736941150101  -0.001351353828785 0
force C   0.000195348548173   0.003785759616524  -0.000087381714506 0
force C  -0.000662613306496  -0.000188750312195  -0.000006863122608 0
force C   0.024476615188128   0.019865163071349  -0.001996795797963 0
force C   0.003144131803448   0.000940469919096  -0.000066982209825 0
force C  -0.003707530745819   0.001714303999257  -0.000035321700163 0
force C  -0.004223843088626   0.000246043524564   0.000014973390362 0
force C  -0.002582279253186   0.000319476737392  -0.000022062980698 0
force C   0.000441896249330   0.000275422326625   0.000266502164505 0
force C  -0.005135109792006  -0.000689267746838   0.000160169693432 0
force C   0.000605424622152   0.000302938032253  -0.000010956131452 0
force C  -0.001345731268447  -0.002738809270606  -0.000021261221346 0
force C   0.033043569717217   0.011649515319709  -0.000904282440082 0
force C  -0.001521135541158  -0.000992280509723  -0.000013630653470 0
force C  -0.000294547205170  -0.003946612799742  -0.000053693559223 0
force C   0.001201192443926   0.000578608547731  -0.000015862917642 0
force C   0.001064329383775  -0.000633032641373  -0.000005287218022 0
force C  -0.000761733244671  -0.002401172546471  -0.000008653848915 0
force C  -0.002544106040119  -0.002729613037883  -0.000128840206632 0
force C  -0.000956934223760   0.000660738076699  -0.000009222781036 0
force C  -0.001236645336049   0.001284692133686  -0.000158110908115 0
force C   0.027905825430476   0.024076418001688  -0.000791509685461 0
force C  -0.005204681466929  -0.006688517907607  -0.000362441775268 0
force C   0.000500442602168   0.000208274077448  -0.000010500104938 0
force C  -0.003354203748605  -0.001343105731474  -0.000038549141010 0
force C  -0.024433792947683  -0.020158807755901  -0.000746672772879 0
force C   0.001093857579365   0.003045599122856  -0.000002554493381 0
force C   0.003025865575005  -0.000601493786778   0.000035356575234 0
force C   0.000162244691669  -0.001175392593682  -0.000021212757333 0
force C  -0.010338934737253  -0.005862659549647   0.001133037084183 0
force C   0.000440599415845  -0.001735379547961  -0.000158770189310 0
force C  -0.001304102510288  -0.000858215875161  -0.000017683718646 0
force C  -0.027863629559938  -0.011716383760930  -0.001118791172083 0
force C   0.000053324366454   0.001197088684033   0.000008838398476 0
force C  -0.001855733949552  -0.003830667604625   0.000013592473737 0
force C  -0.007966292440493  -0.001369731026625  -0.001120628662941 0
force C  -0.003066637480125   0.000085047505717   0.000001565113412 0
force C  -0.002906856146409  -0.004094515652031   0.000366013705076 0
force N   0.025671576023778  -0.027108899720295  -0.001112357439503 0
force N  -0.011886114258905   0.036481685799837  -0.002759942391086 0
force N  -0.025453508166015   0.028053582646532  -0.002352247778533 0
force N   0.012052162654101  -0.035993057433661  -0.004857450353995 0
force Fe   0.000401088393305   0.000540039228707   0.007936758061753 0
force S   0.001167902784713   0.000905016482373   0.001330222885075 1
force S  -0.005214334747680   0.003790244380849  -0.001840333629385 1
force S   0.000417896000408  -0.000500330499976   0.008258008528297 1
force S  -0.000011595224386   0.000410728741434   0.012010126101514 1
force S   0.004845793148835  -0.004049558315156  -0.001443991935050 1
force S  -0.001238037190693  -0.001013188061161   0.001241478576323 1
force Na  -0.001599317953502  -0.001402145197814  -0.004070563788253 1
force Na   0.000924595108546   0.001603159212539  -0.003427303627536 1

# Energy components:
   Eewald =    -1857.9575418565957534
       EH =    -1313.5350386568775320
     Eloc =     2401.2535301111747685
      Enl =      -55.2201092184549793
      Exc =     -184.5226152882498809
 Exc_core =       13.9690375239488063
       KE =      297.8126116962335459
-------------------------------------
     Etot =     -698.2001256888213447
       TS =        0.0916621024135155
-------------------------------------
        F =     -698.2917877912348104

IonicMinimize: Iter:   0  F: -698.291787791234810  |grad|_K:  3.787e-03  alpha:  1.000e+00

#--- Lowdin population analysis ---
# oxidation-state C +0.046 +0.035 +0.038 +0.039 +0.041 +0.022 +0.040 +0.036 +0.117 +0.044 +0.041 +0.040 +0.048 +0.045 -0.016 +0.050 +0.046 +0.028 +0.129 +0.044 +0.041 +0.040 +0.038 +0.048 +0.044 +0.041 +0.041 +0.043 +0.117 +0.040 +0.042 +0.132 +0.052 +0.038 +0.046 +0.041 +0.047 +0.024 +0.041 +0.039 +0.116 +0.048 +0.041 +0.044 +0.044 +0.042 +0.049 +0.040 +0.034 +0.128 +0.039 +0.042 +0.052 +0.134 +0.041 +0.041 +0.041 -0.025 +0.035 +0.046 +0.127 +0.045 +0.047 +0.043 +0.041 +0.026
# oxidation-state N -0.153 -0.143 -0.146 -0.143
# oxidation-state Fe +0.070
# oxidation-state S -0.341 +0.397 -0.374 -0.376 +0.396 -0.342
# oxidation-state Na +0.725 +0.725


-------- Electronic minimization -----------
Will mix electronic density at each iteration.
	FillingsUpdate:  mu: -0.169988133  nElectrons: 354.000000
	FillingsUpdate:  mu: -0.170127332  nElectrons: 354.000000
SCF: Cycle:  0   F: -698.291984016423385   dF: +6.402e-05   |Residual|: 4.938e-03   |deigs|: 3.797e-06  t[s]:  33752.26
	FillingsUpdate:  mu: -0.169450926  nElectrons: 354.000000
SCF: Cycle:  1   F: -698.286800982301543   dF: +5.183e-03   |Residual|: 4.008e-02   |deigs|: 3.407e-04  t[s]:  34199.52
	FillingsUpdate:  mu: -0.170093242  nElectrons: 354.000000
SCF: Cycle:  2   F: -698.292081616251608   dF: -5.281e-03   |Residual|: 2.089e-03   |deigs|: 3.183e-04  t[s]:  34645.24
	FillingsUpdate:  mu: -0.170059429  nElectrons: 354.000000
SCF: Cycle:  3   F: -698.292100415577011   dF: -1.880e-05   |Residual|: 4.517e-04   |deigs|: 5.465e-05  t[s]:  35089.75
	FillingsUpdate:  mu: -0.170052927  nElectrons: 354.000000
SCF: Cycle:  4   F: -698.292101780557687   dF: -1.365e-06   |Residual|: 2.728e-04   |deigs|: 4.387e-05  t[s]:  35535.17
	FillingsUpdate:  mu: -0.170049540  nElectrons: 354.000000
SCF: Cycle:  5   F: -698.292102054236125   dF: -2.737e-07   |Residual|: 3.791e-04   |deigs|: 6.207e-05  t[s]:  35981.47
	FillingsUpdate:  mu: -0.170034368  nElectrons: 354.000000
SCF: Cycle:  6   F: -698.292103080443212   dF: -1.026e-06   |Residual|: 1.461e-04   |deigs|: 6.213e-05  t[s]:  36429.04
	FillingsUpdate:  mu: -0.170024854  nElectrons: 354.000000
SCF: Cycle:  7   F: -698.292103477904675   dF: -3.975e-07   |Residual|: 8.182e-05   |deigs|: 8.418e-05  t[s]:  36874.09
	FillingsUpdate:  mu: -0.170019219  nElectrons: 354.000000
SCF: Cycle:  8   F: -698.292103563391947   dF: -8.549e-08   |Residual|: 1.148e-04   |deigs|: 5.831e-05  t[s]:  37319.26
	FillingsUpdate:  mu: -0.170008096  nElectrons: 354.000000
SCF: Cycle:  9   F: -698.292103696096319   dF: -1.327e-07   |Residual|: 4.047e-05   |deigs|: 5.007e-05  t[s]:  37972.82
	FillingsUpdate:  mu: -0.169997284  nElectrons: 354.000000
SCF: Cycle: 10   F: -698.292103758925919   dF: -6.283e-08   |Residual|: 3.306e-05   |deigs|: 3.151e-05  t[s]:  38627.65
	FillingsUpdate:  mu: -0.169988595  nElectrons: 354.000000
SCF: Cycle: 11   F: -698.292103790984470   dF: -3.206e-08   |Residual|: 2.746e-05   |deigs|: 3.248e-05  t[s]:  39279.16
	FillingsUpdate:  mu: -0.169976720  nElectrons: 354.000000
SCF: Cycle: 12   F: -698.292103814048346   dF: -2.306e-08   |Residual|: 2.272e-05   |deigs|: 8.062e-05  t[s]:  39932.51
	FillingsUpdate:  mu: -0.169969420  nElectrons: 354.000000
SCF: Cycle: 13   F: -698.292103819853651   dF: -5.805e-09   |Residual|: 1.434e-05   |deigs|: 8.483e-05  t[s]:  40589.27
	FillingsUpdate:  mu: -0.169964761  nElectrons: 354.000000
SCF: Cycle: 14   F: -698.292103822377612   dF: -2.524e-09   |Residual|: 1.131e-05   |deigs|: 6.781e-05  t[s]:  41246.26
SCF: Converged (|Delta E|<1.000000e-08 for 2 iters).

Setting wave functions to eigenvectors of Hamiltonian
IonicMinimize: 	Predicted alpha/alphaT>3.000000, increasing alphaT to 3.000000e+00.

-------- Electronic minimization -----------
Will mix electronic density at each iteration.
	FillingsUpdate:  mu: -0.169964761  nElectrons: 354.000000
	FillingsUpdate:  mu: -0.167876460  nElectrons: 354.000000
SCF: Cycle:  0   F: -698.270478494847907   dF: +1.637e-02   |Residual|: 7.066e-02   |deigs|: 4.689e-05  t[s]:  42309.47
	FillingsUpdate:  mu: -0.175279330  nElectrons: 354.000000
SCF: Cycle:  1   F: -697.544741895728635   dF: +7.257e-01   |Residual|: 4.940e-01   |deigs|: 4.939e-03  t[s]:  43092.63
	FillingsUpdate:  mu: -0.168703580  nElectrons: 354.000000
SCF: Cycle:  2   F: -698.291687003735547   dF: -7.469e-01   |Residual|: 1.776e-02   |deigs|: 4.562e-03  t[s]:  43872.02
	FillingsUpdate:  mu: -0.168744318  nElectrons: 354.000000
SCF: Cycle:  3   F: -698.292151287071306   dF: -4.643e-04   |Residual|: 1.067e-02   |deigs|: 2.854e-04  t[s]:  44572.82
	FillingsUpdate:  mu: -0.168914194  nElectrons: 354.000000
SCF: Cycle:  4   F: -698.292489736047060   dF: -3.384e-04   |Residual|: 3.997e-03   |deigs|: 1.540e-04  t[s]:  45018.16
	FillingsUpdate:  mu: -0.168986314  nElectrons: 354.000000
SCF: Cycle:  5   F: -698.292499061203102   dF: -9.325e-06   |Residual|: 2.607e-03   |deigs|: 1.062e-04  t[s]:  45463.38
	FillingsUpdate:  mu: -0.169096970  nElectrons: 354.000000
SCF: Cycle:  6   F: -698.292534224758242   dF: -3.516e-05   |Residual|: 1.427e-03   |deigs|: 7.196e-05  t[s]:  45906.11
	FillingsUpdate:  mu: -0.169129105  nElectrons: 354.000000
SCF: Cycle:  7   F: -698.292526685600251   dF: +7.539e-06   |Residual|: 2.284e-03   |deigs|: 1.300e-04  t[s]:  46351.28
	FillingsUpdate:  mu: -0.169220174  nElectrons: 354.000000
SCF: Cycle:  8   F: -698.292550407339604   dF: -2.372e-05   |Residual|: 3.680e-04   |deigs|: 1.157e-04  t[s]:  46794.87
	FillingsUpdate:  mu: -0.169323078  nElectrons: 354.000000
SCF: Cycle:  9   F: -698.292554784544109   dF: -4.377e-06   |Residual|: 5.799e-04   |deigs|: 2.049e-04  t[s]:  47240.44
	FillingsUpdate:  mu: -0.169403800  nElectrons: 354.000000
SCF: Cycle: 10   F: -698.292558367044990   dF: -3.583e-06   |Residual|: 3.654e-04   |deigs|: 2.239e-04  t[s]:  47894.52
	FillingsUpdate:  mu: -0.169475708  nElectrons: 354.000000
SCF: Cycle: 11   F: -698.292560533875303   dF: -2.167e-06   |Residual|: 1.953e-04   |deigs|: 1.655e-04  t[s]:  48547.61
	FillingsUpdate:  mu: -0.169529406  nElectrons: 354.000000
SCF: Cycle: 12   F: -698.292561311641975   dF: -7.778e-07   |Residual|: 1.863e-04   |deigs|: 1.108e-04  t[s]:  49206.57
	FillingsUpdate:  mu: -0.169615631  nElectrons: 354.000000
SCF: Cycle: 13   F: -698.292562029135183   dF: -7.175e-07   |Residual|: 1.524e-04   |deigs|: 1.417e-04  t[s]:  49858.70
	FillingsUpdate:  mu: -0.169654209  nElectrons: 354.000000
SCF: Cycle: 14   F: -698.292562189408159   dF: -1.603e-07   |Residual|: 1.459e-04   |deigs|: 8.215e-05  t[s]:  50512.41
	FillingsUpdate:  mu: -0.169680139  nElectrons: 354.000000
SCF: Cycle: 15   F: -698.292562246457123   dF: -5.705e-08   |Residual|: 8.761e-05   |deigs|: 1.391e-04  t[s]:  51168.37
	FillingsUpdate:  mu: -0.169712359  nElectrons: 354.000000
SCF: Cycle: 16   F: -698.292562253495703   dF: -7.039e-09   |Residual|: 5.071e-05   |deigs|: 1.715e-04  t[s]:  51823.03
	FillingsUpdate:  mu: -0.169730447  nElectrons: 354.000000
SCF: Cycle: 17   F: -698.292562267631979   dF: -1.414e-08   |Residual|: 5.949e-05   |deigs|: 7.454e-05  t[s]:  52487.58
	FillingsUpdate:  mu: -0.169748239  nElectrons: 354.000000
SCF: Cycle: 18   F: -698.292562289017496   dF: -2.139e-08   |Residual|: 3.704e-05   |deigs|: 3.577e-05  t[s]:  53142.58
	FillingsUpdate:  mu: -0.169760561  nElectrons: 354.000000
SCF: Cycle: 19   F: -698.292562299172801   dF: -1.016e-08   |Residual|: 3.175e-05   |deigs|: 3.505e-05  t[s]:  53800.43
	FillingsUpdate:  mu: -0.169773752  nElectrons: 354.000000
SCF: Cycle: 20   F: -698.292562305554611   dF: -6.382e-09   |Residual|: 2.146e-05   |deigs|: 6.380e-05  t[s]:  54452.55
	FillingsUpdate:  mu: -0.169790856  nElectrons: 354.000000
SCF: Cycle: 21   F: -698.292562309184632   dF: -3.630e-09   |Residual|: 1.884e-05   |deigs|: 1.202e-04  t[s]:  55111.70
SCF: Converged (|Delta E|<1.000000e-08 for 2 iters).

Setting wave functions to eigenvectors of Hamiltonian

-------- Electronic minimization -----------
Will mix electronic density at each iteration.
	FillingsUpdate:  mu: -0.169790856  nElectrons: 354.000000
	FillingsUpdate:  mu: -0.166746143  nElectrons: 354.000000
SCF: Cycle:  0   F: -698.242523160025598   dF: +3.740e-02   |Residual|: 1.067e-01   |deigs|: 1.047e-04  t[s]:  56161.53
	FillingsUpdate:  mu: -0.175913296  nElectrons: 354.000000
SCF: Cycle:  1   F: -697.065917438394422   dF: +1.177e+00   |Residual|: 6.470e-01   |deigs|: 7.339e-03  t[s]:  56945.15
	FillingsUpdate:  mu: -0.168295539  nElectrons: 354.000000
SCF: Cycle:  2   F: -698.291228727055113   dF: -1.225e+00   |Residual|: 2.707e-02   |deigs|: 6.660e-03  t[s]:  57725.97
	FillingsUpdate:  mu: -0.167672822  nElectrons: 354.000000
SCF: Cycle:  3   F: -698.287522103589822   dF: +3.707e-03   |Residual|: 3.841e-02   |deigs|: 4.812e-04  t[s]:  58503.18
	FillingsUpdate:  mu: -0.168658160  nElectrons: 354.000000
SCF: Cycle:  4   F: -698.291410188244186   dF: -3.888e-03   |Residual|: 1.972e-02   |deigs|: 4.812e-04  t[s]:  58950.23
	FillingsUpdate:  mu: -0.168223149  nElectrons: 354.000000
SCF: Cycle:  5   F: -698.292118330831613   dF: -7.081e-04   |Residual|: 1.304e-02   |deigs|: 2.484e-04  t[s]:  59396.27
	FillingsUpdate:  mu: -0.168537065  nElectrons: 354.000000
SCF: Cycle:  6   F: -698.292727263057941   dF: -6.089e-04   |Residual|: 1.973e-03   |deigs|: 1.623e-04  t[s]:  59844.31
	FillingsUpdate:  mu: -0.168577905  nElectrons: 354.000000
SCF: Cycle:  7   F: -698.292737130734508   dF: -9.868e-06   |Residual|: 1.549e-03   |deigs|: 1.240e-04  t[s]:  60291.02
	FillingsUpdate:  mu: -0.168709579  nElectrons: 354.000000
SCF: Cycle:  8   F: -698.292751872967870   dF: -1.474e-05   |Residual|: 1.840e-03   |deigs|: 2.317e-04  t[s]:  60736.96
	FillingsUpdate:  mu: -0.168884754  nElectrons: 354.000000
SCF: Cycle:  9   F: -698.292772291237043   dF: -2.042e-05   |Residual|: 1.146e-03   |deigs|: 2.581e-04  t[s]:  61180.27
	FillingsUpdate:  mu: -0.169006416  nElectrons: 354.000000
SCF: Cycle: 10   F: -698.292783195674474   dF: -1.090e-05   |Residual|: 3.704e-04   |deigs|: 2.836e-04  t[s]:  61627.10
	FillingsUpdate:  mu: -0.169121031  nElectrons: 354.000000
SCF: Cycle: 11   F: -698.292787749531726   dF: -4.554e-06   |Residual|: 3.034e-04   |deigs|: 2.391e-04  t[s]:  62073.61
	FillingsUpdate:  mu: -0.169217780  nElectrons: 354.000000
SCF: Cycle: 12   F: -698.292790023416046   dF: -2.274e-06   |Residual|: 2.643e-04   |deigs|: 1.625e-04  t[s]:  62730.62
	FillingsUpdate:  mu: -0.169312764  nElectrons: 354.000000
SCF: Cycle: 13   F: -698.292790722603741   dF: -6.992e-07   |Residual|: 4.440e-04   |deigs|: 1.403e-04  t[s]:  63390.40
	FillingsUpdate:  mu: -0.169392647  nElectrons: 354.000000
SCF: Cycle: 14   F: -698.292791831375780   dF: -1.109e-06   |Residual|: 1.637e-04   |deigs|: 1.157e-04  t[s]:  64045.27
	FillingsUpdate:  mu: -0.169435608  nElectrons: 354.000000
SCF: Cycle: 15   F: -698.292791915332032   dF: -8.396e-08   |Residual|: 1.325e-04   |deigs|: 1.723e-04  t[s]:  64702.78
	FillingsUpdate:  mu: -0.169482853  nElectrons: 354.000000
SCF: Cycle: 16   F: -698.292791902574209   dF: +1.276e-08   |Residual|: 1.086e-04   |deigs|: 2.806e-04  t[s]:  65362.47
	FillingsUpdate:  mu: -0.169515056  nElectrons: 354.000000
SCF: Cycle: 17   F: -698.292791967742232   dF: -6.517e-08   |Residual|: 7.338e-05   |deigs|: 9.148e-05  t[s]:  66030.20
	FillingsUpdate:  mu: -0.169542804  nElectrons: 354.000000
SCF: Cycle: 18   F: -698.292792015474674   dF: -4.773e-08   |Residual|: 5.079e-05   |deigs|: 5.010e-05  t[s]:  66687.19
	FillingsUpdate:  mu: -0.169561275  nElectrons: 354.000000
SCF: Cycle: 19   F: -698.292792036336095   dF: -2.086e-08   |Residual|: 3.697e-05   |deigs|: 4.912e-05  t[s]:  67346.13
	FillingsUpdate:  mu: -0.169578742  nElectrons: 354.000000
SCF: Cycle: 20   F: -698.292792044905354   dF: -8.569e-09   |Residual|: 5.190e-05   |deigs|: 7.610e-05  t[s]:  68003.82
	FillingsUpdate:  mu: -0.169603545  nElectrons: 354.000000
SCF: Cycle: 21   F: -698.292792054870574   dF: -9.965e-09   |Residual|: 2.817e-05   |deigs|: 1.349e-04  t[s]:  68662.57
SCF: Converged (|Delta E|<1.000000e-08 for 2 iters).

Setting wave functions to eigenvectors of Hamiltonian

# Ionic positions in cartesian coordinates:
ion C   0.000000000000000   0.000000000000000   1.000007321400000 0
ion C  -2.333835447300000   4.042302545699999   1.000007321400000 0
ion C  11.669120544600000  20.211531625799999   1.000007321400000 0
ion C   4.667689791900001   0.000000000000000   1.000007321400000 0
ion C  23.338297781100000   0.000000000000000   1.000007321400000 0
ion C   2.333816549999999   4.042302545699999   1.000007321400000 0
ion C -11.669158339200001  20.211531625799999   1.000007321400000 0
ion C  -4.667670894600000   8.084623988700001   1.000007321400000 0
ion C   9.335303994599997  16.169229080099999   1.000007321400000 0
ion C   9.335322891900001   0.000000000000000   1.000007321400000 0
ion C  18.670626886499999   0.000000000000000   1.000007321400000 0
ion C  -9.335322891900001  16.169229080099999   1.000007321400000 0
ion C  -7.001487444600000  12.126907637100000   1.000007321400000 0
ion C  14.002993786499999   0.000000000000000   1.000007321400000 0
ion C   0.000000000000000   8.084623988700001   1.000007321400000 0
ion C   7.001487444599997  20.211531625799999   1.000007321400000 0
ion C  -7.001487444600001  20.211531625799999   1.000007321400000 0
ion C  -2.333816549999999  12.126907637100000   1.000007321400000 0
ion C   4.667670894600002  16.169229080099999   1.000007321400000 0
ion C  -2.333816550000000  20.211531625799999   1.000007321400000 0
ion C   2.333816550000000  20.211531625799999   1.000007321400000 0
ion C  -4.667651997299998  16.169229080099999   1.000007321400000 0
ion C   7.001487444600000   4.042302545699999   1.000007321400000 0
ion C  21.004424539199999   4.042302545699999   1.000007321400000 0
ion C  14.002955991899999  16.169229080099999   1.000007321400000 0
ion C   0.000000000000000  16.169229080099999   1.000007321400000 0
ion C  11.669120544600000   4.042302545699999   1.000007321400000 0
ion C  18.670607989199997   8.084623988700001   1.000007321400000 0
ion C  11.669120544599998  12.126907637100000   1.000007321400000 0
ion C  16.336791439199999  12.126907637100000   1.000007321400000 0
ion C  16.336791439199999   4.042302545699999   1.000007321400000 0
ion C   9.335303994599997   8.084623988700001   1.000007321400000 0
ion C  14.002955991899999   8.084623988700001   1.000007321400000 0
ion C   0.000000000000000   2.694868363800000   1.000007321400000 0
ion C  11.669120544600000  22.906399989600001   1.000007321400000 0
ion C -11.669120544600000  22.906399989600001   1.000007321400000 0
ion C  -2.333816550000000   6.737170909500000   1.000007321400000 0
ion C   9.335303994599995  18.864097443900000   1.000007321400000 0
ion C  -7.001487444600000  22.906399989600001   1.000007321400000 0
ion C   7.001487444600000  22.906399989600001   1.000007321400000 0
ion C   2.333816550000000   6.737170909500000   1.000007321400000 0
ion C  -9.335303994599998  18.864097443900000   1.000007321400000 0
ion C  -4.667670894599999  10.779473455200000   1.000007321400000 0
ion C  -2.333816550000000  22.906399989600001   1.000007321400000 0
ion C   2.333816550000000  22.906399989600001   1.000007321400000 0
ion C  -7.001487444600001  14.821794898200000   1.000007321400000 0
ion C   4.667670894600000   2.694868363800000   1.000007321400000 0
ion C  23.338259986499999   2.694868363800000   1.000007321400000 0
ion C  14.002974889199999  18.864097443900000   1.000007321400000 0
ion C   0.000000000000000  10.779473455200000   1.000007321400000 0
ion C   4.667670894600001  18.864097443900000   1.000007321400000 0
ion C  -4.667633100000001  18.864097443900000   1.000007321400000 0
ion C  -2.333816550000001  14.821794898200000   1.000007321400000 0
ion C   2.333816549999998  14.821794898200000   1.000007321400000 0
ion C  -0.000000000000002  18.864097443900000   1.000007321400000 0
ion C   9.335303994599998   2.694868363800000   1.000007321400000 0
ion C  21.004424539199999   6.737170909500000   1.000007321400000 0
ion C  11.669120544600000  14.821794898200000   1.000007321400000 0
ion C  16.336791439199999  14.821794898200000   1.000007321400000 0
ion C  18.670607989199997   2.694868363800000   1.000007321400000 0
ion C   7.001487444600001   6.737170909500000   1.000007321400000 0
ion C  14.002955991899999   2.694868363800000   1.000007321400000 0
ion C  18.670607989200001  10.779473455200000   1.000007321400000 0
ion C  11.669120544599998   6.737170909500000   1.000007321400000 0
ion C  16.336791439199999   6.737170909500000   1.000007321400000 0
ion C  14.002955991899999  10.779473455200000   1.000007321400000 0
ion N   4.667670894599999   8.084623988700001   1.000007321400000 0
ion N   2.333816549999999  12.126907637100000   1.000007321400000 0
ion N   7.001487444599997  14.821794898200000   1.000007321400000 0
ion N   9.335303994599997  10.779473455200000   1.000007321400000 0
ion Fe   5.837111407799997  11.454314935499999   1.000007321400000 0
ion S   1.488043856830620  10.624974423444639  10.943998143222720 1
ion S   4.390840749069167  12.930631353955754  10.355187901403392 1
ion S   4.459397195009759  14.251269909651430   6.820892489907379 1
ion S   8.044567746962866   8.457002427398777   6.593766552473149 1
ion S   8.362796098585727   9.618301370810967  10.151698204479649 1
ion S  11.312226304585401  11.893249758663497  10.629317087758242 1
ion Na   2.880332649981221   9.251851929382935   6.176750270098641 1
ion Na   9.581998702094651  13.486585230236976   6.052352945642292 1

# Forces in Cartesian coordinates:
force C   0.004302893863250  -0.000276475643571  -0.000021520646034 0
force C   0.001271726181077  -0.001186633176367  -0.000182580478308 0
force C   0.003613269986653  -0.001582230657479  -0.000086746715626 0
force C   0.001441833857113   0.002808137158027  -0.000023148911920 0
force C   0.002446992549950  -0.000357001863083  -0.000047268654491 0
force C   0.004982288122773   0.000682656377249   0.000108451995123 0
force C   0.001047352940381  -0.000628915996548  -0.000040545195334 0
force C  -0.000420041736040   0.001818242878265  -0.000139442224049 0
force C  -0.034325278741318  -0.011538621125479  -0.001097496269539 0
force C  -0.001081473917770   0.000627902663877  -0.000035965082620 0
force C  -0.000625378504293  -0.000179567270720  -0.000032361070487 0
force C  -0.000067150950466   0.001302305030446  -0.000036607642403 0
force C   0.001949714493271   0.003748264504396  -0.000022276203628 0
force C  -0.001166338667700  -0.000574259778178  -0.000040609891793 0
force C   0.010186656173870   0.006175953384074   0.001000405987383 0
force C   0.002707334345303   0.002650659906877  -0.000140506366147 0
force C   0.001451516918945   0.000794914212777  -0.000039271444752 0
force C   0.003429016895658   0.003979978447380   0.000121417943985 0
force C   0.028252019064291   0.011375954604612  -0.000414636586086 0
force C   0.000036613793764  -0.001093495975557  -0.000035711300629 0
force C  -0.003225400032106   0.000585404739776  -0.000028677411674 0
force C   0.002936987505531  -0.000107654762496  -0.000042084352242 0
force C   0.005407304958072   0.006474126569806  -0.000626605494370 0
force C   0.001506774518284   0.000950275064202  -0.000036401659530 0
force C   0.000352477796968   0.000110732261501   0.000296708336990 0
force C   0.008549266496341   0.000969952976163  -0.000389892525942 0
force C  -0.001002415143633  -0.002618391953362  -0.000051095803625 0
force C   0.000840872949175   0.002443345712229  -0.000030555996877 0
force C  -0.027730879118562  -0.024642096589018  -0.001364006112953 0
force C   0.000215814965169   0.003784707554212  -0.000110742909928 0
force C  -0.000649163677941  -0.000207706846176  -0.000035092949032 0
force C   0.024307255835749   0.019684765564179  -0.001989142957856 0
force C   0.003235996264761   0.000955559409377  -0.000098249819688 0
force C  -0.003714354493750   0.001695623109057  -0.000059832177396 0
force C  -0.004249343440020   0.000230352126679  -0.000011284367519 0
force C  -0.002592199420339   0.000309558640273  -0.000049355938949 0
force C   0.000327631806901   0.000212087121359   0.000248009330641 0
force C  -0.005115648038105  -0.000687699193917   0.000120134405638 0
force C   0.000618876846039   0.000276983042394  -0.000037980479983 0
force C  -0.001337117454666  -0.002766940120100  -0.000047029595665 0
force C   0.032828370734739   0.011505796118913  -0.000931932108726 0
force C  -0.001557143249855  -0.001018468160759  -0.000039369423475 0
force C  -0.000300319591275  -0.003937648668226  -0.000077697977110 0
force C   0.001168666102058   0.000558799346633  -0.000040586991049 0
force C   0.001057846588806  -0.000614131121689  -0.000031434813381 0
force C  -0.000774741144639  -0.002408296133282  -0.000035165904345 0
force C  -0.002600491964843  -0.002813283477397  -0.000153890959746 0
force C  -0.000976851108912   0.000651142273262  -0.000035124947667 0
force C  -0.001243689663016   0.001244878862329  -0.000183170665213 0
force C   0.027756628106046   0.024025657203846  -0.000814275882021 0
force C  -0.005247743541545  -0.006734401736920  -0.000367913575498 0
force C   0.000496643908148   0.000220253702290  -0.000036773558240 0
force C  -0.003404225604714  -0.001339513799468  -0.000070344620209 0
force C  -0.024300851909843  -0.020021390646761  -0.000752952728419 0
force C   0.001100925580850   0.003029193954277  -0.000032250955572 0
force C   0.003056716107895  -0.000599861277314   0.000008885696805 0
force C   0.000145741053274  -0.001191388730815  -0.000047587381153 0
force C  -0.010394318342407  -0.005917178274428   0.001097145987440 0
force C   0.000400222558901  -0.001729095467978  -0.000182645536109 0
force C  -0.001338757188335  -0.000877228983193  -0.000042464507193 0
force C  -0.027531412961861  -0.011684924059987  -0.001152684348530 0
force C   0.000066115950049   0.001171944099360  -0.000021061190657 0
force C  -0.001881666050128  -0.003841460651811  -0.000011951924188 0
force C  -0.008100359676213  -0.001338508704687  -0.001053040229876 0
force C  -0.003083651260826   0.000113365894141  -0.000027982098459 0
force C  -0.002914221748105  -0.004078493652121   0.000305866533526 0
force N   0.025873391542624  -0.026859071817345  -0.000677681094748 0
force N  -0.011620923351237   0.036480958490870  -0.002471357010382 0
force N  -0.025615964359389   0.027823353510830  -0.001999348606545 0
force N   0.011720192877565  -0.036130823558986  -0.004291109468211 0
force Fe   0.000358912617770   0.000564039569401   0.007330532551912 0
force S  -0.002015780644564  -0.001399623657004   0.000764491623440 1
force S  -0.000874432910379   0.001854431413088   0.008087886515059 1
force S   0.000015272044937   0.002515485521505  -0.001967121475666 1
force S  -0.000634769072309  -0.003325972384566  -0.001597409351606 1
force S   0.001404283890819  -0.001493755557611   0.011110282887161 1
force S   0.002023729242639   0.001399412668869   0.000824048020463 1
force Na  -0.001682223351910  -0.001044305829816  -0.003467404720420 1
force Na   0.001023756009511   0.001299730896137  -0.002876781082082 1

# Energy components:
   Eewald =    -1858.8468295692182437
       EH =    -1314.4704576351118703
     Eloc =     2403.0143720949845374
      Enl =      -55.2064309608458927
      Exc =     -184.5494380775671743
 Exc_core =       13.9690391466250716
       KE =      297.8887545987246313
-------------------------------------
     Etot =     -698.2009904024089337
       TS =        0.0918016524616033
-------------------------------------
        F =     -698.2927920548705742

IonicMinimize: Iter:   1  F: -698.292792054870574  |grad|_K:  3.303e-03  alpha:  5.999e+00  linmin:  8.007e-03  t[s]:  68804.08

#--- Lowdin population analysis ---
# oxidation-state C +0.046 +0.035 +0.038 +0.039 +0.041 +0.022 +0.039 +0.036 +0.116 +0.044 +0.041 +0.040 +0.047 +0.044 -0.017 +0.049 +0.046 +0.028 +0.129 +0.044 +0.040 +0.040 +0.038 +0.048 +0.044 +0.040 +0.041 +0.042 +0.116 +0.040 +0.042 +0.132 +0.052 +0.038 +0.046 +0.041 +0.047 +0.023 +0.041 +0.039 +0.115 +0.048 +0.041 +0.044 +0.044 +0.042 +0.048 +0.040 +0.034 +0.127 +0.039 +0.041 +0.052 +0.134 +0.041 +0.040 +0.041 -0.026 +0.035 +0.046 +0.127 +0.045 +0.047 +0.042 +0.041 +0.026
# oxidation-state N -0.154 -0.143 -0.147 -0.144
# oxidation-state Fe +0.067
# oxidation-state S -0.340 +0.404 -0.361 -0.360 +0.408 -0.343
# oxidation-state Na +0.725 +0.725


-------- Electronic minimization -----------
Will mix electronic density at each iteration.
	FillingsUpdate:  mu: -0.169603545  nElectrons: 354.000000
	FillingsUpdate:  mu: -0.158271816  nElectrons: 354.000000
SCF: Cycle:  0   F: -698.057277167551092   dF: +1.421e-01   |Residual|: 2.321e-01   |deigs|: 9.643e-04  t[s]:  69833.30
	FillingsUpdate:  mu: -0.170295337  nElectrons: 354.000000
SCF: Cycle:  1   F: -696.113712757245821   dF: +1.944e+00   |Residual|: 9.163e-01   |deigs|: 1.401e-02  t[s]:  70613.33
	FillingsUpdate:  mu: -0.162496134  nElectrons: 354.000000
SCF: Cycle:  2   F: -698.277970517529980   dF: -2.164e+00   |Residual|: 7.722e-02   |deigs|: 1.235e-02  t[s]:  71393.11
	FillingsUpdate:  mu: -0.159211886  nElectrons: 354.000000
SCF: Cycle:  3   F: -698.139302570778568   dF: +1.387e-01   |Residual|: 2.070e-01   |deigs|: 1.873e-03  t[s]:  72175.56
	FillingsUpdate:  mu: -0.165180167  nElectrons: 354.000000
SCF: Cycle:  4   F: -698.205248540628418   dF: -6.595e-02   |Residual|: 1.593e-01   |deigs|: 2.800e-03  t[s]:  72954.71
	FillingsUpdate:  mu: -0.163041753  nElectrons: 354.000000
SCF: Cycle:  5   F: -698.293382897366200   dF: -8.813e-02   |Residual|: 1.162e-02   |deigs|: 1.248e-03  t[s]:  73625.16
	FillingsUpdate:  mu: -0.163584939  nElectrons: 354.000000
SCF: Cycle:  6   F: -698.293053485443011   dF: +3.294e-04   |Residual|: 1.420e-02   |deigs|: 5.018e-04  t[s]:  74070.21
	FillingsUpdate:  mu: -0.163623953  nElectrons: 354.000000
SCF: Cycle:  7   F: -698.293539980619130   dF: -4.865e-04   |Residual|: 3.715e-03   |deigs|: 3.379e-04  t[s]:  74514.56
	FillingsUpdate:  mu: -0.163960447  nElectrons: 354.000000
SCF: Cycle:  8   F: -698.293130859023904   dF: +4.091e-04   |Residual|: 1.151e-02   |deigs|: 5.909e-04  t[s]:  75167.58
	FillingsUpdate:  mu: -0.164671911  nElectrons: 354.000000
SCF: Cycle:  9   F: -698.293772421003268   dF: -6.416e-04   |Residual|: 2.509e-03   |deigs|: 7.479e-04  t[s]:  75824.47
	FillingsUpdate:  mu: -0.165576647  nElectrons: 354.000000
SCF: Cycle: 10   F: -698.293880133384391   dF: -1.077e-04   |Residual|: 4.484e-03   |deigs|: 1.127e-03  t[s]:  76480.19
	FillingsUpdate:  mu: -0.166245810  nElectrons: 354.000000
SCF: Cycle: 11   F: -698.293954645036138   dF: -7.451e-05   |Residual|: 3.718e-03   |deigs|: 9.172e-04  t[s]:  77138.39
	FillingsUpdate:  mu: -0.166782162  nElectrons: 354.000000
SCF: Cycle: 12   F: -698.294025030418879   dF: -7.039e-05   |Residual|: 1.324e-03   |deigs|: 7.346e-04  t[s]:  77792.34
	FillingsUpdate:  mu: -0.167146485  nElectrons: 354.000000
SCF: Cycle: 13   F: -698.294034407145318   dF: -9.377e-06   |Residual|: 1.137e-03   |deigs|: 4.004e-04  t[s]:  78447.24
	FillingsUpdate:  mu: -0.167662010  nElectrons: 354.000000
SCF: Cycle: 14   F: -698.294035117214207   dF: -7.101e-07   |Residual|: 1.422e-03   |deigs|: 5.144e-04  t[s]:  79100.71
	FillingsUpdate:  mu: -0.168103385  nElectrons: 354.000000
SCF: Cycle: 15   F: -698.294041606876590   dF: -6.490e-06   |Residual|: 4.865e-04   |deigs|: 4.187e-04  t[s]:  79754.91
	FillingsUpdate:  mu: -0.168499062  nElectrons: 354.000000
SCF: Cycle: 16   F: -698.294039077913794   dF: +2.529e-06   |Residual|: 8.551e-04   |deigs|: 6.486e-04  t[s]:  80407.56
	FillingsUpdate:  mu: -0.168738591  nElectrons: 354.000000
SCF: Cycle: 17   F: -698.294040790401255   dF: -1.712e-06   |Residual|: 4.172e-04   |deigs|: 2.423e-04  t[s]:  81061.69
	FillingsUpdate:  mu: -0.168929758  nElectrons: 354.000000
SCF: Cycle: 18   F: -698.294041888995594   dF: -1.099e-06   |Residual|: 2.773e-04   |deigs|: 2.291e-04  t[s]:  81720.23
	FillingsUpdate:  mu: -0.169073539  nElectrons: 354.000000
SCF: Cycle: 19   F: -698.294042396601412   dF: -5.076e-07   |Residual|: 3.261e-04   |deigs|: 2.125e-04  t[s]:  82373.25
	FillingsUpdate:  mu: -0.169241364  nElectrons: 354.000000
SCF: Cycle: 20   F: -698.294042874233583   dF: -4.776e-07   |Residual|: 4.513e-04   |deigs|: 3.841e-04  t[s]:  83028.58
	FillingsUpdate:  mu: -0.169387618  nElectrons: 354.000000
SCF: Cycle: 21   F: -698.294043714362033   dF: -8.401e-07   |Residual|: 1.977e-04   |deigs|: 3.481e-04  t[s]:  83682.25
	FillingsUpdate:  mu: -0.169481548  nElectrons: 354.000000
SCF: Cycle: 22   F: -698.294044001899124   dF: -2.875e-07   |Residual|: 1.812e-04   |deigs|: 1.549e-04  t[s]:  84335.67
	FillingsUpdate:  mu: -0.169550632  nElectrons: 354.000000
SCF: Cycle: 23   F: -698.294044128178257   dF: -1.263e-07   |Residual|: 1.108e-04   |deigs|: 1.198e-04  t[s]:  84990.45
	FillingsUpdate:  mu: -0.169589603  nElectrons: 354.000000
SCF: Cycle: 24   F: -698.294044126140648   dF: +2.038e-09   |Residual|: 1.353e-04   |deigs|: 1.303e-04  t[s]:  85645.58
	FillingsUpdate:  mu: -0.169654510  nElectrons: 354.000000
SCF: Cycle: 25   F: -698.294044032725310   dF: +9.342e-08   |Residual|: 2.413e-04   |deigs|: 1.436e-04  t[s]:  86319.68
	FillingsUpdate:  mu: -0.169693856  nElectrons: 354.000000
SCF: Cycle: 26   F: -698.294044176997318   dF: -1.443e-07   |Residual|: 1.206e-04   |deigs|: 5.691e-05  t[s]:  86976.26
	FillingsUpdate:  mu: -0.169724060  nElectrons: 354.000000
SCF: Cycle: 27   F: -698.294044220814158   dF: -4.382e-08   |Residual|: 3.491e-05   |deigs|: 5.869e-05  t[s]:  87629.08
	FillingsUpdate:  mu: -0.169736114  nElectrons: 354.000000
SCF: Cycle: 28   F: -698.294044228502798   dF: -7.689e-09   |Residual|: 2.320e-05   |deigs|: 5.773e-05  t[s]:  88284.44
	FillingsUpdate:  mu: -0.169736787  nElectrons: 354.000000
SCF: Cycle: 29   F: -698.294044231052226   dF: -2.549e-09   |Residual|: 2.207e-05   |deigs|: 3.813e-05  t[s]:  88941.01
SCF: Converged (|Delta E|<1.000000e-08 for 2 iters).

Setting wave functions to eigenvectors of Hamiltonian
IonicMinimize: 	Predicted alpha/alphaT>3.000000, increasing alphaT to 1.799575e+01.

-------- Electronic minimization -----------
Will mix electronic density at each iteration.
	FillingsUpdate:  mu: -0.169736787  nElectrons: 354.000000
	FillingsUpdate:  mu: -0.146005889  nElectrons: 354.000000
SCF: Cycle:  0   F: -697.362959615012187   dF: +5.522e-01   |Residual|: 4.538e-01   |deigs|: 3.879e-03  t[s]:  89992.41
	FillingsUpdate:  mu: -0.164009505  nElectrons: 354.000000
SCF: Cycle:  1   F: -694.137883133548030   dF: +3.225e+00   |Residual|: 1.330e+00   |deigs|: 2.519e-02  t[s]:  90770.89
	FillingsUpdate:  mu: -0.155820340  nElectrons: 354.000000
SCF: Cycle:  2   F: -698.211389224690947   dF: -4.074e+00   |Residual|: 1.796e-01   |deigs|: 2.205e-02  t[s]:  91551.33
	FillingsUpdate:  mu: -0.145050925  nElectrons: 354.000000
SCF: Cycle:  3   F: -696.910232287177450   dF: +1.301e+00   |Residual|: 6.173e-01   |deigs|: 4.532e-03  t[s]:  92331.33
	FillingsUpdate:  mu: -0.160385142  nElectrons: 354.000000
SCF: Cycle:  4   F: -697.881190571762659   dF: -9.710e-01   |Residual|: 3.483e-01   |deigs|: 6.836e-03  t[s]:  93117.59
	FillingsUpdate:  mu: -0.157585947  nElectrons: 354.000000
SCF: Cycle:  5   F: -698.257763447779098   dF: -3.766e-01   |Residual|: 1.030e-01   |deigs|: 2.322e-03  t[s]:  93901.41
	FillingsUpdate:  mu: -0.157371474  nElectrons: 354.000000
SCF: Cycle:  6   F: -698.282471968254185   dF: -2.471e-02   |Residual|: 5.805e-02   |deigs|: 6.016e-04  t[s]:  94571.17
	FillingsUpdate:  mu: -0.157677194  nElectrons: 354.000000
SCF: Cycle:  7   F: -698.292980891520642   dF: -1.051e-02   |Residual|: 1.640e-02   |deigs|: 1.146e-03  t[s]:  95257.06
	FillingsUpdate:  mu: -0.157906470  nElectrons: 354.000000
SCF: Cycle:  8   F: -698.292993939618441   dF: -1.305e-05   |Residual|: 1.137e-02   |deigs|: 6.661e-04  t[s]:  95910.87
	FillingsUpdate:  mu: -0.158995291  nElectrons: 354.000000
SCF: Cycle:  9   F: -698.292779196840570   dF: +2.147e-04   |Residual|: 1.742e-02   |deigs|: 1.366e-03  t[s]:  96583.67
	FillingsUpdate:  mu: -0.160437291  nElectrons: 354.000000
SCF: Cycle: 10   F: -698.294345815012548   dF: -1.567e-03   |Residual|: 7.931e-03   |deigs|: 1.509e-03  t[s]:  97239.77
	FillingsUpdate:  mu: -0.162487853  nElectrons: 354.000000
SCF: Cycle: 11   F: -698.294573002442803   dF: -2.272e-04   |Residual|: 1.227e-02   |deigs|: 2.069e-03  t[s]:  97905.42
	FillingsUpdate:  mu: -0.163256886  nElectrons: 354.000000
SCF: Cycle: 12   F: -698.295148141870641   dF: -5.751e-04   |Residual|: 3.266e-03   |deigs|: 9.775e-04  t[s]:  98559.76
	FillingsUpdate:  mu: -0.164240879  nElectrons: 354.000000
SCF: Cycle: 13   F: -698.295235288314075   dF: -8.715e-05   |Residual|: 2.215e-03   |deigs|: 1.079e-03  t[s]:  99215.76
	FillingsUpdate:  mu: -0.164860809  nElectrons: 354.000000
SCF: Cycle: 14   F: -698.295249980103790   dF: -1.469e-05   |Residual|: 1.835e-03   |deigs|: 6.101e-04  t[s]:  99873.21
	FillingsUpdate:  mu: -0.165953713  nElectrons: 354.000000
SCF: Cycle: 15   F: -698.295256362181590   dF: -6.382e-06   |Residual|: 2.299e-03   |deigs|: 9.743e-04  t[s]: 100528.11
	FillingsUpdate:  mu: -0.166549085  nElectrons: 354.000000
SCF: Cycle: 16   F: -698.295265885690355   dF: -9.524e-06   |Residual|: 1.189e-03   |deigs|: 6.193e-04  t[s]: 101185.26
	FillingsUpdate:  mu: -0.167308259  nElectrons: 354.000000
SCF: Cycle: 17   F: -698.295257958161301   dF: +7.928e-06   |Residual|: 1.616e-03   |deigs|: 7.903e-04  t[s]: 101839.76
	FillingsUpdate:  mu: -0.167893017  nElectrons: 354.000000
SCF: Cycle: 18   F: -698.295266821459336   dF: -8.863e-06   |Residual|: 6.007e-04   |deigs|: 6.014e-04  t[s]: 102493.24
	FillingsUpdate:  mu: -0.168223933  nElectrons: 354.000000
SCF: Cycle: 19   F: -698.295269067193658   dF: -2.246e-06   |Residual|: 6.211e-04   |deigs|: 3.785e-04  t[s]: 103147.78
	FillingsUpdate:  mu: -0.168559554  nElectrons: 354.000000
SCF: Cycle: 20   F: -698.295271175149082   dF: -2.108e-06   |Residual|: 7.700e-04   |deigs|: 4.235e-04  t[s]: 103803.26
	FillingsUpdate:  mu: -0.168899707  nElectrons: 354.000000
SCF: Cycle: 21   F: -698.295273932373561   dF: -2.757e-06   |Residual|: 6.881e-04   |deigs|: 5.091e-04  t[s]: 104457.06
	FillingsUpdate:  mu: -0.169216834  nElectrons: 354.000000
SCF: Cycle: 22   F: -698.295276885759449   dF: -2.953e-06   |Residual|: 3.424e-04   |deigs|: 5.312e-04  t[s]: 105112.69
	FillingsUpdate:  mu: -0.169350186  nElectrons: 354.000000
SCF: Cycle: 23   F: -698.295277311231644   dF: -4.255e-07   |Residual|: 3.565e-04   |deigs|: 1.848e-04  t[s]: 105767.99
	FillingsUpdate:  mu: -0.169471957  nElectrons: 354.000000
SCF: Cycle: 24   F: -698.295277537275183   dF: -2.260e-07   |Residual|: 2.758e-04   |deigs|: 1.540e-04  t[s]: 106423.27
	FillingsUpdate:  mu: -0.169545909  nElectrons: 354.000000
SCF: Cycle: 25   F: -698.295277689620434   dF: -1.523e-07   |Residual|: 1.530e-04   |deigs|: 1.821e-04  t[s]: 107082.25
	FillingsUpdate:  mu: -0.169671854  nElectrons: 354.000000
SCF: Cycle: 26   F: -698.295277915385896   dF: -2.258e-07   |Residual|: 9.788e-05   |deigs|: 1.538e-04  t[s]: 107739.07
	FillingsUpdate:  mu: -0.169763249  nElectrons: 354.000000
SCF: Cycle: 27   F: -698.295277993109039   dF: -7.772e-08   |Residual|: 6.890e-05   |deigs|: 1.088e-04  t[s]: 108398.11
	FillingsUpdate:  mu: -0.169797256  nElectrons: 354.000000
SCF: Cycle: 28   F: -698.295278010908305   dF: -1.780e-08   |Residual|: 5.605e-05   |deigs|: 5.065e-05  t[s]: 109053.61
	FillingsUpdate:  mu: -0.169802690  nElectrons: 354.000000
SCF: Cycle: 29   F: -698.295278017697115   dF: -6.789e-09   |Residual|: 5.564e-05   |deigs|: 9.546e-05  t[s]: 109709.00
	FillingsUpdate:  mu: -0.169800074  nElectrons: 354.000000
SCF: Cycle: 30   F: -698.295278037114372   dF: -1.942e-08   |Residual|: 2.905e-05   |deigs|: 8.930e-05  t[s]: 110365.46
	FillingsUpdate:  mu: -0.169801994  nElectrons: 354.000000
SCF: Cycle: 31   F: -698.295278040126504   dF: -3.012e-09   |Residual|: 3.517e-05   |deigs|: 5.069e-05  t[s]: 111024.80
	FillingsUpdate:  mu: -0.169801920  nElectrons: 354.000000
[...]
force C   0.000000802363188   0.001166809778044  -0.000022875137842 0
force C  -0.002012162810184  -0.003864225082025  -0.000009810277241 0
force C  -0.008951638050346  -0.000949514507019  -0.000394508001461 0
force C  -0.003223696960970   0.000234979933023  -0.000011143116574 0
force C  -0.003331918197522  -0.003928922918401  -0.000006753091435 0
force N   0.026302031896356  -0.025775522924531   0.001282075822497 0
force N  -0.009063094118924   0.035969765696872   0.001018491580425 0
force N  -0.026122570785634   0.025929906444449   0.001319692679811 0
force N   0.009331665270971  -0.035944268070848   0.000963835667464 0
force Fe  -0.000090721032256   0.000084018713071   0.001175402589545 0
force S   0.000222871621810   0.000226859080175   0.000120063786198 1
force S  -0.000308840677619  -0.000181035492173  -0.000349446166869 1
force S  -0.000011366745531  -0.000038863020040   0.000146500453981 1
force S  -0.000168902383637  -0.000165824389035  -0.000148877019700 1
force S   0.000016063419436   0.000336647589076   0.000120123998822 1
force S   0.000074475380270  -0.000091042409667   0.000087842184839 1
force Na   0.000083593772163  -0.000072414108366  -0.000160324647568 1
force Na   0.000016238883355   0.000090378014838  -0.000057124442451 1

# Energy components:
   Eewald =    -1925.8894660604473756
       EH =    -1381.9434241078515697
     Eloc =     2537.6026127404020372
      Enl =      -55.2219541757179826
      Exc =     -184.4873950490720631
 Exc_core =       13.9690390559080893
       KE =      297.7645087324831366
-------------------------------------
     Etot =     -698.2060788642957050
       TS =        0.0938473718608117
-------------------------------------
        F =     -698.2999262361564661

IonicMinimize: Iter:  41  F: -698.299926236156466  |grad|_K:  1.666e-04  alpha:  1.119e+01  linmin: -7.681e-04  t[s]: 1073657.34

#--- Lowdin population analysis ---
# oxidation-state C +0.047 +0.036 +0.040 +0.040 +0.042 +0.025 +0.041 +0.037 +0.122 +0.045 +0.042 +0.041 +0.048 +0.045 -0.016 +0.050 +0.047 +0.026 +0.130 +0.045 +0.041 +0.040 +0.038 +0.049 +0.048 +0.040 +0.041 +0.043 +0.119 +0.041 +0.042 +0.133 +0.051 +0.040 +0.047 +0.042 +0.048 +0.026 +0.042 +0.040 +0.121 +0.049 +0.041 +0.045 +0.045 +0.043 +0.050 +0.041 +0.036 +0.120 +0.038 +0.042 +0.051 +0.133 +0.041 +0.041 +0.041 -0.016 +0.037 +0.047 +0.129 +0.045 +0.048 +0.040 +0.040 +0.026
# oxidation-state N -0.153 -0.153 -0.152 -0.153
# oxidation-state Fe +0.046
# oxidation-state S -0.304 +0.408 -0.397 -0.396 +0.409 -0.304
# oxidation-state Na +0.710 +0.710


-------- Electronic minimization -----------
Will mix electronic density at each iteration.
	FillingsUpdate:  mu: -0.171797439  nElectrons: 354.000000
	FillingsUpdate:  mu: -0.171803394  nElectrons: 354.000000
SCF: Cycle:  0   F: -698.299884080866264   dF: -9.779e-05   |Residual|: 4.367e-03   |deigs|: 3.975e-06  t[s]: 1074712.43
	FillingsUpdate:  mu: -0.171842204  nElectrons: 354.000000
SCF: Cycle:  1   F: -698.299906468915310   dF: -2.239e-05   |Residual|: 2.766e-03   |deigs|: 4.358e-05  t[s]: 1075159.17
	FillingsUpdate:  mu: -0.171518497  nElectrons: 354.000000
SCF: Cycle:  2   F: -698.298554217685023   dF: +1.352e-03   |Residual|: 2.036e-02   |deigs|: 1.731e-04  t[s]: 1075608.47
	FillingsUpdate:  mu: -0.171816113  nElectrons: 354.000000
SCF: Cycle:  3   F: -698.299923792870459   dF: -1.370e-03   |Residual|: 7.028e-04   |deigs|: 1.588e-04  t[s]: 1076057.45
	FillingsUpdate:  mu: -0.171807895  nElectrons: 354.000000
SCF: Cycle:  4   F: -698.299925309229479   dF: -1.516e-06   |Residual|: 2.706e-04   |deigs|: 3.391e-05  t[s]: 1076505.07
	FillingsUpdate:  mu: -0.171801625  nElectrons: 354.000000
SCF: Cycle:  5   F: -698.299925451061540   dF: -1.418e-07   |Residual|: 1.011e-04   |deigs|: 4.621e-05  t[s]: 1076950.15
	FillingsUpdate:  mu: -0.171802479  nElectrons: 354.000000
SCF: Cycle:  6   F: -698.299925352409446   dF: +9.865e-08   |Residual|: 2.047e-04   |deigs|: 3.132e-05  t[s]: 1077399.86
	FillingsUpdate:  mu: -0.171793969  nElectrons: 354.000000
SCF: Cycle:  7   F: -698.299925538541174   dF: -1.861e-07   |Residual|: 7.464e-05   |deigs|: 4.876e-05  t[s]: 1077847.61
	FillingsUpdate:  mu: -0.171789396  nElectrons: 354.000000
SCF: Cycle:  8   F: -698.299925574971780   dF: -3.643e-08   |Residual|: 2.708e-05   |deigs|: 4.537e-05  t[s]: 1078295.21
	FillingsUpdate:  mu: -0.171783163  nElectrons: 354.000000
SCF: Cycle:  9   F: -698.299925593133253   dF: -1.816e-08   |Residual|: 2.978e-05   |deigs|: 3.510e-05  t[s]: 1078743.19
	FillingsUpdate:  mu: -0.171777220  nElectrons: 354.000000
SCF: Cycle: 10   F: -698.299925604635860   dF: -1.150e-08   |Residual|: 2.484e-05   |deigs|: 1.683e-05  t[s]: 1079401.27
	FillingsUpdate:  mu: -0.171770398  nElectrons: 354.000000
SCF: Cycle: 11   F: -698.299925613416349   dF: -8.780e-09   |Residual|: 2.145e-05   |deigs|: 1.607e-05  t[s]: 1080060.46
	FillingsUpdate:  mu: -0.171764656  nElectrons: 354.000000
SCF: Cycle: 12   F: -698.299925618212001   dF: -4.796e-09   |Residual|: 1.098e-05   |deigs|: 2.958e-05  t[s]: 1080715.80
SCF: Converged (|Delta E|<1.000000e-08 for 2 iters).

Setting wave functions to eigenvectors of Hamiltonian

-------- Electronic minimization -----------
Will mix electronic density at each iteration.
	FillingsUpdate:  mu: -0.171764656  nElectrons: 354.000000
	FillingsUpdate:  mu: -0.171704924  nElectrons: 354.000000
SCF: Cycle:  0   F: -698.299914953450639   dF: -2.513e-05   |Residual|: 2.327e-03   |deigs|: 4.970e-06  t[s]: 1081774.04
	FillingsUpdate:  mu: -0.171755230  nElectrons: 354.000000
SCF: Cycle:  1   F: -698.299887436141034   dF: +2.752e-05   |Residual|: 3.620e-03   |deigs|: 3.632e-05  t[s]: 1082223.37
	FillingsUpdate:  mu: -0.171587008  nElectrons: 354.000000
SCF: Cycle:  2   F: -698.299694588471766   dF: +1.928e-04   |Residual|: 8.376e-03   |deigs|: 9.005e-05  t[s]: 1082675.04
	FillingsUpdate:  mu: -0.171709652  nElectrons: 354.000000
SCF: Cycle:  3   F: -698.299928156125702   dF: -2.336e-04   |Residual|: 2.865e-04   |deigs|: 6.891e-05  t[s]: 1083128.26
	FillingsUpdate:  mu: -0.171709245  nElectrons: 354.000000
SCF: Cycle:  4   F: -698.299928292443155   dF: -1.363e-07   |Residual|: 1.630e-04   |deigs|: 2.577e-05  t[s]: 1083570.66
	FillingsUpdate:  mu: -0.171711976  nElectrons: 354.000000
SCF: Cycle:  5   F: -698.299928348924482   dF: -5.648e-08   |Residual|: 6.531e-05   |deigs|: 3.498e-05  t[s]: 1084022.62
	FillingsUpdate:  mu: -0.171715605  nElectrons: 354.000000
SCF: Cycle:  6   F: -698.299928379427342   dF: -3.050e-08   |Residual|: 6.484e-05   |deigs|: 2.554e-05  t[s]: 1084472.70
	FillingsUpdate:  mu: -0.171716855  nElectrons: 354.000000
SCF: Cycle:  7   F: -698.299928377935998   dF: +1.491e-09   |Residual|: 7.903e-05   |deigs|: 3.034e-05  t[s]: 1084924.17
	FillingsUpdate:  mu: -0.171721392  nElectrons: 354.000000
SCF: Cycle:  8   F: -698.299928413429939   dF: -3.549e-08   |Residual|: 2.434e-05   |deigs|: 2.250e-05  t[s]: 1085585.42
	FillingsUpdate:  mu: -0.171725618  nElectrons: 354.000000
SCF: Cycle:  9   F: -698.299928421235563   dF: -7.806e-09   |Residual|: 2.869e-05   |deigs|: 8.978e-06  t[s]: 1086036.94
	FillingsUpdate:  mu: -0.171729215  nElectrons: 354.000000
SCF: Cycle: 10   F: -698.299928429105535   dF: -7.870e-09   |Residual|: 9.669e-06   |deigs|: 8.629e-06  t[s]: 1086698.46
SCF: Converged (|Delta E|<1.000000e-08 for 2 iters).

Setting wave functions to eigenvectors of Hamiltonian

# Ionic positions in cartesian coordinates:
ion C   0.000000000000000   0.000000000000000   1.000007321400000 0
ion C  -2.333835447300000   4.042302545699999   1.000007321400000 0
ion C  11.669120544600000  20.211531625799999   1.000007321400000 0
ion C   4.667689791900001   0.000000000000000   1.000007321400000 0
ion C  23.338297781100000   0.000000000000000   1.000007321400000 0
ion C   2.333816549999999   4.042302545699999   1.000007321400000 0
ion C -11.669158339200001  20.211531625799999   1.000007321400000 0
ion C  -4.667670894600000   8.084623988700001   1.000007321400000 0
ion C   9.335303994599997  16.169229080099999   1.000007321400000 0
ion C   9.335322891900001   0.000000000000000   1.000007321400000 0
ion C  18.670626886499999   0.000000000000000   1.000007321400000 0
ion C  -9.335322891900001  16.169229080099999   1.000007321400000 0
ion C  -7.001487444600000  12.126907637100000   1.000007321400000 0
ion C  14.002993786499999   0.000000000000000   1.000007321400000 0
ion C   0.000000000000000   8.084623988700001   1.000007321400000 0
ion C   7.001487444599997  20.211531625799999   1.000007321400000 0
ion C  -7.001487444600001  20.211531625799999   1.000007321400000 0
ion C  -2.333816549999999  12.126907637100000   1.000007321400000 0
ion C   4.667670894600002  16.169229080099999   1.000007321400000 0
ion C  -2.333816550000000  20.211531625799999   1.000007321400000 0
ion C   2.333816550000000  20.211531625799999   1.000007321400000 0
ion C  -4.667651997299998  16.169229080099999   1.000007321400000 0
ion C   7.001487444600000   4.042302545699999   1.000007321400000 0
ion C  21.004424539199999   4.042302545699999   1.000007321400000 0
ion C  14.002955991899999  16.169229080099999   1.000007321400000 0
ion C   0.000000000000000  16.169229080099999   1.000007321400000 0
ion C  11.669120544600000   4.042302545699999   1.000007321400000 0
ion C  18.670607989199997   8.084623988700001   1.000007321400000 0
ion C  11.669120544599998  12.126907637100000   1.000007321400000 0
ion C  16.336791439199999  12.126907637100000   1.000007321400000 0
ion C  16.336791439199999   4.042302545699999   1.000007321400000 0
ion C   9.335303994599997   8.084623988700001   1.000007321400000 0
ion C  14.002955991899999   8.084623988700001   1.000007321400000 0
ion C   0.000000000000000   2.694868363800000   1.000007321400000 0
ion C  11.669120544600000  22.906399989600001   1.000007321400000 0
ion C -11.669120544600000  22.906399989600001   1.000007321400000 0
ion C  -2.333816550000000   6.737170909500000   1.000007321400000 0
ion C   9.335303994599995  18.864097443900000   1.000007321400000 0
ion C  -7.001487444600000  22.906399989600001   1.000007321400000 0
ion C   7.001487444600000  22.906399989600001   1.000007321400000 0
ion C   2.333816550000000   6.737170909500000   1.000007321400000 0
ion C  -9.335303994599998  18.864097443900000   1.000007321400000 0
ion C  -4.667670894599999  10.779473455200000   1.000007321400000 0
ion C  -2.333816550000000  22.906399989600001   1.000007321400000 0
ion C   2.333816550000000  22.906399989600001   1.000007321400000 0
ion C  -7.001487444600001  14.821794898200000   1.000007321400000 0
ion C   4.667670894600000   2.694868363800000   1.000007321400000 0
ion C  23.338259986499999   2.694868363800000   1.000007321400000 0
ion C  14.002974889199999  18.864097443900000   1.000007321400000 0
ion C   0.000000000000000  10.779473455200000   1.000007321400000 0
ion C   4.667670894600001  18.864097443900000   1.000007321400000 0
ion C  -4.667633100000001  18.864097443900000   1.000007321400000 0
ion C  -2.333816550000001  14.821794898200000   1.000007321400000 0
ion C   2.333816549999998  14.821794898200000   1.000007321400000 0
ion C  -0.000000000000002  18.864097443900000   1.000007321400000 0
ion C   9.335303994599998   2.694868363800000   1.000007321400000 0
ion C  21.004424539199999   6.737170909500000   1.000007321400000 0
ion C  11.669120544600000  14.821794898200000   1.000007321400000 0
ion C  16.336791439199999  14.821794898200000   1.000007321400000 0
ion C  18.670607989199997   2.694868363800000   1.000007321400000 0
ion C   7.001487444600001   6.737170909500000   1.000007321400000 0
ion C  14.002955991899999   2.694868363800000   1.000007321400000 0
ion C  18.670607989200001  10.779473455200000   1.000007321400000 0
ion C  11.669120544599998   6.737170909500000   1.000007321400000 0
ion C  16.336791439199999   6.737170909500000   1.000007321400000 0
ion C  14.002955991899999  10.779473455200000   1.000007321400000 0
ion N   4.667670894599999   8.084623988700001   1.000007321400000 0
ion N   2.333816549999999  12.126907637100000   1.000007321400000 0
ion N   7.001487444599997  14.821794898200000   1.000007321400000 0
ion N   9.335303994599997  10.779473455200000   1.000007321400000 0
ion Fe   5.837111407799997  11.454314935499999   1.000007321400000 0
ion S   0.972514686328656  10.280029133119969  10.978440437176102 1
ion S   3.681247965627498  12.869330513075642  11.114906222772364 1
ion S   4.133043418746228  14.621883535381638   7.767910980955014 1
ion S   7.572771482429999   8.159403449824440   7.652828678714473 1
ion S   8.078401124558020   9.811647685871222  11.042511241251466 1
ion S  10.770125004560008  12.420687714590761  10.937725384969188 1
ion Na   2.697100092660198   9.801905612606184   6.039595816369336 1
ion Na   8.977703302300373  13.027807243984991   6.034508422101376 1

# Forces in Cartesian coordinates:
force C   0.004372937064174  -0.000172431813221   0.000012392110821 0
force C   0.001416796922939  -0.001106083494469  -0.000121444374489 0
force C   0.003717679583599  -0.001698855874929  -0.000018448007007 0
force C   0.001396700100317   0.002912434924633   0.000003343005979 0
force C   0.002585964192302  -0.000375997066078  -0.000009489269344 0
force C   0.005077453064019   0.001014650420006  -0.000024631811597 0
force C   0.001102980267333  -0.000686518081603  -0.000012951470260 0
force C  -0.000234695510369   0.001755199729963  -0.000120216763097 0
force C  -0.032521989291125  -0.011142204673907  -0.000919122911193 0
force C  -0.001040414501025   0.000611081669049  -0.000005193647834 0
force C  -0.000610820054599  -0.000193075033800  -0.000004826007878 0
force C  -0.000020159445787   0.001252068652322  -0.000009103225441 0
force C   0.002024148477099   0.003876539545916   0.000012994472756 0
force C  -0.001137345829004  -0.000580389569011   0.000001244227882 0
force C   0.010591695407784   0.006024298520150   0.000796445133706 0
force C   0.002973307027306   0.002889872589512  -0.000066134201309 0
force C   0.001547791774309   0.000870709134619  -0.000004553000862 0
force C   0.003314331485923   0.003932814736810   0.000012423417104 0
force C   0.026741638345614   0.011454663193324  -0.000145149641927 0
force C  -0.000003926107485  -0.001155814624979  -0.000003048189822 0
force C  -0.003408250585023   0.000598578339723  -0.000020227862010 0
force C   0.003199153447166  -0.000236196043163   0.000006724573629 0
force C   0.005376826250979   0.007051629028302  -0.000228060953134 0
force C   0.001710451144855   0.000999940950003   0.000002258635750 0
force C  -0.000116819601042  -0.000119436482802   0.000278798245999 0
force C   0.008945269457845   0.000975184977157  -0.000321198481160 0
force C  -0.001174343044225  -0.003148036618961  -0.000028037561141 0
force C   0.000943861828766   0.002470880644666  -0.000003078204651 0
force C  -0.025682116110521  -0.022599054845663  -0.001061387819760 0
force C   0.000372197062803   0.004023469737637  -0.000026306680372 0
force C  -0.000512828394132  -0.000362120559417  -0.000005927826286 0
force C   0.023633266326653   0.017498242922189  -0.000455911358517 0
force C   0.003878902493532   0.001064039014149  -0.000057489027755 0
force C  -0.003703734506873   0.001695345502813  -0.000017546467998 0
force C  -0.004342699580614   0.000168709490155   0.000011131819682 0
force C  -0.002614759098846   0.000389095280978  -0.000009438115452 0
force C   0.000086040423870   0.000106244345612   0.000283968722369 0
force C  -0.005085418432828  -0.001079910393652  -0.000029553036420 0
force C   0.000614890901103   0.000198945154195  -0.000004233130548 0
force C  -0.001415140888805  -0.002906638258472   0.000002551393405 0
force C   0.032611218001534   0.011178428995051  -0.000952297191328 0
force C  -0.001713561643785  -0.001001919621636   0.000001056342275 0
force C  -0.000373745313937  -0.004003401382424  -0.000025049225420 0
force C   0.001129148956863   0.000593691820197   0.000000465844546 0
force C   0.001044298936904  -0.000601707842311  -0.000004885773420 0
force C  -0.000934049027749  -0.002489294912732  -0.000003961864511 0
force C  -0.002963443672405  -0.002874653161485  -0.000071637879091 0
force C  -0.001081719531494   0.000695795227201  -0.000011439108189 0
force C  -0.001433293644975   0.001113129139011  -0.000119997230333 0
force C   0.025866353241229   0.022743452529651  -0.001034663480706 0
force C  -0.005358051185630  -0.007097967072886  -0.000206138741442 0
force C   0.000487661253355   0.000358394446042  -0.000006819221250 0
force C  -0.003886945743816  -0.001121732620870  -0.000052535292333 0
force C  -0.023598528357478  -0.017708838318995  -0.000356676746077 0
force C   0.001180056555707   0.003164815552229  -0.000031658557225 0
force C   0.003403726614989  -0.000594195899568  -0.000015330653873 0
force C   0.000039403177575  -0.001244151371485  -0.000008712995208 0
force C  -0.010631930342201  -0.006025774546897   0.000772900169155 0
force C   0.000233990155223  -0.001774562741823  -0.000121737374282 0
force C  -0.001544681940979  -0.000878958752193  -0.000003873114913 0
force C  -0.026807876715679  -0.011442518944125  -0.000199197860463 0
force C   0.000001712434972   0.001167794192895  -0.000002266023325 0
force C  -0.002012984907737  -0.003864227570264   0.000011944075844 0
force C  -0.008946691284222  -0.000950882874593  -0.000374104278112 0
force C  -0.003220745825513   0.000234569473940   0.000011182837300 0
force C  -0.003329925036331  -0.003929193305850   0.000012701016185 0
force N   0.026295959890959  -0.025807094045057   0.001297296058797 0
force N  -0.009096005984348   0.035980560908660   0.001027681198979 0
force N  -0.026115792110973   0.025953367502037   0.001348641212067 0
force N   0.009371082725894  -0.035955759653330   0.000980342004462 0
force Fe  -0.000091004707232   0.000080373401497   0.001225782836384 0
force S  -0.000149580774273  -0.000118899763855   0.000094365682067 1
force S   0.000028339429061   0.000093940104919   0.000134239348125 1
force S  -0.000001081703956   0.000032996111521  -0.000080188668155 1
force S   0.000057047537848  -0.000057991971985   0.000094306125965 1
force S  -0.000207997844490   0.000110065554709   0.000042972628164 1
force S   0.000197311197004  -0.000016249210892   0.000048142919801 1
force Na   0.000013058220563  -0.000033454612988  -0.000114752474399 1
force Na   0.000037405226468   0.000066357803497   0.000011889215661 1

# Energy components:
   Eewald =    -1925.5520432141352103
       EH =    -1381.6074733223506428
     Eloc =     2536.9278878202435408
      Enl =      -55.2218073905334990
      Exc =     -184.4881709216481624
 Exc_core =       13.9690391124046371
       KE =      297.7664588139441548
-------------------------------------
     Etot =     -698.2061091020754020
       TS =        0.0938193270301405
-------------------------------------
        F =     -698.2999284291055346

IonicMinimize: Iter:  42  F: -698.299928429105535  |grad|_K:  9.470e-05  alpha:  5.303e+00  linmin:  1.497e-04  t[s]: 1086845.92
IonicMinimize: Converged (|grad|_K<1.000000e-04).

#--- Lowdin population analysis ---
# oxidation-state C +0.047 +0.036 +0.040 +0.040 +0.042 +0.025 +0.041 +0.037 +0.122 +0.045 +0.042 +0.041 +0.048 +0.045 -0.016 +0.050 +0.047 +0.026 +0.130 +0.045 +0.041 +0.040 +0.038 +0.049 +0.048 +0.040 +0.041 +0.043 +0.119 +0.041 +0.042 +0.133 +0.051 +0.040 +0.047 +0.042 +0.048 +0.026 +0.042 +0.040 +0.121 +0.049 +0.041 +0.045 +0.045 +0.043 +0.050 +0.041 +0.036 +0.120 +0.038 +0.042 +0.051 +0.133 +0.041 +0.041 +0.041 -0.016 +0.037 +0.047 +0.130 +0.045 +0.048 +0.040 +0.040 +0.026
# oxidation-state N -0.153 -0.153 -0.152 -0.153
# oxidation-state Fe +0.047
# oxidation-state S -0.304 +0.409 -0.397 -0.397 +0.409 -0.304
# oxidation-state Na +0.710 +0.710


Dumping 'Na2S6@FeN4.fillings' ... done
Dumping 'Na2S6@FeN4.wfns' ... done
Dumping 'Na2S6@FeN4.ionpos' ... done
Dumping 'Na2S6@FeN4.eigenvals' ... done
End date and time: Mon Jul  1 09:23:19 2024  (Duration: 12-13:55:30.92)
Done!
