
*************** JDFTx 1.7.0  ***************

Start date and time: Sat Dec 28 15:12:23 2024
Executable jdftx_gpu with command-line: -i /home/akim2/JDFTx/Na2S2@FeN4-glyme/Na2S2@FeN4-glyme.in -o /home/akim2/JDFTx/Na2S2@FeN4-glyme/Na2S2@FeN4-glyme.out
Running on hosts (process indices):  exp-4-57 (0)
Divided in process groups (process indices):  0 (0)
gpuInit: Found compatible cuda device 0 'Tesla V100-SXM2-32GB'
gpuInit: Selected device 0
Resource initialization completed at t[s]:      0.69
Run totals: 1 processes, 1 threads, 1 GPUs


Input parsed successfully to the following command list (including defaults):

basis kpoint-dependent
coords-type Cartesian
core-overlap-check vector
coulomb-interaction Slab 001
coulomb-truncation-embed 0 0 2
davidson-band-ratio 1.1
dump End State
dump-name Na2S2@FeN4-glyme.$VAR
elec-cutoff 20 100
elec-eigen-algo Davidson
elec-ex-corr gga-PBE
elec-smearing Fermi 0.01
electronic-minimize  \
	dirUpdateScheme      FletcherReeves \
	linminMethod         DirUpdateRecommended \
	nIterations          100 \
	history              15 \
	knormThreshold       0 \
	energyDiffThreshold  1e-08 \
	nEnergyDiff          2 \
	alphaTstart          1 \
	alphaTmin            1e-10 \
	updateTestStepSize   yes \
	alphaTreduceFactor   0.1 \
	alphaTincreaseFactor 3 \
	nAlphaAdjustMax      3 \
	wolfeEnergy          0.0001 \
	wolfeGradient        0.9 \
	fdTest               no
exchange-regularization WignerSeitzTruncated
fluid LinearPCM 298.000000 1.013250
fluid-ex-corr lda-TF lda-PZ
fluid-gummel-loop 10 1.000000e-05
fluid-minimize  \
	dirUpdateScheme      PolakRibiere \
	linminMethod         DirUpdateRecommended \
	nIterations          400 \
	history              15 \
	knormThreshold       1e-11 \
	energyDiffThreshold  0 \
	nEnergyDiff          2 \
	alphaTstart          1 \
	alphaTmin            1e-10 \
	updateTestStepSize   yes \
	alphaTreduceFactor   0.1 \
	alphaTincreaseFactor 3 \
	nAlphaAdjustMax      6 \
	wolfeEnergy          0.0001 \
	wolfeGradient        0.9 \
	fdTest               no
fluid-solvent Glyme 9.62137 ScalarEOS \
	epsBulk 7.2 \
	pMol 0 \
	epsInf 1.9 \
	Pvap 0 \
	sigmaBulk 0 \
	Rvdw 0 \
	Res 0 \
	tauNuc 343133
forces-output-coords Positions
ion C   0.000000000000000   0.000000000000000   1.000001652210000 0
ion C  -2.333831667840000   4.042310104620000   1.000001652210000 0
ion C  11.669128103520009  20.211535405260001   1.000001652210000 0
ion C   4.667680343250000   0.000000000000000   1.000001652210000 0
ion C  23.338288332449999   0.000000000000000   1.000001652210000 0
ion C   2.333822219190000   4.042310104620000   1.000001652210000 0
ion C -11.669150780279994  20.211535405260001   1.000001652210000 0
ion C  -4.667665225410000   8.084622098970000   1.000001652210000 0
ion C   9.335305884329998  16.169223410910011   1.000001652210000 0
ion C   9.335322891900001   0.000000000000000   1.000001652210000 0
ion C  18.670626886499999   0.000000000000000   1.000001652210000 0
ion C  -9.335317222710000  16.169223410910011   1.000001652210000 0
ion C  -7.001485554870001  12.126913306290001   1.000001652210000 0
ion C  14.002984337850000   0.000000000000000   1.000001652210000 0
ion C   0.000000000000000   8.084622098970000   1.000001652210000 0
ion C   7.001485554870008  20.211535405260001   1.000001652210000 0
ion C  -7.001481775409993  20.211535405260001   1.000001652210000 0
ion C  -2.333822219189998  12.126913306290001   1.000001652210000 0
ion C   4.667663335679999  16.169223410910011   1.000001652210000 0
ion C  -2.333820329459993  20.211535405260001   1.000001652210000 0
ion C   2.333824108920002  20.211535405260001   1.000001652210000 0
ion C  -4.667659556220001  16.169223410910011   1.000001652210000 0
ion C   7.001483665139999   4.042310104620000   1.000001652210000 0
ion C  21.004430208390001   4.042310104620000   1.000001652210000 0
ion C  14.002948432980002  16.169223410910011   1.000001652210000 0
ion C   0.000001889729997  16.169223410910011   1.000001652210000 0
ion C  11.669126213789999   4.042310104620000   1.000001652210000 0
ion C  18.670609878930001   8.084622098970000   1.000001652210000 0
ion C  11.669126213789998  12.126913306290001   1.000001652210000 0
ion C  16.336787659739997  12.126913306290001   1.000001652210000 0
ion C  16.336789549470002   4.042310104620000   1.000001652210000 0
ion C   9.335303994600004   8.084622098970000   1.000001652210000 0
ion C  14.002948432980002   8.084622098970000   1.000001652210000 0
ion C   0.000000000000000   2.694874032990001   1.000001652210000 0
ion C  11.669128103520000  22.906390540950014   1.000001652210000 0
ion C -11.669124324059998  22.906390540950014   1.000001652210000 0
ion C  -2.333822219190000   6.737165240310005   1.000001652210000 0
ion C   9.335305884330001  18.864097443900004   1.000001652210000 0
ion C  -7.001481775409996  22.906390540950014   1.000001652210000 0
ion C   7.001485554870007  22.906390540950014   1.000001652210000 0
ion C   2.333822219190001   6.737165240310005   1.000001652210000 0
ion C  -9.335302104869994  18.864097443900004   1.000001652210000 0
ion C  -4.667661445950000  10.779477234660007   1.000001652210000 0
ion C  -2.333820329460000  22.906390540950014   1.000001652210000 0
ion C   2.333824108920000  22.906390540950014   1.000001652210000 0
ion C  -7.001483665140000  14.821787339280009   1.000001652210000 0
ion C   4.667661445950001   2.694874032990001   1.000001652210000 0
ion C  23.338269435150011   2.694874032990001   1.000001652210000 0
ion C  14.002967330280004  18.864097443900004   1.000001652210000 0
ion C   0.000000000000000  10.779477234660007   1.000001652210000 0
ion C   4.667663335679999  18.864097443900004   1.000001652210000 0
ion C  -4.667640658919995  18.864097443900004   1.000001652210000 0
ion C  -2.333822219190001  14.821787339280009   1.000001652210000 0
ion C   2.333824108919996  14.821787339280009   1.000001652210000 0
ion C   0.000001889729999  18.864097443900004   1.000001652210000 0
ion C   9.335303994599997   2.694874032990001   1.000001652210000 0
ion C  21.004430208390001   6.737165240310005   1.000001652210000 0
ion C  11.669126213790005  14.821787339280009   1.000001652210000 0
ion C  16.336789549469998  14.821787339280009   1.000001652210000 0
ion C  18.670609878930012   2.694874032990001   1.000001652210000 0
ion C   7.001483665139999   6.737165240310005   1.000001652210000 0
ion C  14.002946543250001   2.694874032990001   1.000001652210000 0
ion C  18.670607989200008  10.779477234660007   1.000001652210000 0
ion C  11.669126213789998   6.737165240310005   1.000001652210000 0
ion C  16.336787659740004   6.737165240310005   1.000001652210000 0
ion C  14.002946543250001  10.779477234660007   1.000001652210000 0
ion N   4.667661445950002   8.084622098970000   1.000001652210000 0
ion N   2.333822219190005  12.126913306290001   1.000001652210000 0
ion N   7.001485554869996  14.821787339280009   1.000001652210000 0
ion N   9.335305884329999  10.779477234660007   1.000001652210000 0
ion Fe   5.837109518069998  11.454309266310005   1.000001652210000 0
ion S   8.372784757618629   9.125640437622595   7.137431181018981 1
ion S   5.718142013033559  11.434639940399533   5.556199810542687 1
ion Na  10.243137086773551  14.083929192996001   6.697343999629123 1
ion Na   4.099614564776411   6.160777168887482   6.646877489648696 1
ion-species GBRV/$ID_pbe.uspp
ion-width Ecut
ionic-minimize  \
	dirUpdateScheme      FletcherReeves \
	linminMethod         DirUpdateRecommended \
	nIterations          200 \
	history              15 \
	knormThreshold       0.0001 \
	energyDiffThreshold  1e-06 \
	nEnergyDiff          2 \
	alphaTstart          1 \
	alphaTmin            1e-10 \
	updateTestStepSize   yes \
	alphaTreduceFactor   0.1 \
	alphaTincreaseFactor 3 \
	nAlphaAdjustMax      3 \
	wolfeEnergy          0.0001 \
	wolfeGradient        0.9 \
	fdTest               no
kpoint   0.000000000000   0.000000000000   0.000000000000  1.00000000000000
kpoint-folding 1 1 1 
latt-move-scale 1 1 1
latt-scale 1 1 1 
lattice Triclinic 28.0058 28.0058 32.1253 90 90 120
lattice-minimize  \
	dirUpdateScheme      L-BFGS \
	linminMethod         DirUpdateRecommended \
	nIterations          0 \
	history              15 \
	knormThreshold       0 \
	energyDiffThreshold  1e-06 \
	nEnergyDiff          2 \
	alphaTstart          1 \
	alphaTmin            1e-10 \
	updateTestStepSize   yes \
	alphaTreduceFactor   0.1 \
	alphaTincreaseFactor 3 \
	nAlphaAdjustMax      3 \
	wolfeEnergy          0.0001 \
	wolfeGradient        0.9 \
	fdTest               no
lcao-params -1 1e-06 0.01
pcm-variant GLSSA13
spintype no-spin
subspace-rotation-factor 1 yes
symmetries automatic
symmetry-threshold 0.0001



---------- Setting up symmetries ----------

Found 24 point-group symmetries of the bravais lattice
Found 1 space-group symmetries with basis
Applied RMS atom displacement 0 bohrs to make symmetries exact.

---------- Initializing the Grid ----------
R = 
[      28.0058     -14.0029            0  ]
[            0      24.2537            0  ]
[            0            0      32.1253  ]
unit cell volume = 21821
G =
[   0.224353    0.12953         -0  ]
[          0   0.259061          0  ]
[          0         -0   0.195584  ]
Minimum fftbox size, Smin = [  128  128  148  ]
Chosen fftbox size, S = [  128  128  150  ]

---------- Initializing tighter grid for wavefunction operations ----------
R = 
[      28.0058     -14.0029            0  ]
[            0      24.2537            0  ]
[            0            0      32.1253  ]
unit cell volume = 21821
G =
[   0.224353    0.12953         -0  ]
[          0   0.259061          0  ]
[          0         -0   0.195584  ]
Minimum fftbox size, Smin = [  116  116  132  ]
Chosen fftbox size, S = [  120  120  140  ]

---------- Exchange Correlation functional ----------
Initalized PBE GGA exchange.
Initalized PBE GGA correlation.

---------- Setting up pseudopotentials ----------
Width of ionic core gaussian charges (only for fluid interactions / plotting) set to 0.397384

Reading pseudopotential file '/home/akim2/jdftx_install/build/pseudopotentials/GBRV/c_pbe.uspp':
  Title: C.  Created by USPP 7.3.6 on 3-2-2014
  Reference state energy: -5.406344.  4 valence electrons in orbitals:
    |200>  occupation: 2  eigenvalue: -0.504890
    |210>  occupation: 2  eigenvalue: -0.194356
  lMax: 1  lLocal: 2  QijEcut: 5
  4 projectors sampled on a log grid with 503 points:
    l: 0  eig: -0.504890  rCut: 1.3
    l: 0  eig: 0.000000  rCut: 1.3
    l: 1  eig: -0.194357  rCut: 1.3
    l: 1  eig: 0.000000  rCut: 1.3
  Partial core density with radius 1.1
  Transforming core density to a uniform radial grid of dG=0.02 with 1618 points.
  Transforming local potential to a uniform radial grid of dG=0.02 with 1618 points.
  Transforming nonlocal projectors to a uniform radial grid of dG=0.02 with 432 points.
  Transforming density augmentations to a uniform radial grid of dG=0.02 with 1618 points.
  Transforming atomic orbitals to a uniform radial grid of dG=0.02 with 432 points.
  Core radius for overlap checks: 1.30 bohrs.

Reading pseudopotential file '/home/akim2/jdftx_install/build/pseudopotentials/GBRV/n_pbe.uspp':
  Title: N.  Created by USPP 7.3.6 on 3-2-2014
  Reference state energy: -9.763716.  5 valence electrons in orbitals:
    |200>  occupation: 2  eigenvalue: -0.681964
    |210>  occupation: 3  eigenvalue: -0.260726
  lMax: 1  lLocal: 2  QijEcut: 6
  4 projectors sampled on a log grid with 491 points:
    l: 0  eig: -0.681964  rCut: 1.15
    l: 0  eig: 0.000000  rCut: 1.15
    l: 1  eig: -0.260729  rCut: 1.2
    l: 1  eig: 0.500000  rCut: 1.2
  Partial core density with radius 0.8
  Transforming core density to a uniform radial grid of dG=0.02 with 1618 points.
  Transforming local potential to a uniform radial grid of dG=0.02 with 1618 points.
  Transforming nonlocal projectors to a uniform radial grid of dG=0.02 with 432 points.
  Transforming density augmentations to a uniform radial grid of dG=0.02 with 1618 points.
  Transforming atomic orbitals to a uniform radial grid of dG=0.02 with 432 points.
  Core radius for overlap checks: 1.20 bohrs.

Reading pseudopotential file '/home/akim2/jdftx_install/build/pseudopotentials/GBRV/fe_pbe.uspp':
  Title: Fe.  Created by USPP 7.3.6 on 15-6-15
  Reference state energy: -124.316937.  16 valence electrons in orbitals:
    |300>  occupation: 2  eigenvalue: -4.008817
    |310>  occupation: 6  eigenvalue: -2.753096
    |320>  occupation: 5  eigenvalue: -0.791264
    |400>  occupation: 2  eigenvalue: -0.516384
    |410>  occupation: 0  eigenvalue: -0.312222
  lMax: 2  lLocal: 3  QijEcut: 6
  6 projectors sampled on a log grid with 607 points:
    l: 0  eig: -4.008819  rCut: 1.55
    l: 0  eig: -0.516386  rCut: 1.55
    l: 1  eig: -2.753096  rCut: 1.55
    l: 1  eig: -0.312226  rCut: 1.55
    l: 2  eig: -0.791264  rCut: 1.65
    l: 2  eig: -0.450000  rCut: 1.65
  Partial core density with radius 0.65
  Transforming core density to a uniform radial grid of dG=0.02 with 1618 points.
  Transforming local potential to a uniform radial grid of dG=0.02 with 1618 points.
  Transforming nonlocal projectors to a uniform radial grid of dG=0.02 with 432 points.
  Transforming density augmentations to a uniform radial grid of dG=0.02 with 1618 points.
  Transforming atomic orbitals to a uniform radial grid of dG=0.02 with 432 points.
  Core radius for overlap checks: 1.65 bohrs.

Reading pseudopotential file '/home/akim2/jdftx_install/build/pseudopotentials/GBRV/s_pbe.uspp':
  Title: S.  Created by USPP 7.3.6 on 1-4-15
  Reference state energy: -11.898476.  6 valence electrons in orbitals:
    |300>  occupation: 2  eigenvalue: -0.634167
    |310>  occupation: 4  eigenvalue: -0.257568
  lMax: 2  lLocal: 3  QijEcut: 6
  6 projectors sampled on a log grid with 635 points:
    l: 0  eig: -0.634161  rCut: 1.5
    l: 0  eig: 1.500000  rCut: 1.5
    l: 1  eig: -0.257567  rCut: 1.5
    l: 1  eig: 1.500000  rCut: 1.5
    l: 2  eig: -1.000000  rCut: 1.5
    l: 2  eig: 1.500000  rCut: 1.5
  Partial core density with radius 1.15
  Transforming core density to a uniform radial grid of dG=0.02 with 1618 points.
  Transforming local potential to a uniform radial grid of dG=0.02 with 1618 points.
  Transforming nonlocal projectors to a uniform radial grid of dG=0.02 with 432 points.
  Transforming density augmentations to a uniform radial grid of dG=0.02 with 1618 points.
  Transforming atomic orbitals to a uniform radial grid of dG=0.02 with 432 points.
  Core radius for overlap checks: 1.50 bohrs.

Reading pseudopotential file '/home/akim2/jdftx_install/build/pseudopotentials/GBRV/na_pbe.uspp':
  Title: Na.  Created by USPP 7.3.6 on 23-9-15
  Reference state energy: -47.625620.  9 valence electrons in orbitals:
    |200>  occupation: 2  eigenvalue: -2.085638
    |210>  occupation: 6  eigenvalue: -1.053708
    |300>  occupation: 1  eigenvalue: -0.100838
  lMax: 2  lLocal: 0  QijEcut: 6
  5 projectors sampled on a log grid with 657 points:
    l: 0  eig: -2.085640  rCut: 1.37
    l: 0  eig: -0.100839  rCut: 1.37
    l: 1  eig: -1.053708  rCut: 1.47
    l: 1  eig: 0.500000  rCut: 1.47
    l: 2  eig: 0.750000  rCut: 2
  Transforming local potential to a uniform radial grid of dG=0.02 with 1618 points.
  Transforming nonlocal projectors to a uniform radial grid of dG=0.02 with 432 points.
  Transforming density augmentations to a uniform radial grid of dG=0.02 with 1618 points.
  Transforming atomic orbitals to a uniform radial grid of dG=0.02 with 432 points.
  Core radius for overlap checks: 2.00 bohrs.

Initialized 5 species with 75 total atoms.

Folded 1 k-points by 1x1x1 to 1 k-points.

---------- Setting up k-points, bands, fillings ----------
No reducable k-points. 
Computing the number of bands and number of electrons
Calculating initial fillings.
nElectrons: 330.000000   nBands: 311   nStates: 1

----- Setting up reduced wavefunction bases (one per k-point) -----
average nbasis = 93173.000 , ideal nbasis = 93220.781

---------- Setting up coulomb interaction ----------
Fluid mode embedding: using embedded box, but periodic Coulomb kernel.
(Fluid response is responsible for (approximate) separation between periodic images.)
Setting up double-sized grid for truncated Coulomb potentials:
R = 
[      28.0058     -14.0029            0  ]
[            0      24.2537            0  ]
[            0            0      64.2506  ]
unit cell volume = 43641.9
G =
[   0.224353    0.12953         -0  ]
[          0   0.259061          0  ]
[          0         -0  0.0977919  ]
Chosen fftbox size, S = [  128  128  300  ]
Integer grid location selected as the embedding center:
   Grid: [  0  0  9  ]
   Lattice: [  0  0  0.0622563  ]
   Cartesian: [  0  0  2  ]
Constructing Wigner-Seitz cell: 8 faces (6 quadrilaterals, 2 hexagons)
Range-separation parameter for embedded mesh potentials due to point charges: 0.590105 bohrs.

---------- Setting up ewald sum ----------
Optimum gaussian width for ewald sums = 6.839659 bohr.
Real space sum over 567 unit cells with max indices [  4  4  3  ]
Reciprocal space sum over 9537 terms with max indices [  8  8  16  ]

---------- Allocating electronic variables ----------
Initializing wave functions:  linear combination of atomic orbitals
C pseudo-atom occupations:   s ( 2 )  p ( 2 )
N pseudo-atom occupations:   s ( 2 )  p ( 3 )
Fe pseudo-atom occupations:   s ( 2 0 )  p ( 6 0 )  d ( 8 )
S pseudo-atom occupations:   s ( 2 )  p ( 4 )
Na pseudo-atom occupations:   s ( 2 1 )  p ( 6 )
	FillingsUpdate:  mu: -0.186258764  nElectrons: 330.000000
LCAOMinimize: Iter:   0  F: -636.3639475737060138  |grad|_K:  2.761e-02  alpha:  1.000e+00
	FillingsUpdate:  mu: -0.251975343  nElectrons: 330.000000
LCAOMinimize: Iter:   1  F: -642.0348652450655891  |grad|_K:  1.588e-02  alpha:  1.589e-01  linmin: -1.733e-01  cgtest:  6.327e-01  t[s]:      8.34
LCAOMinimize: Encountered beta<0, resetting CG.
	FillingsUpdate:  mu: -0.105938269  nElectrons: 330.000000
LCAOMinimize: Iter:   2  F: -650.4919450102651126  |grad|_K:  3.009e-02  alpha:  8.321e-02  linmin:  3.170e-01  cgtest: -1.544e-01  t[s]:      9.78
LCAOMinimize: 	Bad step direction: g.d > 0.
LCAOMinimize: 	Undoing step.
LCAOMinimize: 	Step failed: resetting search direction.
	FillingsUpdate:  mu: -0.105938269  nElectrons: 330.000000
LCAOMinimize: Iter:   3  F: -650.4919450102651126  |grad|_K:  3.009e-02  alpha:  0.000e+00
	FillingsUpdate:  mu: -0.140366199  nElectrons: 330.000000
LCAOMinimize: Iter:   4  F: -652.3824786611609170  |grad|_K:  8.569e-03  alpha:  2.500e-02  linmin: -2.625e-01  cgtest:  6.692e-01  t[s]:     12.21
LCAOMinimize: Encountered beta<0, resetting CG.
	FillingsUpdate:  mu: -0.176049154  nElectrons: 330.000000
LCAOMinimize: Iter:   5  F: -652.5677741622795338  |grad|_K:  8.982e-03  alpha:  5.209e-02  linmin:  7.040e-04  cgtest: -1.612e-04  t[s]:     13.63
	FillingsUpdate:  mu: -0.158962240  nElectrons: 330.000000
LCAOMinimize: Iter:   6  F: -652.8482509680202384  |grad|_K:  4.048e-03  alpha:  7.881e-02  linmin:  5.543e-02  cgtest: -5.746e-01  t[s]:     15.06
	FillingsUpdate:  mu: -0.185064193  nElectrons: 330.000000
LCAOMinimize: Iter:   7  F: -652.8593857407759060  |grad|_K:  2.923e-03  alpha:  2.869e-02  linmin:  1.268e-03  cgtest:  9.193e-01  t[s]:     16.48
LCAOMinimize: Encountered beta<0, resetting CG.
	FillingsUpdate:  mu: -0.211003699  nElectrons: 330.000000
LCAOMinimize: Iter:   8  F: -652.8847915873133161  |grad|_K:  2.229e-03  alpha:  5.795e-02  linmin: -3.205e-02  cgtest:  1.457e-01  t[s]:     17.91
	FillingsUpdate:  mu: -0.182361283  nElectrons: 330.000000
LCAOMinimize: Iter:   9  F: -652.8958273107724608  |grad|_K:  9.612e-04  alpha:  4.166e-02  linmin:  8.380e-04  cgtest: -3.465e-01  t[s]:     19.33
	FillingsUpdate:  mu: -0.189505641  nElectrons: 330.000000
LCAOMinimize: Iter:  10  F: -652.8996270464614327  |grad|_K:  5.939e-04  alpha:  8.321e-02  linmin: -8.326e-03  cgtest:  2.427e-01  t[s]:     20.74
	FillingsUpdate:  mu: -0.193294719  nElectrons: 330.000000
LCAOMinimize: Iter:  11  F: -652.9035005122218536  |grad|_K:  3.527e-04  alpha:  2.308e-01  linmin:  2.110e-02  cgtest: -1.602e-01  t[s]:     22.17
	FillingsUpdate:  mu: -0.188597864  nElectrons: 330.000000
LCAOMinimize: Iter:  12  F: -652.9050821254663788  |grad|_K:  3.270e-04  alpha:  2.934e-01  linmin:  7.473e-04  cgtest:  1.965e-01  t[s]:     23.60
	FillingsUpdate:  mu: -0.193989811  nElectrons: 330.000000
LCAOMinimize: Iter:  13  F: -652.9052369714366932  |grad|_K:  1.575e-04  alpha:  2.977e-02  linmin: -1.281e-03  cgtest:  5.866e-03  t[s]:     25.02
LCAOMinimize: 	Predicted alpha/alphaT>3.000000, increasing alphaT to 8.932124e-02.
	FillingsUpdate:  mu: -0.191972521  nElectrons: 330.000000
LCAOMinimize: Iter:  14  F: -652.9054977914214533  |grad|_K:  8.828e-05  alpha:  2.144e-01  linmin: -6.157e-04  cgtest: -5.655e-02  t[s]:     26.86
	FillingsUpdate:  mu: -0.193876315  nElectrons: 330.000000
LCAOMinimize: Iter:  15  F: -652.9055290285042474  |grad|_K:  9.465e-05  alpha:  8.194e-02  linmin: -1.092e-04  cgtest: -1.977e-03  t[s]:     28.25
	FillingsUpdate:  mu: -0.192871004  nElectrons: 330.000000
LCAOMinimize: Iter:  16  F: -652.9055479106568782  |grad|_K:  2.641e-05  alpha:  4.310e-02  linmin: -8.465e-04  cgtest:  1.462e-02  t[s]:     29.66
LCAOMinimize: 	Predicted alpha/alphaT>3.000000, increasing alphaT to 1.292858e-01.
	FillingsUpdate:  mu: -0.193202689  nElectrons: 330.000000
LCAOMinimize: Iter:  17  F: -652.9055572345964720  |grad|_K:  2.466e-05  alpha:  2.743e-01  linmin:  3.525e-05  cgtest: -3.152e-03  t[s]:     31.49
	FillingsUpdate:  mu: -0.192793441  nElectrons: 330.000000
LCAOMinimize: Iter:  18  F: -652.9055582694927580  |grad|_K:  1.558e-05  alpha:  3.498e-02  linmin:  4.948e-05  cgtest: -1.007e-04  t[s]:     32.91
LCAOMinimize: 	Predicted alpha/alphaT>3.000000, increasing alphaT to 1.049257e-01.
	FillingsUpdate:  mu: -0.192935658  nElectrons: 330.000000
LCAOMinimize: Iter:  19  F: -652.9055604652700140  |grad|_K:  9.458e-06  alpha:  1.858e-01  linmin: -2.320e-04  cgtest:  4.117e-03  t[s]:     34.74
	FillingsUpdate:  mu: -0.192814721  nElectrons: 330.000000
LCAOMinimize: Iter:  20  F: -652.9055610997102121  |grad|_K:  1.132e-05  alpha:  1.455e-01  linmin:  6.029e-06  cgtest: -1.115e-03  t[s]:     36.15
	FillingsUpdate:  mu: -0.193001406  nElectrons: 330.000000
LCAOMinimize: Iter:  21  F: -652.9055613198130459  |grad|_K:  4.740e-06  alpha:  3.528e-02  linmin: -5.901e-05  cgtest:  2.530e-03  t[s]:     37.57
LCAOMinimize: Converged (|Delta F|<1.000000e-06 for 2 iters).
----- createFluidSolver() ----- (Fluid-side solver setup)
   Initializing fluid molecule 'Glyme'
     Net charge: 0   dipole magnitude: 0
     Initializing spherical shell mfKernel with radius 0 Bohr
     deltaS corrections:

Correction to mu due to finite nuclear width = -0.00750257
   Cavity determined by nc: 8.36e-05 and sigma: 0.6
   Effective cavity tension: -8.03e-06 Eh/bohr^2 to account for cavitation and dispersion.


---- Citations for features of the code used in this run ----

   Software package:
      R. Sundararaman, K. Letchworth-Weaver, K.A. Schwarz, D. Gunceler, Y. Ozhabes and T.A. Arias, 'JDFTx: software for joint density-functional theory', SoftwareX 6, 278 (2017)

   gga-PBE exchange-correlation functional:
      J.P. Perdew, K. Burke and M. Ernzerhof, Phys. Rev. Lett. 77, 3865 (1996)

   Pseudopotentials:
      KF Garrity, JW Bennett, KM Rabe and D Vanderbilt, Comput. Mater. Sci. 81, 446 (2014)

   Truncated Coulomb potentials:
      R. Sundararaman and T.A. Arias, Phys. Rev. B 87, 165122 (2013)

   Linear/nonlinear dielectric/ionic fluid model with effective cavity tension:
      D. Gunceler, K. Letchworth-Weaver, R. Sundararaman, K.A. Schwarz and T.A. Arias, Modelling Simul. Mater. Sci. Eng. 21, 074005 (2013)

   Total energy minimization with Auxiliary Hamiltonian:
      C. Freysoldt, S. Boeck, and J. Neugebauer, Phys. Rev. B 79, 241103(R) (2009)

This list may not be complete. Please suggest additional citations or
report any other bugs at https://github.com/shankar1729/jdftx/issues

Initialization completed successfully at t[s]:     37.73

Fluid solver invoked on fresh (random / LCAO) wavefunctions
Running a vacuum solve first:

-------- Initial electronic minimization -----------
	FillingsUpdate:  mu: -0.193001406  nElectrons: 330.000000
ElecMinimize: Iter:   0  F: -652.905561319809408  |grad|_K:  4.395e-04  alpha:  1.000e+00
	FillingsUpdate:  mu: -0.117800400  nElectrons: 330.000000
	SubspaceRotationAdjust: set factor to 0.634
ElecMinimize: Iter:   1  F: -656.597754296272115  |grad|_K:  3.785e-04  alpha:  6.668e-01  linmin:  1.825e-04  t[s]:     41.16
ElecMinimize: 	Step increased F by 4.792506e-01, reducing alpha to 1.293833e-02.
	FillingsUpdate:  mu: -0.099195904  nElectrons: 330.000000
	SubspaceRotationAdjust: set factor to 0.7
ElecMinimize: Iter:   2  F: -656.680719307061395  |grad|_K:  2.052e-04  alpha:  1.294e-02  linmin: -3.715e-03  t[s]:     44.27
	FillingsUpdate:  mu: -0.049073675  nElectrons: 330.000000
	SubspaceRotationAdjust: set factor to 0.52
ElecMinimize: Iter:   3  F: -656.752363040096725  |grad|_K:  1.612e-04  alpha:  3.602e-02  linmin: -3.353e-04  t[s]:     46.17
	FillingsUpdate:  mu: -0.043191367  nElectrons: 330.000000
	SubspaceRotationAdjust: set factor to 0.322
ElecMinimize: Iter:   4  F: -656.842191013972410  |grad|_K:  2.337e-04  alpha:  1.072e-01  linmin: -2.798e-05  t[s]:     48.03
	FillingsUpdate:  mu: -0.045630127  nElectrons: 330.000000
	SubspaceRotationAdjust: set factor to 0.331
ElecMinimize: Iter:   5  F: -656.965499327455632  |grad|_K:  1.624e-04  alpha:  7.923e-02  linmin: -2.100e-05  t[s]:     49.94
	FillingsUpdate:  mu: -0.086562808  nElectrons: 330.000000
	SubspaceRotationAdjust: set factor to 0.29
ElecMinimize: Iter:   6  F: -657.015147094406188  |grad|_K:  9.219e-05  alpha:  6.321e-02  linmin:  1.408e-05  t[s]:     51.84
	FillingsUpdate:  mu: -0.101328692  nElectrons: 330.000000
	SubspaceRotationAdjust: set factor to 0.178
ElecMinimize: Iter:   7  F: -657.045102712472499  |grad|_K:  1.103e-04  alpha:  1.227e-01  linmin:  8.481e-06  t[s]:     53.75
	FillingsUpdate:  mu: -0.097847937  nElectrons: 330.000000
	SubspaceRotationAdjust: set factor to 0.165
ElecMinimize: Iter:   8  F: -657.092298715896845  |grad|_K:  8.401e-05  alpha:  1.342e-01  linmin:  1.787e-05  t[s]:     55.64
	FillingsUpdate:  mu: -0.087067524  nElectrons: 330.000000
	SubspaceRotationAdjust: set factor to 0.179
ElecMinimize: Iter:   9  F: -657.114012732068204  |grad|_K:  4.687e-05  alpha:  1.081e-01  linmin: -1.815e-05  t[s]:     57.54
	FillingsUpdate:  mu: -0.057225521  nElectrons: 330.000000
	SubspaceRotationAdjust: set factor to 0.154
ElecMinimize: Iter:  10  F: -657.123433181233736  |grad|_K:  4.381e-05  alpha:  1.462e-01  linmin: -1.993e-05  t[s]:     59.44
	FillingsUpdate:  mu: -0.057673392  nElectrons: 330.000000
	SubspaceRotationAdjust: set factor to 0.156
ElecMinimize: Iter:  11  F: -657.136204063019022  |grad|_K:  4.261e-05  alpha:  2.281e-01  linmin:  7.158e-06  t[s]:     61.33
	FillingsUpdate:  mu: -0.085182596  nElectrons: 330.000000
	SubspaceRotationAdjust: set factor to 0.174
ElecMinimize: Iter:  12  F: -657.143130361953240  |grad|_K:  2.445e-05  alpha:  1.307e-01  linmin: -4.531e-06  t[s]:     63.23
	FillingsUpdate:  mu: -0.093804361  nElectrons: 330.000000
	SubspaceRotationAdjust: set factor to 0.17
ElecMinimize: Iter:  13  F: -657.145819432159215  |grad|_K:  2.247e-05  alpha:  1.548e-01  linmin:  1.031e-05  t[s]:     65.13
	FillingsUpdate:  mu: -0.093052871  nElectrons: 330.000000
	SubspaceRotationAdjust: set factor to 0.251
ElecMinimize: Iter:  14  F: -657.148918343122659  |grad|_K:  2.089e-05  alpha:  2.119e-01  linmin:  1.490e-06  t[s]:     67.03
	FillingsUpdate:  mu: -0.085961077  nElectrons: 330.000000
	SubspaceRotationAdjust: set factor to 0.233
ElecMinimize: Iter:  15  F: -657.150641650922012  |grad|_K:  1.393e-05  alpha:  1.368e-01  linmin:  3.931e-06  t[s]:     68.94
	FillingsUpdate:  mu: -0.082344379  nElectrons: 330.000000
	SubspaceRotationAdjust: set factor to 0.244
ElecMinimize: Iter:  16  F: -657.151567669404926  |grad|_K:  1.143e-05  alpha:  1.647e-01  linmin: -6.500e-09  t[s]:     70.83
	FillingsUpdate:  mu: -0.087399847  nElectrons: 330.000000
	SubspaceRotationAdjust: set factor to 0.269
ElecMinimize: Iter:  17  F: -657.152142275888309  |grad|_K:  9.400e-06  alpha:  1.514e-01  linmin:  1.599e-06  t[s]:     72.74
	FillingsUpdate:  mu: -0.091204440  nElectrons: 330.000000
	SubspaceRotationAdjust: set factor to 0.26
ElecMinimize: Iter:  18  F: -657.152762363028273  |grad|_K:  1.156e-05  alpha:  2.424e-01  linmin:  2.808e-06  t[s]:     74.64
	FillingsUpdate:  mu: -0.088981791  nElectrons: 330.000000
	SubspaceRotationAdjust: set factor to 0.409
ElecMinimize: Iter:  19  F: -657.153318851929043  |grad|_K:  7.365e-06  alpha:  1.445e-01  linmin:  2.544e-06  t[s]:     76.55
	FillingsUpdate:  mu: -0.085422328  nElectrons: 330.000000
	SubspaceRotationAdjust: set factor to 0.364
ElecMinimize: Iter:  20  F: -657.153563781318553  |grad|_K:  7.570e-06  alpha:  1.561e-01  linmin:  1.342e-07  t[s]:     78.45
	FillingsUpdate:  mu: -0.086880367  nElectrons: 330.000000
	SubspaceRotationAdjust: set factor to 0.487
ElecMinimize: Iter:  21  F: -657.153848816343839  |grad|_K:  5.076e-06  alpha:  1.715e-01  linmin:  2.354e-06  t[s]:     80.35
	FillingsUpdate:  mu: -0.089166483  nElectrons: 330.000000
	SubspaceRotationAdjust: set factor to 0.458
ElecMinimize: Iter:  22  F: -657.154004303718921  |grad|_K:  6.666e-06  alpha:  2.095e-01  linmin:  1.562e-06  t[s]:     82.27
	FillingsUpdate:  mu: -0.087265008  nElectrons: 330.000000
	SubspaceRotationAdjust: set factor to 0.439
ElecMinimize: Iter:  23  F: -657.154179087394596  |grad|_K:  4.197e-06  alpha:  1.365e-01  linmin:  9.360e-07  t[s]:     84.18
	FillingsUpdate:  mu: -0.086276637  nElectrons: 330.000000
	SubspaceRotationAdjust: set factor to 0.407
ElecMinimize: Iter:  24  F: -657.154287288793284  |grad|_K:  3.971e-06  alpha:  2.135e-01  linmin:  2.391e-06  t[s]:     86.08
	FillingsUpdate:  mu: -0.087929985  nElectrons: 330.000000
	SubspaceRotationAdjust: set factor to 0.333
ElecMinimize: Iter:  25  F: -657.154334448618329  |grad|_K:  2.716e-06  alpha:  1.037e-01  linmin: -4.192e-07  t[s]:     87.98
	FillingsUpdate:  mu: -0.088523509  nElectrons: 330.000000
	SubspaceRotationAdjust: set factor to 0.36
ElecMinimize: Iter:  26  F: -657.154388160457415  |grad|_K:  2.581e-06  alpha:  2.524e-01  linmin:  2.687e-06  t[s]:     89.89
	FillingsUpdate:  mu: -0.087598420  nElectrons: 330.000000
	SubspaceRotationAdjust: set factor to 0.334
ElecMinimize: Iter:  27  F: -657.154412481151326  |grad|_K:  1.979e-06  alpha:  1.280e-01  linmin: -1.079e-07  t[s]:     91.79
	FillingsUpdate:  mu: -0.087379570  nElectrons: 330.000000
	SubspaceRotationAdjust: set factor to 0.397
ElecMinimize: Iter:  28  F: -657.154438016699714  |grad|_K:  1.737e-06  alpha:  2.256e-01  linmin:  1.417e-06  t[s]:     93.69
	FillingsUpdate:  mu: -0.087989758  nElectrons: 330.000000
	SubspaceRotationAdjust: set factor to 0.391
ElecMinimize: Iter:  29  F: -657.154448879842448  |grad|_K:  1.362e-06  alpha:  1.254e-01  linmin: -9.216e-08  t[s]:     95.60
	FillingsUpdate:  mu: -0.087981850  nElectrons: 330.000000
	SubspaceRotationAdjust: set factor to 0.527
ElecMinimize: Iter:  30  F: -657.154459514176892  |grad|_K:  1.208e-06  alpha:  1.981e-01  linmin:  8.317e-07  t[s]:     97.51
	FillingsUpdate:  mu: -0.087519452  nElectrons: 330.000000
	SubspaceRotationAdjust: set factor to 0.507
ElecMinimize: Iter:  31  F: -657.154466197171473  |grad|_K:  1.373e-06  alpha:  1.599e-01  linmin:  2.062e-07  t[s]:     99.42
	FillingsUpdate:  mu: -0.087841226  nElectrons: 330.000000
	SubspaceRotationAdjust: set factor to 0.678
ElecMinimize: Iter:  32  F: -657.154474423867441  |grad|_K:  1.019e-06  alpha:  1.507e-01  linmin:  9.397e-07  t[s]:    101.33
	FillingsUpdate:  mu: -0.088081447  nElectrons: 330.000000
	SubspaceRotationAdjust: set factor to 0.511
ElecMinimize: Iter:  33  F: -657.154479187822176  |grad|_K:  1.127e-06  alpha:  1.626e-01  linmin:  1.417e-06  t[s]:    103.23
	FillingsUpdate:  mu: -0.087799765  nElectrons: 330.000000
	SubspaceRotationAdjust: set factor to 0.721
ElecMinimize: Iter:  34  F: -657.154482070493486  |grad|_K:  8.509e-07  alpha:  7.585e-02  linmin: -1.297e-06  t[s]:    105.15
	FillingsUpdate:  mu: -0.087613658  nElectrons: 330.000000
	SubspaceRotationAdjust: set factor to 0.584
ElecMinimize: Iter:  35  F: -657.154485156065675  |grad|_K:  1.015e-06  alpha:  1.484e-01  linmin:  3.409e-06  t[s]:    107.06
	FillingsUpdate:  mu: -0.087713932  nElectrons: 330.000000
	SubspaceRotationAdjust: set factor to 0.6
ElecMinimize: Iter:  36  F: -657.154486200606470  |grad|_K:  7.960e-07  alpha:  2.913e-02  linmin: -8.222e-06  t[s]:    108.97
	FillingsUpdate:  mu: -0.087950384  nElectrons: 330.000000
	SubspaceRotationAdjust: set factor to 0.481
ElecMinimize: Iter:  37  F: -657.154487577266764  |grad|_K:  8.350e-07  alpha:  5.872e-02  linmin:  1.934e-06  t[s]:    110.88
	FillingsUpdate:  mu: -0.087996065  nElectrons: 330.000000
	SubspaceRotationAdjust: set factor to 0.367
ElecMinimize: Iter:  38  F: -657.154488427251522  |grad|_K:  8.452e-07  alpha:  4.374e-02  linmin:  3.012e-07  t[s]:    112.79
	FillingsUpdate:  mu: -0.087911773  nElectrons: 330.000000
	SubspaceRotationAdjust: set factor to 0.338
ElecMinimize: Iter:  39  F: -657.154489109424048  |grad|_K:  6.812e-07  alpha:  3.232e-02  linmin:  2.547e-07  t[s]:    114.69
	FillingsUpdate:  mu: -0.087797404  nElectrons: 330.000000
	SubspaceRotationAdjust: set factor to 0.331
ElecMinimize: Iter:  40  F: -657.154489542753254  |grad|_K:  5.990e-07  alpha:  3.256e-02  linmin:  5.038e-07  t[s]:    116.61
	FillingsUpdate:  mu: -0.087693156  nElectrons: 330.000000
	SubspaceRotationAdjust: set factor to 0.271
ElecMinimize: Iter:  41  F: -657.154489902054024  |grad|_K:  6.078e-07  alpha:  3.539e-02  linmin:  4.062e-07  t[s]:    118.53
	FillingsUpdate:  mu: -0.087623136  nElectrons: 330.000000
	SubspaceRotationAdjust: set factor to 0.198
ElecMinimize: Iter:  42  F: -657.154490291799107  |grad|_K:  6.076e-07  alpha:  3.707e-02  linmin:  4.557e-07  t[s]:    120.44
	FillingsUpdate:  mu: -0.087618853  nElectrons: 330.000000
	SubspaceRotationAdjust: set factor to 0.145
ElecMinimize: Iter:  43  F: -657.154490680464505  |grad|_K:  5.357e-07  alpha:  3.698e-02  linmin:  5.038e-07  t[s]:    122.35
	FillingsUpdate:  mu: -0.087672148  nElectrons: 330.000000
	SubspaceRotationAdjust: set factor to 0.115
	SubspaceRotationAdjust: resetting CG because factor has changed by 0.11503
ElecMinimize: 	State modified externally: resetting search direction.
ElecMinimize: Iter:  44  F: -657.154491002888449  |grad|_K:  4.103e-07  alpha:  3.951e-02
ElecMinimize: 	Predicted alpha/alphaT>3.000000, increasing alphaT to 1.185230e-01.
ElecMinimize: 	Predicted alpha/alphaT>3.000000, increasing alphaT to 3.555691e-01.
	FillingsUpdate:  mu: -0.088007025  nElectrons: 330.000000
	SubspaceRotationAdjust: set factor to 0.12
ElecMinimize: Iter:  45  F: -657.154493476825337  |grad|_K:  5.032e-07  alpha:  5.050e-01  linmin: -1.641e-06  t[s]:    128.31
	FillingsUpdate:  mu: -0.087777367  nElectrons: 330.000000
	SubspaceRotationAdjust: set factor to 0.138
ElecMinimize: Iter:  46  F: -657.154497710932446  |grad|_K:  4.013e-07  alpha:  5.680e-01  linmin: -6.246e-06  t[s]:    130.22
	FillingsUpdate:  mu: -0.087843067  nElectrons: 330.000000
	SubspaceRotationAdjust: set factor to 0.167
ElecMinimize: Iter:  47  F: -657.154500153995855  |grad|_K:  2.693e-07  alpha:  5.042e-01  linmin: -1.461e-06  t[s]:    132.12
	FillingsUpdate:  mu: -0.087703071  nElectrons: 330.000000
	SubspaceRotationAdjust: set factor to 0.171
ElecMinimize: Iter:  48  F: -657.154501421514169  |grad|_K:  2.355e-07  alpha:  5.936e-01  linmin: -1.036e-06  t[s]:    134.03
	FillingsUpdate:  mu: -0.087878434  nElectrons: 330.000000
	SubspaceRotationAdjust: set factor to 0.142
ElecMinimize: Iter:  49  F: -657.154502026294267  |grad|_K:  2.251e-07  alpha:  3.731e-01  linmin:  8.722e-08  t[s]:    135.93
	FillingsUpdate:  mu: -0.087770071  nElectrons: 330.000000
	SubspaceRotationAdjust: set factor to 0.141
ElecMinimize: Iter:  50  F: -657.154502600593673  |grad|_K:  1.586e-07  alpha:  3.912e-01  linmin: -1.948e-07  t[s]:    137.84
	FillingsUpdate:  mu: -0.087810642  nElectrons: 330.000000
	SubspaceRotationAdjust: set factor to 0.147
ElecMinimize: Iter:  51  F: -657.154502945028298  |grad|_K:  1.182e-07  alpha:  4.672e-01  linmin: -7.519e-08  t[s]:    139.76
	FillingsUpdate:  mu: -0.087761147  nElectrons: 330.000000
	SubspaceRotationAdjust: set factor to 0.146
ElecMinimize: Iter:  52  F: -657.154503108054996  |grad|_K:  7.972e-08  alpha:  4.007e-01  linmin:  1.646e-08  t[s]:    141.67
	FillingsUpdate:  mu: -0.087804270  nElectrons: 330.000000
	SubspaceRotationAdjust: set factor to 0.141
ElecMinimize: Iter:  53  F: -657.154503216273156  |grad|_K:  6.720e-08  alpha:  5.861e-01  linmin: -1.580e-08  t[s]:    143.58
	FillingsUpdate:  mu: -0.087761458  nElectrons: 330.000000
	SubspaceRotationAdjust: set factor to 0.127
ElecMinimize: Iter:  54  F: -657.154503266431902  |grad|_K:  6.130e-08  alpha:  3.833e-01  linmin:  1.906e-08  t[s]:    145.49
	FillingsUpdate:  mu: -0.087800745  nElectrons: 330.000000
	SubspaceRotationAdjust: set factor to 0.118
ElecMinimize: Iter:  55  F: -657.154503320060599  |grad|_K:  5.750e-08  alpha:  4.920e-01  linmin:  7.850e-09  t[s]:    147.39
	FillingsUpdate:  mu: -0.087775009  nElectrons: 330.000000
	SubspaceRotationAdjust: set factor to 0.119
ElecMinimize: Iter:  56  F: -657.154503386551141  |grad|_K:  5.640e-08  alpha:  6.955e-01  linmin:  1.222e-07  t[s]:    149.31
	FillingsUpdate:  mu: -0.087786020  nElectrons: 330.000000
	SubspaceRotationAdjust: set factor to 0.127
ElecMinimize: Iter:  57  F: -657.154503435672495  |grad|_K:  4.284e-08  alpha:  4.822e-01  linmin: -5.521e-08  t[s]:    151.23
	FillingsUpdate:  mu: -0.087786754  nElectrons: 330.000000
	SubspaceRotationAdjust: set factor to 0.149
ElecMinimize: Iter:  58  F: -657.154503453466077  |grad|_K:  2.580e-08  alpha:  3.037e-01  linmin: -1.578e-07  t[s]:    153.13
	FillingsUpdate:  mu: -0.087783625  nElectrons: 330.000000
	SubspaceRotationAdjust: set factor to 0.175
ElecMinimize: Iter:  59  F: -657.154503461810577  |grad|_K:  2.761e-08  alpha:  4.337e-01  linmin:  2.653e-07  t[s]:    155.04
	FillingsUpdate:  mu: -0.087786183  nElectrons: 330.000000
	SubspaceRotationAdjust: set factor to 0.232
ElecMinimize: Iter:  60  F: -657.154503468502980  |grad|_K:  2.469e-08  alpha:  3.112e-01  linmin:  7.001e-08  t[s]:    156.96
ElecMinimize: Converged (|Delta F|<1.000000e-08 for 2 iters).
Setting wave functions to eigenvectors of Hamiltonian
Vacuum energy after initial minimize, F = -657.154503468502980


-------- Electronic minimization -----------
	Linear fluid (dielectric constant: 7.2) occupying 0.824316 of unit cell:	Completed after 13 iterations at t[s]:    157.54
	FillingsUpdate:  mu: -0.096706119  nElectrons: 330.000000
ElecMinimize: Iter:   0  F: -657.198619341921130  |grad|_K:  2.336e-05  alpha:  1.000e+00
	Linear fluid (dielectric constant: 7.2) occupying 0.826772 of unit cell:	Completed after 11 iterations at t[s]:    159.17
	Linear fluid (dielectric constant: 7.2) occupying 0.826430 of unit cell:	Completed after 8 iterations at t[s]:    159.95
	FillingsUpdate:  mu: -0.097481882  nElectrons: 330.000000
	SubspaceRotationAdjust: set factor to 0.299
ElecMinimize: Iter:   1  F: -657.208712774908577  |grad|_K:  1.274e-05  alpha:  7.329e-01  linmin: -1.061e-03  t[s]:    160.84
	Linear fluid (dielectric constant: 7.2) occupying 0.826981 of unit cell:	Completed after 10 iterations at t[s]:    161.57
	Linear fluid (dielectric constant: 7.2) occupying 0.826970 of unit cell:	Completed after 4 iterations at t[s]:    162.29
	FillingsUpdate:  mu: -0.085962783  nElectrons: 330.000000
	SubspaceRotationAdjust: set factor to 0.217
ElecMinimize: Iter:   2  F: -657.212396784637008  |grad|_K:  1.829e-05  alpha:  7.157e-01  linmin: -2.290e-04  t[s]:    163.13
	Linear fluid (dielectric constant: 7.2) occupying 0.827772 of unit cell:	Completed after 12 iterations at t[s]:    163.88
	Linear fluid (dielectric constant: 7.2) occupying 0.827192 of unit cell:	Completed after 11 iterations at t[s]:    164.66
	FillingsUpdate:  mu: -0.097706361  nElectrons: 330.000000
	SubspaceRotationAdjust: set factor to 0.14
ElecMinimize: Iter:   3  F: -657.214013766727589  |grad|_K:  1.023e-05  alpha:  1.672e-01  linmin: -1.198e-05  t[s]:    165.51
	Linear fluid (dielectric constant: 7.2) occupying 0.827252 of unit cell:	Completed after 7 iterations at t[s]:    166.20
ElecMinimize: 	Predicted alpha/alphaT>3.000000, increasing alphaT to 5.017375e-01.
	Linear fluid (dielectric constant: 7.2) occupying 0.827357 of unit cell:	Completed after 8 iterations at t[s]:    166.95
	Linear fluid (dielectric constant: 7.2) occupying 0.827376 of unit cell:	Completed after 5 iterations at t[s]:    167.69
	FillingsUpdate:  mu: -0.093085965  nElectrons: 330.000000
	SubspaceRotationAdjust: set factor to 0.15
ElecMinimize: Iter:   4  F: -657.215775269367100  |grad|_K:  7.367e-06  alpha:  5.707e-01  linmin: -1.979e-04  t[s]:    168.54
	Linear fluid (dielectric constant: 7.2) occupying 0.827409 of unit cell:	Completed after 8 iterations at t[s]:    169.24
	Linear fluid (dielectric constant: 7.2) occupying 0.827408 of unit cell:	Completed after 2 iterations at t[s]:    169.93
	FillingsUpdate:  mu: -0.096151531  nElectrons: 330.000000
	SubspaceRotationAdjust: set factor to 0.15
ElecMinimize: Iter:   5  F: -657.216710494634071  |grad|_K:  6.479e-06  alpha:  5.426e-01  linmin: -8.491e-06  t[s]:    170.76
	Linear fluid (dielectric constant: 7.2) occupying 0.827462 of unit cell:	Completed after 8 iterations at t[s]:    171.48
	Linear fluid (dielectric constant: 7.2) occupying 0.827445 of unit cell:	Completed after 6 iterations at t[s]:    172.22
	FillingsUpdate:  mu: -0.091718784  nElectrons: 330.000000
	SubspaceRotationAdjust: set factor to 0.125
ElecMinimize: Iter:   6  F: -657.217127334978045  |grad|_K:  5.233e-06  alpha:  3.307e-01  linmin:  8.268e-05  t[s]:    173.06
	Linear fluid (dielectric constant: 7.2) occupying 0.827504 of unit cell:	Completed after 6 iterations at t[s]:    173.75
	Linear fluid (dielectric constant: 7.2) occupying 0.827530 of unit cell:	Completed after 5 iterations at t[s]:    174.47
	FillingsUpdate:  mu: -0.094703509  nElectrons: 330.000000
	SubspaceRotationAdjust: set factor to 0.111
ElecMinimize: Iter:   7  F: -657.217498411132624  |grad|_K:  4.108e-06  alpha:  5.047e-01  linmin:  1.728e-04  t[s]:    175.32
	Linear fluid (dielectric constant: 7.2) occupying 0.827603 of unit cell:	Completed after 6 iterations at t[s]:    176.00
	Linear fluid (dielectric constant: 7.2) occupying 0.827600 of unit cell:	Completed after 1 iterations at t[s]:    176.69
	FillingsUpdate:  mu: -0.093976143  nElectrons: 330.000000
	SubspaceRotationAdjust: set factor to 0.116
ElecMinimize: Iter:   8  F: -657.217709926571160  |grad|_K:  2.690e-06  alpha:  4.834e-01  linmin:  1.983e-05  t[s]:    177.55
	Linear fluid (dielectric constant: 7.2) occupying 0.827607 of unit cell:	Completed after 4 iterations at t[s]:    178.22
	Linear fluid (dielectric constant: 7.2) occupying 0.827605 of unit cell:	Completed after 4 iterations at t[s]:    178.93
	FillingsUpdate:  mu: -0.094295279  nElectrons: 330.000000
	SubspaceRotationAdjust: set factor to 0.115
ElecMinimize: Iter:   9  F: -657.217825982915770  |grad|_K:  4.217e-06  alpha:  7.489e-01  linmin:  4.843e-04  t[s]:    179.77
	Linear fluid (dielectric constant: 7.2) occupying 0.827324 of unit cell:	Completed after 7 iterations at t[s]:    180.48
	Linear fluid (dielectric constant: 7.2) occupying 0.827612 of unit cell:	Completed after 7 iterations at t[s]:    181.22
	FillingsUpdate:  mu: -0.094124443  nElectrons: 330.000000
	SubspaceRotationAdjust: set factor to 0.123
ElecMinimize: Iter:  10  F: -657.217849014467902  |grad|_K:  4.060e-06  alpha:  5.819e-02  linmin: -1.440e-04  t[s]:    182.08
	Linear fluid (dielectric constant: 7.2) occupying 0.827621 of unit cell:	Completed after 4 iterations at t[s]:    182.76
ElecMinimize: 	Predicted alpha/alphaT>3.000000, increasing alphaT to 1.745616e-01.
	Linear fluid (dielectric constant: 7.2) occupying 0.827635 of unit cell:	Completed after 4 iterations at t[s]:    183.46
	Linear fluid (dielectric constant: 7.2) occupying 0.827638 of unit cell:	Completed after 4 iterations at t[s]:    184.16
	FillingsUpdate:  mu: -0.092226886  nElectrons: 330.000000
	SubspaceRotationAdjust: set factor to 0.112
ElecMinimize: Iter:  11  F: -657.217971496696350  |grad|_K:  3.127e-06  alpha:  2.254e-01  linmin:  3.190e-04  t[s]:    185.00
	Linear fluid (dielectric constant: 7.2) occupying 0.827643 of unit cell:	Completed after 5 iterations at t[s]:    185.68
	Linear fluid (dielectric constant: 7.2) occupying 0.827627 of unit cell:	Completed after 5 iterations at t[s]:    186.40
	FillingsUpdate:  mu: -0.093330880  nElectrons: 330.000000
	SubspaceRotationAdjust: set factor to 0.115
ElecMinimize: Iter:  12  F: -657.217982506709291  |grad|_K:  4.730e-06  alpha:  4.193e-01  linmin:  5.148e-04  t[s]:    187.24
ElecMinimize: 	Bad step direction: g.d > 0.
ElecMinimize: 	Undoing step.
	Linear fluid (dielectric constant: 7.2) occupying 0.827627 of unit cell:	Completed after 0 iterations at t[s]:    187.85
ElecMinimize: 	Step failed: resetting search direction.
	FillingsUpdate:  mu: -0.093330880  nElectrons: 330.000000
	SubspaceRotationAdjust: set factor to 0.129
ElecMinimize: Iter:  13  F: -657.217982506718158  |grad|_K:  4.720e-06  alpha:  0.000e+00
	Linear fluid (dielectric constant: 7.2) occupying 0.827656 of unit cell:	Completed after 5 iterations at t[s]:    189.33
	Linear fluid (dielectric constant: 7.2) occupying 0.827649 of unit cell:	Completed after 4 iterations at t[s]:    190.04
	FillingsUpdate:  mu: -0.097948526  nElectrons: 330.000000
	SubspaceRotationAdjust: set factor to 0.0885
ElecMinimize: Iter:  14  F: -657.218110956471833  |grad|_K:  1.968e-06  alpha:  2.280e-01  linmin:  4.384e-04  t[s]:    190.88
	Linear fluid (dielectric constant: 7.2) occupying 0.827621 of unit cell:	Completed after 3 iterations at t[s]:    191.55
ElecMinimize: 	Predicted alpha/alphaT>3.000000, increasing alphaT to 6.839742e-01.
	Linear fluid (dielectric constant: 7.2) occupying 0.827551 of unit cell:	Completed after 4 iterations at t[s]:    192.25
	Linear fluid (dielectric constant: 7.2) occupying 0.827617 of unit cell:	Completed after 4 iterations at t[s]:    192.96
	FillingsUpdate:  mu: -0.093446714  nElectrons: 330.000000
	SubspaceRotationAdjust: set factor to 0.0935
ElecMinimize: Iter:  15  F: -657.218162152020568  |grad|_K:  1.477e-06  alpha:  2.574e-01  linmin:  2.672e-04  t[s]:    193.80
	Linear fluid (dielectric constant: 7.2) occupying 0.827601 of unit cell:	Completed after 3 iterations at t[s]:    194.46
ElecMinimize: 	Predicted alpha/alphaT>3.000000, increasing alphaT to 7.720672e-01.
	Linear fluid (dielectric constant: 7.2) occupying 0.827560 of unit cell:	Completed after 4 iterations at t[s]:    195.16
	Linear fluid (dielectric constant: 7.2) occupying 0.827593 of unit cell:	Completed after 3 iterations at t[s]:    195.83
	FillingsUpdate:  mu: -0.093328565  nElectrons: 330.000000
	SubspaceRotationAdjust: set factor to 0.0966
ElecMinimize: Iter:  16  F: -657.218194164937699  |grad|_K:  1.551e-06  alpha:  3.638e-01  linmin:  3.738e-05  t[s]:    196.66
	Linear fluid (dielectric constant: 7.2) occupying 0.827580 of unit cell:	Completed after 3 iterations at t[s]:    197.33
	Linear fluid (dielectric constant: 7.2) occupying 0.827586 of unit cell:	Completed after 2 iterations at t[s]:    197.99
	FillingsUpdate:  mu: -0.093449371  nElectrons: 330.000000
	SubspaceRotationAdjust: set factor to 0.0948
ElecMinimize: Iter:  17  F: -657.218210885508825  |grad|_K:  1.362e-06  alpha:  2.309e-01  linmin: -2.804e-05  t[s]:    198.81
	Linear fluid (dielectric constant: 7.2) occupying 0.827573 of unit cell:	Completed after 2 iterations at t[s]:    199.47
	Linear fluid (dielectric constant: 7.2) occupying 0.827548 of unit cell:	Completed after 3 iterations at t[s]:    200.14
	FillingsUpdate:  mu: -0.093674888  nElectrons: 330.000000
	SubspaceRotationAdjust: set factor to 0.0958
ElecMinimize: Iter:  18  F: -657.218211480287096  |grad|_K:  2.777e-06  alpha:  5.625e-01  linmin:  6.265e-04  t[s]:    200.98
ElecMinimize: 	Bad step direction: g.d > 0.
ElecMinimize: 	Undoing step.
	Linear fluid (dielectric constant: 7.2) occupying 0.827548 of unit cell:	Completed after 0 iterations at t[s]:    201.59
ElecMinimize: 	Step failed: resetting search direction.
	FillingsUpdate:  mu: -0.093674888  nElectrons: 330.000000
	SubspaceRotationAdjust: set factor to 0.097
ElecMinimize: Iter:  19  F: -657.218211480289142  |grad|_K:  2.762e-06  alpha:  0.000e+00
	Linear fluid (dielectric constant: 7.2) occupying 0.827534 of unit cell:	Completed after 4 iterations at t[s]:    203.05
	Linear fluid (dielectric constant: 7.2) occupying 0.827544 of unit cell:	Completed after 2 iterations at t[s]:    203.74
	FillingsUpdate:  mu: -0.093579035  nElectrons: 330.000000
	SubspaceRotationAdjust: set factor to 0.105
ElecMinimize: Iter:  20  F: -657.218275023410229  |grad|_K:  9.469e-07  alpha:  2.532e-01  linmin:  6.665e-04  t[s]:    204.57
	Linear fluid (dielectric constant: 7.2) occupying 0.827537 of unit cell:	Completed after 2 iterations at t[s]:    205.23
ElecMinimize: 	Wrong curvature in test step, increasing alphaT to 7.596943e-01.
	Linear fluid (dielectric constant: 7.2) occupying 0.827537 of unit cell:	Completed after 0 iterations at t[s]:    205.73
	FillingsUpdate:  mu: -0.093555457  nElectrons: 330.000000
	SubspaceRotationAdjust: set factor to 0.134
ElecMinimize: Iter:  21  F: -657.218288805228326  |grad|_K:  7.527e-07  alpha: -1.248e+00  linmin: -1.098e-03  t[s]:    206.55
	Linear fluid (dielectric constant: 7.2) occupying 0.827518 of unit cell:	Completed after 4 iterations at t[s]:    207.23
	Linear fluid (dielectric constant: 7.2) occupying 0.827521 of unit cell:	Completed after 1 iterations at t[s]:    207.91
	FillingsUpdate:  mu: -0.093672906  nElectrons: 330.000000
	SubspaceRotationAdjust: set factor to 0.137
ElecMinimize: Iter:  22  F: -657.218312705209996  |grad|_K:  1.937e-06  alpha:  9.257e-01  linmin:  2.730e-04  t[s]:    208.74
ElecMinimize: 	Bad step direction: g.d > 0.
ElecMinimize: 	Undoing step.
	Linear fluid (dielectric constant: 7.2) occupying 0.827521 of unit cell:	Completed after 0 iterations at t[s]:    209.35
ElecMinimize: 	Step failed: resetting search direction.
	FillingsUpdate:  mu: -0.093672906  nElectrons: 330.000000
	SubspaceRotationAdjust: set factor to 0.142
ElecMinimize: Iter:  23  F: -657.218312705210337  |grad|_K:  1.934e-06  alpha:  0.000e+00
	Linear fluid (dielectric constant: 7.2) occupying 0.827499 of unit cell:	Completed after 4 iterations at t[s]:    210.84
	Linear fluid (dielectric constant: 7.2) occupying 0.827517 of unit cell:	Completed after 4 iterations at t[s]:    211.53
	FillingsUpdate:  mu: -0.093529034  nElectrons: 330.000000
	SubspaceRotationAdjust: set factor to 0.162
ElecMinimize: Iter:  24  F: -657.218343851819213  |grad|_K:  9.652e-07  alpha:  2.463e-01  linmin:  1.999e-04  t[s]:    212.38
	Linear fluid (dielectric constant: 7.2) occupying 0.827510 of unit cell:	Completed after 2 iterations at t[s]:    213.03
ElecMinimize: 	Wrong curvature in test step, increasing alphaT to 7.390256e-01.
	Linear fluid (dielectric constant: 7.2) occupying 0.827510 of unit cell:	Completed after 0 iterations at t[s]:    213.52
	FillingsUpdate:  mu: -0.093638765  nElectrons: 330.000000
	SubspaceRotationAdjust: set factor to 0.217
ElecMinimize: Iter:  25  F: -657.218357996707937  |grad|_K:  8.372e-07  alpha: -1.226e+00  linmin: -1.368e-03  t[s]:    214.34
	Linear fluid (dielectric constant: 7.2) occupying 0.827442 of unit cell:	Completed after 4 iterations at t[s]:    215.01
	Linear fluid (dielectric constant: 7.2) occupying 0.827503 of unit cell:	Completed after 3 iterations at t[s]:    215.70
	FillingsUpdate:  mu: -0.093638765  nElectrons: 330.000000
	SubspaceRotationAdjust: set factor to 0.297
ElecMinimize: Iter:  26  F: -657.218372990262651  |grad|_K:  7.904e-07  alpha:  2.248e-01  linmin: -8.428e-04  t[s]:    216.54
	Linear fluid (dielectric constant: 7.2) occupying 0.827493 of unit cell:	Completed after 2 iterations at t[s]:    217.20
ElecMinimize: 	Predicted alpha/alphaT>3.000000, increasing alphaT to 6.745297e-01.
	Linear fluid (dielectric constant: 7.2) occupying 0.827442 of unit cell:	Completed after 3 iterations at t[s]:    217.89
	Linear fluid (dielectric constant: 7.2) occupying 0.827497 of unit cell:	Completed after 3 iterations at t[s]:    218.58
	FillingsUpdate:  mu: -0.093526155  nElectrons: 330.000000
	SubspaceRotationAdjust: set factor to 0.336
ElecMinimize: Iter:  27  F: -657.218384362200254  |grad|_K:  9.661e-07  alpha:  1.611e-01  linmin: -4.538e-04  t[s]:    219.44
	Linear fluid (dielectric constant: 7.2) occupying 0.827485 of unit cell:	Completed after 2 iterations at t[s]:    220.08
	Linear fluid (dielectric constant: 7.2) occupying 0.827471 of unit cell:	Completed after 1 iterations at t[s]:    220.73
	FillingsUpdate:  mu: -0.093314158  nElectrons: 330.000000
	SubspaceRotationAdjust: set factor to 0.331
ElecMinimize: Iter:  28  F: -657.218387608357830  |grad|_K:  3.088e-06  alpha:  2.484e-01  linmin:  7.031e-04  t[s]:    221.56
ElecMinimize: 	Bad step direction: g.d > 0.
ElecMinimize: 	Undoing step.
	Linear fluid (dielectric constant: 7.2) occupying 0.827471 of unit cell:	Completed after 0 iterations at t[s]:    222.17
ElecMinimize: 	Step failed: resetting search direction.
	FillingsUpdate:  mu: -0.093314158  nElectrons: 330.000000
	SubspaceRotationAdjust: set factor to 0.416
ElecMinimize: Iter:  29  F: -657.218387608359762  |grad|_K:  3.073e-06  alpha:  0.000e+00
	Linear fluid (dielectric constant: 7.2) occupying 0.827560 of unit cell:	Completed after 3 iterations at t[s]:    223.63
	Linear fluid (dielectric constant: 7.2) occupying 0.827509 of unit cell:	Completed after 2 iterations at t[s]:    224.32
	FillingsUpdate:  mu: -0.093958023  nElectrons: 330.000000
	SubspaceRotationAdjust: set factor to 0.251
ElecMinimize: Iter:  30  F: -657.218402545451454  |grad|_K:  2.104e-06  alpha:  8.802e-02  linmin:  6.267e-04  t[s]:    225.15
	Linear fluid (dielectric constant: 7.2) occupying 0.827483 of unit cell:	Completed after 1 iterations at t[s]:    225.79
ElecMinimize: 	Predicted alpha/alphaT>3.000000, increasing alphaT to 2.640646e-01.
	Linear fluid (dielectric constant: 7.2) occupying 0.827424 of unit cell:	Completed after 2 iterations at t[s]:    226.46
	Linear fluid (dielectric constant: 7.2) occupying 0.827473 of unit cell:	Completed after 2 iterations at t[s]:    227.15
	FillingsUpdate:  mu: -0.093700531  nElectrons: 330.000000
	SubspaceRotationAdjust: set factor to 0.132
ElecMinimize: Iter:  31  F: -657.218424681287843  |grad|_K:  1.082e-06  alpha:  1.208e-01  linmin:  5.520e-04  t[s]:    232.19
	Linear fluid (dielectric constant: 7.2) occupying 0.827481 of unit cell:	Completed after 1 iterations at t[s]:    237.45
	Linear fluid (dielectric constant: 7.2) occupying 0.827482 of unit cell:	Completed after 1 iterations at t[s]:    244.44
	FillingsUpdate:  mu: -0.093574022  nElectrons: 330.000000
	SubspaceRotationAdjust: set factor to 0.154
ElecMinimize: Iter:  32  F: -657.218429113201410  |grad|_K:  6.593e-07  alpha:  1.459e-01  linmin: -9.564e-04  t[s]:    245.28
	Linear fluid (dielectric constant: 7.2) occupying 0.827483 of unit cell:	Completed after 1 iterations at t[s]:    245.94
ElecMinimize: 	Predicted alpha/alphaT>3.000000, increasing alphaT to 4.376161e-01.
	Linear fluid (dielectric constant: 7.2) occupying 0.827482 of unit cell:	Completed after 1 iterations at t[s]:    246.60
	Linear fluid (dielectric constant: 7.2) occupying 0.827478 of unit cell:	Completed after 1 iterations at t[s]:    247.26
	FillingsUpdate:  mu: -0.093358433  nElectrons: 330.000000
	SubspaceRotationAdjust: set factor to 0.158
ElecMinimize: Iter:  33  F: -657.218439021215772  |grad|_K:  1.368e-06  alpha:  7.713e-01  linmin:  3.961e-04  t[s]:    248.08
	Linear fluid (dielectric constant: 7.2) occupying 0.826983 of unit cell:	Completed after 5 iterations at t[s]:    248.77
	Linear fluid (dielectric constant: 7.2) occupying 0.827478 of unit cell:	Completed after 5 iterations at t[s]:    249.46
	FillingsUpdate:  mu: -0.093368554  nElectrons: 330.000000
	SubspaceRotationAdjust: set factor to 0.171
ElecMinimize: Iter:  34  F: -657.218439478400455  |grad|_K:  1.343e-06  alpha:  4.809e-03  linmin: -1.187e-04  t[s]:    250.30
	Linear fluid (dielectric constant: 7.2) occupying 0.827477 of unit cell:	Completed after 0 iterations at t[s]:    250.93
ElecMinimize: 	Wrong curvature in test step, increasing alphaT to 1.442718e-02.
	Linear fluid (dielectric constant: 7.2) occupying 0.827477 of unit cell:	Completed after 0 iterations at t[s]:    251.40
	FillingsUpdate:  mu: -0.093365040  nElectrons: 330.000000
	SubspaceRotationAdjust: set factor to 0.187
ElecMinimize: Iter:  35  F: -657.218440311743620  |grad|_K:  1.337e-06  alpha: -7.380e-03  linmin: -5.366e-04  t[s]:    252.22
	Linear fluid (dielectric constant: 7.2) occupying 0.826214 of unit cell:	Completed after 6 iterations at t[s]:    252.92
	Linear fluid (dielectric constant: 7.2) occupying 0.827472 of unit cell:	Completed after 6 iterations at t[s]:    253.64
	FillingsUpdate:  mu: -0.093448217  nElectrons: 330.000000
	SubspaceRotationAdjust: set factor to 0.205
ElecMinimize: Iter:  36  F: -657.218446401492770  |grad|_K:  1.063e-06  alpha:  2.157e-02  linmin: -9.276e-04  t[s]:    254.49
	Linear fluid (dielectric constant: 7.2) occupying 0.827468 of unit cell:	Completed after 1 iterations at t[s]:    255.13
ElecMinimize: 	Wrong curvature in test step, increasing alphaT to 6.470668e-02.
	Linear fluid (dielectric constant: 7.2) occupying 0.827468 of unit cell:	Completed after 0 iterations at t[s]:    255.62
	FillingsUpdate:  mu: -0.093504470  nElectrons: 330.000000
	SubspaceRotationAdjust: set factor to 0.216
ElecMinimize: Iter:  37  F: -657.218451101977848  |grad|_K:  8.758e-07  alpha: -5.540e-02  linmin: -1.200e-03  t[s]:    256.44
	Linear fluid (dielectric constant: 7.2) occupying 0.827174 of unit cell:	Completed after 5 iterations at t[s]:    257.12
	Linear fluid (dielectric constant: 7.2) occupying 0.827461 of unit cell:	Completed after 5 iterations at t[s]:    257.84
	FillingsUpdate:  mu: -0.093635499  nElectrons: 330.000000
	SubspaceRotationAdjust: set factor to 0.223
ElecMinimize: Iter:  38  F: -657.218458557045892  |grad|_K:  7.391e-07  alpha:  5.426e-02  linmin: -5.908e-04  t[s]:    258.69
	Linear fluid (dielectric constant: 7.2) occupying 0.827460 of unit cell:	Completed after 1 iterations at t[s]:    259.33
ElecMinimize: 	Predicted alpha/alphaT>3.000000, increasing alphaT to 1.627898e-01.
	Linear fluid (dielectric constant: 7.2) occupying 0.827457 of unit cell:	Completed after 1 iterations at t[s]:    260.00
	Linear fluid (dielectric constant: 7.2) occupying 0.827458 of unit cell:	Completed after 1 iterations at t[s]:    260.66
	FillingsUpdate:  mu: -0.093767035  nElectrons: 330.000000
	SubspaceRotationAdjust: set factor to 0.266
ElecMinimize: Iter:  39  F: -657.218463462361683  |grad|_K:  1.254e-06  alpha:  1.255e-01  linmin:  1.641e-04  t[s]:    261.49
	Linear fluid (dielectric constant: 7.2) occupying 0.827446 of unit cell:	Completed after 2 iterations at t[s]:    262.15
	Linear fluid (dielectric constant: 7.2) occupying 0.827458 of unit cell:	Completed after 2 iterations at t[s]:    262.80
	FillingsUpdate:  mu: -0.093776714  nElectrons: 330.000000
	SubspaceRotationAdjust: set factor to 0.355
ElecMinimize: Iter:  40  F: -657.218463636780712  |grad|_K:  1.358e-06  alpha:  6.055e-03  linmin: -1.612e-05  t[s]:    263.64
	Linear fluid (dielectric constant: 7.2) occupying 0.827459 of unit cell:	Completed after 0 iterations at t[s]:    264.26
	Linear fluid (dielectric constant: 7.2) occupying 0.827459 of unit cell:	Completed after 0 iterations at t[s]:    264.91
	FillingsUpdate:  mu: -0.093777327  nElectrons: 330.000000
	SubspaceRotationAdjust: set factor to 0.471
ElecMinimize: Iter:  41  F: -657.218464572583912  |grad|_K:  1.484e-06  alpha:  1.310e-02  linmin: -1.070e-04  t[s]:    265.73
	Linear fluid (dielectric constant: 7.2) occupying 0.827462 of unit cell:	Completed after 1 iterations at t[s]:    266.37
	Linear fluid (dielectric constant: 7.2) occupying 0.827462 of unit cell:	Completed after 0 iterations at t[s]:    267.02
	FillingsUpdate:  mu: -0.093739259  nElectrons: 330.000000
	SubspaceRotationAdjust: set factor to 0.628
ElecMinimize: Iter:  42  F: -657.218465983600822  |grad|_K:  1.526e-06  alpha:  1.431e-02  linmin: -1.585e-04  t[s]:    267.84
	Linear fluid (dielectric constant: 7.2) occupying 0.827465 of unit cell:	Completed after 1 iterations at t[s]:    268.47
	Linear fluid (dielectric constant: 7.2) occupying 0.827465 of unit cell:	Completed after 0 iterations at t[s]:    269.13
	FillingsUpdate:  mu: -0.093658344  nElectrons: 330.000000
	SubspaceRotationAdjust: set factor to 0.83
ElecMinimize: Iter:  43  F: -657.218467277367381  |grad|_K:  1.510e-06  alpha:  1.227e-02  linmin: -1.794e-04  t[s]:    269.96
	Linear fluid (dielectric constant: 7.2) occupying 0.827466 of unit cell:	Completed after 1 iterations at t[s]:    270.59
	Linear fluid (dielectric constant: 7.2) occupying 0.827466 of unit cell:	Completed after 0 iterations at t[s]:    271.25
	FillingsUpdate:  mu: -0.093571238  nElectrons: 330.000000
	SubspaceRotationAdjust: set factor to 1.08
ElecMinimize: Iter:  44  F: -657.218468300912832  |grad|_K:  1.467e-06  alpha:  9.788e-03  linmin: -1.647e-04  t[s]:    272.07
	Linear fluid (dielectric constant: 7.2) occupying 0.827465 of unit cell:	Completed after 1 iterations at t[s]:    272.71
	Linear fluid (dielectric constant: 7.2) occupying 0.827465 of unit cell:	Completed after 0 iterations at t[s]:    273.37
	FillingsUpdate:  mu: -0.093516487  nElectrons: 330.000000
	SubspaceRotationAdjust: set factor to 1.34
ElecMinimize: Iter:  45  F: -657.218469060431744  |grad|_K:  1.402e-06  alpha:  7.624e-03  linmin: -1.339e-04  t[s]:    274.21
	Linear fluid (dielectric constant: 7.2) occupying 0.827464 of unit cell:	Completed after 0 iterations at t[s]:    274.83
	Linear fluid (dielectric constant: 7.2) occupying 0.827464 of unit cell:	Completed after 0 iterations at t[s]:    275.48
	FillingsUpdate:  mu: -0.093500093  nElectrons: 330.000000
	SubspaceRotationAdjust: set factor to 1.54
ElecMinimize: Iter:  46  F: -657.218469572732602  |grad|_K:  1.356e-06  alpha:  5.832e-03  linmin: -1.140e-04  t[s]:    276.30
	Linear fluid (dielectric constant: 7.2) occupying 0.827463 of unit cell:	Completed after 0 iterations at t[s]:    276.92
	Linear fluid (dielectric constant: 7.2) occupying 0.827464 of unit cell:	Completed after 0 iterations at t[s]:    277.57
	FillingsUpdate:  mu: -0.093497723  nElectrons: 330.000000
	SubspaceRotationAdjust: set factor to 1.73
	SubspaceRotationAdjust: resetting CG because factor has changed by 7.4448
	Linear fluid (dielectric constant: 7.2) occupying 0.827464 of unit cell:	Completed after 0 iterations at t[s]:    278.76
ElecMinimize: 	State modified externally: resetting search direction.
ElecMinimize: Iter:  47  F: -657.218469918761343  |grad|_K:  1.373e-06  alpha:  4.404e-03
	Linear fluid (dielectric constant: 7.2) occupying 0.827464 of unit cell:	Completed after 0 iterations at t[s]:    280.20
	Linear fluid (dielectric constant: 7.2) occupying 0.827465 of unit cell:	Completed after 1 iterations at t[s]:    280.86
	FillingsUpdate:  mu: -0.093543193  nElectrons: 330.000000
	SubspaceRotationAdjust: set factor to 1.89
ElecMinimize: Iter:  48  F: -657.218470606401752  |grad|_K:  1.247e-06  alpha:  8.762e-03  linmin: -7.452e-04  t[s]:    281.70
	Linear fluid (dielectric constant: 7.2) occupying 0.827466 of unit cell:	Completed after 0 iterations at t[s]:    282.34
	Linear fluid (dielectric constant: 7.2) occupying 0.827469 of unit cell:	Completed after 0 iterations at t[s]:    282.99
	FillingsUpdate:  mu: -0.093694222  nElectrons: 330.000000
	SubspaceRotationAdjust: set factor to 1.86
ElecMinimize: Iter:  49  F: -657.218473366955436  |grad|_K:  1.377e-06  alpha:  2.324e-02  linmin: -6.171e-04  t[s]:    283.82
	Linear fluid (dielectric constant: 7.2) occupying 0.827461 of unit cell:	Completed after 1 iterations at t[s]:    284.46
ElecMinimize: 	Wrong curvature in test step, increasing alphaT to 6.971894e-02.
	Linear fluid (dielectric constant: 7.2) occupying 0.827461 of unit cell:	Completed after 0 iterations at t[s]:    284.94
	FillingsUpdate:  mu: -0.093706280  nElectrons: 330.000000
	SubspaceRotationAdjust: set factor to 2.19
ElecMinimize: Iter:  50  F: -657.218479148168740  |grad|_K:  9.920e-07  alpha: -6.709e-01  linmin: -6.826e-04  t[s]:    285.76
	Linear fluid (dielectric constant: 7.2) occupying 0.826799 of unit cell:	Completed after 6 iterations at t[s]:    286.45
	Linear fluid (dielectric constant: 7.2) occupying 0.827455 of unit cell:	Completed after 6 iterations at t[s]:    287.18
	FillingsUpdate:  mu: -0.093495890  nElectrons: 330.000000
	SubspaceRotationAdjust: set factor to 1.7
ElecMinimize: Iter:  51  F: -657.218482894158569  |grad|_K:  9.380e-07  alpha:  2.877e-02  linmin: -3.636e-04  t[s]:    288.03
	Linear fluid (dielectric constant: 7.2) occupying 0.827460 of unit cell:	Completed after 1 iterations at t[s]:    288.68
	Linear fluid (dielectric constant: 7.2) occupying 0.827459 of unit cell:	Completed after 0 iterations at t[s]:    289.33
	FillingsUpdate:  mu: -0.093482680  nElectrons: 330.000000
	SubspaceRotationAdjust: set factor to 1.27
ElecMinimize: Iter:  52  F: -657.218484109526116  |grad|_K:  8.159e-07  alpha:  2.485e-02  linmin: -2.521e-04  t[s]:    290.14
	Linear fluid (dielectric constant: 7.2) occupying 0.827455 of unit cell:	Completed after 1 iterations at t[s]:    290.79
ElecMinimize: 	Predicted alpha/alphaT>3.000000, increasing alphaT to 7.456102e-02.
	Linear fluid (dielectric constant: 7.2) occupying 0.827447 of unit cell:	Completed after 2 iterations at t[s]:    291.46
	Linear fluid (dielectric constant: 7.2) occupying 0.827449 of unit cell:	Completed after 1 iterations at t[s]:    292.12
	FillingsUpdate:  mu: -0.093803973  nElectrons: 330.000000
	SubspaceRotationAdjust: set factor to 0.82
ElecMinimize: Iter:  53  F: -657.218486489465931  |grad|_K:  1.113e-06  alpha:  6.083e-02  linmin:  1.103e-04  t[s]:    292.95
	Linear fluid (dielectric constant: 7.2) occupying 0.827437 of unit cell:	Completed after 1 iterations at t[s]:    293.58
	Linear fluid (dielectric constant: 7.2) occupying 0.827449 of unit cell:	Completed after 1 iterations at t[s]:    294.25
	FillingsUpdate:  mu: -0.093806599  nElectrons: 330.000000
	SubspaceRotationAdjust: set factor to 0.722
ElecMinimize: Iter:  54  F: -657.218486591772717  |grad|_K:  9.963e-07  alpha:  4.418e-03  linmin:  4.279e-06  t[s]:    295.08
	Linear fluid (dielectric constant: 7.2) occupying 0.827448 of unit cell:	Completed after 1 iterations at t[s]:    295.72
ElecMinimize: 	Predicted alpha/alphaT>3.000000, increasing alphaT to 1.325360e-02.
	Linear fluid (dielectric constant: 7.2) occupying 0.827448 of unit cell:	Completed after 0 iterations at t[s]:    296.38
	Linear fluid (dielectric constant: 7.2) occupying 0.827448 of unit cell:	Completed after 0 iterations at t[s]:    297.03
	FillingsUpdate:  mu: -0.093659417  nElectrons: 330.000000
	SubspaceRotationAdjust: set factor to 0.983
ElecMinimize: Iter:  55  F: -657.218487243562549  |grad|_K:  7.443e-07  alpha:  2.464e-02  linmin:  2.010e-05  t[s]:    297.86
	Linear fluid (dielectric constant: 7.2) occupying 0.827448 of unit cell:	Completed after 1 iterations at t[s]:    298.51
	Linear fluid (dielectric constant: 7.2) occupying 0.827448 of unit cell:	Completed after 0 iterations at t[s]:    299.16
	FillingsUpdate:  mu: -0.093542261  nElectrons: 330.000000
	SubspaceRotationAdjust: set factor to 0.946
ElecMinimize: Iter:  56  F: -657.218487543941023  |grad|_K:  7.389e-07  alpha:  2.175e-02  linmin: -2.799e-05  t[s]:    299.99
	Linear fluid (dielectric constant: 7.2) occupying 0.827447 of unit cell:	Completed after 1 iterations at t[s]:    300.63
	Linear fluid (dielectric constant: 7.2) occupying 0.827446 of unit cell:	Completed after 1 iterations at t[s]:    301.29
	FillingsUpdate:  mu: -0.093352761  nElectrons: 330.000000
	SubspaceRotationAdjust: set factor to 0.709
ElecMinimize: Iter:  57  F: -657.218488490346203  |grad|_K:  1.093e-06  alpha:  5.477e-02  linmin:  1.032e-05  t[s]:    302.12
	Linear fluid (dielectric constant: 7.2) occupying 0.827434 of unit cell:	Completed after 1 iterations at t[s]:    302.76
	Linear fluid (dielectric constant: 7.2) occupying 0.827440 of unit cell:	Completed after 0 iterations at t[s]:    303.41
	FillingsUpdate:  mu: -0.093347676  nElectrons: 330.000000
	SubspaceRotationAdjust: set factor to 0.612
ElecMinimize: Iter:  58  F: -657.218489595230494  |grad|_K:  1.021e-06  alpha:  2.832e-02  linmin:  6.250e-06  t[s]:    304.24
	Linear fluid (dielectric constant: 7.2) occupying 0.827436 of unit cell:	Completed after 2 iterations at t[s]:    304.89
	Linear fluid (dielectric constant: 7.2) occupying 0.827437 of unit cell:	Completed after 1 iterations at t[s]:    305.56
	FillingsUpdate:  mu: -0.093463948  nElectrons: 330.000000
	SubspaceRotationAdjust: set factor to 0.939
ElecMinimize: Iter:  59  F: -657.218490142146720  |grad|_K:  8.468e-07  alpha:  1.904e-02  linmin: -7.970e-06  t[s]:    306.38
	Linear fluid (dielectric constant: 7.2) occupying 0.827437 of unit cell:	Completed after 1 iterations at t[s]:    307.03
	Linear fluid (dielectric constant: 7.2) occupying 0.827437 of unit cell:	Completed after 1 iterations at t[s]:    307.69
	FillingsUpdate:  mu: -0.093550244  nElectrons: 330.000000
	SubspaceRotationAdjust: set factor to 1.16
ElecMinimize: Iter:  60  F: -657.218490352057074  |grad|_K:  7.995e-07  alpha:  1.238e-02  linmin: -7.685e-05  t[s]:    308.52
	Linear fluid (dielectric constant: 7.2) occupying 0.827439 of unit cell:	Completed after 1 iterations at t[s]:    309.16
	Linear fluid (dielectric constant: 7.2) occupying 0.827438 of unit cell:	Completed after 1 iterations at t[s]:    309.83
	FillingsUpdate:  mu: -0.093605842  nElectrons: 330.000000
	SubspaceRotationAdjust: set factor to 1.37
ElecMinimize: Iter:  61  F: -657.218490449587307  |grad|_K:  7.439e-07  alpha:  7.141e-03  linmin: -1.854e-04  t[s]:    310.67
	Linear fluid (dielectric constant: 7.2) occupying 0.827440 of unit cell:	Completed after 1 iterations at t[s]:    311.30
	Linear fluid (dielectric constant: 7.2) occupying 0.827439 of unit cell:	Completed after 0 iterations at t[s]:    311.97
	FillingsUpdate:  mu: -0.093638147  nElectrons: 330.000000
	SubspaceRotationAdjust: set factor to 1.55
ElecMinimize: Iter:  62  F: -657.218490520489922  |grad|_K:  7.230e-07  alpha:  4.448e-03  linmin: -3.620e-04  t[s]:    312.79
	Linear fluid (dielectric constant: 7.2) occupying 0.827441 of unit cell:	Completed after 0 iterations at t[s]:    313.44
	Linear fluid (dielectric constant: 7.2) occupying 0.827440 of unit cell:	Completed after 0 iterations at t[s]:    314.08
	FillingsUpdate:  mu: -0.093647490  nElectrons: 330.000000
	SubspaceRotationAdjust: set factor to 1.78
ElecMinimize: Iter:  63  F: -657.218490611059906  |grad|_K:  7.103e-07  alpha:  3.320e-03  linmin: -6.832e-04  t[s]:    314.91
	Linear fluid (dielectric constant: 7.2) occupying 0.827441 of unit cell:	Completed after 0 iterations at t[s]:    315.54
	Linear fluid (dielectric constant: 7.2) occupying 0.827441 of unit cell:	Completed after 0 iterations at t[s]:    316.18
	FillingsUpdate:  mu: -0.093649706  nElectrons: 330.000000
	SubspaceRotationAdjust: set factor to 2.09
ElecMinimize: Iter:  64  F: -657.218490767271760  |grad|_K:  7.066e-07  alpha:  3.269e-03  linmin: -1.217e-03  t[s]:    317.00
	Linear fluid (dielectric constant: 7.2) occupying 0.827442 of unit cell:	Completed after 0 iterations at t[s]:    317.63
	Linear fluid (dielectric constant: 7.2) occupying 0.827443 of unit cell:	Completed after 0 iterations at t[s]:    318.27
	FillingsUpdate:  mu: -0.093652338  nElectrons: 330.000000
	SubspaceRotationAdjust: set factor to 2.59
ElecMinimize: Iter:  65  F: -657.218491150977229  |grad|_K:  7.155e-07  alpha:  5.039e-03  linmin: -1.559e-03  t[s]:    319.09
	Linear fluid (dielectric constant: 7.2) occupying 0.827443 of unit cell:	Completed after 1 iterations at t[s]:    319.74
ElecMinimize: 	Predicted alpha/alphaT>3.000000, increasing alphaT to 1.511556e-02.
	Linear fluid (dielectric constant: 7.2) occupying 0.827443 of unit cell:	Completed after 1 iterations at t[s]:    320.40
	Linear fluid (dielectric constant: 7.2) occupying 0.827443 of unit cell:	Completed after 1 iterations at t[s]:    321.06
	FillingsUpdate:  mu: -0.093520762  nElectrons: 330.000000
	SubspaceRotationAdjust: set factor to 1.83
ElecMinimize: Iter:  66  F: -657.218493174867831  |grad|_K:  9.410e-07  alpha:  2.844e-02  linmin: -1.955e-04  t[s]:    321.89
	Linear fluid (dielectric constant: 7.2) occupying 0.827438 of unit cell:	Completed after 1 iterations at t[s]:    322.54
	Linear fluid (dielectric constant: 7.2) occupying 0.827442 of unit cell:	Completed after 1 iterations at t[s]:    323.20
	FillingsUpdate:  mu: -0.093510008  nElectrons: 330.000000
	SubspaceRotationAdjust: set factor to 1.28
ElecMinimize: Iter:  67  F: -657.218493675745094  |grad|_K:  1.048e-06  alpha:  7.858e-03  linmin:  7.494e-05  t[s]:    324.03
	Linear fluid (dielectric constant: 7.2) occupying 0.827441 of unit cell:	Completed after 1 iterations at t[s]:    324.67
ElecMinimize: 	Predicted alpha/alphaT>3.000000, increasing alphaT to 2.357412e-02.
	Linear fluid (dielectric constant: 7.2) occupying 0.827438 of unit cell:	Completed after 0 iterations at t[s]:    325.32
	Linear fluid (dielectric constant: 7.2) occupying 0.827441 of unit cell:	Completed after 1 iterations at t[s]:    325.98
	FillingsUpdate:  mu: -0.093529622  nElectrons: 330.000000
	SubspaceRotationAdjust: set factor to 1.01
ElecMinimize: Iter:  68  F: -657.218494028933719  |grad|_K:  9.896e-07  alpha:  4.844e-03  linmin:  1.100e-04  t[s]:    326.80
	Linear fluid (dielectric constant: 7.2) occupying 0.827441 of unit cell:	Completed after 0 iterations at t[s]:    327.43
ElecMinimize: 	Wrong curvature in test step, increasing alphaT to 1.453265e-02.
	Linear fluid (dielectric constant: 7.2) occupying 0.827441 of unit cell:	Completed after 0 iterations at t[s]:    327.91
	FillingsUpdate:  mu: -0.093553815  nElectrons: 330.000000
	SubspaceRotationAdjust: set factor to 0.967
ElecMinimize: Iter:  69  F: -657.218494380755260  |grad|_K:  9.234e-07  alpha: -2.977e-03  linmin:  7.884e-05  t[s]:    328.73
	Linear fluid (dielectric constant: 7.2) occupying 0.826930 of unit cell:	Completed after 6 iterations at t[s]:    329.42
	Linear fluid (dielectric constant: 7.2) occupying 0.827444 of unit cell:	Completed after 6 iterations at t[s]:    330.16
ElecMinimize: 	Step increased F by 1.204913e-06, reducing alpha to 2.606290e-04.
	Linear fluid (dielectric constant: 7.2) occupying 0.827444 of unit cell:	Completed after 1 iterations at t[s]:    331.52
ElecMinimize: 	Step increased F by 1.390503e-06, reducing alpha to 2.606290e-05.
	Linear fluid (dielectric constant: 7.2) occupying 0.827444 of unit cell:	Completed after 0 iterations at t[s]:    332.84
ElecMinimize: 	Step increased F by 1.411624e-06, reducing alpha to 2.606290e-06.
ElecMinimize: 	Step failed to reduce F after 3 attempts. Quitting step.
ElecMinimize: 	Undoing step.
	Linear fluid (dielectric constant: 7.2) occupying 0.827444 of unit cell:	Completed after 0 iterations at t[s]:    334.16
ElecMinimize: 	Step failed: resetting search direction.
	FillingsUpdate:  mu: -0.093566787  nElectrons: 330.000000
	SubspaceRotationAdjust: set factor to 0.902
ElecMinimize: Iter:  70  F: -657.218492968887517  |grad|_K:  8.849e-07  alpha:  2.606e-06
	Linear fluid (dielectric constant: 7.2) occupying 0.827184 of unit cell:	Completed after 5 iterations at t[s]:    335.65
	Linear fluid (dielectric constant: 7.2) occupying 0.827435 of unit cell:	Completed after 4 iterations at t[s]:    336.35
	FillingsUpdate:  mu: -0.093634950  nElectrons: 330.000000
	SubspaceRotationAdjust: set factor to 0.831
ElecMinimize: Iter:  71  F: -657.218496749021710  |grad|_K:  5.969e-07  alpha:  6.534e-02  linmin: -3.299e-04  t[s]:    337.20
	Linear fluid (dielectric constant: 7.2) occupying 0.827441 of unit cell:	Completed after 1 iterations at t[s]:    337.85
	Linear fluid (dielectric constant: 7.2) occupying 0.827439 of unit cell:	Completed after 0 iterations at t[s]:    338.50
	FillingsUpdate:  mu: -0.093610665  nElectrons: 330.000000
	SubspaceRotationAdjust: set factor to 0.878
ElecMinimize: Iter:  72  F: -657.218497064526673  |grad|_K:  3.908e-07  alpha:  3.698e-02  linmin: -3.531e-04  t[s]:    339.33
	Linear fluid (dielectric constant: 7.2) occupying 0.827439 of unit cell:	Completed after 1 iterations at t[s]:    339.97
	Linear fluid (dielectric constant: 7.2) occupying 0.827439 of unit cell:	Completed after 0 iterations at t[s]:    340.62
	FillingsUpdate:  mu: -0.093590578  nElectrons: 330.000000
	SubspaceRotationAdjust: set factor to 0.832
ElecMinimize: Iter:  73  F: -657.218497266727127  |grad|_K:  3.505e-07  alpha:  3.324e-02  linmin: -4.908e-04  t[s]:    341.44
	Linear fluid (dielectric constant: 7.2) occupying 0.827438 of unit cell:	Completed after 0 iterations at t[s]:    342.07
	Linear fluid (dielectric constant: 7.2) occupying 0.827438 of unit cell:	Completed after 0 iterations at t[s]:    342.70
	FillingsUpdate:  mu: -0.093584847  nElectrons: 330.000000
	SubspaceRotationAdjust: set factor to 0.891
ElecMinimize: Iter:  74  F: -657.218497583160342  |grad|_K:  2.580e-07  alpha:  3.779e-02  linmin: -4.908e-04  t[s]:    343.52
	Linear fluid (dielectric constant: 7.2) occupying 0.827439 of unit cell:	Completed after 0 iterations at t[s]:    344.17
	Linear fluid (dielectric constant: 7.2) occupying 0.827438 of unit cell:	Completed after 0 iterations at t[s]:    344.80
ElecMinimize: 	Step increased F by 6.807795e-09, reducing alpha to 1.690215e-03.
	Linear fluid (dielectric constant: 7.2) occupying 0.827438 of unit cell:	Completed after 0 iterations at t[s]:    346.12
	FillingsUpdate:  mu: -0.093590586  nElectrons: 330.000000
	SubspaceRotationAdjust: set factor to 0.935
ElecMinimize: Iter:  75  F: -657.218497583398403  |grad|_K:  2.579e-07  alpha:  1.690e-03  linmin: -5.155e-04  t[s]:    346.94
	Linear fluid (dielectric constant: 7.2) occupying 0.827438 of unit cell:	Completed after 0 iterations at t[s]:    347.56
	Linear fluid (dielectric constant: 7.2) occupying 0.827438 of unit cell:	Completed after 0 iterations at t[s]:    348.19
ElecMinimize: 	Step increased F by 2.041816e-09, reducing alpha to 6.817461e-05.
	Linear fluid (dielectric constant: 7.2) occupying 0.827438 of unit cell:	Completed after 0 iterations at t[s]:    349.50
ElecMinimize: 	Step increased F by 2.042952e-10, reducing alpha to 6.817461e-06.
	Linear fluid (dielectric constant: 7.2) occupying 0.827438 of unit cell:	Completed after 0 iterations at t[s]:    350.82
ElecMinimize: 	Step increased F by 2.489742e-11, reducing alpha to 6.817461e-07.
ElecMinimize: 	Step failed to reduce F after 3 attempts. Quitting step.
ElecMinimize: 	Undoing step.
	Linear fluid (dielectric constant: 7.2) occupying 0.827438 of unit cell:	Completed after 0 iterations at t[s]:    352.14
ElecMinimize: 	Step failed: resetting search direction.
	FillingsUpdate:  mu: -0.093590586  nElectrons: 330.000000
	SubspaceRotationAdjust: set factor to 0.957
ElecMinimize: Iter:  76  F: -657.218497583376916  |grad|_K:  2.609e-07  alpha:  6.817e-07
[...]
ElecMinimize: 	Step increased F by 1.426497e-08, reducing alpha to 2.047618e-02.
	Linear fluid (dielectric constant: 7.2) occupying 0.827009 of unit cell:	Completed after 1 iterations at t[s]:   5090.92
	FillingsUpdate:  mu: -0.091137444  nElectrons: 330.000000
	SubspaceRotationAdjust: set factor to 0.114
ElecMinimize: Iter:   7  F: -657.221440650394243  |grad|_K:  1.516e-07  alpha:  2.048e-02  linmin: -1.187e-02  t[s]:   5091.74
	Linear fluid (dielectric constant: 7.2) occupying 0.827009 of unit cell:	Completed after 0 iterations at t[s]:   5092.37
	Linear fluid (dielectric constant: 7.2) occupying 0.827009 of unit cell:	Completed after 0 iterations at t[s]:   5093.01
	FillingsUpdate:  mu: -0.091137753  nElectrons: 330.000000
	SubspaceRotationAdjust: set factor to 0.13
ElecMinimize: Iter:   8  F: -657.221440651865805  |grad|_K:  1.477e-07  alpha:  1.056e-02  linmin: -1.341e-02  t[s]:   5093.82
	Linear fluid (dielectric constant: 7.2) occupying 0.827009 of unit cell:	Completed after 0 iterations at t[s]:   5094.45
	Linear fluid (dielectric constant: 7.2) occupying 0.827009 of unit cell:	Completed after 0 iterations at t[s]:   5095.08
	FillingsUpdate:  mu: -0.091137882  nElectrons: 330.000000
	SubspaceRotationAdjust: set factor to 0.153
ElecMinimize: Iter:   9  F: -657.221440652235742  |grad|_K:  1.459e-07  alpha:  5.300e-03  linmin: -1.297e-02  t[s]:   5095.90
ElecMinimize: Converged (|Delta F|<1.000000e-08 for 2 iters).
Setting wave functions to eigenvectors of Hamiltonian

-------- Electronic minimization -----------
	Linear fluid (dielectric constant: 7.2) occupying 0.826957 of unit cell:	Completed after 4 iterations at t[s]:   5096.98
	FillingsUpdate:  mu: -0.091972546  nElectrons: 330.000000
ElecMinimize: Iter:   0  F: -657.221425081693610  |grad|_K:  2.391e-06  alpha:  1.000e+00
	Linear fluid (dielectric constant: 7.2) occupying 0.827203 of unit cell:	Completed after 5 iterations at t[s]:   5098.55
	Linear fluid (dielectric constant: 7.2) occupying 0.827015 of unit cell:	Completed after 5 iterations at t[s]:   5099.26
	FillingsUpdate:  mu: -0.091398091  nElectrons: 330.000000
	SubspaceRotationAdjust: set factor to 0.0821
ElecMinimize: Iter:   1  F: -657.221431486527194  |grad|_K:  1.343e-06  alpha:  1.620e-01  linmin:  9.509e-03  t[s]:   5100.10
	Linear fluid (dielectric constant: 7.2) occupying 0.826996 of unit cell:	Completed after 2 iterations at t[s]:   5100.75
ElecMinimize: 	Predicted alpha/alphaT>3.000000, increasing alphaT to 4.859494e-01.
	Linear fluid (dielectric constant: 7.2) occupying 0.826955 of unit cell:	Completed after 2 iterations at t[s]:   5101.43
	Linear fluid (dielectric constant: 7.2) occupying 0.826989 of unit cell:	Completed after 2 iterations at t[s]:   5102.10
	FillingsUpdate:  mu: -0.090944169  nElectrons: 330.000000
	SubspaceRotationAdjust: set factor to 0.0467
ElecMinimize: Iter:   2  F: -657.221440866111379  |grad|_K:  5.185e-07  alpha:  2.199e-01  linmin:  3.889e-03  t[s]:   5102.94
	Linear fluid (dielectric constant: 7.2) occupying 0.826992 of unit cell:	Completed after 1 iterations at t[s]:   5103.57
	Linear fluid (dielectric constant: 7.2) occupying 0.826991 of unit cell:	Completed after 1 iterations at t[s]:   5104.24
	FillingsUpdate:  mu: -0.091096004  nElectrons: 330.000000
	SubspaceRotationAdjust: set factor to 0.0862
ElecMinimize: Iter:   3  F: -657.221441606711323  |grad|_K:  1.913e-07  alpha:  1.353e-01  linmin: -3.756e-02  t[s]:   5105.06
	Linear fluid (dielectric constant: 7.2) occupying 0.826992 of unit cell:	Completed after 1 iterations at t[s]:   5105.71
	Linear fluid (dielectric constant: 7.2) occupying 0.826991 of unit cell:	Completed after 0 iterations at t[s]:   5106.36
ElecMinimize: 	Step increased F by 1.804631e-08, reducing alpha to 4.936812e-03.
	Linear fluid (dielectric constant: 7.2) occupying 0.826991 of unit cell:	Completed after 1 iterations at t[s]:   5107.70
ElecMinimize: 	Step increased F by 3.765308e-10, reducing alpha to 4.936812e-04.
	Linear fluid (dielectric constant: 7.2) occupying 0.826991 of unit cell:	Completed after 0 iterations at t[s]:   5109.02
ElecMinimize: 	Step increased F by 3.501555e-11, reducing alpha to 4.936812e-05.
ElecMinimize: 	Step failed to reduce F after 3 attempts. Quitting step.
ElecMinimize: 	Undoing step.
	Linear fluid (dielectric constant: 7.2) occupying 0.826991 of unit cell:	Completed after 0 iterations at t[s]:   5110.34
ElecMinimize: 	Step failed: resetting search direction.
	FillingsUpdate:  mu: -0.091099600  nElectrons: 330.000000
	SubspaceRotationAdjust: set factor to 0.102
ElecMinimize: Iter:   4  F: -657.221441606685289  |grad|_K:  2.042e-07  alpha:  4.937e-05
	Linear fluid (dielectric constant: 7.2) occupying 0.826993 of unit cell:	Completed after 0 iterations at t[s]:   5111.77
	Linear fluid (dielectric constant: 7.2) occupying 0.826992 of unit cell:	Completed after 0 iterations at t[s]:   5112.43
ElecMinimize: 	Step increased F by 3.059415e-08, reducing alpha to 4.495676e-03.
	Linear fluid (dielectric constant: 7.2) occupying 0.826991 of unit cell:	Completed after 0 iterations at t[s]:   5113.75
ElecMinimize: 	Step increased F by 1.214744e-09, reducing alpha to 4.495676e-04.
	Linear fluid (dielectric constant: 7.2) occupying 0.826991 of unit cell:	Completed after 0 iterations at t[s]:   5115.07
	FillingsUpdate:  mu: -0.091102645  nElectrons: 330.000000
	SubspaceRotationAdjust: set factor to 0.134
ElecMinimize: Iter:   5  F: -657.221441606774192  |grad|_K:  2.072e-07  alpha:  4.496e-04  linmin: -2.110e-02  t[s]:   5115.90
	Linear fluid (dielectric constant: 7.2) occupying 0.826991 of unit cell:	Completed after 0 iterations at t[s]:   5116.52
	Linear fluid (dielectric constant: 7.2) occupying 0.826991 of unit cell:	Completed after 0 iterations at t[s]:   5117.16
ElecMinimize: 	Step increased F by 2.200977e-10, reducing alpha to 1.823891e-05.
	Linear fluid (dielectric constant: 7.2) occupying 0.826991 of unit cell:	Completed after 0 iterations at t[s]:   5118.47
ElecMinimize: 	Step increased F by 3.285550e-11, reducing alpha to 1.823891e-06.
	Linear fluid (dielectric constant: 7.2) occupying 0.826991 of unit cell:	Completed after 0 iterations at t[s]:   5119.78
ElecMinimize: 	Step increased F by 9.890755e-12, reducing alpha to 1.823891e-07.
ElecMinimize: 	Step failed to reduce F after 3 attempts. Quitting step.
ElecMinimize: 	Undoing step.
	Linear fluid (dielectric constant: 7.2) occupying 0.826991 of unit cell:	Completed after 0 iterations at t[s]:   5121.09
ElecMinimize: 	Step failed: resetting search direction.
	FillingsUpdate:  mu: -0.091102645  nElectrons: 330.000000
	SubspaceRotationAdjust: set factor to 0.168
ElecMinimize: Iter:   6  F: -657.221441606770327  |grad|_K:  2.180e-07  alpha:  1.824e-07
	Linear fluid (dielectric constant: 7.2) occupying 0.826991 of unit cell:	Completed after 0 iterations at t[s]:   5122.51
	Linear fluid (dielectric constant: 7.2) occupying 0.826991 of unit cell:	Completed after 0 iterations at t[s]:   5123.16
ElecMinimize: 	Step increased F by 1.564331e-10, reducing alpha to 1.705101e-05.
	Linear fluid (dielectric constant: 7.2) occupying 0.826991 of unit cell:	Completed after 0 iterations at t[s]:   5124.47
ElecMinimize: 	Step increased F by 1.398348e-11, reducing alpha to 1.705101e-06.
	Linear fluid (dielectric constant: 7.2) occupying 0.826991 of unit cell:	Completed after 0 iterations at t[s]:   5125.78
ElecMinimize: 	Step increased F by 1.591616e-12, reducing alpha to 1.705101e-07.
ElecMinimize: 	Step failed to reduce F after 3 attempts. Quitting step.
ElecMinimize: 	Undoing step.
	Linear fluid (dielectric constant: 7.2) occupying 0.826991 of unit cell:	Completed after 0 iterations at t[s]:   5127.10
ElecMinimize: 	Step failed along negative gradient direction.
ElecMinimize: Probably at roundoff error limit. (Stopping)
Setting wave functions to eigenvectors of Hamiltonian

# Ionic positions in cartesian coordinates:
ion C   0.000000000000000   0.000000000000000   1.000001652210000 0
ion C  -2.333831667840000   4.042310104620000   1.000001652210000 0
ion C  11.669128103520009  20.211535405260001   1.000001652210000 0
ion C   4.667680343250000   0.000000000000000   1.000001652210000 0
ion C  23.338288332449999   0.000000000000000   1.000001652210000 0
ion C   2.333822219190000   4.042310104620000   1.000001652210000 0
ion C -11.669150780279994  20.211535405260001   1.000001652210000 0
ion C  -4.667665225410000   8.084622098970000   1.000001652210000 0
ion C   9.335305884329998  16.169223410910011   1.000001652210000 0
ion C   9.335322891900001   0.000000000000000   1.000001652210000 0
ion C  18.670626886499999   0.000000000000000   1.000001652210000 0
ion C  -9.335317222710000  16.169223410910011   1.000001652210000 0
ion C  -7.001485554870001  12.126913306290001   1.000001652210000 0
ion C  14.002984337850000   0.000000000000000   1.000001652210000 0
ion C   0.000000000000000   8.084622098970000   1.000001652210000 0
ion C   7.001485554870008  20.211535405260001   1.000001652210000 0
ion C  -7.001481775409993  20.211535405260001   1.000001652210000 0
ion C  -2.333822219189998  12.126913306290001   1.000001652210000 0
ion C   4.667663335679999  16.169223410910011   1.000001652210000 0
ion C  -2.333820329459993  20.211535405260001   1.000001652210000 0
ion C   2.333824108920002  20.211535405260001   1.000001652210000 0
ion C  -4.667659556220001  16.169223410910011   1.000001652210000 0
ion C   7.001483665139999   4.042310104620000   1.000001652210000 0
ion C  21.004430208390001   4.042310104620000   1.000001652210000 0
ion C  14.002948432980002  16.169223410910011   1.000001652210000 0
ion C   0.000001889729997  16.169223410910011   1.000001652210000 0
ion C  11.669126213789999   4.042310104620000   1.000001652210000 0
ion C  18.670609878930001   8.084622098970000   1.000001652210000 0
ion C  11.669126213789998  12.126913306290001   1.000001652210000 0
ion C  16.336787659739997  12.126913306290001   1.000001652210000 0
ion C  16.336789549470002   4.042310104620000   1.000001652210000 0
ion C   9.335303994600004   8.084622098970000   1.000001652210000 0
ion C  14.002948432980002   8.084622098970000   1.000001652210000 0
ion C   0.000000000000000   2.694874032990001   1.000001652210000 0
ion C  11.669128103520000  22.906390540950014   1.000001652210000 0
ion C -11.669124324059998  22.906390540950014   1.000001652210000 0
ion C  -2.333822219190000   6.737165240310005   1.000001652210000 0
ion C   9.335305884330001  18.864097443900004   1.000001652210000 0
ion C  -7.001481775409996  22.906390540950014   1.000001652210000 0
ion C   7.001485554870007  22.906390540950014   1.000001652210000 0
ion C   2.333822219190001   6.737165240310005   1.000001652210000 0
ion C  -9.335302104869994  18.864097443900004   1.000001652210000 0
ion C  -4.667661445950000  10.779477234660007   1.000001652210000 0
ion C  -2.333820329460000  22.906390540950014   1.000001652210000 0
ion C   2.333824108920000  22.906390540950014   1.000001652210000 0
ion C  -7.001483665140000  14.821787339280009   1.000001652210000 0
ion C   4.667661445950001   2.694874032990001   1.000001652210000 0
ion C  23.338269435150011   2.694874032990001   1.000001652210000 0
ion C  14.002967330280004  18.864097443900004   1.000001652210000 0
ion C   0.000000000000000  10.779477234660007   1.000001652210000 0
ion C   4.667663335679999  18.864097443900004   1.000001652210000 0
ion C  -4.667640658919995  18.864097443900004   1.000001652210000 0
ion C  -2.333822219190001  14.821787339280009   1.000001652210000 0
ion C   2.333824108919996  14.821787339280009   1.000001652210000 0
ion C   0.000001889729999  18.864097443900004   1.000001652210000 0
ion C   9.335303994599997   2.694874032990001   1.000001652210000 0
ion C  21.004430208390001   6.737165240310005   1.000001652210000 0
ion C  11.669126213790005  14.821787339280009   1.000001652210000 0
ion C  16.336789549469998  14.821787339280009   1.000001652210000 0
ion C  18.670609878930012   2.694874032990001   1.000001652210000 0
ion C   7.001483665139999   6.737165240310005   1.000001652210000 0
ion C  14.002946543250001   2.694874032990001   1.000001652210000 0
ion C  18.670607989200008  10.779477234660007   1.000001652210000 0
ion C  11.669126213789998   6.737165240310005   1.000001652210000 0
ion C  16.336787659740004   6.737165240310005   1.000001652210000 0
ion C  14.002946543250001  10.779477234660007   1.000001652210000 0
ion N   4.667661445950002   8.084622098970000   1.000001652210000 0
ion N   2.333822219190005  12.126913306290001   1.000001652210000 0
ion N   7.001485554869996  14.821787339280009   1.000001652210000 0
ion N   9.335305884329999  10.779477234660007   1.000001652210000 0
ion Fe   5.837109518069998  11.454309266310005   1.000001652210000 0
ion S   8.089127974137886   9.191793855424640   7.229209916200295 1
ion S   5.601888140177641  11.566365335570490   5.336309805843725 1
ion Na   9.949755563376943  14.028714559275834   7.490436031682971 1
ion Na   3.426901346389358   6.951629930467853   7.068940075588245 1

# Forces in Cartesian coordinates:
force C   0.003620437796787   0.000005521310703   0.000151414784816 0
force C   0.000873354122685  -0.000906802156074   0.000068553458845 0
force C   0.002842884329333  -0.001865903891272   0.000113756292695 0
force C   0.000790379508503   0.002345325960780   0.000193785753639 0
force C   0.001732484653551  -0.000039314558206   0.000181938079767 0
force C   0.004654687692952   0.001239083105170   0.000314795742688 0
force C   0.000623043845069  -0.000249284604584   0.000211490729045 0
force C  -0.000278346440471   0.001311199678118   0.000185107289653 0
force C  -0.035674648383831  -0.014784322519460   0.000102834311464 0
force C  -0.000864646325240   0.000255874375421   0.000090205493071 0
force C  -0.000800144365005  -0.000198922561086   0.000181871099348 0
force C   0.000065572950770   0.000965533689768   0.000198169679105 0
force C   0.001799924494781   0.003188042552230   0.000164337951583 0
force C  -0.000210512958178   0.000046826458947   0.000157863439272 0
force C   0.010680277812038   0.007123132690027   0.000755767523103 0
force C   0.002309687423258   0.002197380346867  -0.000006997884065 0
force C   0.001368468851593   0.000824112088133   0.000150466876161 0
force C   0.003834862774417   0.003225917237075   0.000426645408360 0
force C   0.031174194475909   0.008234305527172   0.000234724751941 0
force C  -0.000358619350789  -0.000661201793367   0.000170756169834 0
force C  -0.002201799129473   0.000325537751547   0.000178568636947 0
force C   0.002409758472083  -0.000357479649710   0.000190726924376 0
force C   0.005505578211575   0.004780120105287   0.000078185682390 0
force C   0.001450271993165   0.001031734997506   0.000132405193651 0
force C  -0.000431924941804  -0.000257616559540  -0.000074449509544 0
force C   0.006729335868131   0.002108120199183   0.000473515238035 0
force C  -0.000943248851097  -0.001467170310517   0.000121630557261 0
force C   0.000628319102226   0.001634142207144   0.000216517154371 0
force C  -0.030850421140593  -0.023957705768703   0.000219347652709 0
force C  -0.000312876126905   0.003399962455683   0.000054985046793 0
force C  -0.000771390314041  -0.000240241011593   0.000188479065277 0
force C   0.023095219114606   0.024235036604358   0.000612905618379 0
force C   0.002245926849633   0.000869811875781  -0.000000268825430 0
force C  -0.003414372192792   0.001594412911813   0.000022806319099 0
force C  -0.003686454039229   0.000031532310080   0.000170072620417 0
force C  -0.001742033061782  -0.000066652026554   0.000185418090121 0
force C   0.000812995569679   0.000668154454978  -0.000006406084417 0
force C  -0.004757972194672  -0.001402469455342   0.000363706247576 0
force C   0.000928814296159   0.000248509008919   0.000161413589140 0
force C  -0.000881091176208  -0.002400377750905   0.000162481048965 0
force C   0.033629997288210   0.014603122726521   0.000794813875323 0
force C  -0.001425942173751  -0.001081709741343   0.000134150041928 0
force C   0.000367123214023  -0.003403577780420   0.000139268508513 0
force C   0.000268016543615  -0.000011012587225   0.000161849376452 0
force C   0.000804003144235  -0.000183767226624   0.000143886300384 0
force C  -0.000604123365985  -0.001653237000075   0.000199459358608 0
force C  -0.001628374064151  -0.002527589456267  -0.000313464258606 0
force C  -0.000634749655684   0.000273787029880   0.000210395425136 0
force C  -0.000868853376180   0.000811756265495   0.000116906726457 0
force C   0.030768219420512   0.023272406563300   0.000213760762594 0
force C  -0.005326485484808  -0.005116440196683   0.000492107984457 0
force C   0.000727130472145   0.000347277783382   0.000179230639838 0
force C  -0.002870979391875  -0.001043909788474   0.000056127955635 0
force C  -0.022775554347353  -0.022776608637095   0.000616581551641 0
force C   0.000909193684432   0.001908220008601   0.000170895769951 0
force C   0.002243081755122  -0.000124089655870   0.000249144192093 0
force C   0.000069806507206  -0.000826386885083   0.000196136097663 0
force C  -0.011205671420726  -0.006618065966708   0.001006930524895 0
force C   0.000224340097603  -0.001332295638104   0.000107197048105 0
force C  -0.001343895008754  -0.000869168278855   0.000159072910358 0
force C  -0.030043735414818  -0.007932029729788   0.000095387498535 0
force C   0.000241718422265   0.000704219827857   0.000132815242501 0
force C  -0.001737983886345  -0.003230664555369   0.000186557965889 0
force C  -0.006874015941036  -0.001922003142449  -0.000042370411892 0
force C  -0.002400885034720   0.000273287517640   0.000136226291339 0
force C  -0.003697388569725  -0.003556395264973   0.000454472327890 0
force N   0.027586998322598  -0.034466161890336  -0.011798545266878 0
force N  -0.018310838379148   0.040342323821829  -0.011770882081477 0
force N  -0.025664435488487   0.035122702401052  -0.012996277711979 0
force N   0.016639903811138  -0.040338331167570  -0.011991789877253 0
force Fe   0.002380504232444  -0.002286874695509   0.043846311075913 0
force S   0.000148514842643  -0.000730289606958   0.000345940342796 1
force S  -0.000137028103586   0.000363777969413  -0.000977795653727 1
force Na  -0.000260164658096  -0.000209484215660   0.000133981208953 1
force Na  -0.000145145357003   0.000246788487396   0.000099063200362 1

# Energy components:
   A_diel =       -0.0907279106762650
   Eewald =     4162.7855099077778505
       EH =     4701.0686030677452436
     Eloc =    -9580.4159363734943327
      Enl =      -62.3714261486787791
      Exc =     -167.8689990607161633
 Exc_core =        6.8981119318209112
       KE =      282.8452908140521345
-------------------------------------
     Etot =     -657.1495737721691057
       TS =        0.0718678345963916
-------------------------------------
        F =     -657.2214416067655520

IonicMinimize: Iter:  30  F: -657.221441606765552  |grad|_K:  4.086e-04  alpha:  9.447e-05  linmin: -5.793e-03  t[s]:   5128.87
IonicMinimize: Converged (|Delta F|<1.000000e-06 for 2 iters).

#--- Lowdin population analysis ---
# oxidation-state C +0.031 +0.021 +0.024 +0.024 +0.026 +0.003 +0.026 +0.023 +0.124 +0.030 +0.028 +0.026 +0.033 +0.030 -0.010 +0.035 +0.033 +0.016 +0.118 +0.030 +0.025 +0.026 +0.023 +0.035 +0.034 +0.026 +0.028 +0.027 +0.128 +0.026 +0.028 +0.130 +0.040 +0.022 +0.032 +0.025 +0.036 +0.011 +0.027 +0.025 +0.110 +0.035 +0.026 +0.030 +0.029 +0.027 +0.030 +0.026 +0.020 +0.135 +0.025 +0.028 +0.038 +0.118 +0.025 +0.026 +0.027 -0.017 +0.021 +0.033 +0.120 +0.031 +0.033 +0.033 +0.027 +0.015
# oxidation-state N -0.135 -0.126 -0.128 -0.123
# oxidation-state Fe -0.002
# oxidation-state S -0.548 -0.080
# oxidation-state Na +0.905 +0.900


Dumping 'Na2S2@FeN4-glyme.fillings' ... done
Dumping 'Na2S2@FeN4-glyme.wfns' ... done
Dumping 'Na2S2@FeN4-glyme.fluidState' ... done
Dumping 'Na2S2@FeN4-glyme.ionpos' ... done
Dumping 'Na2S2@FeN4-glyme.eigenvals' ... done
End date and time: Sat Dec 28 16:37:53 2024  (Duration: 0-1:25:30.40)
Done!
