
*************** JDFTx 1.7.0  ***************

Start date and time: Wed Jan 15 17:30:30 2025
Executable jdftx_gpu with command-line: -i /home/akim2/JDFTx/Na2S4@FeN4-vdw/Na2S4@FeN4-vdw.in -o /home/akim2/JDFTx/Na2S4@FeN4-vdw/Na2S4@FeN4-vdw.out
Running on hosts (process indices):  exp-8-57 (0)
Divided in process groups (process indices):  0 (0)
gpuInit: Found compatible cuda device 0 'Tesla V100-SXM2-32GB'
gpuInit: Selected device 0
Resource initialization completed at t[s]:      0.68
Run totals: 1 processes, 1 threads, 1 GPUs


Input parsed successfully to the following command list (including defaults):

basis kpoint-dependent
coords-type Cartesian
core-overlap-check vector
coulomb-interaction Slab 001
coulomb-truncation-embed 0 0 2.00001
davidson-band-ratio 1.1
dump End State
dump-name Na2S4@FeN4-vdw.$VAR
elec-cutoff 20 100
elec-eigen-algo Davidson
elec-ex-corr gga-PBE
elec-smearing Fermi 0.01
electronic-minimize  \
	dirUpdateScheme      FletcherReeves \
	linminMethod         DirUpdateRecommended \
	nIterations          100 \
	history              15 \
	knormThreshold       0 \
	energyDiffThreshold  1e-08 \
	nEnergyDiff          2 \
	alphaTstart          1 \
	alphaTmin            1e-10 \
	updateTestStepSize   yes \
	alphaTreduceFactor   0.1 \
	alphaTincreaseFactor 3 \
	nAlphaAdjustMax      3 \
	wolfeEnergy          0.0001 \
	wolfeGradient        0.9 \
	fdTest               no
electronic-scf  \
	nIterations	50 \
	energyDiffThreshold	1e-08 \
	residualThreshold	1e-07 \
	mixFraction	0.5 \
	qMetric	0.8 \
	history	10 \
	nEigSteps	2 \
	eigDiffThreshold	1e-08 \
	mixedVariable	Density \
	qKerker	0.8 \
	qKappa	-1 \
	verbose	no \
	mixFractionMag	1.5
exchange-regularization WignerSeitzTruncated
fluid None
fluid-ex-corr lda-TF lda-PZ
fluid-gummel-loop 10 1.000000e-05
fluid-minimize  \
	dirUpdateScheme      PolakRibiere \
	linminMethod         DirUpdateRecommended \
	nIterations          100 \
	history              15 \
	knormThreshold       0 \
	energyDiffThreshold  0 \
	nEnergyDiff          2 \
	alphaTstart          1 \
	alphaTmin            1e-10 \
	updateTestStepSize   yes \
	alphaTreduceFactor   0.1 \
	alphaTincreaseFactor 3 \
	nAlphaAdjustMax      3 \
	wolfeEnergy          0.0001 \
	wolfeGradient        0.9 \
	fdTest               no
fluid-solvent H2O 55.338 ScalarEOS \
	epsBulk 78.4 \
	pMol 0.92466 \
	epsInf 1.77 \
	Pvap 1.06736e-10 \
	sigmaBulk 4.62e-05 \
	Rvdw 2.61727 \
	Res 1.42 \
	tauNuc 343133 \
	poleEl 15 7 1
forces-output-coords Positions
ion C   0.000000000000000   0.000000000000000   1.000007321400000 0
ion C  -2.333835447300000   4.042302545699999   1.000007321400000 0
ion C  11.669120544600000  20.211531625799999   1.000007321400000 0
ion C   4.667689791900001   0.000000000000000   1.000007321400000 0
ion C  23.338297781100000   0.000000000000000   1.000007321400000 0
ion C   2.333816549999999   4.042302545699999   1.000007321400000 0
ion C -11.669158339200004  20.211531625799999   1.000007321400000 0
ion C  -4.667670894600000   8.084623988700001   1.000007321400000 0
ion C   9.335303994599997  16.169229080099999   1.000007321400000 0
ion C   9.335322891900001   0.000000000000000   1.000007321400000 0
ion C  18.670626886499999   0.000000000000000   1.000007321400000 0
ion C  -9.335322891900001  16.169229080099999   1.000007321400000 0
ion C  -7.001487444600000  12.126907637100000   1.000007321400000 0
ion C  14.002993786499999   0.000000000000000   1.000007321400000 0
ion C   0.000000000000000   8.084623988700001   1.000007321400000 0
ion C   7.001487444599997  20.211531625799999   1.000007321400000 0
ion C  -7.001487444600005  20.211531625799999   1.000007321400000 0
ion C  -2.333816549999999  12.126907637100000   1.000007321400000 0
ion C   4.667670894600002  16.169229080099999   1.000007321400000 0
ion C  -2.333816550000000  20.211531625799999   1.000007321400000 0
ion C   2.333816550000000  20.211531625799999   1.000007321400000 0
ion C  -4.667651997299996  16.169229080099999   1.000007321400000 0
ion C   7.001487444600000   4.042302545699999   1.000007321400000 0
ion C  21.004424539199999   4.042302545699999   1.000007321400000 0
ion C  14.002955991899999  16.169229080099999   1.000007321400000 0
ion C   0.000000000000000  16.169229080099999   1.000007321400000 0
ion C  11.669120544600000   4.042302545699999   1.000007321400000 0
ion C  18.670607989199997   8.084623988700001   1.000007321400000 0
ion C  11.669120544599998  12.126907637100000   1.000007321400000 0
ion C  16.336791439199999  12.126907637100000   1.000007321400000 0
ion C  16.336791439199999   4.042302545699999   1.000007321400000 0
ion C   9.335303994599997   8.084623988700001   1.000007321400000 0
ion C  14.002955991899999   8.084623988700001   1.000007321400000 0
ion C   0.000000000000000   2.694868363800000   1.000007321400000 0
ion C  11.669120544600000  22.906399989600001   1.000007321400000 0
ion C -11.669120544600000  22.906399989600001   1.000007321400000 0
ion C  -2.333816550000000   6.737170909500000   1.000007321400000 0
ion C   9.335303994599995  18.864097443900000   1.000007321400000 0
ion C  -7.001487444600000  22.906399989600001   1.000007321400000 0
ion C   7.001487444600000  22.906399989600001   1.000007321400000 0
ion C   2.333816550000000   6.737170909500000   1.000007321400000 0
ion C  -9.335303994599998  18.864097443900000   1.000007321400000 0
ion C  -4.667670894599997  10.779473455200000   1.000007321400000 0
ion C  -2.333816550000000  22.906399989600001   1.000007321400000 0
ion C   2.333816550000000  22.906399989600001   1.000007321400000 0
ion C  -7.001487444600004  14.821794898200000   1.000007321400000 0
ion C   4.667670894600000   2.694868363800000   1.000007321400000 0
ion C  23.338259986499999   2.694868363800000   1.000007321400000 0
ion C  14.002974889199999  18.864097443900000   1.000007321400000 0
ion C   0.000000000000000  10.779473455200000   1.000007321400000 0
ion C   4.667670894600001  18.864097443900000   1.000007321400000 0
ion C  -4.667633100000004  18.864097443900000   1.000007321400000 0
ion C  -2.333816550000003  14.821794898200000   1.000007321400000 0
ion C   2.333816549999995  14.821794898200000   1.000007321400000 0
ion C  -0.000000000000005  18.864097443900000   1.000007321400000 0
ion C   9.335303994599998   2.694868363800000   1.000007321400000 0
ion C  21.004424539199999   6.737170909500000   1.000007321400000 0
ion C  11.669120544600000  14.821794898200000   1.000007321400000 0
ion C  16.336791439199999  14.821794898200000   1.000007321400000 0
ion C  18.670607989199997   2.694868363800000   1.000007321400000 0
ion C   7.001487444600001   6.737170909500000   1.000007321400000 0
ion C  14.002955991899999   2.694868363800000   1.000007321400000 0
ion C  18.670607989200004  10.779473455200000   1.000007321400000 0
ion C  11.669120544599998   6.737170909500000   1.000007321400000 0
ion C  16.336791439199999   6.737170909500000   1.000007321400000 0
ion C  14.002955991899999  10.779473455200000   1.000007321400000 0
ion N   4.667670894599999   8.084623988700001   1.000007321400000 0
ion N   2.333816549999999  12.126907637100000   1.000007321400000 0
ion N   7.001487444599997  14.821794898200000   1.000007321400000 0
ion N   9.335303994599997  10.779473455200000   1.000007321400000 0
ion Fe   5.837111407799997  11.454314935499999   1.000007321400000 0
ion S   5.468204798104988  11.362534507786290   5.336785219362401 1
ion S   8.070808428515150  13.504650156018911   7.430805225604459 1
ion S   9.853203388601669  11.184101881026494  10.093829239225848 1
ion S  12.833201592618561   9.175275240526799   8.508169628990180 1
ion Na   8.687030711533254   7.230359205990412   6.209972494311719 1
ion Na  13.380327782281922  13.410495232840686   5.793200734643123 1
ion-species GBRV/$ID_pbe.uspp
ion-width 0
ionic-minimize  \
	dirUpdateScheme      FletcherReeves \
	linminMethod         DirUpdateRecommended \
	nIterations          200 \
	history              15 \
	knormThreshold       0.0001 \
	energyDiffThreshold  1e-06 \
	nEnergyDiff          2 \
	alphaTstart          1 \
	alphaTmin            1e-10 \
	updateTestStepSize   yes \
	alphaTreduceFactor   0.1 \
	alphaTincreaseFactor 3 \
	nAlphaAdjustMax      3 \
	wolfeEnergy          0.0001 \
	wolfeGradient        0.9 \
	fdTest               no
kpoint   0.000000000000   0.000000000000   0.000000000000  1.00000000000000
kpoint-folding 1 1 1 
latt-move-scale 1 1 1
latt-scale 1 1 1 
lattice Triclinic 28.0058 28.0058 37.7946 90 90 120
lattice-minimize  \
	dirUpdateScheme      L-BFGS \
	linminMethod         DirUpdateRecommended \
	nIterations          0 \
	history              15 \
	knormThreshold       0 \
	energyDiffThreshold  1e-06 \
	nEnergyDiff          2 \
	alphaTstart          1 \
	alphaTmin            1e-10 \
	updateTestStepSize   yes \
	alphaTreduceFactor   0.1 \
	alphaTincreaseFactor 3 \
	nAlphaAdjustMax      3 \
	wolfeEnergy          0.0001 \
	wolfeGradient        0.9 \
	fdTest               no
lcao-params -1 1e-06 0.01
pcm-variant GLSSA13
spintype no-spin
subspace-rotation-factor 1 yes
symmetries automatic
symmetry-threshold 0.0001
van-der-waals D3



---------- Setting up symmetries ----------

Found 24 point-group symmetries of the bravais lattice
Found 1 space-group symmetries with basis
Applied RMS atom displacement 0 bohrs to make symmetries exact.

---------- Initializing the Grid ----------
R = 
[      28.0058     -14.0029            0  ]
[            0      24.2537            0  ]
[            0            0      37.7946  ]
unit cell volume = 25671.8
G =
[   0.224353    0.12953         -0  ]
[          0   0.259061          0  ]
[          0         -0   0.166246  ]
Minimum fftbox size, Smin = [  128  128  172  ]
Chosen fftbox size, S = [  128  128  180  ]

---------- Initializing tighter grid for wavefunction operations ----------
R = 
[      28.0058     -14.0029            0  ]
[            0      24.2537            0  ]
[            0            0      37.7946  ]
unit cell volume = 25671.8
G =
[   0.224353    0.12953         -0  ]
[          0   0.259061          0  ]
[          0         -0   0.166246  ]
Minimum fftbox size, Smin = [  116  116  156  ]
Chosen fftbox size, S = [  120  120  160  ]

---------- Exchange Correlation functional ----------
Initalized PBE GGA exchange.
Initalized PBE GGA correlation.

---------- Setting up pseudopotentials ----------
Width of ionic core gaussian charges (only for fluid interactions / plotting) set to 0

Reading pseudopotential file '/home/akim2/jdftx_install/build/pseudopotentials/GBRV/c_pbe.uspp':
  Title: C.  Created by USPP 7.3.6 on 3-2-2014
  Reference state energy: -5.406344.  4 valence electrons in orbitals:
    |200>  occupation: 2  eigenvalue: -0.504890
    |210>  occupation: 2  eigenvalue: -0.194356
  lMax: 1  lLocal: 2  QijEcut: 5
  4 projectors sampled on a log grid with 503 points:
    l: 0  eig: -0.504890  rCut: 1.3
    l: 0  eig: 0.000000  rCut: 1.3
    l: 1  eig: -0.194357  rCut: 1.3
    l: 1  eig: 0.000000  rCut: 1.3
  Partial core density with radius 1.1
  Transforming core density to a uniform radial grid of dG=0.02 with 1625 points.
  Transforming local potential to a uniform radial grid of dG=0.02 with 1625 points.
  Transforming nonlocal projectors to a uniform radial grid of dG=0.02 with 432 points.
  Transforming density augmentations to a uniform radial grid of dG=0.02 with 1625 points.
  Transforming atomic orbitals to a uniform radial grid of dG=0.02 with 432 points.
  Core radius for overlap checks: 1.30 bohrs.

Reading pseudopotential file '/home/akim2/jdftx_install/build/pseudopotentials/GBRV/n_pbe.uspp':
  Title: N.  Created by USPP 7.3.6 on 3-2-2014
  Reference state energy: -9.763716.  5 valence electrons in orbitals:
    |200>  occupation: 2  eigenvalue: -0.681964
    |210>  occupation: 3  eigenvalue: -0.260726
  lMax: 1  lLocal: 2  QijEcut: 6
  4 projectors sampled on a log grid with 491 points:
    l: 0  eig: -0.681964  rCut: 1.15
    l: 0  eig: 0.000000  rCut: 1.15
    l: 1  eig: -0.260729  rCut: 1.2
    l: 1  eig: 0.500000  rCut: 1.2
  Partial core density with radius 0.8
  Transforming core density to a uniform radial grid of dG=0.02 with 1625 points.
  Transforming local potential to a uniform radial grid of dG=0.02 with 1625 points.
  Transforming nonlocal projectors to a uniform radial grid of dG=0.02 with 432 points.
  Transforming density augmentations to a uniform radial grid of dG=0.02 with 1625 points.
  Transforming atomic orbitals to a uniform radial grid of dG=0.02 with 432 points.
  Core radius for overlap checks: 1.20 bohrs.

Reading pseudopotential file '/home/akim2/jdftx_install/build/pseudopotentials/GBRV/fe_pbe.uspp':
  Title: Fe.  Created by USPP 7.3.6 on 15-6-15
  Reference state energy: -124.316937.  16 valence electrons in orbitals:
    |300>  occupation: 2  eigenvalue: -4.008817
    |310>  occupation: 6  eigenvalue: -2.753096
    |320>  occupation: 5  eigenvalue: -0.791264
    |400>  occupation: 2  eigenvalue: -0.516384
    |410>  occupation: 0  eigenvalue: -0.312222
  lMax: 2  lLocal: 3  QijEcut: 6
  6 projectors sampled on a log grid with 607 points:
    l: 0  eig: -4.008819  rCut: 1.55
    l: 0  eig: -0.516386  rCut: 1.55
    l: 1  eig: -2.753096  rCut: 1.55
    l: 1  eig: -0.312226  rCut: 1.55
    l: 2  eig: -0.791264  rCut: 1.65
    l: 2  eig: -0.450000  rCut: 1.65
  Partial core density with radius 0.65
  Transforming core density to a uniform radial grid of dG=0.02 with 1625 points.
  Transforming local potential to a uniform radial grid of dG=0.02 with 1625 points.
  Transforming nonlocal projectors to a uniform radial grid of dG=0.02 with 432 points.
  Transforming density augmentations to a uniform radial grid of dG=0.02 with 1625 points.
  Transforming atomic orbitals to a uniform radial grid of dG=0.02 with 432 points.
  Core radius for overlap checks: 1.65 bohrs.

Reading pseudopotential file '/home/akim2/jdftx_install/build/pseudopotentials/GBRV/s_pbe.uspp':
  Title: S.  Created by USPP 7.3.6 on 1-4-15
  Reference state energy: -11.898476.  6 valence electrons in orbitals:
    |300>  occupation: 2  eigenvalue: -0.634167
    |310>  occupation: 4  eigenvalue: -0.257568
  lMax: 2  lLocal: 3  QijEcut: 6
  6 projectors sampled on a log grid with 635 points:
    l: 0  eig: -0.634161  rCut: 1.5
    l: 0  eig: 1.500000  rCut: 1.5
    l: 1  eig: -0.257567  rCut: 1.5
    l: 1  eig: 1.500000  rCut: 1.5
    l: 2  eig: -1.000000  rCut: 1.5
    l: 2  eig: 1.500000  rCut: 1.5
  Partial core density with radius 1.15
  Transforming core density to a uniform radial grid of dG=0.02 with 1625 points.
  Transforming local potential to a uniform radial grid of dG=0.02 with 1625 points.
  Transforming nonlocal projectors to a uniform radial grid of dG=0.02 with 432 points.
  Transforming density augmentations to a uniform radial grid of dG=0.02 with 1625 points.
  Transforming atomic orbitals to a uniform radial grid of dG=0.02 with 432 points.
  Core radius for overlap checks: 1.50 bohrs.

Reading pseudopotential file '/home/akim2/jdftx_install/build/pseudopotentials/GBRV/na_pbe.uspp':
  Title: Na.  Created by USPP 7.3.6 on 23-9-15
  Reference state energy: -47.625620.  9 valence electrons in orbitals:
    |200>  occupation: 2  eigenvalue: -2.085638
    |210>  occupation: 6  eigenvalue: -1.053708
    |300>  occupation: 1  eigenvalue: -0.100838
  lMax: 2  lLocal: 0  QijEcut: 6
  5 projectors sampled on a log grid with 657 points:
    l: 0  eig: -2.085640  rCut: 1.37
    l: 0  eig: -0.100839  rCut: 1.37
    l: 1  eig: -1.053708  rCut: 1.47
    l: 1  eig: 0.500000  rCut: 1.47
    l: 2  eig: 0.750000  rCut: 2
  Transforming local potential to a uniform radial grid of dG=0.02 with 1625 points.
  Transforming nonlocal projectors to a uniform radial grid of dG=0.02 with 432 points.
  Transforming density augmentations to a uniform radial grid of dG=0.02 with 1625 points.
  Transforming atomic orbitals to a uniform radial grid of dG=0.02 with 432 points.
  Core radius for overlap checks: 2.00 bohrs.

Initialized 5 species with 77 total atoms.

Folded 1 k-points by 1x1x1 to 1 k-points.

---------- Setting up k-points, bands, fillings ----------
No reducable k-points. 
Computing the number of bands and number of electrons
Calculating initial fillings.
nElectrons: 342.000000   nBands: 319   nStates: 1

----- Setting up reduced wavefunction bases (one per k-point) -----
average nbasis = 109673.000 , ideal nbasis = 109671.883

---------- Setting up coulomb interaction ----------
Setting up double-sized grid for truncated Coulomb potentials:
R = 
[      28.0058     -14.0029            0  ]
[            0      24.2537            0  ]
[            0            0      75.5892  ]
unit cell volume = 51343.6
G =
[   0.224353    0.12953         -0  ]
[          0   0.259061          0  ]
[          0         -0  0.0831228  ]
Chosen fftbox size, S = [  128  128  360  ]
Integer grid location selected as the embedding center:
   Grid: [  0  0  10  ]
   Lattice: [  0  0  0.0529178  ]
   Cartesian: [  0  0  2.00001  ]
Constructing Wigner-Seitz cell: 8 faces (6 quadrilaterals, 2 hexagons)
Range-separation parameter for embedded mesh potentials due to point charges: 0.590105 bohrs.
Initialized slab truncation along lattice direction 001

Initializing DFT-D3 calculator:
	Parameters set for gga-PBE functional
	s6:  1.000  s_r6:  1.217
	s8:  0.722  s_r8:  1.000
	Per-atom parameters loaded for:
	 C:  sqrtQ[a0]:  3.105  Rcov[a0]:  1.417  CN: [ 0.00 0.99 2.00 3.00 3.98 ]
	 N:  sqrtQ[a0]:  2.712  Rcov[a0]:  1.342  CN: [ 0.00 0.99 2.01 2.99 ]
	Fe:  sqrtQ[a0]:  5.584  Rcov[a0]:  1.965  CN: [ 0.00 1.65 9.14 ]
	 S:  sqrtQ[a0]:  4.041  Rcov[a0]:  1.928  CN: [ 0.00 0.99 1.99 ]
	Na:  sqrtQ[a0]:  6.586  Rcov[a0]:  2.646  CN: [ 0.00 0.97 ]

---------- Setting up 2D ewald sum ----------
Optimum gaussian width for ewald sums = 15.547689 bohr.
Real space sums over 289 unit cells with max indices [  8  8  0  ]
Reciprocal space sums over 81 terms with max indices [  4  4  0  ]

Computing DFT-D3 correction:
# coordination-number C 3.300 3.300 3.303 3.300 3.300 3.289 3.302 3.300 3.313 3.301 3.300 3.309 3.301 3.300 3.272 3.298 3.300 3.287 3.481 3.300 3.300 3.300 3.378 3.300 3.695 3.288 3.338 3.302 3.911 3.571 3.301 4.057 3.330 3.300 3.300 3.300 3.300 3.291 3.300 3.300 3.281 3.301 3.300 3.300 3.300 3.301 3.304 3.300 3.316 3.277 3.289 3.300 3.298 3.481 3.300 3.329 3.300 3.875 3.555 3.300 3.921 3.302 3.310 3.459 3.304 3.730
# coordination-number N 3.224 3.192 3.178 3.268
# coordination-number Fe 6.048
# coordination-number S 3.074 3.182 3.368 2.956
# coordination-number Na 4.715 5.310
# diagonal-C6 C 24.28 24.29 24.26 24.28 24.28 24.38 24.27 24.28 24.16 24.27 24.29 24.20 24.27 24.28 24.53 24.30 24.28 24.40 21.92 24.29 24.28 24.28 23.41 24.28 19.35 24.39 23.89 24.26 18.44 20.64 24.27 18.28 23.98 24.28 24.28 24.28 24.29 24.36 24.28 24.28 24.46 24.27 24.28 24.28 24.28 24.27 24.25 24.29 24.12 24.49 24.39 24.28 24.30 21.93 24.28 23.99 24.28 18.52 20.85 24.28 18.43 24.26 24.19 22.26 24.25 19.10
# diagonal-C6 N 15.60 15.60 15.60 15.59
# diagonal-C6 Fe 109.50
# diagonal-C6 S 125.81 125.81 125.81 125.81
# diagonal-C6 Na 186.11 186.11
EvdW_6 =   -0.064676
EvdW_8 =   -0.059726

---------- Allocating electronic variables ----------
Initializing wave functions:  linear combination of atomic orbitals
C pseudo-atom occupations:   s ( 2 )  p ( 2 )
N pseudo-atom occupations:   s ( 2 )  p ( 3 )
Fe pseudo-atom occupations:   s ( 2 0 )  p ( 6 0 )  d ( 8 )
S pseudo-atom occupations:   s ( 2 )  p ( 4 )
Na pseudo-atom occupations:   s ( 2 1 )  p ( 6 )
	FillingsUpdate:  mu: -0.258530706  nElectrons: 342.000000
LCAOMinimize: Iter:   0  F: -656.8830700270709713  |grad|_K:  2.730e-02  alpha:  1.000e+00
	FillingsUpdate:  mu: -0.315878336  nElectrons: 342.000000
LCAOMinimize: Iter:   1  F: -662.7373467178355213  |grad|_K:  1.586e-02  alpha:  1.610e-01  linmin: -1.767e-01  cgtest:  6.614e-01  t[s]:     11.02
LCAOMinimize: Encountered beta<0, resetting CG.
	FillingsUpdate:  mu: -0.247044422  nElectrons: 342.000000
LCAOMinimize: Iter:   2  F: -671.5909912048074375  |grad|_K:  3.183e-02  alpha:  6.223e-02  linmin: -4.381e-01  cgtest:  1.788e-01  t[s]:     12.65
LCAOMinimize: 	Step increased F by 9.810211e+00, reducing alpha to 2.696658e-03.
	FillingsUpdate:  mu: -0.161960919  nElectrons: 342.000000
LCAOMinimize: Iter:   3  F: -672.0410793547554249  |grad|_K:  2.427e-02  alpha:  2.697e-03  linmin:  3.375e-01  cgtest: -8.020e-01  t[s]:     15.40
LCAOMinimize: 	Bad step direction: g.d > 0.
LCAOMinimize: 	Undoing step.
LCAOMinimize: 	Step failed: resetting search direction.
	FillingsUpdate:  mu: -0.161960919  nElectrons: 342.000000
LCAOMinimize: Iter:   4  F: -672.0410793547554249  |grad|_K:  2.427e-02  alpha:  0.000e+00
LCAOMinimize: 	Predicted alpha/alphaT>3.000000, increasing alphaT to 8.089974e-03.
LCAOMinimize: 	Predicted alpha/alphaT>3.000000, increasing alphaT to 2.426992e-02.
	FillingsUpdate:  mu: -0.235065749  nElectrons: 342.000000
LCAOMinimize: Iter:   5  F: -672.8163849973549304  |grad|_K:  9.602e-03  alpha:  2.604e-02  linmin:  9.005e-02  cgtest: -1.099e-01  t[s]:     19.12
LCAOMinimize: 	Predicted alpha/alphaT>3.000000, increasing alphaT to 7.812238e-02.
	FillingsUpdate:  mu: -0.232294799  nElectrons: 342.000000
LCAOMinimize: Iter:   6  F: -673.3834189999249702  |grad|_K:  5.296e-03  alpha:  1.447e-01  linmin:  2.600e-02  cgtest: -6.497e-01  t[s]:     21.22
	FillingsUpdate:  mu: -0.260825063  nElectrons: 342.000000
LCAOMinimize: Iter:   7  F: -673.4219874471295952  |grad|_K:  1.862e-03  alpha:  3.445e-02  linmin:  2.637e-02  cgtest:  4.961e-01  t[s]:     22.83
LCAOMinimize: Encountered beta<0, resetting CG.
LCAOMinimize: 	Predicted alpha/alphaT>3.000000, increasing alphaT to 1.033494e-01.
	FillingsUpdate:  mu: -0.285128072  nElectrons: 342.000000
LCAOMinimize: Iter:   8  F: -673.4499590565887956  |grad|_K:  2.375e-03  alpha:  1.872e-01  linmin:  6.567e-02  cgtest: -3.162e-01  t[s]:     24.95
	FillingsUpdate:  mu: -0.281958591  nElectrons: 342.000000
LCAOMinimize: Iter:   9  F: -673.4510229094108809  |grad|_K:  2.005e-03  alpha:  5.619e-03  linmin: -2.416e-02  cgtest:  9.845e-01  t[s]:     26.57
LCAOMinimize: Encountered beta<0, resetting CG.
LCAOMinimize: 	Predicted alpha/alphaT>3.000000, increasing alphaT to 1.685817e-02.
	FillingsUpdate:  mu: -0.261939957  nElectrons: 342.000000
LCAOMinimize: Iter:  10  F: -673.4573750997614070  |grad|_K:  9.803e-04  alpha:  3.063e-02  linmin: -7.082e-03  cgtest:  2.307e-02  t[s]:     28.69
	FillingsUpdate:  mu: -0.270024308  nElectrons: 342.000000
LCAOMinimize: Iter:  11  F: -673.4619896943241883  |grad|_K:  3.679e-04  alpha:  8.517e-02  linmin: -1.216e-01  cgtest:  4.063e-01  t[s]:     30.32
LCAOMinimize: Encountered beta<0, resetting CG.
	FillingsUpdate:  mu: -0.279100434  nElectrons: 342.000000
LCAOMinimize: Iter:  12  F: -673.4637201966160092  |grad|_K:  8.388e-04  alpha:  2.508e-01  linmin:  4.520e-04  cgtest: -2.796e-03  t[s]:     31.96
	FillingsUpdate:  mu: -0.271586349  nElectrons: 342.000000
LCAOMinimize: Iter:  13  F: -673.4655608728985499  |grad|_K:  2.609e-04  alpha:  4.790e-02  linmin: -1.357e-02  cgtest:  2.807e-01  t[s]:     33.59
	FillingsUpdate:  mu: -0.268406344  nElectrons: 342.000000
LCAOMinimize: Iter:  14  F: -673.4660365277816254  |grad|_K:  1.939e-04  alpha:  1.336e-01  linmin: -6.455e-03  cgtest:  3.193e-02  t[s]:     35.22
	FillingsUpdate:  mu: -0.271686659  nElectrons: 342.000000
LCAOMinimize: Iter:  15  F: -673.4661155581675303  |grad|_K:  1.337e-04  alpha:  4.003e-02  linmin: -1.710e-04  cgtest: -6.238e-02  t[s]:     36.86
LCAOMinimize: 	Predicted alpha/alphaT>3.000000, increasing alphaT to 1.200760e-01.
	FillingsUpdate:  mu: -0.270511153  nElectrons: 342.000000
LCAOMinimize: Iter:  16  F: -673.4663202663730317  |grad|_K:  6.569e-05  alpha:  2.239e-01  linmin:  1.579e-03  cgtest:  1.316e-01  t[s]:     38.97
	FillingsUpdate:  mu: -0.269162592  nElectrons: 342.000000
LCAOMinimize: Iter:  17  F: -673.4663706911455847  |grad|_K:  9.910e-05  alpha:  2.291e-01  linmin:  1.890e-04  cgtest:  2.932e-03  t[s]:     40.59
	FillingsUpdate:  mu: -0.270669421  nElectrons: 342.000000
LCAOMinimize: Iter:  18  F: -673.4663874217176271  |grad|_K:  2.936e-05  alpha:  3.321e-02  linmin: -1.109e-03  cgtest:  2.357e-02  t[s]:     42.23
LCAOMinimize: 	Predicted alpha/alphaT>3.000000, increasing alphaT to 9.961969e-02.
	FillingsUpdate:  mu: -0.270590651  nElectrons: 342.000000
LCAOMinimize: Iter:  19  F: -673.4663982292796618  |grad|_K:  1.061e-05  alpha:  2.440e-01  linmin:  1.445e-04  cgtest: -2.057e-02  t[s]:     44.30
	FillingsUpdate:  mu: -0.270359848  nElectrons: 342.000000
LCAOMinimize: Iter:  20  F: -673.4663986633012200  |grad|_K:  1.353e-05  alpha:  7.531e-02  linmin: -6.615e-05  cgtest:  1.155e-03  t[s]:     45.92
	FillingsUpdate:  mu: -0.270540282  nElectrons: 342.000000
LCAOMinimize: Iter:  21  F: -673.4663995044667217  |grad|_K:  6.245e-06  alpha:  8.971e-02  linmin:  4.288e-05  cgtest: -3.288e-03  t[s]:     47.55
LCAOMinimize: Converged (|Delta F|<1.000000e-06 for 2 iters).


---- Citations for features of the code used in this run ----

   Software package:
      R. Sundararaman, K. Letchworth-Weaver, K.A. Schwarz, D. Gunceler, Y. Ozhabes and T.A. Arias, 'JDFTx: software for joint density-functional theory', SoftwareX 6, 278 (2017)

   gga-PBE exchange-correlation functional:
      J.P. Perdew, K. Burke and M. Ernzerhof, Phys. Rev. Lett. 77, 3865 (1996)

   Pseudopotentials:
      KF Garrity, JW Bennett, KM Rabe and D Vanderbilt, Comput. Mater. Sci. 81, 446 (2014)

   Truncated Coulomb potentials:
      R. Sundararaman and T.A. Arias, Phys. Rev. B 87, 165122 (2013)

   DFT-D3 dispersion correction:
      S. Grimme, J. Antony, S. Ehrlich and H. Krieg, J. Chem. Phys. 132, 154104 (2010)

This list may not be complete. Please suggest additional citations or
report any other bugs at https://github.com/shankar1729/jdftx/issues

Initialization completed successfully at t[s]:     47.74


Computing DFT-D3 correction:
# coordination-number C 3.300 3.300 3.303 3.300 3.300 3.289 3.302 3.300 3.313 3.301 3.300 3.309 3.301 3.300 3.272 3.298 3.300 3.287 3.481 3.300 3.300 3.300 3.378 3.300 3.695 3.288 3.338 3.302 3.911 3.571 3.301 4.057 3.330 3.300 3.300 3.300 3.300 3.291 3.300 3.300 3.281 3.301 3.300 3.300 3.300 3.301 3.304 3.300 3.316 3.277 3.289 3.300 3.298 3.481 3.300 3.329 3.300 3.875 3.555 3.300 3.921 3.302 3.310 3.459 3.304 3.730
# coordination-number N 3.224 3.192 3.178 3.268
# coordination-number Fe 6.048
# coordination-number S 3.074 3.182 3.368 2.956
# coordination-number Na 4.715 5.310
# diagonal-C6 C 24.28 24.29 24.26 24.28 24.28 24.38 24.27 24.28 24.16 24.27 24.29 24.20 24.27 24.28 24.53 24.30 24.28 24.40 21.92 24.29 24.28 24.28 23.41 24.28 19.35 24.39 23.89 24.26 18.44 20.64 24.27 18.28 23.98 24.28 24.28 24.28 24.29 24.36 24.28 24.28 24.46 24.27 24.28 24.28 24.28 24.27 24.25 24.29 24.12 24.49 24.39 24.28 24.30 21.93 24.28 23.99 24.28 18.52 20.85 24.28 18.43 24.26 24.19 22.26 24.25 19.10
# diagonal-C6 N 15.60 15.60 15.60 15.59
# diagonal-C6 Fe 109.50
# diagonal-C6 S 125.81 125.81 125.81 125.81
# diagonal-C6 Na 186.11 186.11
EvdW_6 =   -0.064676
EvdW_8 =   -0.059726

-------- Electronic minimization -----------
Will mix electronic density at each iteration.
	FillingsUpdate:  mu: -0.270540282  nElectrons: 342.000000
	FillingsUpdate:  mu: -0.283429705  nElectrons: 342.000000
SCF: Cycle:  0   F: -676.970723971571601   dF: -3.504e+00   |Residual|: 9.811e-01   |deigs|: 1.183e-01  t[s]:     54.09
	FillingsUpdate:  mu: -0.269266744  nElectrons: 342.000000
SCF: Cycle:  1   F: -675.536216313323280   dF: +1.435e+00   |Residual|: 9.050e-01   |deigs|: 3.228e-02  t[s]:     57.42
	FillingsUpdate:  mu: -0.212902547  nElectrons: 342.000000
SCF: Cycle:  2   F: -668.140032926475442   dF: +7.396e+00   |Residual|: 1.846e+00   |deigs|: 3.262e-02  t[s]:     60.76
	FillingsUpdate:  mu: -0.232572441  nElectrons: 342.000000
SCF: Cycle:  3   F: -677.199388244816987   dF: -9.059e+00   |Residual|: 4.100e-01   |deigs|: 2.958e-02  t[s]:     64.12
	FillingsUpdate:  mu: -0.221249500  nElectrons: 342.000000
SCF: Cycle:  4   F: -677.782548400914266   dF: -5.832e-01   |Residual|: 1.896e-01   |deigs|: 9.014e-03  t[s]:     67.46
	FillingsUpdate:  mu: -0.217927240  nElectrons: 342.000000
SCF: Cycle:  5   F: -677.773181805306081   dF: +9.367e-03   |Residual|: 1.447e-01   |deigs|: 3.698e-03  t[s]:     70.83
	FillingsUpdate:  mu: -0.204020502  nElectrons: 342.000000
SCF: Cycle:  6   F: -677.820561082126574   dF: -4.738e-02   |Residual|: 1.453e-01   |deigs|: 9.829e-03  t[s]:     74.17
	FillingsUpdate:  mu: -0.202530192  nElectrons: 342.000000
SCF: Cycle:  7   F: -677.837345999260265   dF: -1.678e-02   |Residual|: 1.040e-01   |deigs|: 4.195e-03  t[s]:     77.53
	FillingsUpdate:  mu: -0.197293895  nElectrons: 342.000000
SCF: Cycle:  8   F: -677.863992925430694   dF: -2.665e-02   |Residual|: 3.669e-02   |deigs|: 3.793e-03  t[s]:     80.90
	FillingsUpdate:  mu: -0.194235635  nElectrons: 342.000000
SCF: Cycle:  9   F: -677.856649620903795   dF: +7.343e-03   |Residual|: 5.824e-02   |deigs|: 3.389e-03  t[s]:     83.85
	FillingsUpdate:  mu: -0.187599591  nElectrons: 342.000000
SCF: Cycle: 10   F: -677.868093304649278   dF: -1.144e-02   |Residual|: 1.758e-02   |deigs|: 5.796e-03  t[s]:     87.22
	FillingsUpdate:  mu: -0.182596954  nElectrons: 342.000000
SCF: Cycle: 11   F: -677.866896997066419   dF: +1.196e-03   |Residual|: 2.688e-02   |deigs|: 4.928e-03  t[s]:     90.37
	FillingsUpdate:  mu: -0.180724312  nElectrons: 342.000000
SCF: Cycle: 12   F: -677.868390100480156   dF: -1.493e-03   |Residual|: 2.388e-02   |deigs|: 2.491e-03  t[s]:     93.28
	FillingsUpdate:  mu: -0.176758062  nElectrons: 342.000000
SCF: Cycle: 13   F: -677.870174435054196   dF: -1.784e-03   |Residual|: 1.166e-02   |deigs|: 3.457e-03  t[s]:     96.25
	FillingsUpdate:  mu: -0.174627425  nElectrons: 342.000000
SCF: Cycle: 14   F: -677.870447891347226   dF: -2.735e-04   |Residual|: 1.065e-02   |deigs|: 1.996e-03  t[s]:     99.16
	FillingsUpdate:  mu: -0.170933703  nElectrons: 342.000000
SCF: Cycle: 15   F: -677.870834362790902   dF: -3.865e-04   |Residual|: 5.175e-03   |deigs|: 3.373e-03  t[s]:    102.06
	FillingsUpdate:  mu: -0.168365618  nElectrons: 342.000000
SCF: Cycle: 16   F: -677.870784356308263   dF: +5.001e-05   |Residual|: 6.598e-03   |deigs|: 2.383e-03  t[s]:    104.94
	FillingsUpdate:  mu: -0.164163794  nElectrons: 342.000000
SCF: Cycle: 17   F: -677.870770398259197   dF: +1.396e-05   |Residual|: 4.020e-03   |deigs|: 3.897e-03  t[s]:    107.82
	FillingsUpdate:  mu: -0.161073250  nElectrons: 342.000000
SCF: Cycle: 18   F: -677.870746950228636   dF: +2.345e-05   |Residual|: 3.477e-03   |deigs|: 3.312e-03  t[s]:    110.72
	FillingsUpdate:  mu: -0.159147701  nElectrons: 342.000000
SCF: Cycle: 19   F: -677.870778698451090   dF: -3.175e-05   |Residual|: 2.675e-03   |deigs|: 2.233e-03  t[s]:    113.59
	FillingsUpdate:  mu: -0.156994737  nElectrons: 342.000000
SCF: Cycle: 20   F: -677.870849844733243   dF: -7.115e-05   |Residual|: 1.684e-03   |deigs|: 2.319e-03  t[s]:    116.48
	FillingsUpdate:  mu: -0.155088529  nElectrons: 342.000000
SCF: Cycle: 21   F: -677.870895766741796   dF: -4.592e-05   |Residual|: 1.363e-03   |deigs|: 1.791e-03  t[s]:    119.40
	FillingsUpdate:  mu: -0.154079260  nElectrons: 342.000000
SCF: Cycle: 22   F: -677.870910664189864   dF: -1.490e-05   |Residual|: 1.648e-03   |deigs|: 1.036e-03  t[s]:    122.28
	FillingsUpdate:  mu: -0.153587673  nElectrons: 342.000000
SCF: Cycle: 23   F: -677.870920270753459   dF: -9.607e-06   |Residual|: 1.413e-03   |deigs|: 5.899e-04  t[s]:    125.12
	FillingsUpdate:  mu: -0.153070063  nElectrons: 342.000000
SCF: Cycle: 24   F: -677.870931604545945   dF: -1.133e-05   |Residual|: 1.139e-03   |deigs|: 1.109e-03  t[s]:    128.01
	FillingsUpdate:  mu: -0.152718034  nElectrons: 342.000000
SCF: Cycle: 25   F: -677.870937734202926   dF: -6.130e-06   |Residual|: 6.948e-04   |deigs|: 4.835e-04  t[s]:    130.93
	FillingsUpdate:  mu: -0.152652052  nElectrons: 342.000000
SCF: Cycle: 26   F: -677.870940296106824   dF: -2.562e-06   |Residual|: 5.266e-04   |deigs|: 3.331e-04  t[s]:    133.83
	FillingsUpdate:  mu: -0.152717003  nElectrons: 342.000000
SCF: Cycle: 27   F: -677.870943503502076   dF: -3.207e-06   |Residual|: 3.036e-04   |deigs|: 2.759e-04  t[s]:    136.64
	FillingsUpdate:  mu: -0.152792632  nElectrons: 342.000000
SCF: Cycle: 28   F: -677.870944828605730   dF: -1.325e-06   |Residual|: 1.952e-04   |deigs|: 1.844e-04  t[s]:    139.46
	FillingsUpdate:  mu: -0.152792808  nElectrons: 342.000000
SCF: Cycle: 29   F: -677.870945119013300   dF: -2.904e-07   |Residual|: 1.320e-04   |deigs|: 2.153e-04  t[s]:    142.34
	FillingsUpdate:  mu: -0.152755514  nElectrons: 342.000000
SCF: Cycle: 30   F: -677.870945191847682   dF: -7.283e-08   |Residual|: 1.245e-04   |deigs|: 1.612e-04  t[s]:    145.24
	FillingsUpdate:  mu: -0.152706809  nElectrons: 342.000000
SCF: Cycle: 31   F: -677.870945242701964   dF: -5.085e-08   |Residual|: 8.397e-05   |deigs|: 2.386e-04  t[s]:    148.14
	FillingsUpdate:  mu: -0.152675706  nElectrons: 342.000000
SCF: Cycle: 32   F: -677.870945272882636   dF: -3.018e-08   |Residual|: 6.050e-05   |deigs|: 2.009e-04  t[s]:    151.05
	FillingsUpdate:  mu: -0.152656603  nElectrons: 342.000000
SCF: Cycle: 33   F: -677.870945300880635   dF: -2.800e-08   |Residual|: 3.863e-05   |deigs|: 2.110e-04  t[s]:    153.96
	FillingsUpdate:  mu: -0.152645164  nElectrons: 342.000000
SCF: Cycle: 34   F: -677.870945296803143   dF: +4.077e-09   |Residual|: 5.882e-05   |deigs|: 1.425e-04  t[s]:    156.85
	FillingsUpdate:  mu: -0.152639672  nElectrons: 342.000000
SCF: Cycle: 35   F: -677.870945311412697   dF: -1.461e-08   |Residual|: 1.910e-05   |deigs|: 6.396e-05  t[s]:    174.27
	FillingsUpdate:  mu: -0.152632131  nElectrons: 342.000000
SCF: Cycle: 36   F: -677.870945313562743   dF: -2.150e-09   |Residual|: 1.545e-05   |deigs|: 7.350e-05  t[s]:    177.15
	FillingsUpdate:  mu: -0.152626182  nElectrons: 342.000000
SCF: Cycle: 37   F: -677.870945315689482   dF: -2.127e-09   |Residual|: 1.354e-05   |deigs|: 5.240e-05  t[s]:    180.04
SCF: Converged (|Delta E|<1.000000e-08 for 2 iters).

Setting wave functions to eigenvectors of Hamiltonian

Computing DFT-D3 correction:
# coordination-number C 3.300 3.300 3.303 3.300 3.300 3.289 3.302 3.300 3.313 3.301 3.300 3.309 3.301 3.300 3.272 3.298 3.300 3.287 3.481 3.300 3.300 3.300 3.378 3.300 3.695 3.288 3.338 3.302 3.911 3.571 3.301 4.057 3.330 3.300 3.300 3.300 3.300 3.291 3.300 3.300 3.281 3.301 3.300 3.300 3.300 3.301 3.304 3.300 3.316 3.277 3.289 3.300 3.298 3.481 3.300 3.329 3.300 3.875 3.555 3.300 3.921 3.302 3.310 3.459 3.304 3.730
# coordination-number N 3.224 3.192 3.178 3.268
# coordination-number Fe 6.048
# coordination-number S 3.074 3.182 3.368 2.956
# coordination-number Na 4.715 5.310
# diagonal-C6 C 24.28 24.29 24.26 24.28 24.28 24.38 24.27 24.28 24.16 24.27 24.29 24.20 24.27 24.28 24.53 24.30 24.28 24.40 21.92 24.29 24.28 24.28 23.41 24.28 19.35 24.39 23.89 24.26 18.44 20.64 24.27 18.28 23.98 24.28 24.28 24.28 24.29 24.36 24.28 24.28 24.46 24.27 24.28 24.28 24.28 24.27 24.25 24.29 24.12 24.49 24.39 24.28 24.30 21.93 24.28 23.99 24.28 18.52 20.85 24.28 18.43 24.26 24.19 22.26 24.25 19.10
# diagonal-C6 N 15.60 15.60 15.60 15.59
# diagonal-C6 Fe 109.50
# diagonal-C6 S 125.81 125.81 125.81 125.81
# diagonal-C6 Na 186.11 186.11
EvdW_6 =   -0.064676
EvdW_8 =   -0.059726

# Ionic positions in cartesian coordinates:
ion C   0.000000000000000   0.000000000000000   1.000007321400000 0
ion C  -2.333835447300000   4.042302545699999   1.000007321400000 0
ion C  11.669120544600000  20.211531625799999   1.000007321400000 0
ion C   4.667689791900001   0.000000000000000   1.000007321400000 0
ion C  23.338297781100000   0.000000000000000   1.000007321400000 0
ion C   2.333816549999999   4.042302545699999   1.000007321400000 0
ion C -11.669158339200004  20.211531625799999   1.000007321400000 0
ion C  -4.667670894600000   8.084623988700001   1.000007321400000 0
ion C   9.335303994599997  16.169229080099999   1.000007321400000 0
ion C   9.335322891900001   0.000000000000000   1.000007321400000 0
ion C  18.670626886499999   0.000000000000000   1.000007321400000 0
ion C  -9.335322891900001  16.169229080099999   1.000007321400000 0
ion C  -7.001487444600000  12.126907637100000   1.000007321400000 0
ion C  14.002993786499999   0.000000000000000   1.000007321400000 0
ion C   0.000000000000000   8.084623988700001   1.000007321400000 0
ion C   7.001487444599997  20.211531625799999   1.000007321400000 0
ion C  -7.001487444600005  20.211531625799999   1.000007321400000 0
ion C  -2.333816549999999  12.126907637100000   1.000007321400000 0
ion C   4.667670894600002  16.169229080099999   1.000007321400000 0
ion C  -2.333816550000000  20.211531625799999   1.000007321400000 0
ion C   2.333816550000000  20.211531625799999   1.000007321400000 0
ion C  -4.667651997299996  16.169229080099999   1.000007321400000 0
ion C   7.001487444600000   4.042302545699999   1.000007321400000 0
ion C  21.004424539199999   4.042302545699999   1.000007321400000 0
ion C  14.002955991899999  16.169229080099999   1.000007321400000 0
ion C   0.000000000000000  16.169229080099999   1.000007321400000 0
ion C  11.669120544600000   4.042302545699999   1.000007321400000 0
ion C  18.670607989199997   8.084623988700001   1.000007321400000 0
ion C  11.669120544599998  12.126907637100000   1.000007321400000 0
ion C  16.336791439199999  12.126907637100000   1.000007321400000 0
ion C  16.336791439199999   4.042302545699999   1.000007321400000 0
ion C   9.335303994599997   8.084623988700001   1.000007321400000 0
ion C  14.002955991899999   8.084623988700001   1.000007321400000 0
ion C   0.000000000000000   2.694868363800000   1.000007321400000 0
ion C  11.669120544600000  22.906399989600001   1.000007321400000 0
ion C -11.669120544600000  22.906399989600001   1.000007321400000 0
ion C  -2.333816550000000   6.737170909500000   1.000007321400000 0
ion C   9.335303994599995  18.864097443900000   1.000007321400000 0
ion C  -7.001487444600000  22.906399989600001   1.000007321400000 0
ion C   7.001487444600000  22.906399989600001   1.000007321400000 0
ion C   2.333816550000000   6.737170909500000   1.000007321400000 0
ion C  -9.335303994599998  18.864097443900000   1.000007321400000 0
ion C  -4.667670894599997  10.779473455200000   1.000007321400000 0
ion C  -2.333816550000000  22.906399989600001   1.000007321400000 0
ion C   2.333816550000000  22.906399989600001   1.000007321400000 0
ion C  -7.001487444600004  14.821794898200000   1.000007321400000 0
ion C   4.667670894600000   2.694868363800000   1.000007321400000 0
ion C  23.338259986499999   2.694868363800000   1.000007321400000 0
ion C  14.002974889199999  18.864097443900000   1.000007321400000 0
ion C   0.000000000000000  10.779473455200000   1.000007321400000 0
ion C   4.667670894600001  18.864097443900000   1.000007321400000 0
ion C  -4.667633100000004  18.864097443900000   1.000007321400000 0
ion C  -2.333816550000003  14.821794898200000   1.000007321400000 0
ion C   2.333816549999995  14.821794898200000   1.000007321400000 0
ion C  -0.000000000000005  18.864097443900000   1.000007321400000 0
ion C   9.335303994599998   2.694868363800000   1.000007321400000 0
ion C  21.004424539199999   6.737170909500000   1.000007321400000 0
ion C  11.669120544600000  14.821794898200000   1.000007321400000 0
ion C  16.336791439199999  14.821794898200000   1.000007321400000 0
ion C  18.670607989199997   2.694868363800000   1.000007321400000 0
ion C   7.001487444600001   6.737170909500000   1.000007321400000 0
ion C  14.002955991899999   2.694868363800000   1.000007321400000 0
ion C  18.670607989200004  10.779473455200000   1.000007321400000 0
ion C  11.669120544599998   6.737170909500000   1.000007321400000 0
ion C  16.336791439199999   6.737170909500000   1.000007321400000 0
ion C  14.002955991899999  10.779473455200000   1.000007321400000 0
ion N   4.667670894599999   8.084623988700001   1.000007321400000 0
ion N   2.333816549999999  12.126907637100000   1.000007321400000 0
ion N   7.001487444599997  14.821794898200000   1.000007321400000 0
ion N   9.335303994599997  10.779473455200000   1.000007321400000 0
ion Fe   5.837111407799997  11.454314935499999   1.000007321400000 0
ion S   5.468204798104988  11.362534507786290   5.336785219362401 1
ion S   8.070808428515150  13.504650156018911   7.430805225604459 1
ion S   9.853203388601669  11.184101881026494  10.093829239225848 1
ion S  12.833201592618561   9.175275240526799   8.508169628990180 1
ion Na   8.687030711533254   7.230359205990412   6.209972494311719 1
ion Na  13.380327782281922  13.410495232840686   5.793200734643123 1

# Forces in Cartesian coordinates:
force C   0.003812664099404  -0.000269310331993  -0.000031923366195 0
force C   0.001121984918014  -0.001109630499661  -0.000015441490964 0
force C   0.003070254149411  -0.001747838646661  -0.000049630042654 0
force C   0.001617653901947   0.002260453701135  -0.000021793510037 0
force C   0.001552179792165  -0.000467354510580  -0.000007754078622 0
force C   0.004496302772597   0.001939399902646   0.000364216842968 0
force C   0.000924581294339  -0.000182010923039  -0.000006458098643 0
force C  -0.000927018839890   0.001816195419272  -0.000006785071915 0
force C  -0.038249002841052  -0.014060226206727   0.000044123488927 0
force C  -0.000970885149747  -0.000808052298991   0.000123038383848 0
force C  -0.000830282552207  -0.000113968134440  -0.000002024271099 0
force C   0.001919745497239   0.001673822114961   0.000337321837853 0
force C   0.002092679110148   0.002828042049880  -0.000062991621633 0
force C  -0.000485393834309  -0.000602714722925  -0.000032987955831 0
force C   0.010772390430697   0.005809520971196   0.000228228629253 0
force C   0.002418503416708   0.001825337578694   0.000039944151749 0
force C   0.001845455577621   0.000187261619407   0.000005682323975 0
force C   0.004422242863048   0.004159275378548   0.000413264266997 0
force C   0.031487316073707   0.009465962302075   0.000508481067753 0
force C  -0.000082117396254  -0.000712695344048  -0.000037115606541 0
force C  -0.003165941250078   0.000347779009690  -0.000029595448597 0
force C   0.001926702623534  -0.000081499604207  -0.000013244901536 0
force C   0.004928174277840   0.002030210556209   0.000522919396307 0
force C   0.001328670954589   0.000530310583069  -0.000015323519133 0
force C  -0.000215208264913   0.001587053135377  -0.000281158870092 0
force C   0.006827273535927   0.001295215387625   0.000460556590353 0
force C   0.000407076490548  -0.002230305624530  -0.000071072871667 0
force C   0.001405803042593   0.002328819825319   0.000036898455014 0
force C  -0.031666842152039  -0.024421712033759  -0.001558341007101 0
force C   0.000859560621099   0.002079457797490  -0.000243096396258 0
force C  -0.001253335598721  -0.000507069269043   0.000067459658382 0
force C   0.022291055693595   0.023100749444480   0.000095336195273 0
force C   0.004601523564875  -0.000959675710748  -0.000134413358210 0
force C  -0.003200379590339   0.002417326457685  -0.000011876124114 0
force C  -0.003633307284280   0.000202145390244   0.000010487843720 0
force C  -0.002517879768620   0.000102856463846   0.000032966363402 0
force C   0.002324235913813   0.000961322944860  -0.000001285072467 0
force C  -0.005261486967589  -0.001986723122245   0.000354356410031 0
force C   0.000461450688156   0.000888244618547  -0.000019382072600 0
force C  -0.000625051958379  -0.002060087813774  -0.000022456894776 0
force C   0.033463179026955   0.014672109733245   0.000341087188761 0
force C  -0.001536289400742  -0.000776224966935  -0.000100241653304 0
force C  -0.000148228810626  -0.004160051347389  -0.000024956511528 0
force C   0.000664648954993   0.000074570348719  -0.000026553012635 0
force C   0.000947655111423  -0.000273260312161  -0.000024857144799 0
force C  -0.000425617030034  -0.001340005669273  -0.000042244428006 0
force C  -0.003344384895605  -0.002748914105212   0.000021359176218 0
force C  -0.000553111353170   0.000689307041526  -0.000001583394547 0
force C  -0.001255980675654   0.002923161286991   0.000385050817379 0
force C   0.030953130836336   0.023361559026739   0.000238083213381 0
force C  -0.004615681949369  -0.005986470127162   0.000441980963179 0
force C   0.000356645673315   0.000305911090940  -0.000007010138997 0
force C  -0.002474948480301  -0.001801979653606  -0.000046975511511 0
force C  -0.023558805406293  -0.023851332589464   0.000336674942661 0
force C   0.001276738954374   0.002720428220353  -0.000064715431877 0
force C   0.001806931391794  -0.001217683335120   0.000013420284415 0
force C   0.000357518394920  -0.000343067956419   0.000015788133788 0
force C  -0.013584134568176  -0.006245460317877  -0.000063453805084 0
force C   0.001844067563764  -0.000417458338459   0.000247149947581 0
force C  -0.000747504456196  -0.001039033112895  -0.000009211037552 0
force C  -0.031722959980380  -0.006587507608552   0.000684205598529 0
force C   0.001372674842331   0.000953967895928   0.000184251813797 0
force C  -0.000122924205080  -0.004727280548910   0.000325992782639 0
force C  -0.004496010391726  -0.002683192307753  -0.000276277237673 0
force C  -0.003921411746165   0.000541579383314  -0.000021720425119 0
force C  -0.003731624359331  -0.004535215829693  -0.000803265608154 0
force N   0.024547243468344  -0.033793766569208  -0.011799410011285 0
force N  -0.020102321317499   0.040645708284757  -0.013837409533476 0
force N  -0.024150670186337   0.036077172153752  -0.011435433799742 0
force N   0.015555477348795  -0.037159444220451  -0.010925080401998 0
force Fe   0.002988965167556  -0.000875377543152   0.045574116526667 0
force S  -0.000175706097154   0.000249568355374  -0.000619843144983 1
force S  -0.000514676552935   0.000672523153350  -0.000817265555935 1
force S  -0.000103036487304   0.000087630348565   0.000294220839681 1
force S   0.000331889433285  -0.000206491916135  -0.000796911856855 1
force Na  -0.000615061590023  -0.000838962311671  -0.000638894995084 1
force Na   0.000093289396717   0.000371289319515   0.000598187638151 1

# Energy components:
   Eewald =    -1487.8433505684690772
       EH =     -956.2544077516914740
     Eloc =     1700.6022609642702719
      Enl =      -58.7493102180531395
     EvdW =       -0.1244018764395322
      Exc =     -176.2214985181301472
 Exc_core =       10.4335678128360438
       KE =      290.3591149162839429
-------------------------------------
     Etot =     -677.7980252393931551
       TS =        0.0729200762963345
-------------------------------------
        F =     -677.8709453156894824

IonicMinimize: Iter:   0  F: -677.870945315689482  |grad|_K:  5.137e-04  alpha:  1.000e+00

#--- Lowdin population analysis ---
# oxidation-state C +0.043 +0.035 +0.033 +0.033 +0.038 +0.022 +0.033 +0.035 +0.139 +0.035 +0.039 +0.028 +0.042 +0.039 +0.010 +0.048 +0.041 +0.028 +0.130 +0.039 +0.035 +0.034 +0.011 +0.046 +0.007 +0.037 +0.020 +0.037 +0.101 +0.004 +0.037 +0.081 +0.040 +0.037 +0.043 +0.035 +0.051 +0.024 +0.035 +0.036 +0.144 +0.042 +0.038 +0.039 +0.040 +0.035 +0.038 +0.038 +0.023 +0.150 +0.036 +0.038 +0.050 +0.132 +0.036 +0.019 +0.038 -0.037 -0.001 +0.044 +0.083 +0.038 +0.039 +0.013 +0.037 -0.008
# oxidation-state N -0.130 -0.118 -0.121 -0.135
# oxidation-state Fe -0.006
# oxidation-state S -0.062 +0.017 +0.049 -0.520
# oxidation-state Na +0.781 +0.791


Computing DFT-D3 correction:
# coordination-number C 3.300 3.300 3.303 3.300 3.300 3.289 3.302 3.300 3.313 3.301 3.300 3.309 3.301 3.300 3.272 3.298 3.300 3.287 3.481 3.300 3.300 3.300 3.378 3.300 3.695 3.288 3.338 3.302 3.911 3.570 3.301 4.057 3.330 3.300 3.300 3.300 3.300 3.291 3.300 3.300 3.281 3.301 3.300 3.300 3.300 3.301 3.304 3.300 3.316 3.277 3.289 3.300 3.298 3.481 3.300 3.329 3.300 3.875 3.555 3.300 3.922 3.302 3.310 3.459 3.304 3.730
# coordination-number N 3.224 3.193 3.178 3.268
# coordination-number Fe 6.048
# coordination-number S 3.074 3.181 3.367 2.955
# coordination-number Na 4.715 5.307
# diagonal-C6 C 24.28 24.29 24.26 24.28 24.28 24.38 24.27 24.28 24.16 24.27 24.29 24.20 24.27 24.28 24.53 24.30 24.28 24.40 21.92 24.29 24.28 24.28 23.40 24.28 19.35 24.39 23.89 24.26 18.44 20.65 24.27 18.28 23.98 24.28 24.28 24.28 24.29 24.36 24.28 24.28 24.46 24.27 24.28 24.28 24.28 24.27 24.25 24.29 24.12 24.49 24.39 24.28 24.30 21.93 24.28 23.99 24.28 18.52 20.85 24.28 18.42 24.26 24.19 22.25 24.25 19.11
# diagonal-C6 N 15.60 15.60 15.60 15.59
# diagonal-C6 Fe 109.50
# diagonal-C6 S 125.81 125.81 125.81 125.81
# diagonal-C6 Na 186.11 186.11
EvdW_6 =   -0.064677
EvdW_8 =   -0.059730

-------- Electronic minimization -----------
Will mix electronic density at each iteration.
	FillingsUpdate:  mu: -0.152626182  nElectrons: 342.000000
	FillingsUpdate:  mu: -0.152602017  nElectrons: 342.000000
SCF: Cycle:  0   F: -677.870948304523608   dF: +1.114e-06   |Residual|: 6.504e-04   |deigs|: 2.321e-06  t[s]:    188.59
	FillingsUpdate:  mu: -0.152516243  nElectrons: 342.000000
SCF: Cycle:  1   F: -677.870875114543537   dF: +7.319e-05   |Residual|: 4.946e-03   |deigs|: 5.180e-05  t[s]:    190.84
	FillingsUpdate:  mu: -0.152592209  nElectrons: 342.000000
SCF: Cycle:  2   F: -677.870949790657960   dF: -7.468e-05   |Residual|: 1.063e-04   |deigs|: 4.596e-05  t[s]:    193.03
	FillingsUpdate:  mu: -0.152592991  nElectrons: 342.000000
SCF: Cycle:  3   F: -677.870949820053852   dF: -2.940e-08   |Residual|: 3.426e-05   |deigs|: 3.781e-06  t[s]:    195.24
	FillingsUpdate:  mu: -0.152593527  nElectrons: 342.000000
SCF: Cycle:  4   F: -677.870949823371802   dF: -3.318e-09   |Residual|: 1.899e-05   |deigs|: 3.897e-06  t[s]:    197.48
	FillingsUpdate:  mu: -0.152593921  nElectrons: 342.000000
SCF: Cycle:  5   F: -677.870949824304375   dF: -9.326e-10   |Residual|: 1.314e-05   |deigs|: 4.320e-06  t[s]:    199.71
SCF: Converged (|Delta E|<1.000000e-08 for 2 iters).

Setting wave functions to eigenvectors of Hamiltonian
IonicMinimize: 	Predicted alpha/alphaT>3.000000, increasing alphaT to 3.000000e+00.

Computing DFT-D3 correction:
# coordination-number C 3.300 3.300 3.303 3.300 3.300 3.289 3.302 3.300 3.313 3.301 3.300 3.309 3.301 3.300 3.272 3.298 3.300 3.287 3.481 3.300 3.300 3.300 3.378 3.300 3.694 3.288 3.338 3.302 3.910 3.570 3.301 4.058 3.330 3.300 3.300 3.300 3.300 3.291 3.300 3.300 3.281 3.301 3.300 3.300 3.300 3.301 3.304 3.300 3.316 3.277 3.289 3.300 3.298 3.481 3.300 3.329 3.300 3.874 3.555 3.300 3.923 3.302 3.310 3.459 3.304 3.729
# coordination-number N 3.224 3.193 3.178 3.268
# coordination-number Fe 6.048
# coordination-number S 3.075 3.179 3.366 2.955
# coordination-number Na 4.713 5.302
# diagonal-C6 C 24.28 24.29 24.26 24.28 24.28 24.38 24.27 24.28 24.16 24.27 24.29 24.20 24.27 24.28 24.53 24.30 24.28 24.40 21.92 24.29 24.28 24.28 23.40 24.28 19.35 24.39 23.89 24.26 18.45 20.66 24.27 18.28 23.98 24.28 24.28 24.28 24.29 24.36 24.28 24.28 24.46 24.27 24.28 24.28 24.28 24.27 24.25 24.29 24.12 24.49 24.39 24.28 24.30 21.93 24.28 23.98 24.28 18.52 20.86 24.28 18.42 24.26 24.19 22.25 24.25 19.11
# diagonal-C6 N 15.60 15.60 15.60 15.59
# diagonal-C6 Fe 109.50
# diagonal-C6 S 125.81 125.81 125.81 125.81
# diagonal-C6 Na 186.11 186.11
EvdW_6 =   -0.064679
EvdW_8 =   -0.059737

-------- Electronic minimization -----------
Will mix electronic density at each iteration.
	FillingsUpdate:  mu: -0.152593921  nElectrons: 342.000000
	FillingsUpdate:  mu: -0.152608908  nElectrons: 342.000000
SCF: Cycle:  0   F: -677.870955513847548   dF: +5.820e-07   |Residual|: 7.323e-04   |deigs|: 2.149e-07  t[s]:    205.49
	FillingsUpdate:  mu: -0.152526637  nElectrons: 342.000000
SCF: Cycle:  1   F: -677.870890445705527   dF: +6.507e-05   |Residual|: 4.698e-03   |deigs|: 4.943e-05  t[s]:    207.75
	FillingsUpdate:  mu: -0.152600680  nElectrons: 342.000000
SCF: Cycle:  2   F: -677.870957550993580   dF: -6.711e-05   |Residual|: 2.080e-04   |deigs|: 4.464e-05  t[s]:    210.01
	FillingsUpdate:  mu: -0.152598943  nElectrons: 342.000000
SCF: Cycle:  3   F: -677.870957681853383   dF: -1.309e-07   |Residual|: 6.967e-05   |deigs|: 5.201e-06  t[s]:    212.25
	FillingsUpdate:  mu: -0.152598925  nElectrons: 342.000000
SCF: Cycle:  4   F: -677.870957692953198   dF: -1.110e-08   |Residual|: 2.962e-05   |deigs|: 4.246e-06  t[s]:    214.46
	FillingsUpdate:  mu: -0.152599293  nElectrons: 342.000000
SCF: Cycle:  5   F: -677.870957694929189   dF: -1.976e-09   |Residual|: 2.428e-05   |deigs|: 3.616e-06  t[s]:    216.71
	FillingsUpdate:  mu: -0.152599060  nElectrons: 342.000000
SCF: Cycle:  6   F: -677.870957697401195   dF: -2.472e-09   |Residual|: 8.961e-06   |deigs|: 3.483e-06  t[s]:    218.97
SCF: Converged (|Delta E|<1.000000e-08 for 2 iters).

Setting wave functions to eigenvectors of Hamiltonian
IonicMinimize: 	Predicted alpha/alphaT>3.000000, increasing alphaT to 9.000000e+00.

Computing DFT-D3 correction:
# coordination-number C 3.300 3.300 3.303 3.300 3.300 3.289 3.302 3.300 3.312 3.301 3.300 3.309 3.301 3.300 3.272 3.298 3.300 3.287 3.481 3.300 3.300 3.300 3.379 3.300 3.693 3.288 3.338 3.302 3.907 3.568 3.301 4.060 3.329 3.300 3.300 3.300 3.300 3.291 3.300 3.300 3.281 3.301 3.300 3.300 3.300 3.301 3.304 3.300 3.316 3.277 3.289 3.300 3.298 3.481 3.300 3.329 3.300 3.872 3.554 3.300 3.927 3.302 3.310 3.460 3.304 3.726
# coordination-number N 3.225 3.193 3.178 3.268
# coordination-number Fe 6.049
# coordination-number S 3.075 3.174 3.360 2.954
# coordination-number Na 4.709 5.287
# diagonal-C6 C 24.28 24.29 24.26 24.28 24.28 24.38 24.27 24.28 24.16 24.27 24.29 24.20 24.27 24.28 24.53 24.30 24.28 24.40 21.92 24.29 24.28 24.28 23.38 24.28 19.36 24.39 23.89 24.26 18.45 20.68 24.27 18.28 23.98 24.28 24.28 24.28 24.29 24.36 24.28 24.28 24.46 24.27 24.28 24.28 24.28 24.27 24.25 24.29 24.12 24.49 24.39 24.28 24.30 21.92 24.28 23.98 24.28 18.53 20.87 24.28 18.42 24.26 24.19 22.24 24.25 19.13
# diagonal-C6 N 15.60 15.60 15.60 15.59
# diagonal-C6 Fe 109.50
# diagonal-C6 S 125.81 125.81 125.81 125.81
# diagonal-C6 Na 186.11 186.11
EvdW_6 =   -0.064687
EvdW_8 =   -0.059760

-------- Electronic minimization -----------
Will mix electronic density at each iteration.
	FillingsUpdate:  mu: -0.152599060  nElectrons: 342.000000
	FillingsUpdate:  mu: -0.152635858  nElectrons: 342.000000
SCF: Cycle:  0   F: -677.870937970922341   dF: +1.992e-05   |Residual|: 3.026e-03   |deigs|: 5.215e-07  t[s]:    225.40
	FillingsUpdate:  mu: -0.152248915  nElectrons: 342.000000
SCF: Cycle:  1   F: -677.869476094031484   dF: +1.462e-03   |Residual|: 2.213e-02   |deigs|: 2.309e-04  t[s]:    227.67
	FillingsUpdate:  mu: -0.152592161  nElectrons: 342.000000
SCF: Cycle:  2   F: -677.870971299012808   dF: -1.495e-03   |Residual|: 5.688e-04   |deigs|: 2.073e-04  t[s]:    229.94
	FillingsUpdate:  mu: -0.152591312  nElectrons: 342.000000
SCF: Cycle:  3   F: -677.870972140868730   dF: -8.419e-07   |Residual|: 2.142e-04   |deigs|: 1.630e-05  t[s]:    232.22
	FillingsUpdate:  mu: -0.152593016  nElectrons: 342.000000
SCF: Cycle:  4   F: -677.870972230402117   dF: -8.953e-08   |Residual|: 9.756e-05   |deigs|: 1.498e-05  t[s]:    234.45
	FillingsUpdate:  mu: -0.152594409  nElectrons: 342.000000
SCF: Cycle:  5   F: -677.870972241126083   dF: -1.072e-08   |Residual|: 8.071e-05   |deigs|: 1.370e-05  t[s]:    236.70
	FillingsUpdate:  mu: -0.152594302  nElectrons: 342.000000
SCF: Cycle:  6   F: -677.870972260842905   dF: -1.972e-08   |Residual|: 2.191e-05   |deigs|: 1.411e-05  t[s]:    238.94
	FillingsUpdate:  mu: -0.152595722  nElectrons: 342.000000
SCF: Cycle:  7   F: -677.870972263813542   dF: -2.971e-09   |Residual|: 1.524e-05   |deigs|: 1.435e-05  t[s]:    241.22
	FillingsUpdate:  mu: -0.152597050  nElectrons: 342.000000
SCF: Cycle:  8   F: -677.870972265551131   dF: -1.738e-09   |Residual|: 7.553e-06   |deigs|: 8.930e-06  t[s]:    244.09
SCF: Converged (|Delta E|<1.000000e-08 for 2 iters).

Setting wave functions to eigenvectors of Hamiltonian

Computing DFT-D3 correction:
# coordination-number C 3.300 3.300 3.303 3.300 3.300 3.289 3.302 3.300 3.312 3.301 3.300 3.309 3.301 3.300 3.272 3.298 3.300 3.287 3.481 3.300 3.300 3.300 3.380 3.300 3.693 3.288 3.338 3.302 3.905 3.567 3.301 4.060 3.329 3.300 3.300 3.300 3.300 3.291 3.300 3.300 3.281 3.301 3.300 3.300 3.300 3.301 3.304 3.300 3.316 3.277 3.289 3.300 3.298 3.481 3.300 3.330 3.300 3.871 3.553 3.300 3.929 3.302 3.310 3.460 3.304 3.724
# coordination-number N 3.225 3.193 3.178 3.268
# coordination-number Fe 6.050
# coordination-number S 3.075 3.171 3.357 2.953
# coordination-number Na 4.707 5.279
# diagonal-C6 C 24.28 24.29 24.26 24.28 24.28 24.38 24.27 24.28 24.16 24.27 24.29 24.20 24.27 24.28 24.53 24.30 24.28 24.40 21.92 24.28 24.28 24.28 23.37 24.28 19.37 24.39 23.88 24.26 18.45 20.69 24.27 18.28 23.98 24.28 24.28 24.28 24.29 24.36 24.28 24.28 24.46 24.27 24.28 24.28 24.28 24.27 24.25 24.29 24.12 24.49 24.39 24.28 24.30 21.92 24.28 23.98 24.28 18.53 20.88 24.28 18.41 24.26 24.19 22.24 24.25 19.14
# diagonal-C6 N 15.60 15.60 15.60 15.59
# diagonal-C6 Fe 109.50
# diagonal-C6 S 125.81 125.81 125.81 125.81
# diagonal-C6 Na 186.11 186.11
EvdW_6 =   -0.064690
EvdW_8 =   -0.059772

-------- Electronic minimization -----------
Will mix electronic density at each iteration.
	FillingsUpdate:  mu: -0.152597050  nElectrons: 342.000000
	FillingsUpdate:  mu: -0.152633908  nElectrons: 342.000000
SCF: Cycle:  0   F: -677.870964640924740   dF: +5.882e-06   |Residual|: 1.597e-03   |deigs|: 3.857e-07  t[s]:    249.88
	FillingsUpdate:  mu: -0.152429885  nElectrons: 342.000000
SCF: Cycle:  1   F: -677.870558904315317   dF: +4.057e-04   |Residual|: 1.167e-02   |deigs|: 1.213e-04  t[s]:    252.14
	FillingsUpdate:  mu: -0.152610048  nElectrons: 342.000000
SCF: Cycle:  2   F: -677.870974238864392   dF: -4.153e-04   |Residual|: 3.018e-04   |deigs|: 1.079e-04  t[s]:    254.38
	FillingsUpdate:  mu: -0.152609481  nElectrons: 342.000000
SCF: Cycle:  3   F: -677.870974493905919   dF: -2.550e-07   |Residual|: 1.130e-04   |deigs|: 8.073e-06  t[s]:    256.63
	FillingsUpdate:  mu: -0.152610139  nElectrons: 342.000000
SCF: Cycle:  4   F: -677.870974522688016   dF: -2.878e-08   |Residual|: 5.826e-05   |deigs|: 6.826e-06  t[s]:    258.87
	FillingsUpdate:  mu: -0.152610405  nElectrons: 342.000000
SCF: Cycle:  5   F: -677.870974529645082   dF: -6.957e-09   |Residual|: 3.877e-05   |deigs|: 6.208e-06  t[s]:    261.11
	FillingsUpdate:  mu: -0.152610138  nElectrons: 342.000000
SCF: Cycle:  6   F: -677.870974535596702   dF: -5.952e-09   |Residual|: 1.304e-05   |deigs|: 6.041e-06  t[s]:    263.36
SCF: Converged (|Delta E|<1.000000e-08 for 2 iters).

Setting wave functions to eigenvectors of Hamiltonian

Computing DFT-D3 correction:
# coordination-number C 3.300 3.300 3.303 3.300 3.300 3.289 3.302 3.300 3.312 3.301 3.300 3.309 3.301 3.300 3.272 3.298 3.300 3.287 3.481 3.300 3.300 3.300 3.380 3.300 3.693 3.288 3.338 3.302 3.905 3.567 3.301 4.060 3.329 3.300 3.300 3.300 3.300 3.291 3.300 3.300 3.281 3.301 3.300 3.300 3.300 3.301 3.304 3.300 3.316 3.277 3.289 3.300 3.298 3.481 3.300 3.330 3.300 3.871 3.553 3.300 3.929 3.302 3.310 3.460 3.304 3.724
# coordination-number N 3.225 3.193 3.178 3.268
# coordination-number Fe 6.050
# coordination-number S 3.075 3.171 3.357 2.953
# coordination-number Na 4.707 5.279
# diagonal-C6 C 24.28 24.29 24.26 24.28 24.28 24.38 24.27 24.28 24.16 24.27 24.29 24.20 24.27 24.28 24.53 24.30 24.28 24.40 21.92 24.28 24.28 24.28 23.37 24.28 19.37 24.39 23.88 24.26 18.45 20.69 24.27 18.28 23.98 24.28 24.28 24.28 24.29 24.36 24.28 24.28 24.46 24.27 24.28 24.28 24.28 24.27 24.25 24.29 24.12 24.49 24.39 24.28 24.30 21.92 24.28 23.98 24.28 18.53 20.88 24.28 18.41 24.26 24.19 22.24 24.25 19.14
# diagonal-C6 N 15.60 15.60 15.60 15.59
# diagonal-C6 Fe 109.50
# diagonal-C6 S 125.81 125.81 125.81 125.81
# diagonal-C6 Na 186.11 186.11
EvdW_6 =   -0.064690
EvdW_8 =   -0.059772

# Ionic positions in cartesian coordinates:
ion C   0.000000000000000   0.000000000000000   1.000007321400000 0
ion C  -2.333835447300000   4.042302545699999   1.000007321400000 0
ion C  11.669120544600000  20.211531625799999   1.000007321400000 0
ion C   4.667689791900001   0.000000000000000   1.000007321400000 0
ion C  23.338297781100000   0.000000000000000   1.000007321400000 0
ion C   2.333816549999999   4.042302545699999   1.000007321400000 0
ion C -11.669158339200004  20.211531625799999   1.000007321400000 0
ion C  -4.667670894600000   8.084623988700001   1.000007321400000 0
ion C   9.335303994599997  16.169229080099999   1.000007321400000 0
ion C   9.335322891900001   0.000000000000000   1.000007321400000 0
ion C  18.670626886499999   0.000000000000000   1.000007321400000 0
ion C  -9.335322891900001  16.169229080099999   1.000007321400000 0
ion C  -7.001487444600000  12.126907637100000   1.000007321400000 0
ion C  14.002993786499999   0.000000000000000   1.000007321400000 0
ion C   0.000000000000000   8.084623988700001   1.000007321400000 0
ion C   7.001487444599997  20.211531625799999   1.000007321400000 0
ion C  -7.001487444600005  20.211531625799999   1.000007321400000 0
ion C  -2.333816549999999  12.126907637100000   1.000007321400000 0
ion C   4.667670894600002  16.169229080099999   1.000007321400000 0
ion C  -2.333816550000000  20.211531625799999   1.000007321400000 0
ion C   2.333816550000000  20.211531625799999   1.000007321400000 0
ion C  -4.667651997299996  16.169229080099999   1.000007321400000 0
ion C   7.001487444600000   4.042302545699999   1.000007321400000 0
ion C  21.004424539199999   4.042302545699999   1.000007321400000 0
ion C  14.002955991899999  16.169229080099999   1.000007321400000 0
ion C   0.000000000000000  16.169229080099999   1.000007321400000 0
ion C  11.669120544600000   4.042302545699999   1.000007321400000 0
ion C  18.670607989199997   8.084623988700001   1.000007321400000 0
ion C  11.669120544599998  12.126907637100000   1.000007321400000 0
ion C  16.336791439199999  12.126907637100000   1.000007321400000 0
ion C  16.336791439199999   4.042302545699999   1.000007321400000 0
ion C   9.335303994599997   8.084623988700001   1.000007321400000 0
ion C  14.002955991899999   8.084623988700001   1.000007321400000 0
ion C   0.000000000000000   2.694868363800000   1.000007321400000 0
ion C  11.669120544600000  22.906399989600001   1.000007321400000 0
ion C -11.669120544600000  22.906399989600001   1.000007321400000 0
ion C  -2.333816550000000   6.737170909500000   1.000007321400000 0
ion C   9.335303994599995  18.864097443900000   1.000007321400000 0
ion C  -7.001487444600000  22.906399989600001   1.000007321400000 0
ion C   7.001487444600000  22.906399989600001   1.000007321400000 0
ion C   2.333816550000000   6.737170909500000   1.000007321400000 0
ion C  -9.335303994599998  18.864097443900000   1.000007321400000 0
ion C  -4.667670894599997  10.779473455200000   1.000007321400000 0
ion C  -2.333816550000000  22.906399989600001   1.000007321400000 0
ion C   2.333816550000000  22.906399989600001   1.000007321400000 0
ion C  -7.001487444600004  14.821794898200000   1.000007321400000 0
ion C   4.667670894600000   2.694868363800000   1.000007321400000 0
ion C  23.338259986499999   2.694868363800000   1.000007321400000 0
ion C  14.002974889199999  18.864097443900000   1.000007321400000 0
ion C   0.000000000000000  10.779473455200000   1.000007321400000 0
ion C   4.667670894600001  18.864097443900000   1.000007321400000 0
ion C  -4.667633100000004  18.864097443900000   1.000007321400000 0
ion C  -2.333816550000003  14.821794898200000   1.000007321400000 0
ion C   2.333816549999995  14.821794898200000   1.000007321400000 0
ion C  -0.000000000000005  18.864097443900000   1.000007321400000 0
ion C   9.335303994599998   2.694868363800000   1.000007321400000 0
ion C  21.004424539199999   6.737170909500000   1.000007321400000 0
ion C  11.669120544600000  14.821794898200000   1.000007321400000 0
ion C  16.336791439199999  14.821794898200000   1.000007321400000 0
ion C  18.670607989199997   2.694868363800000   1.000007321400000 0
ion C   7.001487444600001   6.737170909500000   1.000007321400000 0
ion C  14.002955991899999   2.694868363800000   1.000007321400000 0
ion C  18.670607989200004  10.779473455200000   1.000007321400000 0
ion C  11.669120544599998   6.737170909500000   1.000007321400000 0
ion C  16.336791439199999   6.737170909500000   1.000007321400000 0
ion C  14.002955991899999  10.779473455200000   1.000007321400000 0
ion N   4.667670894599999   8.084623988700001   1.000007321400000 0
ion N   2.333816549999999  12.126907637100000   1.000007321400000 0
ion N   7.001487444599997  14.821794898200000   1.000007321400000 0
ion N   9.335303994599997  10.779473455200000   1.000007321400000 0
ion Fe   5.837111407799997  11.454314935499999   1.000007321400000 0
ion S   5.466065419997765  11.365573224623040   5.329238077426139 1
ion S   8.064541783432908  13.512838723941043   7.420854290113463 1
ion S   9.851948827668650  11.185168858509263  10.097411639798723 1
ion S  12.837242641842744   9.172761017674818   8.498466517899811 1
ion Na   8.679541789284103   7.220144093188718   6.202193379144772 1
ion Na  13.381463663712369  13.415016010744717   5.800484201510812 1

# Forces in Cartesian coordinates:
force C   0.003813771842889  -0.000267262753557  -0.000026518724349 0
force C   0.001124151023622  -0.001107943016281  -0.000010770909286 0
force C   0.003069107577418  -0.001740208304687  -0.000042424017439 0
force C   0.001613337999359   0.002262985243425  -0.000014741981960 0
force C   0.001553001237700  -0.000462643097860  -0.000002579815128 0
force C   0.004486200175425   0.001936144369277   0.000370876764952 0
force C   0.000925468617232  -0.000169355962012  -0.000000574711704 0
force C  -0.000919359110786   0.001810954212030  -0.000003071935999 0
force C  -0.038251518050494  -0.014061685003228   0.000046580102920 0
force C  -0.000976500701172  -0.000822446455443   0.000131000979228 0
force C  -0.000828575544663  -0.000116795912948   0.000002832913610 0
force C   0.001929069808062   0.001682282349396   0.000341818293510 0
force C   0.002101339489481   0.002829053548308  -0.000059255853354 0
force C  -0.000483107599648  -0.000606868967778  -0.000027389074036 0
force C   0.010780047817591   0.005803921504897   0.000234346905048 0
force C   0.002412910008527   0.001827338463588   0.000047145993615 0
force C   0.001848781945467   0.000191891315744   0.000011670611293 0
force C   0.004419775331386   0.004159869800276   0.000420789148910 0
force C   0.031476837464712   0.009466363426416   0.000509281483058 0
force C  -0.000085098916431  -0.000710922777479  -0.000031616391004 0
force C  -0.003165531320983   0.000345845905880  -0.000023723715568 0
force C   0.001928448462840  -0.000078122068122  -0.000008355701337 0
force C   0.004920112315357   0.001995192828058   0.000529049594355 0
force C   0.001335530995868   0.000528613995843  -0.000011347236292 0
force C  -0.000213809249636   0.001590007906709  -0.000271353776714 0
force C   0.006817341899952   0.001300932838637   0.000467408609552 0
force C   0.000412096607389  -0.002229513884426  -0.000071154757823 0
force C   0.001411570574043   0.002321899031676   0.000041257947987 0
force C  -0.031666103105507  -0.024420071858830  -0.001524632108581 0
force C   0.000849466986248   0.002079019264737  -0.000240409712336 0
force C  -0.001253653363737  -0.000513396776430   0.000071667649880 0
force C   0.022294002189072   0.023131293331873   0.000080109701954 0
force C   0.004591055629275  -0.000953332996054  -0.000132869841181 0
force C  -0.003196595055508   0.002419367762606  -0.000005750305606 0
force C  -0.003631725654903   0.000207771145918   0.000015701850317 0
force C  -0.002515232140985   0.000107073493420   0.000039220951266 0
force C   0.002320028534179   0.000953542852636   0.000003138979451 0
force C  -0.005267561650127  -0.001981461962838   0.000362763250091 0
force C   0.000467744243313   0.000888176319420  -0.000013019550969 0
force C  -0.000624949403655  -0.002057891212573  -0.000016749220005 0
force C   0.033443098832619   0.014668478623288   0.000345811693043 0
force C  -0.001528844053987  -0.000769669015790  -0.000094632409203 0
force C  -0.000137217274561  -0.004157520870827  -0.000020369457417 0
force C   0.000661017884102   0.000068032090486  -0.000020574985846 0
force C   0.000944729717578  -0.000276023452482  -0.000019459283131 0
force C  -0.000414992744721  -0.001333103678321  -0.000037310580899 0
force C  -0.003351631619214  -0.002762637193450   0.000029932643900 0
force C  -0.000548826092783   0.000683347235626   0.000002907671692 0
force C  -0.001252615703844   0.002935748775377   0.000390587172549 0
force C   0.030960873665589   0.023363675198154   0.000239066515532 0
force C  -0.004619593716444  -0.005974611523921   0.000450062517198 0
force C   0.000361326813681   0.000309812740987  -0.000001592569481 0
force C  -0.002468616519653  -0.001795632588885  -0.000042315871016 0
force C  -0.023561380886405  -0.023841815638584   0.000335355093585 0
force C   0.001276095027298   0.002717255006980  -0.000059565627509 0
force C   0.001805186807810  -0.001233787273972   0.000020395638206 0
force C   0.000365020815953  -0.000348344592107   0.000019145135451 0
force C  -0.013585950460319  -0.006253402805820  -0.000041973358475 0
force C   0.001844799790414  -0.000417877269149   0.000255785907414 0
force C  -0.000744768478677  -0.001047799904661  -0.000005142635581 0
force C  -0.031717628032132  -0.006578528186964   0.000681290839965 0
force C   0.001376397070610   0.000941999184600   0.000190663542358 0
force C  -0.000115673924935  -0.004723256428046   0.000328495264990 0
force C  -0.004480583830282  -0.002696693284658  -0.000282983100405 0
force C  -0.003914692669660   0.000531505129668  -0.000018920095883 0
force C  -0.003735849306919  -0.004533721068648  -0.000803884419930 0
force N   0.024522517439302  -0.033826747391079  -0.011817128550077 0
force N  -0.020194680860091   0.040666726582991  -0.013924304595927 0
force N  -0.024151622550448   0.036129327890711  -0.011493486844848 0
force N   0.015576196862253  -0.037180648781325  -0.010941671776608 0
force Fe   0.003012085993405  -0.000845566095631   0.045426274363340 0
force S   0.000003116332166   0.000339603067996  -0.000168122478571 1
force S  -0.000051190730332  -0.000449343399696   0.000246160237656 1
force S   0.000609509861006   0.000127158118691  -0.001685910711716 1
force S  -0.001165561734614   0.000460177888313  -0.000023235996313 1
force Na  -0.000419853312055  -0.000561585877418  -0.000396813581254 1
force Na   0.000031963566607   0.000393722308255   0.000588094342490 1

# Energy components:
   Eewald =    -1487.5928907096076728
       EH =     -956.0049434372464248
     Eloc =     1700.1090190880202044
      Enl =      -58.7502914826262526
     EvdW =       -0.1244624902466110
      Exc =     -176.2177616228927945
 Exc_core =       10.4335677073748929
       KE =      290.3496768752426647
-------------------------------------
     Etot =     -677.7980860719819702
       TS =        0.0728884636147402
-------------------------------------
        F =     -677.8709745355967016

IonicMinimize: Iter:   1  F: -677.870974535596702  |grad|_K:  5.944e-04  alpha:  1.218e+01  linmin: -5.785e-04  t[s]:    266.38

#--- Lowdin population analysis ---
# oxidation-state C +0.043 +0.035 +0.033 +0.033 +0.038 +0.022 +0.033 +0.035 +0.139 +0.035 +0.039 +0.028 +0.042 +0.039 +0.010 +0.048 +0.041 +0.028 +0.130 +0.039 +0.035 +0.034 +0.011 +0.046 +0.007 +0.037 +0.020 +0.037 +0.102 +0.005 +0.037 +0.081 +0.040 +0.037 +0.043 +0.035 +0.051 +0.024 +0.035 +0.036 +0.144 +0.042 +0.038 +0.039 +0.040 +0.035 +0.038 +0.038 +0.023 +0.150 +0.036 +0.038 +0.050 +0.132 +0.036 +0.018 +0.038 -0.037 -0.001 +0.044 +0.082 +0.038 +0.039 +0.013 +0.037 -0.008
# oxidation-state N -0.130 -0.118 -0.121 -0.135
# oxidation-state Fe -0.007
# oxidation-state S -0.058 +0.015 +0.044 -0.520
# oxidation-state Na +0.781 +0.792


Computing DFT-D3 correction:
# coordination-number C 3.300 3.300 3.303 3.300 3.300 3.289 3.302 3.300 3.312 3.302 3.300 3.309 3.301 3.300 3.272 3.298 3.300 3.287 3.481 3.300 3.300 3.300 3.385 3.300 3.687 3.288 3.339 3.302 3.891 3.559 3.301 4.068 3.329 3.300 3.300 3.300 3.300 3.291 3.300 3.300 3.281 3.301 3.300 3.300 3.300 3.301 3.304 3.300 3.316 3.277 3.289 3.300 3.298 3.481 3.300 3.331 3.300 3.861 3.548 3.300 3.943 3.302 3.310 3.463 3.304 3.711
# coordination-number N 3.227 3.195 3.179 3.267
# coordination-number Fe 6.053
# coordination-number S 3.076 3.158 3.361 2.952
# coordination-number Na 4.701 5.226
# diagonal-C6 C 24.28 24.29 24.26 24.28 24.28 24.38 24.27 24.28 24.16 24.27 24.28 24.20 24.27 24.28 24.53 24.30 24.28 24.40 21.92 24.28 24.28 24.28 23.31 24.28 19.41 24.39 23.87 24.26 18.48 20.79 24.27 18.28 23.99 24.28 24.28 24.28 24.29 24.36 24.28 24.28 24.46 24.27 24.28 24.28 24.28 24.27 24.24 24.29 24.12 24.49 24.39 24.28 24.30 21.92 24.28 23.97 24.28 18.55 20.95 24.28 18.39 24.26 24.19 22.20 24.25 19.23
# diagonal-C6 N 15.60 15.60 15.60 15.59
# diagonal-C6 Fe 109.50
# diagonal-C6 S 125.81 125.81 125.81 125.81
# diagonal-C6 Na 186.11 186.11
EvdW_6 =   -0.064723
EvdW_8 =   -0.059820

-------- Electronic minimization -----------
Will mix electronic density at each iteration.
	FillingsUpdate:  mu: -0.152610138  nElectrons: 342.000000
	FillingsUpdate:  mu: -0.155922219  nElectrons: 342.000000
SCF: Cycle:  0   F: -677.846660543247253   dF: -2.377e-03   |Residual|: 9.633e-02   |deigs|: 3.509e-04  t[s]:    272.92
	FillingsUpdate:  mu: -0.144660731  nElectrons: 342.000000
SCF: Cycle:  1   F: -676.852640778096884   dF: +9.940e-01   |Residual|: 5.700e-01   |deigs|: 4.945e-03  t[s]:    276.31
	FillingsUpdate:  mu: -0.155285550  nElectrons: 342.000000
SCF: Cycle:  2   F: -677.865029489545918   dF: -1.012e+00   |Residual|: 4.798e-02   |deigs|: 4.657e-03  t[s]:    279.67
	FillingsUpdate:  mu: -0.154640523  nElectrons: 342.000000
SCF: Cycle:  3   F: -677.870739399132844   dF: -5.710e-03   |Residual|: 8.555e-03   |deigs|: 5.386e-04  t[s]:    282.99
	FillingsUpdate:  mu: -0.154591138  nElectrons: 342.000000
SCF: Cycle:  4   F: -677.870771192100960   dF: -3.179e-05   |Residual|: 7.196e-03   |deigs|: 2.311e-04  t[s]:    285.26
	FillingsUpdate:  mu: -0.154478386  nElectrons: 342.000000
SCF: Cycle:  5   F: -677.870891951473823   dF: -1.208e-04   |Residual|: 3.338e-03   |deigs|: 2.301e-04  t[s]:    288.13
	FillingsUpdate:  mu: -0.154304653  nElectrons: 342.000000
SCF: Cycle:  6   F: -677.870960374348329   dF: -6.842e-05   |Residual|: 2.022e-03   |deigs|: 2.996e-04  t[s]:    291.04
	FillingsUpdate:  mu: -0.154176267  nElectrons: 342.000000
SCF: Cycle:  7   F: -677.870997222221717   dF: -3.685e-05   |Residual|: 9.665e-04   |deigs|: 3.439e-04  t[s]:    293.95
	FillingsUpdate:  mu: -0.154071317  nElectrons: 342.000000
SCF: Cycle:  8   F: -677.871009777015274   dF: -1.255e-05   |Residual|: 9.337e-04   |deigs|: 2.270e-04  t[s]:    296.85
	FillingsUpdate:  mu: -0.153893638  nElectrons: 342.000000
SCF: Cycle:  9   F: -677.871020039473706   dF: -1.026e-05   |Residual|: 6.982e-04   |deigs|: 2.957e-04  t[s]:    299.78
	FillingsUpdate:  mu: -0.153763894  nElectrons: 342.000000
SCF: Cycle: 10   F: -677.871024469941517   dF: -4.430e-06   |Residual|: 4.449e-04   |deigs|: 1.617e-04  t[s]:    302.65
	FillingsUpdate:  mu: -0.153599175  nElectrons: 342.000000
SCF: Cycle: 11   F: -677.871027015771460   dF: -2.546e-06   |Residual|: 4.832e-04   |deigs|: 1.611e-04  t[s]:    305.54
	FillingsUpdate:  mu: -0.153440279  nElectrons: 342.000000
SCF: Cycle: 12   F: -677.871028315092531   dF: -1.299e-06   |Residual|: 3.373e-04   |deigs|: 2.086e-04  t[s]:    308.45
	FillingsUpdate:  mu: -0.153315710  nElectrons: 342.000000
SCF: Cycle: 13   F: -677.871028706544053   dF: -3.915e-07   |Residual|: 2.684e-04   |deigs|: 2.307e-04  t[s]:    311.38
	FillingsUpdate:  mu: -0.153102561  nElectrons: 342.000000
SCF: Cycle: 14   F: -677.871029084251745   dF: -3.777e-07   |Residual|: 2.203e-04   |deigs|: 4.717e-04  t[s]:    314.32
	FillingsUpdate:  mu: -0.152968216  nElectrons: 342.000000
SCF: Cycle: 15   F: -677.871029306096716   dF: -2.218e-07   |Residual|: 1.809e-04   |deigs|: 2.920e-04  t[s]:    317.22
	FillingsUpdate:  mu: -0.152851983  nElectrons: 342.000000
SCF: Cycle: 16   F: -677.871029445837394   dF: -1.397e-07   |Residual|: 1.176e-04   |deigs|: 2.549e-04  t[s]:    320.15
	FillingsUpdate:  mu: -0.152771729  nElectrons: 342.000000
SCF: Cycle: 17   F: -677.871029454176551   dF: -8.339e-09   |Residual|: 1.883e-04   |deigs|: 2.384e-04  t[s]:    323.06
	FillingsUpdate:  mu: -0.152689511  nElectrons: 342.000000
SCF: Cycle: 18   F: -677.871029526507414   dF: -7.233e-08   |Residual|: 1.365e-04   |deigs|: 3.020e-04  t[s]:    325.98
	FillingsUpdate:  mu: -0.152636013  nElectrons: 342.000000
SCF: Cycle: 19   F: -677.871029569192387   dF: -4.268e-08   |Residual|: 8.923e-05   |deigs|: 2.567e-04  t[s]:    328.90
	FillingsUpdate:  mu: -0.152576818  nElectrons: 342.000000
SCF: Cycle: 20   F: -677.871029593471008   dF: -2.428e-08   |Residual|: 6.536e-05   |deigs|: 2.417e-04  t[s]:    331.81
	FillingsUpdate:  mu: -0.152532676  nElectrons: 342.000000
SCF: Cycle: 21   F: -677.871029629323630   dF: -3.585e-08   |Residual|: 4.283e-05   |deigs|: 1.816e-04  t[s]:    334.73
	FillingsUpdate:  mu: -0.152512181  nElectrons: 342.000000
SCF: Cycle: 22   F: -677.871029670180860   dF: -4.086e-08   |Residual|: 3.408e-05   |deigs|: 1.447e-04  t[s]:    337.62
	FillingsUpdate:  mu: -0.152503635  nElectrons: 342.000000
SCF: Cycle: 23   F: -677.871029679002163   dF: -8.821e-09   |Residual|: 3.396e-05   |deigs|: 8.769e-05  t[s]:    340.48
	FillingsUpdate:  mu: -0.152496672  nElectrons: 342.000000
SCF: Cycle: 24   F: -677.871029680856964   dF: -1.855e-09   |Residual|: 4.090e-05   |deigs|: 7.671e-05  t[s]:    343.38
SCF: Converged (|Delta E|<1.000000e-08 for 2 iters).

Setting wave functions to eigenvectors of Hamiltonian

Computing DFT-D3 correction:
# coordination-number C 3.300 3.300 3.303 3.300 3.300 3.289 3.302 3.300 3.312 3.302 3.300 3.309 3.301 3.300 3.272 3.298 3.300 3.287 3.481 3.300 3.300 3.300 3.388 3.300 3.683 3.288 3.340 3.302 3.883 3.555 3.301 4.072 3.328 3.300 3.300 3.300 3.300 3.291 3.300 3.300 3.281 3.301 3.300 3.300 3.300 3.301 3.304 3.300 3.316 3.277 3.289 3.300 3.298 3.481 3.300 3.332 3.300 3.855 3.545 3.300 3.952 3.302 3.309 3.464 3.303 3.703
# coordination-number N 3.228 3.195 3.179 3.267
# coordination-number Fe 6.054
# coordination-number S 3.076 3.150 3.363 2.951
# coordination-number Na 4.698 5.195
# diagonal-C6 C 24.28 24.29 24.26 24.28 24.28 24.38 24.27 24.28 24.17 24.27 24.28 24.20 24.27 24.28 24.53 24.30 24.28 24.40 21.92 24.28 24.28 24.28 23.27 24.28 19.44 24.39 23.87 24.26 18.50 20.85 24.27 18.27 23.99 24.28 24.28 24.28 24.29 24.36 24.28 24.28 24.46 24.27 24.28 24.28 24.28 24.27 24.24 24.29 24.13 24.49 24.39 24.28 24.30 21.92 24.28 23.96 24.28 18.57 20.99 24.28 18.38 24.26 24.19 22.18 24.25 19.29
# diagonal-C6 N 15.59 15.60 15.60 15.59
# diagonal-C6 Fe 109.50
# diagonal-C6 S 125.81 125.81 125.81 125.81
# diagonal-C6 Na 186.11 186.11
EvdW_6 =   -0.064743
EvdW_8 =   -0.059848

-------- Electronic minimization -----------
Will mix electronic density at each iteration.
	FillingsUpdate:  mu: -0.152496672  nElectrons: 342.000000
	FillingsUpdate:  mu: -0.152391225  nElectrons: 342.000000
SCF: Cycle:  0   F: -677.871014457795923   dF: -1.376e-05   |Residual|: 2.613e-03   |deigs|: 1.006e-05  t[s]:    349.91
	FillingsUpdate:  mu: -0.152191830  nElectrons: 342.000000
SCF: Cycle:  1   F: -677.870624584315806   dF: +3.899e-04   |Residual|: 1.165e-02   |deigs|: 1.227e-04  t[s]:    352.17
	FillingsUpdate:  mu: -0.152390819  nElectrons: 342.000000
SCF: Cycle:  2   F: -677.871030731078463   dF: -4.061e-04   |Residual|: 1.577e-03   |deigs|: 1.222e-04  t[s]:    354.40
	FillingsUpdate:  mu: -0.152368898  nElectrons: 342.000000
SCF: Cycle:  3   F: -677.871038850793980   dF: -8.120e-06   |Residual|: 3.137e-04   |deigs|: 2.233e-05  t[s]:    356.66
	FillingsUpdate:  mu: -0.152368436  nElectrons: 342.000000
[...]
      Enl =      -58.7483308788621059
     EvdW =       -0.1250090730832859
      Exc =     -176.2246073604123637
 Exc_core =       10.4335678966743703
       KE =      290.3656867258708303
-------------------------------------
     Etot =     -677.7986362630474559
       TS =        0.0725784129295800
-------------------------------------
        F =     -677.8712146759770576

IonicMinimize: Iter:  11  F: -677.871214675977058  |grad|_K:  1.313e-04  alpha:  8.195e+00  linmin: -2.119e-04  t[s]:   1260.49

#--- Lowdin population analysis ---
# oxidation-state C +0.043 +0.035 +0.033 +0.033 +0.037 +0.021 +0.032 +0.035 +0.138 +0.034 +0.038 +0.028 +0.042 +0.039 +0.010 +0.048 +0.041 +0.027 +0.129 +0.039 +0.035 +0.034 +0.009 +0.046 +0.006 +0.037 +0.020 +0.037 +0.105 +0.006 +0.038 +0.082 +0.042 +0.036 +0.042 +0.035 +0.050 +0.023 +0.035 +0.036 +0.143 +0.042 +0.038 +0.039 +0.040 +0.035 +0.037 +0.038 +0.022 +0.149 +0.036 +0.038 +0.050 +0.132 +0.036 +0.018 +0.038 -0.037 -0.001 +0.044 +0.078 +0.038 +0.039 +0.016 +0.037 -0.003
# oxidation-state N -0.132 -0.118 -0.121 -0.134
# oxidation-state Fe -0.008
# oxidation-state S -0.053 +0.016 +0.040 -0.521
# oxidation-state Na +0.783 +0.796


Computing DFT-D3 correction:
# coordination-number C 3.300 3.300 3.303 3.301 3.300 3.290 3.302 3.300 3.314 3.302 3.300 3.309 3.301 3.300 3.272 3.298 3.300 3.287 3.482 3.300 3.300 3.300 3.404 3.300 3.703 3.288 3.337 3.302 3.854 3.529 3.301 4.076 3.325 3.300 3.300 3.300 3.300 3.292 3.300 3.300 3.282 3.301 3.300 3.300 3.300 3.301 3.305 3.300 3.318 3.277 3.289 3.300 3.298 3.482 3.300 3.333 3.300 3.867 3.542 3.300 4.007 3.302 3.309 3.448 3.303 3.655
# coordination-number N 3.236 3.198 3.180 3.264
# coordination-number Fe 6.063
# coordination-number S 3.084 3.145 3.402 2.957
# coordination-number Na 4.719 5.138
# diagonal-C6 C 24.28 24.29 24.25 24.28 24.28 24.38 24.26 24.28 24.14 24.27 24.29 24.20 24.27 24.28 24.53 24.30 24.28 24.40 21.91 24.28 24.28 24.28 23.06 24.28 19.29 24.39 23.89 24.27 18.57 21.22 24.28 18.27 24.03 24.28 24.28 24.28 24.29 24.36 24.28 24.28 24.45 24.27 24.28 24.28 24.28 24.27 24.23 24.29 24.11 24.49 24.39 24.28 24.30 21.91 24.28 23.95 24.28 18.54 21.03 24.28 18.32 24.26 24.20 22.42 24.25 19.69
# diagonal-C6 N 15.59 15.60 15.60 15.59
# diagonal-C6 Fe 109.50
# diagonal-C6 S 125.81 125.81 125.81 125.81
# diagonal-C6 Na 186.11 186.11
EvdW_6 =   -0.064937
EvdW_8 =   -0.060077

-------- Electronic minimization -----------
Will mix electronic density at each iteration.
	FillingsUpdate:  mu: -0.151820109  nElectrons: 342.000000
	FillingsUpdate:  mu: -0.151782000  nElectrons: 342.000000
SCF: Cycle:  0   F: -677.871215091734371   dF: -3.466e-06   |Residual|: 7.521e-04   |deigs|: 2.702e-07  t[s]:   1266.06
	FillingsUpdate:  mu: -0.151792842  nElectrons: 342.000000
SCF: Cycle:  1   F: -677.871215211714571   dF: -1.200e-07   |Residual|: 6.280e-04   |deigs|: 7.974e-06  t[s]:   1268.31
	FillingsUpdate:  mu: -0.151745254  nElectrons: 342.000000
SCF: Cycle:  2   F: -677.871195919118009   dF: +1.929e-05   |Residual|: 2.594e-03   |deigs|: 3.078e-05  t[s]:   1270.55
	FillingsUpdate:  mu: -0.151786373  nElectrons: 342.000000
SCF: Cycle:  3   F: -677.871216361045526   dF: -2.044e-05   |Residual|: 1.003e-04   |deigs|: 2.620e-05  t[s]:   1272.78
	FillingsUpdate:  mu: -0.151786212  nElectrons: 342.000000
SCF: Cycle:  4   F: -677.871216390017594   dF: -2.897e-08   |Residual|: 4.150e-05   |deigs|: 6.605e-06  t[s]:   1274.97
	FillingsUpdate:  mu: -0.151786782  nElectrons: 342.000000
SCF: Cycle:  5   F: -677.871216398719184   dF: -8.702e-09   |Residual|: 2.191e-05   |deigs|: 7.735e-06  t[s]:   1277.16
	FillingsUpdate:  mu: -0.151787874  nElectrons: 342.000000
SCF: Cycle:  6   F: -677.871216402121490   dF: -3.402e-09   |Residual|: 2.745e-05   |deigs|: 9.082e-06  t[s]:   1279.40
SCF: Converged (|Delta E|<1.000000e-08 for 2 iters).

Setting wave functions to eigenvectors of Hamiltonian

Computing DFT-D3 correction:
# coordination-number C 3.300 3.300 3.303 3.301 3.300 3.290 3.302 3.300 3.315 3.302 3.300 3.309 3.301 3.300 3.272 3.298 3.300 3.287 3.482 3.300 3.300 3.300 3.403 3.300 3.704 3.288 3.337 3.302 3.855 3.529 3.301 4.076 3.325 3.300 3.300 3.300 3.300 3.292 3.300 3.300 3.282 3.301 3.300 3.300 3.300 3.301 3.305 3.300 3.318 3.277 3.289 3.300 3.298 3.482 3.300 3.333 3.300 3.868 3.542 3.300 4.007 3.302 3.308 3.448 3.303 3.655
# coordination-number N 3.236 3.198 3.180 3.264
# coordination-number Fe 6.063
# coordination-number S 3.084 3.145 3.403 2.957
# coordination-number Na 4.718 5.141
# diagonal-C6 C 24.28 24.29 24.25 24.28 24.28 24.38 24.26 24.28 24.14 24.27 24.29 24.20 24.27 24.28 24.53 24.30 24.28 24.40 21.91 24.28 24.28 24.28 23.06 24.28 19.28 24.39 23.89 24.27 18.57 21.22 24.28 18.27 24.03 24.28 24.28 24.28 24.29 24.36 24.28 24.28 24.45 24.27 24.28 24.28 24.28 24.27 24.23 24.29 24.11 24.49 24.39 24.28 24.30 21.91 24.28 23.95 24.28 18.53 21.03 24.28 18.32 24.26 24.20 22.42 24.25 19.69
# diagonal-C6 N 15.59 15.60 15.60 15.59
# diagonal-C6 Fe 109.50
# diagonal-C6 S 125.81 125.81 125.81 125.81
# diagonal-C6 Na 186.11 186.11
EvdW_6 =   -0.064938
EvdW_8 =   -0.060078

-------- Electronic minimization -----------
Will mix electronic density at each iteration.
	FillingsUpdate:  mu: -0.151787874  nElectrons: 342.000000
	FillingsUpdate:  mu: -0.151787596  nElectrons: 342.000000
SCF: Cycle:  0   F: -677.871215323993056   dF: +8.491e-07   |Residual|: 6.459e-04   |deigs|: 7.763e-08  t[s]:   1285.17
	FillingsUpdate:  mu: -0.151868676  nElectrons: 342.000000
SCF: Cycle:  1   F: -677.871149765262317   dF: +6.556e-05   |Residual|: 4.684e-03   |deigs|: 5.236e-05  t[s]:   1287.43
	FillingsUpdate:  mu: -0.151795812  nElectrons: 342.000000
SCF: Cycle:  2   F: -677.871216618057701   dF: -6.685e-05   |Residual|: 1.117e-04   |deigs|: 4.688e-05  t[s]:   1289.69
	FillingsUpdate:  mu: -0.151796650  nElectrons: 342.000000
SCF: Cycle:  3   F: -677.871216657169271   dF: -3.911e-08   |Residual|: 3.155e-05   |deigs|: 2.129e-06  t[s]:   1291.94
	FillingsUpdate:  mu: -0.151796198  nElectrons: 342.000000
SCF: Cycle:  4   F: -677.871216661682752   dF: -4.513e-09   |Residual|: 1.815e-05   |deigs|: 1.456e-06  t[s]:   1294.20
	FillingsUpdate:  mu: -0.151795626  nElectrons: 342.000000
SCF: Cycle:  5   F: -677.871216661971744   dF: -2.890e-10   |Residual|: 2.558e-05   |deigs|: 1.820e-06  t[s]:   1296.50
SCF: Converged (|Delta E|<1.000000e-08 for 2 iters).

Setting wave functions to eigenvectors of Hamiltonian

Computing DFT-D3 correction:
# coordination-number C 3.300 3.300 3.303 3.301 3.300 3.290 3.302 3.300 3.315 3.302 3.300 3.309 3.301 3.300 3.272 3.298 3.300 3.287 3.482 3.300 3.300 3.300 3.403 3.300 3.704 3.288 3.337 3.302 3.855 3.529 3.301 4.076 3.325 3.300 3.300 3.300 3.300 3.292 3.300 3.300 3.282 3.301 3.300 3.300 3.300 3.301 3.305 3.300 3.318 3.277 3.289 3.300 3.298 3.482 3.300 3.333 3.300 3.868 3.542 3.300 4.007 3.302 3.308 3.448 3.303 3.655
# coordination-number N 3.236 3.198 3.180 3.264
# coordination-number Fe 6.063
# coordination-number S 3.084 3.145 3.403 2.957
# coordination-number Na 4.718 5.141
# diagonal-C6 C 24.28 24.29 24.25 24.28 24.28 24.38 24.26 24.28 24.14 24.27 24.29 24.20 24.27 24.28 24.53 24.30 24.28 24.40 21.91 24.28 24.28 24.28 23.06 24.28 19.28 24.39 23.89 24.27 18.57 21.22 24.28 18.27 24.03 24.28 24.28 24.28 24.29 24.36 24.28 24.28 24.45 24.27 24.28 24.28 24.28 24.27 24.23 24.29 24.11 24.49 24.39 24.28 24.30 21.91 24.28 23.95 24.28 18.53 21.03 24.28 18.32 24.26 24.20 22.42 24.25 19.69
# diagonal-C6 N 15.59 15.60 15.60 15.59
# diagonal-C6 Fe 109.50
# diagonal-C6 S 125.81 125.81 125.81 125.81
# diagonal-C6 Na 186.11 186.11
EvdW_6 =   -0.064938
EvdW_8 =   -0.060078

# Ionic positions in cartesian coordinates:
ion C   0.000000000000000   0.000000000000000   1.000007321400000 0
ion C  -2.333835447300000   4.042302545699999   1.000007321400000 0
ion C  11.669120544600000  20.211531625799999   1.000007321400000 0
ion C   4.667689791900001   0.000000000000000   1.000007321400000 0
ion C  23.338297781100000   0.000000000000000   1.000007321400000 0
ion C   2.333816549999999   4.042302545699999   1.000007321400000 0
ion C -11.669158339200004  20.211531625799999   1.000007321400000 0
ion C  -4.667670894600000   8.084623988700001   1.000007321400000 0
ion C   9.335303994599997  16.169229080099999   1.000007321400000 0
ion C   9.335322891900001   0.000000000000000   1.000007321400000 0
ion C  18.670626886499999   0.000000000000000   1.000007321400000 0
ion C  -9.335322891900001  16.169229080099999   1.000007321400000 0
ion C  -7.001487444600000  12.126907637100000   1.000007321400000 0
ion C  14.002993786499999   0.000000000000000   1.000007321400000 0
ion C   0.000000000000000   8.084623988700001   1.000007321400000 0
ion C   7.001487444599997  20.211531625799999   1.000007321400000 0
ion C  -7.001487444600005  20.211531625799999   1.000007321400000 0
ion C  -2.333816549999999  12.126907637100000   1.000007321400000 0
ion C   4.667670894600002  16.169229080099999   1.000007321400000 0
ion C  -2.333816550000000  20.211531625799999   1.000007321400000 0
ion C   2.333816550000000  20.211531625799999   1.000007321400000 0
ion C  -4.667651997299996  16.169229080099999   1.000007321400000 0
ion C   7.001487444600000   4.042302545699999   1.000007321400000 0
ion C  21.004424539199999   4.042302545699999   1.000007321400000 0
ion C  14.002955991899999  16.169229080099999   1.000007321400000 0
ion C   0.000000000000000  16.169229080099999   1.000007321400000 0
ion C  11.669120544600000   4.042302545699999   1.000007321400000 0
ion C  18.670607989199997   8.084623988700001   1.000007321400000 0
ion C  11.669120544599998  12.126907637100000   1.000007321400000 0
ion C  16.336791439199999  12.126907637100000   1.000007321400000 0
ion C  16.336791439199999   4.042302545699999   1.000007321400000 0
ion C   9.335303994599997   8.084623988700001   1.000007321400000 0
ion C  14.002955991899999   8.084623988700001   1.000007321400000 0
ion C   0.000000000000000   2.694868363800000   1.000007321400000 0
ion C  11.669120544600000  22.906399989600001   1.000007321400000 0
ion C -11.669120544600000  22.906399989600001   1.000007321400000 0
ion C  -2.333816550000000   6.737170909500000   1.000007321400000 0
ion C   9.335303994599995  18.864097443900000   1.000007321400000 0
ion C  -7.001487444600000  22.906399989600001   1.000007321400000 0
ion C   7.001487444600000  22.906399989600001   1.000007321400000 0
ion C   2.333816550000000   6.737170909500000   1.000007321400000 0
ion C  -9.335303994599998  18.864097443900000   1.000007321400000 0
ion C  -4.667670894599997  10.779473455200000   1.000007321400000 0
ion C  -2.333816550000000  22.906399989600001   1.000007321400000 0
ion C   2.333816550000000  22.906399989600001   1.000007321400000 0
ion C  -7.001487444600004  14.821794898200000   1.000007321400000 0
ion C   4.667670894600000   2.694868363800000   1.000007321400000 0
ion C  23.338259986499999   2.694868363800000   1.000007321400000 0
ion C  14.002974889199999  18.864097443900000   1.000007321400000 0
ion C   0.000000000000000  10.779473455200000   1.000007321400000 0
ion C   4.667670894600001  18.864097443900000   1.000007321400000 0
ion C  -4.667633100000004  18.864097443900000   1.000007321400000 0
ion C  -2.333816550000003  14.821794898200000   1.000007321400000 0
ion C   2.333816549999995  14.821794898200000   1.000007321400000 0
ion C  -0.000000000000005  18.864097443900000   1.000007321400000 0
ion C   9.335303994599998   2.694868363800000   1.000007321400000 0
ion C  21.004424539199999   6.737170909500000   1.000007321400000 0
ion C  11.669120544600000  14.821794898200000   1.000007321400000 0
ion C  16.336791439199999  14.821794898200000   1.000007321400000 0
ion C  18.670607989199997   2.694868363800000   1.000007321400000 0
ion C   7.001487444600001   6.737170909500000   1.000007321400000 0
ion C  14.002955991899999   2.694868363800000   1.000007321400000 0
ion C  18.670607989200004  10.779473455200000   1.000007321400000 0
ion C  11.669120544599998   6.737170909500000   1.000007321400000 0
ion C  16.336791439199999   6.737170909500000   1.000007321400000 0
ion C  14.002955991899999  10.779473455200000   1.000007321400000 0
ion N   4.667670894599999   8.084623988700001   1.000007321400000 0
ion N   2.333816549999999  12.126907637100000   1.000007321400000 0
ion N   7.001487444599997  14.821794898200000   1.000007321400000 0
ion N   9.335303994599997  10.779473455200000   1.000007321400000 0
ion Fe   5.837111407799997  11.454314935499999   1.000007321400000 0
ion S   5.415745092229439  11.412615966340212   5.315367994176503 1
ion S   8.025679915390590  13.550337576687594   7.375655103059852 1
ion S   9.889219499542140  11.207899174509947   9.980460707342989 1
ion S  12.752419594503703   9.139736677244036   8.261050773420930 1
ion Na   8.505032689655028   7.170438188593785   6.146978144034912 1
ion Na  13.356595179761509  13.539685248898936   5.847711923439428 1

# Forces in Cartesian coordinates:
force C   0.003809235703201  -0.000268809835113  -0.000039919466787 0
force C   0.001099228652018  -0.001100723830877  -0.000023788315274 0
force C   0.003061656897831  -0.001726583013450  -0.000044362498981 0
force C   0.001581943745197   0.002272632898249  -0.000024383462042 0
force C   0.001561246607813  -0.000435907148962  -0.000014602636493 0
force C   0.004406413440949   0.001939307913673   0.000349190720414 0
force C   0.000915214319269  -0.000141257969546  -0.000006820896792 0
force C  -0.000928833289265   0.001782910119731  -0.000015095519115 0
force C  -0.038321111854361  -0.014053837843165  -0.000006503477462 0
force C  -0.000994156575405  -0.000868191696559   0.000122011344623 0
force C  -0.000810435912807  -0.000104894908051  -0.000008886457433 0
force C   0.001950305593882   0.001719328313831   0.000330236639528 0
force C   0.002098691748681   0.002804175335325  -0.000070038352604 0
force C  -0.000459353420122  -0.000580987134784  -0.000039685855431 0
force C   0.010822863366686   0.005766628705642   0.000233104454573 0
force C   0.002418492855475   0.001843598269056   0.000036942778003 0
force C   0.001844058763426   0.000207238339223   0.000003557089474 0
force C   0.004394300250615   0.004152564722976   0.000429502060436 0
force C   0.031378894410419   0.009474344634450   0.000458350770069 0
force C  -0.000103523370435  -0.000695024068827  -0.000048249343693 0
force C  -0.003139498419063   0.000352203769257  -0.000038650258781 0
force C   0.001921480440898  -0.000081173403816  -0.000022722231151 0
force C   0.004984410348512   0.001750550959870   0.000515570305299 0
force C   0.001324330924121   0.000561428417425  -0.000022560497873 0
force C  -0.000125371817178   0.001551067804425  -0.000211209966323 0
force C   0.006794816253583   0.001301279810249   0.000464877784591 0
force C   0.000451382763483  -0.002035211057375  -0.000146811446282 0
force C   0.001351386262444   0.002315700484797   0.000043111319174 0
force C  -0.031462566825410  -0.024628246489124  -0.001386371959304 0
force C   0.000609357242249   0.001947620060611  -0.000278068202286 0
force C  -0.001258394675434  -0.000467516871458   0.000067641447195 0
force C   0.022669845479150   0.023328356396836  -0.000112895000969 0
force C   0.004383932391122  -0.000732318927492  -0.000175139605887 0
force C  -0.003199785854485   0.002405857683502  -0.000013031471880 0
force C  -0.003642076081590   0.000216592022037   0.000004538545337 0
force C  -0.002518412812008   0.000096610121967   0.000028600873068 0
force C   0.002277491065325   0.000946275247412  -0.000008173949179 0
force C  -0.005312523119950  -0.002008861504796   0.000363257068405 0
force C   0.000524955590402   0.000852770646527  -0.000028496570824 0
force C  -0.000648909573253  -0.002067524829940  -0.000029264844468 0
force C   0.033276184682485   0.014648064590686   0.000321592292188 0
force C  -0.001496924113709  -0.000804535341732  -0.000109817207750 0
force C  -0.000135548216473  -0.004122674006831  -0.000028274944125 0
force C   0.000664602390116   0.000059884627699  -0.000035024348611 0
force C   0.000924399117510  -0.000276225930194  -0.000032326086215 0
force C  -0.000409310534741  -0.001343091058151  -0.000045341627707 0
force C  -0.003406215200927  -0.002878235122318   0.000021853950208 0
force C  -0.000545514471428   0.000660931605795  -0.000008142038341 0
force C  -0.001239446879553   0.003025596146901   0.000384679685050 0
force C   0.030966827482155   0.023401825419373   0.000200197265724 0
force C  -0.004631381669795  -0.005964088220785   0.000441856861194 0
force C   0.000379436081004   0.000298139757501  -0.000013426932053 0
force C  -0.002466788162686  -0.001772221480777  -0.000057317214171 0
force C  -0.023551376909068  -0.023741658294932   0.000238317109914 0
force C   0.001279396574707   0.002684032569139  -0.000077377342062 0
force C   0.001926816123072  -0.001251656811297   0.000019178483418 0
force C   0.000366524423006  -0.000366664541155   0.000003405736594 0
force C  -0.013674739599047  -0.006488708121315   0.000002366955005 0
force C   0.001855489277071  -0.000582581159469   0.000304708184251 0
force C  -0.000762190967767  -0.001046397097294  -0.000019107163698 0
force C  -0.031451148775265  -0.006466211127446   0.000490762778879 0
force C   0.001341100169554   0.000961068637126   0.000187093713439 0
force C  -0.000176070369234  -0.004673864563571   0.000317017498313 0
force C  -0.004455952019460  -0.002688272884738  -0.000381191769027 0
force C  -0.003902617845127   0.000515249809521  -0.000027187615173 0
force C  -0.003762477967780  -0.004557118369463  -0.000993148974314 0
force N   0.024365482933006  -0.033667175154963  -0.011735511123153 0
force N  -0.020592249237823   0.040672782225839  -0.014535760581378 0
force N  -0.024016939516512   0.036137226439320  -0.011839394967776 0
force N   0.015440660865747  -0.037272383086568  -0.010571343068456 0
force Fe   0.002611297826873  -0.000352010145461   0.044935643931335 0
force S   0.000090564787545  -0.000013414740667  -0.000053066445056 1
force S  -0.000031499733381   0.000175566726807  -0.000142901317988 1
force S  -0.000054889404226  -0.000219828087849   0.000127324752241 1
force S   0.000083633297913  -0.000102605092267  -0.000070773249957 1
force Na   0.000031320975855   0.000003174060382  -0.000021184491435 1
force Na  -0.000069012576961   0.000078911211214  -0.000006322303525 1

# Energy components:
   Eewald =    -1480.2776659138962714
       EH =     -948.4446092666815957
     Eloc =     1685.2213868524377176
      Enl =      -58.7484421945135011
     EvdW =       -0.1250160997362606
      Exc =     -176.2251623320526051
 Exc_core =       10.4335678753864673
       KE =      290.3672798309511336
-------------------------------------
     Etot =     -677.7986612481050770
       TS =        0.0725554138666257
-------------------------------------
        F =     -677.8712166619717436

IonicMinimize: Iter:  12  F: -677.871216661971744  |grad|_K:  9.603e-05  alpha:  1.081e+01  linmin: -5.875e-04  t[s]:   1299.48
IonicMinimize: Converged (|grad|_K<1.000000e-04).

#--- Lowdin population analysis ---
# oxidation-state C +0.043 +0.035 +0.033 +0.033 +0.037 +0.021 +0.032 +0.035 +0.138 +0.034 +0.038 +0.028 +0.042 +0.039 +0.010 +0.048 +0.041 +0.027 +0.129 +0.039 +0.035 +0.034 +0.009 +0.046 +0.006 +0.037 +0.020 +0.037 +0.105 +0.007 +0.038 +0.082 +0.042 +0.036 +0.042 +0.035 +0.050 +0.023 +0.035 +0.036 +0.143 +0.042 +0.038 +0.039 +0.040 +0.035 +0.037 +0.038 +0.022 +0.149 +0.036 +0.038 +0.050 +0.132 +0.036 +0.018 +0.038 -0.037 -0.001 +0.044 +0.078 +0.038 +0.039 +0.016 +0.037 -0.003
# oxidation-state N -0.132 -0.118 -0.121 -0.134
# oxidation-state Fe -0.009
# oxidation-state S -0.052 +0.016 +0.039 -0.521
# oxidation-state Na +0.783 +0.796


Dumping 'Na2S4@FeN4-vdw.fillings' ... done
Dumping 'Na2S4@FeN4-vdw.wfns' ... done
Dumping 'Na2S4@FeN4-vdw.ionpos' ... done
Dumping 'Na2S4@FeN4-vdw.eigenvals' ... done
End date and time: Wed Jan 15 17:52:12 2025  (Duration: 0-0:21:41.49)
Done!
