
*************** JDFTx 1.7.0  ***************

Start date and time: Sat Jan 18 19:28:45 2025
Executable jdftx_gpu with command-line: -i /home/akim2/JDFTx/Na2S2@FeN4-PC-vdw/Na2S2@FeN4-PC-vdw.in -o /home/akim2/JDFTx/Na2S2@FeN4-PC-vdw/Na2S2@FeN4-PC-vdw.out
Running on hosts (process indices):  exp-3-57 (0)
Divided in process groups (process indices):  0 (0)
gpuInit: Found compatible cuda device 0 'Tesla V100-SXM2-32GB'
gpuInit: Selected device 0
Resource initialization completed at t[s]:      0.67
Run totals: 1 processes, 1 threads, 1 GPUs


Input parsed successfully to the following command list (including defaults):

basis kpoint-dependent
coords-type Cartesian
core-overlap-check vector
coulomb-interaction Slab 001
coulomb-truncation-embed 0 0 4
davidson-band-ratio 1.1
dump End State
dump-name Na2S2@FeN4-PC-vdw.$VAR
elec-cutoff 20 100
elec-eigen-algo Davidson
elec-ex-corr gga-PBE
elec-smearing Fermi 0.01
electronic-minimize  \
	dirUpdateScheme      FletcherReeves \
	linminMethod         DirUpdateRecommended \
	nIterations          100 \
	history              15 \
	knormThreshold       0 \
	energyDiffThreshold  1e-08 \
	nEnergyDiff          2 \
	alphaTstart          1 \
	alphaTmin            1e-10 \
	updateTestStepSize   yes \
	alphaTreduceFactor   0.1 \
	alphaTincreaseFactor 3 \
	nAlphaAdjustMax      3 \
	wolfeEnergy          0.0001 \
	wolfeGradient        0.9 \
	fdTest               no
exchange-regularization WignerSeitzTruncated
fluid LinearPCM 298.000000 1.013250
fluid-ex-corr lda-TF lda-PZ
fluid-gummel-loop 10 1.000000e-05
fluid-minimize  \
	dirUpdateScheme      PolakRibiere \
	linminMethod         DirUpdateRecommended \
	nIterations          400 \
	history              15 \
	knormThreshold       1e-11 \
	energyDiffThreshold  0 \
	nEnergyDiff          2 \
	alphaTstart          1 \
	alphaTmin            1e-10 \
	updateTestStepSize   yes \
	alphaTreduceFactor   0.1 \
	alphaTincreaseFactor 3 \
	nAlphaAdjustMax      6 \
	wolfeEnergy          0.0001 \
	wolfeGradient        0.9 \
	fdTest               no
fluid-solvent PC 11.6429 ScalarEOS \
	epsBulk 64 \
	pMol 2.95 \
	epsInf 2.02 \
	Pvap 1.53277e-13 \
	sigmaBulk 2.88e-05 \
	Rvdw 0 \
	Res 0 \
	tauNuc 343133
forces-output-coords Positions
ion C   0.000000000000000   0.000000000000000   1.000001652210000 0
ion C  -2.333831667840000   4.042310104620000   1.000001652210000 0
ion C  11.669128103520009  20.211535405260001   1.000001652210000 0
ion C   4.667680343250000   0.000000000000000   1.000001652210000 0
ion C  23.338288332449999   0.000000000000000   1.000001652210000 0
ion C   2.333822219190000   4.042310104620000   1.000001652210000 0
ion C -11.669150780279990  20.211535405260001   1.000001652210000 0
ion C  -4.667665225410000   8.084622098970000   1.000001652210000 0
ion C   9.335305884330001  16.169223410910011   1.000001652210000 0
ion C   9.335322891900001   0.000000000000000   1.000001652210000 0
ion C  18.670626886499999   0.000000000000000   1.000001652210000 0
ion C  -9.335317222710000  16.169223410910011   1.000001652210000 0
ion C  -7.001485554870001  12.126913306290001   1.000001652210000 0
ion C  14.002984337850000   0.000000000000000   1.000001652210000 0
ion C   0.000000000000000   8.084622098970000   1.000001652210000 0
ion C   7.001485554870008  20.211535405260001   1.000001652210000 0
ion C  -7.001481775409990  20.211535405260001   1.000001652210000 0
ion C  -2.333822219189998  12.126913306290001   1.000001652210000 0
ion C   4.667663335679999  16.169223410910011   1.000001652210000 0
ion C  -2.333820329459989  20.211535405260001   1.000001652210000 0
ion C   2.333824108920002  20.211535405260001   1.000001652210000 0
ion C  -4.667659556220000  16.169223410910011   1.000001652210000 0
ion C   7.001483665139999   4.042310104620000   1.000001652210000 0
ion C  21.004430208390001   4.042310104620000   1.000001652210000 0
ion C  14.002948432980006  16.169223410910011   1.000001652210000 0
ion C   0.000001889729997  16.169223410910011   1.000001652210000 0
ion C  11.669126213789999   4.042310104620000   1.000001652210000 0
ion C  18.670609878930001   8.084622098970000   1.000001652210000 0
ion C  11.669126213789998  12.126913306290001   1.000001652210000 0
ion C  16.336787659739997  12.126913306290001   1.000001652210000 0
ion C  16.336789549470002   4.042310104620000   1.000001652210000 0
ion C   9.335303994600004   8.084622098970000   1.000001652210000 0
ion C  14.002948432980002   8.084622098970000   1.000001652210000 0
ion C   0.000000000000000   2.694874032990001   1.000001652210000 0
ion C  11.669128103519997  22.906390540950021   1.000001652210000 0
ion C -11.669124324059998  22.906390540950021   1.000001652210000 0
ion C  -2.333822219190000   6.737165240310008   1.000001652210000 0
ion C   9.335305884330001  18.864097443900004   1.000001652210000 0
ion C  -7.001481775409997  22.906390540950021   1.000001652210000 0
ion C   7.001485554870007  22.906390540950021   1.000001652210000 0
ion C   2.333822219190000   6.737165240310008   1.000001652210000 0
ion C  -9.335302104869990  18.864097443900004   1.000001652210000 0
ion C  -4.667661445950001  10.779477234660011   1.000001652210000 0
ion C  -2.333820329460000  22.906390540950021   1.000001652210000 0
ion C   2.333824108919996  22.906390540950021   1.000001652210000 0
ion C  -7.001483665140001  14.821787339280014   1.000001652210000 0
ion C   4.667661445950001   2.694874032990001   1.000001652210000 0
ion C  23.338269435150014   2.694874032990001   1.000001652210000 0
ion C  14.002967330280004  18.864097443900004   1.000001652210000 0
ion C  -0.000000000000001  10.779477234660011   1.000001652210000 0
ion C   4.667663335679999  18.864097443900004   1.000001652210000 0
ion C  -4.667640658919992  18.864097443900004   1.000001652210000 0
ion C  -2.333822219190002  14.821787339280014   1.000001652210000 0
ion C   2.333824108919995  14.821787339280014   1.000001652210000 0
ion C   0.000001889729999  18.864097443900004   1.000001652210000 0
ion C   9.335303994599997   2.694874032990001   1.000001652210000 0
ion C  21.004430208389998   6.737165240310008   1.000001652210000 0
ion C  11.669126213790001  14.821787339280014   1.000001652210000 0
ion C  16.336789549469998  14.821787339280014   1.000001652210000 0
ion C  18.670609878930012   2.694874032990001   1.000001652210000 0
ion C   7.001483665139997   6.737165240310008   1.000001652210000 0
ion C  14.002946543250001   2.694874032990001   1.000001652210000 0
ion C  18.670607989200008  10.779477234660011   1.000001652210000 0
ion C  11.669126213789998   6.737165240310008   1.000001652210000 0
ion C  16.336787659740001   6.737165240310008   1.000001652210000 0
ion C  14.002946543249999  10.779477234660011   1.000001652210000 0
ion N   4.667661445950002   8.084622098970000   1.000001652210000 0
ion N   2.333822219190005  12.126913306290001   1.000001652210000 0
ion N   7.001485554869992  14.821787339280014   1.000001652210000 0
ion N   9.335305884329998  10.779477234660011   1.000001652210000 0
ion Fe   5.837109518069997  11.454309266310009   1.000001652210000 0
ion S   8.138916597011587   8.960482316913682   7.052200725372834 1
ion S   5.661137585662877  11.475093044962396   5.328066689070572 1
ion Na  10.297853692373135  13.698298850987012   6.825328246636916 1
ion Na   3.443906505856881   6.793908156610246   7.018922881486036 1
ion-species GBRV/$ID_pbe.uspp
ion-width Ecut
ionic-minimize  \
	dirUpdateScheme      FletcherReeves \
	linminMethod         DirUpdateRecommended \
	nIterations          200 \
	history              15 \
	knormThreshold       0.0001 \
	energyDiffThreshold  1e-06 \
	nEnergyDiff          2 \
	alphaTstart          1 \
	alphaTmin            1e-10 \
	updateTestStepSize   yes \
	alphaTreduceFactor   0.1 \
	alphaTincreaseFactor 3 \
	nAlphaAdjustMax      3 \
	wolfeEnergy          0.0001 \
	wolfeGradient        0.9 \
	fdTest               no
kpoint   0.000000000000   0.000000000000   0.000000000000  1.00000000000000
kpoint-folding 1 1 1 
latt-move-scale 1 1 1
latt-scale 1 1 1 
lattice Triclinic 28.0058 28.0058 32.1253 90 90 120
lattice-minimize  \
	dirUpdateScheme      L-BFGS \
	linminMethod         DirUpdateRecommended \
	nIterations          0 \
	history              15 \
	knormThreshold       0 \
	energyDiffThreshold  1e-06 \
	nEnergyDiff          2 \
	alphaTstart          1 \
	alphaTmin            1e-10 \
	updateTestStepSize   yes \
	alphaTreduceFactor   0.1 \
	alphaTincreaseFactor 3 \
	nAlphaAdjustMax      3 \
	wolfeEnergy          0.0001 \
	wolfeGradient        0.9 \
	fdTest               no
lcao-params -1 1e-06 0.01
pcm-variant GLSSA13
spintype no-spin
subspace-rotation-factor 1 yes
symmetries automatic
symmetry-threshold 0.0001
van-der-waals D3



---------- Setting up symmetries ----------

Found 24 point-group symmetries of the bravais lattice
Found 1 space-group symmetries with basis
Applied RMS atom displacement 0 bohrs to make symmetries exact.

---------- Initializing the Grid ----------
R = 
[      28.0058     -14.0029            0  ]
[            0      24.2537            0  ]
[            0            0      32.1253  ]
unit cell volume = 21821
G =
[   0.224353    0.12953         -0  ]
[          0   0.259061          0  ]
[          0         -0   0.195584  ]
Minimum fftbox size, Smin = [  128  128  148  ]
Chosen fftbox size, S = [  128  128  150  ]

---------- Initializing tighter grid for wavefunction operations ----------
R = 
[      28.0058     -14.0029            0  ]
[            0      24.2537            0  ]
[            0            0      32.1253  ]
unit cell volume = 21821
G =
[   0.224353    0.12953         -0  ]
[          0   0.259061          0  ]
[          0         -0   0.195584  ]
Minimum fftbox size, Smin = [  116  116  132  ]
Chosen fftbox size, S = [  120  120  140  ]

---------- Exchange Correlation functional ----------
Initalized PBE GGA exchange.
Initalized PBE GGA correlation.

---------- Setting up pseudopotentials ----------
Width of ionic core gaussian charges (only for fluid interactions / plotting) set to 0.397384

Reading pseudopotential file '/home/akim2/jdftx_install/build/pseudopotentials/GBRV/c_pbe.uspp':
  Title: C.  Created by USPP 7.3.6 on 3-2-2014
  Reference state energy: -5.406344.  4 valence electrons in orbitals:
    |200>  occupation: 2  eigenvalue: -0.504890
    |210>  occupation: 2  eigenvalue: -0.194356
  lMax: 1  lLocal: 2  QijEcut: 5
  4 projectors sampled on a log grid with 503 points:
    l: 0  eig: -0.504890  rCut: 1.3
    l: 0  eig: 0.000000  rCut: 1.3
    l: 1  eig: -0.194357  rCut: 1.3
    l: 1  eig: 0.000000  rCut: 1.3
  Partial core density with radius 1.1
  Transforming core density to a uniform radial grid of dG=0.02 with 1618 points.
  Transforming local potential to a uniform radial grid of dG=0.02 with 1618 points.
  Transforming nonlocal projectors to a uniform radial grid of dG=0.02 with 432 points.
  Transforming density augmentations to a uniform radial grid of dG=0.02 with 1618 points.
  Transforming atomic orbitals to a uniform radial grid of dG=0.02 with 432 points.
  Core radius for overlap checks: 1.30 bohrs.

Reading pseudopotential file '/home/akim2/jdftx_install/build/pseudopotentials/GBRV/n_pbe.uspp':
  Title: N.  Created by USPP 7.3.6 on 3-2-2014
  Reference state energy: -9.763716.  5 valence electrons in orbitals:
    |200>  occupation: 2  eigenvalue: -0.681964
    |210>  occupation: 3  eigenvalue: -0.260726
  lMax: 1  lLocal: 2  QijEcut: 6
  4 projectors sampled on a log grid with 491 points:
    l: 0  eig: -0.681964  rCut: 1.15
    l: 0  eig: 0.000000  rCut: 1.15
    l: 1  eig: -0.260729  rCut: 1.2
    l: 1  eig: 0.500000  rCut: 1.2
  Partial core density with radius 0.8
  Transforming core density to a uniform radial grid of dG=0.02 with 1618 points.
  Transforming local potential to a uniform radial grid of dG=0.02 with 1618 points.
  Transforming nonlocal projectors to a uniform radial grid of dG=0.02 with 432 points.
  Transforming density augmentations to a uniform radial grid of dG=0.02 with 1618 points.
  Transforming atomic orbitals to a uniform radial grid of dG=0.02 with 432 points.
  Core radius for overlap checks: 1.20 bohrs.

Reading pseudopotential file '/home/akim2/jdftx_install/build/pseudopotentials/GBRV/fe_pbe.uspp':
  Title: Fe.  Created by USPP 7.3.6 on 15-6-15
  Reference state energy: -124.316937.  16 valence electrons in orbitals:
    |300>  occupation: 2  eigenvalue: -4.008817
    |310>  occupation: 6  eigenvalue: -2.753096
    |320>  occupation: 5  eigenvalue: -0.791264
    |400>  occupation: 2  eigenvalue: -0.516384
    |410>  occupation: 0  eigenvalue: -0.312222
  lMax: 2  lLocal: 3  QijEcut: 6
  6 projectors sampled on a log grid with 607 points:
    l: 0  eig: -4.008819  rCut: 1.55
    l: 0  eig: -0.516386  rCut: 1.55
    l: 1  eig: -2.753096  rCut: 1.55
    l: 1  eig: -0.312226  rCut: 1.55
    l: 2  eig: -0.791264  rCut: 1.65
    l: 2  eig: -0.450000  rCut: 1.65
  Partial core density with radius 0.65
  Transforming core density to a uniform radial grid of dG=0.02 with 1618 points.
  Transforming local potential to a uniform radial grid of dG=0.02 with 1618 points.
  Transforming nonlocal projectors to a uniform radial grid of dG=0.02 with 432 points.
  Transforming density augmentations to a uniform radial grid of dG=0.02 with 1618 points.
  Transforming atomic orbitals to a uniform radial grid of dG=0.02 with 432 points.
  Core radius for overlap checks: 1.65 bohrs.

Reading pseudopotential file '/home/akim2/jdftx_install/build/pseudopotentials/GBRV/s_pbe.uspp':
  Title: S.  Created by USPP 7.3.6 on 1-4-15
  Reference state energy: -11.898476.  6 valence electrons in orbitals:
    |300>  occupation: 2  eigenvalue: -0.634167
    |310>  occupation: 4  eigenvalue: -0.257568
  lMax: 2  lLocal: 3  QijEcut: 6
  6 projectors sampled on a log grid with 635 points:
    l: 0  eig: -0.634161  rCut: 1.5
    l: 0  eig: 1.500000  rCut: 1.5
    l: 1  eig: -0.257567  rCut: 1.5
    l: 1  eig: 1.500000  rCut: 1.5
    l: 2  eig: -1.000000  rCut: 1.5
    l: 2  eig: 1.500000  rCut: 1.5
  Partial core density with radius 1.15
  Transforming core density to a uniform radial grid of dG=0.02 with 1618 points.
  Transforming local potential to a uniform radial grid of dG=0.02 with 1618 points.
  Transforming nonlocal projectors to a uniform radial grid of dG=0.02 with 432 points.
  Transforming density augmentations to a uniform radial grid of dG=0.02 with 1618 points.
  Transforming atomic orbitals to a uniform radial grid of dG=0.02 with 432 points.
  Core radius for overlap checks: 1.50 bohrs.

Reading pseudopotential file '/home/akim2/jdftx_install/build/pseudopotentials/GBRV/na_pbe.uspp':
  Title: Na.  Created by USPP 7.3.6 on 23-9-15
  Reference state energy: -47.625620.  9 valence electrons in orbitals:
    |200>  occupation: 2  eigenvalue: -2.085638
    |210>  occupation: 6  eigenvalue: -1.053708
    |300>  occupation: 1  eigenvalue: -0.100838
  lMax: 2  lLocal: 0  QijEcut: 6
  5 projectors sampled on a log grid with 657 points:
    l: 0  eig: -2.085640  rCut: 1.37
    l: 0  eig: -0.100839  rCut: 1.37
    l: 1  eig: -1.053708  rCut: 1.47
    l: 1  eig: 0.500000  rCut: 1.47
    l: 2  eig: 0.750000  rCut: 2
  Transforming local potential to a uniform radial grid of dG=0.02 with 1618 points.
  Transforming nonlocal projectors to a uniform radial grid of dG=0.02 with 432 points.
  Transforming density augmentations to a uniform radial grid of dG=0.02 with 1618 points.
  Transforming atomic orbitals to a uniform radial grid of dG=0.02 with 432 points.
  Core radius for overlap checks: 2.00 bohrs.

Initialized 5 species with 75 total atoms.

Folded 1 k-points by 1x1x1 to 1 k-points.

---------- Setting up k-points, bands, fillings ----------
No reducable k-points. 
Computing the number of bands and number of electrons
Calculating initial fillings.
nElectrons: 330.000000   nBands: 311   nStates: 1

----- Setting up reduced wavefunction bases (one per k-point) -----
average nbasis = 93173.000 , ideal nbasis = 93220.781

---------- Setting up coulomb interaction ----------
Fluid mode embedding: using embedded box, but periodic Coulomb kernel.
(Fluid response is responsible for (approximate) separation between periodic images.)
Setting up double-sized grid for truncated Coulomb potentials:
R = 
[      28.0058     -14.0029            0  ]
[            0      24.2537            0  ]
[            0            0      64.2506  ]
unit cell volume = 43641.9
G =
[   0.224353    0.12953         -0  ]
[          0   0.259061          0  ]
[          0         -0  0.0977919  ]
Chosen fftbox size, S = [  128  128  300  ]
Integer grid location selected as the embedding center:
   Grid: [  0  0  19  ]
   Lattice: [  0  0  0.124512  ]
   Cartesian: [  0  0  4  ]
Constructing Wigner-Seitz cell: 8 faces (6 quadrilaterals, 2 hexagons)
Range-separation parameter for embedded mesh potentials due to point charges: 0.590105 bohrs.

Initializing DFT-D3 calculator:
	Parameters set for gga-PBE functional
	s6:  1.000  s_r6:  1.217
	s8:  0.722  s_r8:  1.000
	Per-atom parameters loaded for:
	 C:  sqrtQ[a0]:  3.105  Rcov[a0]:  1.417  CN: [ 0.00 0.99 2.00 3.00 3.98 ]
	 N:  sqrtQ[a0]:  2.712  Rcov[a0]:  1.342  CN: [ 0.00 0.99 2.01 2.99 ]
	Fe:  sqrtQ[a0]:  5.584  Rcov[a0]:  1.965  CN: [ 0.00 1.65 9.14 ]
	 S:  sqrtQ[a0]:  4.041  Rcov[a0]:  1.928  CN: [ 0.00 0.99 1.99 ]
	Na:  sqrtQ[a0]:  6.586  Rcov[a0]:  2.646  CN: [ 0.00 0.97 ]

---------- Setting up ewald sum ----------
Optimum gaussian width for ewald sums = 6.839659 bohr.
Real space sum over 567 unit cells with max indices [  4  4  3  ]
Reciprocal space sum over 9537 terms with max indices [  8  8  16  ]

Computing DFT-D3 correction:
# coordination-number C 3.300 3.302 3.302 3.301 3.300 3.331 3.300 3.300 3.355 3.300 3.300 3.300 3.300 3.300 3.295 3.299 3.300 3.288 3.483 3.300 3.300 3.300 3.300 3.300 3.315 3.288 3.301 3.300 3.397 3.302 3.300 3.497 3.300 3.305 3.300 3.300 3.303 3.294 3.300 3.300 3.414 3.300 3.300 3.300 3.300 3.300 3.312 3.300 3.302 3.282 3.289 3.300 3.298 3.481 3.300 3.301 3.300 3.417 3.303 3.300 3.512 3.300 3.300 3.292 3.300 3.299
# coordination-number N 3.259 3.188 3.205 3.221
# coordination-number Fe 6.039
# coordination-number S 2.930 3.879
# coordination-number Na 2.379 2.229
# diagonal-C6 C 24.28 24.27 24.27 24.27 24.28 23.96 24.28 24.28 23.69 24.28 24.29 24.28 24.29 24.29 24.33 24.29 24.29 24.40 21.89 24.29 24.28 24.29 24.28 24.29 24.14 24.39 24.28 24.28 23.15 24.26 24.29 21.69 24.28 24.24 24.28 24.28 24.25 24.34 24.28 24.28 22.92 24.28 24.28 24.29 24.29 24.29 24.17 24.28 24.26 24.45 24.39 24.29 24.30 21.92 24.29 24.27 24.29 22.86 24.26 24.29 21.47 24.28 24.28 24.36 24.28 24.29
# diagonal-C6 N 15.59 15.60 15.60 15.60
# diagonal-C6 Fe 109.50
# diagonal-C6 S 125.81 125.81
# diagonal-C6 Na 186.11 186.11
EvdW_6 =   -0.062307
EvdW_8 =   -0.056501

---------- Allocating electronic variables ----------
Initializing wave functions:  linear combination of atomic orbitals
C pseudo-atom occupations:   s ( 2 )  p ( 2 )
N pseudo-atom occupations:   s ( 2 )  p ( 3 )
Fe pseudo-atom occupations:   s ( 2 0 )  p ( 6 0 )  d ( 8 )
S pseudo-atom occupations:   s ( 2 )  p ( 4 )
Na pseudo-atom occupations:   s ( 2 1 )  p ( 6 )
	FillingsUpdate:  mu: -0.185802961  nElectrons: 330.000000
LCAOMinimize: Iter:   0  F: -636.4922705293107583  |grad|_K:  2.792e-02  alpha:  1.000e+00
	FillingsUpdate:  mu: -0.245992576  nElectrons: 330.000000
LCAOMinimize: Iter:   1  F: -642.3300414076177276  |grad|_K:  1.645e-02  alpha:  1.617e-01  linmin: -1.760e-01  cgtest:  6.264e-01  t[s]:      9.74
LCAOMinimize: Encountered beta<0, resetting CG.
	FillingsUpdate:  mu: -0.109275113  nElectrons: 330.000000
LCAOMinimize: Iter:   2  F: -651.0338874158941280  |grad|_K:  2.828e-02  alpha:  7.867e-02  linmin:  3.282e-01  cgtest: -1.365e-01  t[s]:     11.12
LCAOMinimize: 	Bad step direction: g.d > 0.
LCAOMinimize: 	Undoing step.
LCAOMinimize: 	Step failed: resetting search direction.
	FillingsUpdate:  mu: -0.109275113  nElectrons: 330.000000
LCAOMinimize: Iter:   3  F: -651.0338874158941280  |grad|_K:  2.828e-02  alpha:  0.000e+00
	FillingsUpdate:  mu: -0.141615419  nElectrons: 330.000000
LCAOMinimize: Iter:   4  F: -652.4817154510792534  |grad|_K:  8.170e-03  alpha:  2.473e-02  linmin: -2.230e-01  cgtest:  6.735e-01  t[s]:     13.48
LCAOMinimize: Encountered beta<0, resetting CG.
	FillingsUpdate:  mu: -0.177292339  nElectrons: 330.000000
LCAOMinimize: Iter:   5  F: -652.7101916839460500  |grad|_K:  9.683e-03  alpha:  6.974e-02  linmin: -3.164e-03  cgtest: -9.138e-04  t[s]:     14.86
	FillingsUpdate:  mu: -0.175792280  nElectrons: 330.000000
LCAOMinimize: Iter:   6  F: -652.9755365208435478  |grad|_K:  2.685e-03  alpha:  5.406e-02  linmin:  1.752e-02  cgtest: -2.324e-01  t[s]:     16.23
	FillingsUpdate:  mu: -0.199997262  nElectrons: 330.000000
LCAOMinimize: Iter:   7  F: -653.0034056119233128  |grad|_K:  1.348e-03  alpha:  8.316e-02  linmin: -2.553e-02  cgtest:  5.130e-01  t[s]:     17.63
LCAOMinimize: Encountered beta<0, resetting CG.
	FillingsUpdate:  mu: -0.168320342  nElectrons: 330.000000
LCAOMinimize: Iter:   8  F: -653.0106888056095613  |grad|_K:  1.439e-03  alpha:  8.236e-02  linmin:  1.119e-03  cgtest:  9.337e-03  t[s]:     19.04
	FillingsUpdate:  mu: -0.189780863  nElectrons: 330.000000
LCAOMinimize: Iter:   9  F: -653.0160067061198106  |grad|_K:  5.528e-04  alpha:  5.455e-02  linmin:  3.920e-05  cgtest: -1.137e-01  t[s]:     20.44
LCAOMinimize: 	Predicted alpha/alphaT>3.000000, increasing alphaT to 1.636511e-01.
	FillingsUpdate:  mu: -0.185044036  nElectrons: 330.000000
LCAOMinimize: Iter:  10  F: -653.0196917340387017  |grad|_K:  4.378e-04  alpha:  2.502e-01  linmin:  3.579e-03  cgtest:  1.473e-02  t[s]:     22.23
	FillingsUpdate:  mu: -0.193868932  nElectrons: 330.000000
LCAOMinimize: Iter:  11  F: -653.0201884760623443  |grad|_K:  4.208e-04  alpha:  5.381e-02  linmin: -1.066e-03  cgtest:  4.248e-02  t[s]:     23.60
	FillingsUpdate:  mu: -0.189621500  nElectrons: 330.000000
LCAOMinimize: Iter:  12  F: -653.0212724473957451  |grad|_K:  2.295e-04  alpha:  1.256e-01  linmin:  2.449e-03  cgtest: -1.815e-01  t[s]:     24.99
	FillingsUpdate:  mu: -0.193605342  nElectrons: 330.000000
LCAOMinimize: Iter:  13  F: -653.0214590222362858  |grad|_K:  2.179e-04  alpha:  7.492e-02  linmin:  9.956e-05  cgtest:  3.349e-02  t[s]:     26.38
	FillingsUpdate:  mu: -0.190143339  nElectrons: 330.000000
LCAOMinimize: Iter:  14  F: -653.0215945017553167  |grad|_K:  1.116e-04  alpha:  5.869e-02  linmin: -3.382e-06  cgtest: -5.019e-02  t[s]:     27.79
	FillingsUpdate:  mu: -0.191790575  nElectrons: 330.000000
LCAOMinimize: Iter:  15  F: -653.0216562867915400  |grad|_K:  1.044e-04  alpha:  1.018e-01  linmin: -8.710e-05  cgtest: -3.478e-03  t[s]:     29.18
	FillingsUpdate:  mu: -0.190183675  nElectrons: 330.000000
LCAOMinimize: Iter:  16  F: -653.0216834427598087  |grad|_K:  5.908e-05  alpha:  5.109e-02  linmin: -1.137e-05  cgtest: -3.233e-03  t[s]:     30.57
	FillingsUpdate:  mu: -0.191146138  nElectrons: 330.000000
LCAOMinimize: Iter:  17  F: -653.0216970916766286  |grad|_K:  3.651e-05  alpha:  8.037e-02  linmin:  1.818e-04  cgtest:  4.455e-04  t[s]:     31.96
	FillingsUpdate:  mu: -0.190581942  nElectrons: 330.000000
LCAOMinimize: Iter:  18  F: -653.0217008436559354  |grad|_K:  3.081e-05  alpha:  5.787e-02  linmin:  2.464e-05  cgtest:  3.078e-03  t[s]:     33.36
	FillingsUpdate:  mu: -0.191198551  nElectrons: 330.000000
LCAOMinimize: Iter:  19  F: -653.0217060431310756  |grad|_K:  2.694e-05  alpha:  1.125e-01  linmin:  2.096e-05  cgtest:  9.727e-05  t[s]:     34.76
	FillingsUpdate:  mu: -0.190712637  nElectrons: 330.000000
LCAOMinimize: Iter:  20  F: -653.0217089209536425  |grad|_K:  2.466e-05  alpha:  8.147e-02  linmin:  1.186e-06  cgtest:  6.613e-04  t[s]:     36.17
	FillingsUpdate:  mu: -0.191044918  nElectrons: 330.000000
LCAOMinimize: Iter:  21  F: -653.0217105700562570  |grad|_K:  1.237e-05  alpha:  5.577e-02  linmin: -1.524e-05  cgtest: -5.990e-04  t[s]:     37.56
	FillingsUpdate:  mu: -0.190788598  nElectrons: 330.000000
LCAOMinimize: Iter:  22  F: -653.0217113186997722  |grad|_K:  1.288e-05  alpha:  1.005e-01  linmin:  3.853e-06  cgtest: -1.394e-03  t[s]:     38.94
	FillingsUpdate:  mu: -0.190993780  nElectrons: 330.000000
LCAOMinimize: Iter:  23  F: -653.0217118329595678  |grad|_K:  9.591e-06  alpha:  6.373e-02  linmin:  8.811e-07  cgtest: -6.662e-04  t[s]:     40.32
LCAOMinimize: Converged (|Delta F|<1.000000e-06 for 2 iters).
----- createFluidSolver() ----- (Fluid-side solver setup)
   Initializing fluid molecule 'PC'
     Net charge: 0   dipole magnitude: 0
     Initializing spherical shell mfKernel with radius 0 Bohr
     deltaS corrections:

Correction to mu due to finite nuclear width = -0.00750257
   Cavity determined by nc: 0.00098 and sigma: 0.6
   Effective cavity tension: 9.53e-06 Eh/bohr^2 to account for cavitation and dispersion.


---- Citations for features of the code used in this run ----

   Software package:
      R. Sundararaman, K. Letchworth-Weaver, K.A. Schwarz, D. Gunceler, Y. Ozhabes and T.A. Arias, 'JDFTx: software for joint density-functional theory', SoftwareX 6, 278 (2017)

   gga-PBE exchange-correlation functional:
      J.P. Perdew, K. Burke and M. Ernzerhof, Phys. Rev. Lett. 77, 3865 (1996)

   Pseudopotentials:
      KF Garrity, JW Bennett, KM Rabe and D Vanderbilt, Comput. Mater. Sci. 81, 446 (2014)

   Truncated Coulomb potentials:
      R. Sundararaman and T.A. Arias, Phys. Rev. B 87, 165122 (2013)

   DFT-D3 dispersion correction:
      S. Grimme, J. Antony, S. Ehrlich and H. Krieg, J. Chem. Phys. 132, 154104 (2010)

   Linear/nonlinear dielectric/ionic fluid model with effective cavity tension:
      D. Gunceler, K. Letchworth-Weaver, R. Sundararaman, K.A. Schwarz and T.A. Arias, Modelling Simul. Mater. Sci. Eng. 21, 074005 (2013)

   Total energy minimization with Auxiliary Hamiltonian:
      C. Freysoldt, S. Boeck, and J. Neugebauer, Phys. Rev. B 79, 241103(R) (2009)

This list may not be complete. Please suggest additional citations or
report any other bugs at https://github.com/shankar1729/jdftx/issues

Initialization completed successfully at t[s]:     40.48


Computing DFT-D3 correction:
# coordination-number C 3.300 3.302 3.302 3.301 3.300 3.331 3.300 3.300 3.355 3.300 3.300 3.300 3.300 3.300 3.295 3.299 3.300 3.288 3.483 3.300 3.300 3.300 3.300 3.300 3.315 3.288 3.301 3.300 3.397 3.302 3.300 3.497 3.300 3.305 3.300 3.300 3.303 3.294 3.300 3.300 3.414 3.300 3.300 3.300 3.300 3.300 3.312 3.300 3.302 3.282 3.289 3.300 3.298 3.481 3.300 3.301 3.300 3.417 3.303 3.300 3.512 3.300 3.300 3.292 3.300 3.299
# coordination-number N 3.259 3.188 3.205 3.221
# coordination-number Fe 6.039
# coordination-number S 2.930 3.879
# coordination-number Na 2.379 2.229
# diagonal-C6 C 24.28 24.27 24.27 24.27 24.28 23.96 24.28 24.28 23.69 24.28 24.29 24.28 24.29 24.29 24.33 24.29 24.29 24.40 21.89 24.29 24.28 24.29 24.28 24.29 24.14 24.39 24.28 24.28 23.15 24.26 24.29 21.69 24.28 24.24 24.28 24.28 24.25 24.34 24.28 24.28 22.92 24.28 24.28 24.29 24.29 24.29 24.17 24.28 24.26 24.45 24.39 24.29 24.30 21.92 24.29 24.27 24.29 22.86 24.26 24.29 21.47 24.28 24.28 24.36 24.28 24.29
# diagonal-C6 N 15.59 15.60 15.60 15.60
# diagonal-C6 Fe 109.50
# diagonal-C6 S 125.81 125.81
# diagonal-C6 Na 186.11 186.11
EvdW_6 =   -0.062307
EvdW_8 =   -0.056501
Fluid solver invoked on fresh (random / LCAO) wavefunctions
Running a vacuum solve first:

-------- Initial electronic minimization -----------
	FillingsUpdate:  mu: -0.190993780  nElectrons: 330.000000
ElecMinimize: Iter:   0  F: -653.021711832960932  |grad|_K:  4.398e-04  alpha:  1.000e+00
	FillingsUpdate:  mu: -0.115039722  nElectrons: 330.000000
	SubspaceRotationAdjust: set factor to 0.642
ElecMinimize: Iter:   1  F: -656.716124927316855  |grad|_K:  3.703e-04  alpha:  6.665e-01  linmin:  1.607e-04  t[s]:     45.64
ElecMinimize: 	Step increased F by 3.669776e-01, reducing alpha to 1.270180e-02.
	FillingsUpdate:  mu: -0.098047051  nElectrons: 330.000000
	SubspaceRotationAdjust: set factor to 0.689
ElecMinimize: Iter:   2  F: -656.795540825877424  |grad|_K:  2.092e-04  alpha:  1.270e-02  linmin: -3.651e-03  t[s]:     48.74
	FillingsUpdate:  mu: -0.049088013  nElectrons: 330.000000
	SubspaceRotationAdjust: set factor to 0.507
ElecMinimize: Iter:   3  F: -656.871990483509990  |grad|_K:  1.566e-04  alpha:  3.611e-02  linmin: -3.893e-04  t[s]:     50.62
ElecMinimize: 	Predicted alpha/alphaT>3.000000, increasing alphaT to 1.083289e-01.
	FillingsUpdate:  mu: -0.041790213  nElectrons: 330.000000
	SubspaceRotationAdjust: set factor to 0.319
ElecMinimize: Iter:   4  F: -656.963195473524365  |grad|_K:  2.259e-04  alpha:  1.142e-01  linmin: -2.539e-05  t[s]:     53.05
	FillingsUpdate:  mu: -0.046044078  nElectrons: 330.000000
	SubspaceRotationAdjust: set factor to 0.342
ElecMinimize: Iter:   5  F: -657.087306689928141  |grad|_K:  1.617e-04  alpha:  8.490e-02  linmin: -1.689e-05  t[s]:     54.95
	FillingsUpdate:  mu: -0.085771544  nElectrons: 330.000000
	SubspaceRotationAdjust: set factor to 0.306
ElecMinimize: Iter:   6  F: -657.137420513212987  |grad|_K:  9.277e-05  alpha:  6.406e-02  linmin:  1.251e-05  t[s]:     56.80
	FillingsUpdate:  mu: -0.100328592  nElectrons: 330.000000
	SubspaceRotationAdjust: set factor to 0.193
ElecMinimize: Iter:   7  F: -657.165552378260372  |grad|_K:  1.089e-04  alpha:  1.139e-01  linmin:  1.307e-05  t[s]:     58.67
	FillingsUpdate:  mu: -0.097750129  nElectrons: 330.000000
	SubspaceRotationAdjust: set factor to 0.167
ElecMinimize: Iter:   8  F: -657.209786877748343  |grad|_K:  8.680e-05  alpha:  1.296e-01  linmin:  1.891e-05  t[s]:     60.56
	FillingsUpdate:  mu: -0.087042009  nElectrons: 330.000000
	SubspaceRotationAdjust: set factor to 0.202
ElecMinimize: Iter:   9  F: -657.232070773032319  |grad|_K:  4.929e-05  alpha:  1.043e-01  linmin: -2.157e-05  t[s]:     62.42
	FillingsUpdate:  mu: -0.057518978  nElectrons: 330.000000
	SubspaceRotationAdjust: set factor to 0.184
ElecMinimize: Iter:  10  F: -657.241556838211068  |grad|_K:  4.358e-05  alpha:  1.326e-01  linmin: -3.418e-05  t[s]:     64.30
	FillingsUpdate:  mu: -0.055456524  nElectrons: 330.000000
	SubspaceRotationAdjust: set factor to 0.161
ElecMinimize: Iter:  11  F: -657.254269410869711  |grad|_K:  4.529e-05  alpha:  2.284e-01  linmin:  5.580e-06  t[s]:     66.18
	FillingsUpdate:  mu: -0.082157519  nElectrons: 330.000000
	SubspaceRotationAdjust: set factor to 0.202
ElecMinimize: Iter:  12  F: -657.261785502353632  |grad|_K:  2.577e-05  alpha:  1.248e-01  linmin: -1.186e-05  t[s]:     68.05
	FillingsUpdate:  mu: -0.091593171  nElectrons: 330.000000
	SubspaceRotationAdjust: set factor to 0.187
ElecMinimize: Iter:  13  F: -657.264522735276273  |grad|_K:  2.296e-05  alpha:  1.415e-01  linmin:  1.329e-05  t[s]:     69.93
	FillingsUpdate:  mu: -0.091700579  nElectrons: 330.000000
	SubspaceRotationAdjust: set factor to 0.223
ElecMinimize: Iter:  14  F: -657.267792653953393  |grad|_K:  2.217e-05  alpha:  2.145e-01  linmin:  3.406e-06  t[s]:     71.81
	FillingsUpdate:  mu: -0.085198831  nElectrons: 330.000000
	SubspaceRotationAdjust: set factor to 0.219
ElecMinimize: Iter:  15  F: -657.269718138420444  |grad|_K:  1.434e-05  alpha:  1.360e-01  linmin:  5.138e-06  t[s]:     73.66
	FillingsUpdate:  mu: -0.080283696  nElectrons: 330.000000
	SubspaceRotationAdjust: set factor to 0.224
ElecMinimize: Iter:  16  F: -657.270646461742103  |grad|_K:  1.178e-05  alpha:  1.558e-01  linmin: -1.958e-06  t[s]:     75.56
	FillingsUpdate:  mu: -0.084416802  nElectrons: 330.000000
	SubspaceRotationAdjust: set factor to 0.289
ElecMinimize: Iter:  17  F: -657.271287846006430  |grad|_K:  9.644e-06  alpha:  1.592e-01  linmin:  2.164e-06  t[s]:     77.44
	FillingsUpdate:  mu: -0.088822363  nElectrons: 330.000000
	SubspaceRotationAdjust: set factor to 0.269
ElecMinimize: Iter:  18  F: -657.271839487540547  |grad|_K:  1.127e-05  alpha:  2.049e-01  linmin:  3.140e-06  t[s]:     79.30
	FillingsUpdate:  mu: -0.087833205  nElectrons: 330.000000
	SubspaceRotationAdjust: set factor to 0.373
ElecMinimize: Iter:  19  F: -657.272473630830746  |grad|_K:  7.939e-06  alpha:  1.730e-01  linmin:  3.078e-06  t[s]:     81.21
	FillingsUpdate:  mu: -0.084518122  nElectrons: 330.000000
	SubspaceRotationAdjust: set factor to 0.329
ElecMinimize: Iter:  20  F: -657.272721221556822  |grad|_K:  6.827e-06  alpha:  1.361e-01  linmin:  7.901e-07  t[s]:     83.11
	FillingsUpdate:  mu: -0.084156608  nElectrons: 330.000000
	SubspaceRotationAdjust: set factor to 0.444
ElecMinimize: Iter:  21  F: -657.273024850673551  |grad|_K:  5.687e-06  alpha:  2.249e-01  linmin:  2.460e-06  t[s]:     84.97
	FillingsUpdate:  mu: -0.086577941  nElectrons: 330.000000
	SubspaceRotationAdjust: set factor to 0.384
ElecMinimize: Iter:  22  F: -657.273161985059573  |grad|_K:  5.455e-06  alpha:  1.470e-01  linmin:  7.973e-07  t[s]:     86.86
	FillingsUpdate:  mu: -0.086092079  nElectrons: 330.000000
	SubspaceRotationAdjust: set factor to 0.478
ElecMinimize: Iter:  23  F: -657.273385122111904  |grad|_K:  4.279e-06  alpha:  2.602e-01  linmin:  3.299e-06  t[s]:     88.76
	FillingsUpdate:  mu: -0.084544222  nElectrons: 330.000000
	SubspaceRotationAdjust: set factor to 0.425
ElecMinimize: Iter:  24  F: -657.273468254269346  |grad|_K:  4.023e-06  alpha:  1.594e-01  linmin:  7.402e-07  t[s]:     90.62
	FillingsUpdate:  mu: -0.085958134  nElectrons: 330.000000
	SubspaceRotationAdjust: set factor to 0.406
ElecMinimize: Iter:  25  F: -657.273534565857062  |grad|_K:  2.599e-06  alpha:  1.416e-01  linmin:  1.250e-06  t[s]:     92.51
	FillingsUpdate:  mu: -0.086595798  nElectrons: 330.000000
	SubspaceRotationAdjust: set factor to 0.458
ElecMinimize: Iter:  26  F: -657.273588285916276  |grad|_K:  2.522e-06  alpha:  2.796e-01  linmin:  3.014e-06  t[s]:     94.41
	FillingsUpdate:  mu: -0.085716047  nElectrons: 330.000000
	SubspaceRotationAdjust: set factor to 0.393
ElecMinimize: Iter:  27  F: -657.273613367389316  |grad|_K:  2.081e-06  alpha:  1.386e-01  linmin: -2.337e-07  t[s]:     96.27
	FillingsUpdate:  mu: -0.085914975  nElectrons: 330.000000
	SubspaceRotationAdjust: set factor to 0.474
ElecMinimize: Iter:  28  F: -657.273639924882900  |grad|_K:  1.506e-06  alpha:  2.128e-01  linmin:  2.177e-06  t[s]:     98.16
	FillingsUpdate:  mu: -0.086309717  nElectrons: 330.000000
	SubspaceRotationAdjust: set factor to 0.515
ElecMinimize: Iter:  29  F: -657.273651943657796  |grad|_K:  1.425e-06  alpha:  1.877e-01  linmin:  6.599e-07  t[s]:    100.05
	FillingsUpdate:  mu: -0.085901350  nElectrons: 330.000000
	SubspaceRotationAdjust: set factor to 0.549
ElecMinimize: Iter:  30  F: -657.273660236131263  |grad|_K:  1.209e-06  alpha:  1.417e-01  linmin:  2.378e-07  t[s]:    101.91
	FillingsUpdate:  mu: -0.086006165  nElectrons: 330.000000
	SubspaceRotationAdjust: set factor to 0.728
ElecMinimize: Iter:  31  F: -657.273670182356796  |grad|_K:  1.140e-06  alpha:  2.401e-01  linmin:  2.050e-06  t[s]:    103.81
	FillingsUpdate:  mu: -0.086274791  nElectrons: 330.000000
	SubspaceRotationAdjust: set factor to 0.583
ElecMinimize: Iter:  32  F: -657.273675451483314  |grad|_K:  1.157e-06  alpha:  1.396e-01  linmin: -1.075e-06  t[s]:    105.71
	FillingsUpdate:  mu: -0.086036851  nElectrons: 330.000000
	SubspaceRotationAdjust: set factor to 0.628
ElecMinimize: Iter:  33  F: -657.273679427605316  |grad|_K:  8.890e-07  alpha:  9.656e-02  linmin: -8.337e-09  t[s]:    107.56
	FillingsUpdate:  mu: -0.085970445  nElectrons: 330.000000
	SubspaceRotationAdjust: set factor to 0.637
ElecMinimize: Iter:  34  F: -657.273682545060296  |grad|_K:  8.950e-07  alpha:  1.414e-01  linmin:  3.247e-06  t[s]:    109.46
	FillingsUpdate:  mu: -0.086056119  nElectrons: 330.000000
	SubspaceRotationAdjust: set factor to 0.619
ElecMinimize: Iter:  35  F: -657.273684012962690  |grad|_K:  8.333e-07  alpha:  6.044e-02  linmin: -3.270e-06  t[s]:    111.35
	FillingsUpdate:  mu: -0.086126294  nElectrons: 330.000000
	SubspaceRotationAdjust: set factor to 0.472
ElecMinimize: Iter:  36  F: -657.273685645856517  |grad|_K:  8.364e-07  alpha:  7.475e-02  linmin:  4.141e-06  t[s]:    113.22
	FillingsUpdate:  mu: -0.086087612  nElectrons: 330.000000
	SubspaceRotationAdjust: set factor to 0.376
ElecMinimize: Iter:  37  F: -657.273686304410035  |grad|_K:  7.313e-07  alpha:  3.341e-02  linmin: -2.188e-06  t[s]:    115.11
	FillingsUpdate:  mu: -0.085998337  nElectrons: 330.000000
	SubspaceRotationAdjust: set factor to 0.302
ElecMinimize: Iter:  38  F: -657.273687022058766  |grad|_K:  6.521e-07  alpha:  4.403e-02  linmin:  2.037e-06  t[s]:    117.02
	FillingsUpdate:  mu: -0.085940706  nElectrons: 330.000000
	SubspaceRotationAdjust: set factor to 0.241
ElecMinimize: Iter:  39  F: -657.273687492921567  |grad|_K:  6.233e-07  alpha:  4.061e-02  linmin:  6.394e-07  t[s]:    118.87
	FillingsUpdate:  mu: -0.085918413  nElectrons: 330.000000
	SubspaceRotationAdjust: set factor to 0.193
ElecMinimize: Iter:  40  F: -657.273687974552104  |grad|_K:  5.865e-07  alpha:  4.387e-02  linmin:  8.139e-07  t[s]:    120.77
	FillingsUpdate:  mu: -0.085936340  nElectrons: 330.000000
	SubspaceRotationAdjust: set factor to 0.155
ElecMinimize: Iter:  41  F: -657.273688391168889  |grad|_K:  5.263e-07  alpha:  4.304e-02  linmin:  5.737e-07  t[s]:    122.67
	FillingsUpdate:  mu: -0.085978372  nElectrons: 330.000000
	SubspaceRotationAdjust: set factor to 0.122
	SubspaceRotationAdjust: resetting CG because factor has changed by 0.121677
ElecMinimize: 	State modified externally: resetting search direction.
ElecMinimize: Iter:  42  F: -657.273688746190373  |grad|_K:  4.275e-07  alpha:  4.517e-02
ElecMinimize: 	Predicted alpha/alphaT>3.000000, increasing alphaT to 1.355089e-01.
ElecMinimize: 	Predicted alpha/alphaT>3.000000, increasing alphaT to 4.065266e-01.
	FillingsUpdate:  mu: -0.086128539  nElectrons: 330.000000
	SubspaceRotationAdjust: set factor to 0.158
ElecMinimize: Iter:  43  F: -657.273692966281374  |grad|_K:  5.713e-07  alpha:  7.846e-01  linmin: -4.950e-06  t[s]:    128.50
	FillingsUpdate:  mu: -0.085963322  nElectrons: 330.000000
	SubspaceRotationAdjust: set factor to 0.174
ElecMinimize: Iter:  44  F: -657.273698222898929  |grad|_K:  4.458e-07  alpha:  5.580e-01  linmin: -9.370e-07  t[s]:    130.37
	FillingsUpdate:  mu: -0.086149952  nElectrons: 330.000000
	SubspaceRotationAdjust: set factor to 0.178
ElecMinimize: Iter:  45  F: -657.273700362739419  |grad|_K:  3.355e-07  alpha:  3.725e-01  linmin:  1.953e-07  t[s]:    132.26
	FillingsUpdate:  mu: -0.085915404  nElectrons: 330.000000
	SubspaceRotationAdjust: set factor to 0.143
ElecMinimize: Iter:  46  F: -657.273701585954086  |grad|_K:  2.842e-07  alpha:  3.749e-01  linmin: -4.932e-07  t[s]:    134.15
	FillingsUpdate:  mu: -0.086055603  nElectrons: 330.000000
	SubspaceRotationAdjust: set factor to 0.136
ElecMinimize: Iter:  47  F: -657.273702475492883  |grad|_K:  1.967e-07  alpha:  3.766e-01  linmin: -2.124e-07  t[s]:    136.03
	FillingsUpdate:  mu: -0.085997454  nElectrons: 330.000000
	SubspaceRotationAdjust: set factor to 0.147
ElecMinimize: Iter:  48  F: -657.273703133183972  |grad|_K:  1.435e-07  alpha:  5.784e-01  linmin: -3.299e-07  t[s]:    137.92
	FillingsUpdate:  mu: -0.086066410  nElectrons: 330.000000
	SubspaceRotationAdjust: set factor to 0.145
ElecMinimize: Iter:  49  F: -657.273703403229092  |grad|_K:  1.251e-07  alpha:  4.477e-01  linmin:  5.470e-08  t[s]:    139.83
	FillingsUpdate:  mu: -0.085974649  nElectrons: 330.000000
	SubspaceRotationAdjust: set factor to 0.107
ElecMinimize: Iter:  50  F: -657.273703565633809  |grad|_K:  8.969e-08  alpha:  3.589e-01  linmin:  5.287e-08  t[s]:    141.68
	FillingsUpdate:  mu: -0.086027695  nElectrons: 330.000000
	SubspaceRotationAdjust: set factor to 0.103
ElecMinimize: Iter:  51  F: -657.273703697214160  |grad|_K:  7.737e-08  alpha:  5.635e-01  linmin:  7.736e-09  t[s]:    143.59
	FillingsUpdate:  mu: -0.086006176  nElectrons: 330.000000
	SubspaceRotationAdjust: set factor to 0.111
ElecMinimize: Iter:  52  F: -657.273703779362677  |grad|_K:  6.757e-08  alpha:  4.739e-01  linmin:  4.290e-08  t[s]:    145.49
	FillingsUpdate:  mu: -0.086030138  nElectrons: 330.000000
	SubspaceRotationAdjust: set factor to 0.117
ElecMinimize: Iter:  53  F: -657.273703874559260  |grad|_K:  6.935e-08  alpha:  7.203e-01  linmin:  8.213e-08  t[s]:    147.36
	FillingsUpdate:  mu: -0.085991804  nElectrons: 330.000000
	SubspaceRotationAdjust: set factor to 0.113
ElecMinimize: Iter:  54  F: -657.273703972403496  |grad|_K:  7.323e-08  alpha:  7.083e-01  linmin:  4.542e-07  t[s]:    155.25
	FillingsUpdate:  mu: -0.086004855  nElectrons: 330.000000
	SubspaceRotationAdjust: set factor to 0.14
ElecMinimize: Iter:  55  F: -657.273704008788627  |grad|_K:  5.049e-08  alpha:  1.703e-01  linmin: -3.180e-06  t[s]:    157.19
	FillingsUpdate:  mu: -0.086025955  nElectrons: 330.000000
	SubspaceRotationAdjust: set factor to 0.141
ElecMinimize: Iter:  56  F: -657.273704034784373  |grad|_K:  4.406e-08  alpha:  2.406e-01  linmin:  2.908e-07  t[s]:    165.38
	FillingsUpdate:  mu: -0.086021932  nElectrons: 330.000000
	SubspaceRotationAdjust: set factor to 0.168
ElecMinimize: Iter:  57  F: -657.273704049659159  |grad|_K:  4.426e-08  alpha:  2.800e-01  linmin:  2.467e-07  t[s]:    167.27
	FillingsUpdate:  mu: -0.086012832  nElectrons: 330.000000
	SubspaceRotationAdjust: set factor to 0.193
ElecMinimize: Iter:  58  F: -657.273704059414740  |grad|_K:  3.965e-08  alpha:  1.763e-01  linmin: -2.917e-09  t[s]:    169.69
	FillingsUpdate:  mu: -0.086012021  nElectrons: 330.000000
	SubspaceRotationAdjust: set factor to 0.246
ElecMinimize: Iter:  59  F: -657.273704068218535  |grad|_K:  3.967e-08  alpha:  1.937e-01  linmin:  1.296e-07  t[s]:    171.55
ElecMinimize: Converged (|Delta F|<1.000000e-08 for 2 iters).
Setting wave functions to eigenvectors of Hamiltonian
Vacuum energy after initial minimize, F = -657.273704068218535


-------- Electronic minimization -----------
	Linear fluid (dielectric constant: 64) occupying 0.874096 of unit cell:	Completed after 45 iterations at t[s]:    172.42
	FillingsUpdate:  mu: -0.088632924  nElectrons: 330.000000
ElecMinimize: Iter:   0  F: -657.411691704373879  |grad|_K:  3.322e-05  alpha:  1.000e+00
	Linear fluid (dielectric constant: 64) occupying 0.874364 of unit cell:	Completed after 32 iterations at t[s]:    174.22
	Linear fluid (dielectric constant: 64) occupying 0.874316 of unit cell:	Completed after 24 iterations at t[s]:    175.15
	FillingsUpdate:  mu: -0.094980230  nElectrons: 330.000000
	SubspaceRotationAdjust: set factor to 0.242
ElecMinimize: Iter:   1  F: -657.435049670521835  |grad|_K:  2.469e-05  alpha:  7.609e-01  linmin: -3.774e-04  t[s]:    176.03
	Linear fluid (dielectric constant: 64) occupying 0.874425 of unit cell:	Completed after 29 iterations at t[s]:    176.92
	Linear fluid (dielectric constant: 64) occupying 0.874367 of unit cell:	Completed after 24 iterations at t[s]:    177.85
	FillingsUpdate:  mu: -0.078909740  nElectrons: 330.000000
	SubspaceRotationAdjust: set factor to 0.206
ElecMinimize: Iter:   2  F: -657.440003666554730  |grad|_K:  2.474e-05  alpha:  2.808e-01  linmin:  6.897e-05  t[s]:    178.73
	Linear fluid (dielectric constant: 64) occupying 0.874383 of unit cell:	Completed after 20 iterations at t[s]:    179.53
	Linear fluid (dielectric constant: 64) occupying 0.874384 of unit cell:	Completed after 15 iterations at t[s]:    180.37
	FillingsUpdate:  mu: -0.091559256  nElectrons: 330.000000
	SubspaceRotationAdjust: set factor to 0.234
ElecMinimize: Iter:   3  F: -657.446734591023301  |grad|_K:  1.481e-05  alpha:  3.829e-01  linmin: -8.185e-05  t[s]:    181.25
	Linear fluid (dielectric constant: 64) occupying 0.874397 of unit cell:	Completed after 16 iterations at t[s]:    182.03
	Linear fluid (dielectric constant: 64) occupying 0.874399 of unit cell:	Completed after 12 iterations at t[s]:    182.83
	FillingsUpdate:  mu: -0.090552965  nElectrons: 330.000000
	SubspaceRotationAdjust: set factor to 0.291
ElecMinimize: Iter:   4  F: -657.450174820408279  |grad|_K:  9.521e-06  alpha:  5.195e-01  linmin: -4.605e-05  t[s]:    183.70
	Linear fluid (dielectric constant: 64) occupying 0.874432 of unit cell:	Completed after 15 iterations at t[s]:    184.47
	Linear fluid (dielectric constant: 64) occupying 0.874436 of unit cell:	Completed after 6 iterations at t[s]:    185.21
	FillingsUpdate:  mu: -0.090815296  nElectrons: 330.000000
	SubspaceRotationAdjust: set factor to 0.37
ElecMinimize: Iter:   5  F: -657.451765899844418  |grad|_K:  6.934e-06  alpha:  5.926e-01  linmin: -2.178e-05  t[s]:    186.05
	Linear fluid (dielectric constant: 64) occupying 0.874493 of unit cell:	Completed after 19 iterations at t[s]:    186.84
	Linear fluid (dielectric constant: 64) occupying 0.874499 of unit cell:	Completed after 5 iterations at t[s]:    187.59
	FillingsUpdate:  mu: -0.089165062  nElectrons: 330.000000
	SubspaceRotationAdjust: set factor to 0.436
ElecMinimize: Iter:   6  F: -657.452694877946556  |grad|_K:  5.105e-06  alpha:  6.568e-01  linmin: -1.865e-05  t[s]:    188.46
	Linear fluid (dielectric constant: 64) occupying 0.874540 of unit cell:	Completed after 17 iterations at t[s]:    189.24
	Linear fluid (dielectric constant: 64) occupying 0.874519 of unit cell:	Completed after 13 iterations at t[s]:    190.04
	FillingsUpdate:  mu: -0.091706221  nElectrons: 330.000000
	SubspaceRotationAdjust: set factor to 0.34
ElecMinimize: Iter:   7  F: -657.452922941389261  |grad|_K:  6.243e-06  alpha:  2.994e-01  linmin:  1.547e-06  t[s]:    190.88
	Linear fluid (dielectric constant: 64) occupying 0.874559 of unit cell:	Completed after 16 iterations at t[s]:    191.66
	Linear fluid (dielectric constant: 64) occupying 0.874543 of unit cell:	Completed after 11 iterations at t[s]:    192.46
	FillingsUpdate:  mu: -0.089407065  nElectrons: 330.000000
	SubspaceRotationAdjust: set factor to 0.239
ElecMinimize: Iter:   8  F: -657.453126232844738  |grad|_K:  3.464e-06  alpha:  1.805e-01  linmin:  7.586e-07  t[s]:    193.31
	Linear fluid (dielectric constant: 64) occupying 0.874552 of unit cell:	Completed after 5 iterations at t[s]:    193.98
	Linear fluid (dielectric constant: 64) occupying 0.874561 of unit cell:	Completed after 5 iterations at t[s]:    194.69
	FillingsUpdate:  mu: -0.089934509  nElectrons: 330.000000
	SubspaceRotationAdjust: set factor to 0.276
ElecMinimize: Iter:   9  F: -657.453249593998748  |grad|_K:  2.040e-06  alpha:  3.541e-01  linmin: -2.303e-06  t[s]:    195.54
	Linear fluid (dielectric constant: 64) occupying 0.874570 of unit cell:	Completed after 6 iterations at t[s]:    196.23
	Linear fluid (dielectric constant: 64) occupying 0.874572 of unit cell:	Completed after 2 iterations at t[s]:    196.94
	FillingsUpdate:  mu: -0.090103759  nElectrons: 330.000000
	SubspaceRotationAdjust: set factor to 0.313
ElecMinimize: Iter:  10  F: -657.453301008153062  |grad|_K:  1.514e-06  alpha:  4.245e-01  linmin: -3.353e-06  t[s]:    197.81
	Linear fluid (dielectric constant: 64) occupying 0.874580 of unit cell:	Completed after 10 iterations at t[s]:    198.53
	Linear fluid (dielectric constant: 64) occupying 0.874582 of unit cell:	Completed after 4 iterations at t[s]:    199.24
	FillingsUpdate:  mu: -0.089128775  nElectrons: 330.000000
	SubspaceRotationAdjust: set factor to 0.224
ElecMinimize: Iter:  11  F: -657.453335918248740  |grad|_K:  1.964e-06  alpha:  5.232e-01  linmin: -3.315e-06  t[s]:    200.07
	Linear fluid (dielectric constant: 64) occupying 0.874593 of unit cell:	Completed after 12 iterations at t[s]:    200.82
	Linear fluid (dielectric constant: 64) occupying 0.874586 of unit cell:	Completed after 7 iterations at t[s]:    201.58
	FillingsUpdate:  mu: -0.089985203  nElectrons: 330.000000
	SubspaceRotationAdjust: set factor to 0.186
ElecMinimize: Iter:  12  F: -657.453358488886579  |grad|_K:  1.219e-06  alpha:  1.995e-01  linmin:  2.895e-06  t[s]:    202.45
	Linear fluid (dielectric constant: 64) occupying 0.874587 of unit cell:	Completed after 5 iterations at t[s]:    203.13
ElecMinimize: 	Predicted alpha/alphaT>3.000000, increasing alphaT to 5.983783e-01.
	Linear fluid (dielectric constant: 64) occupying 0.874588 of unit cell:	Completed after 7 iterations at t[s]:    203.87
	Linear fluid (dielectric constant: 64) occupying 0.874589 of unit cell:	Completed after 8 iterations at t[s]:    204.62
	FillingsUpdate:  mu: -0.089817117  nElectrons: 330.000000
	SubspaceRotationAdjust: set factor to 0.21
ElecMinimize: Iter:  13  F: -657.453403053685975  |grad|_K:  1.541e-06  alpha:  1.028e+00  linmin: -5.927e-06  t[s]:    205.48
	Linear fluid (dielectric constant: 64) occupying 0.874593 of unit cell:	Completed after 19 iterations at t[s]:    206.28
	Linear fluid (dielectric constant: 64) occupying 0.874591 of unit cell:	Completed after 14 iterations at t[s]:    207.08
	FillingsUpdate:  mu: -0.089325110  nElectrons: 330.000000
	SubspaceRotationAdjust: set factor to 0.221
ElecMinimize: Iter:  14  F: -657.453440102025525  |grad|_K:  1.706e-06  alpha:  5.187e-01  linmin: -3.414e-06  t[s]:    207.95
	Linear fluid (dielectric constant: 64) occupying 0.874595 of unit cell:	Completed after 17 iterations at t[s]:    208.74
	Linear fluid (dielectric constant: 64) occupying 0.874596 of unit cell:	Completed after 6 iterations at t[s]:    209.48
	FillingsUpdate:  mu: -0.089934343  nElectrons: 330.000000
	SubspaceRotationAdjust: set factor to 0.219
ElecMinimize: Iter:  15  F: -657.453492053658238  |grad|_K:  2.071e-06  alpha:  6.115e-01  linmin:  6.179e-06  t[s]:    210.32
	Linear fluid (dielectric constant: 64) occupying 0.874606 of unit cell:	Completed after 21 iterations at t[s]:    211.13
	Linear fluid (dielectric constant: 64) occupying 0.874601 of unit cell:	Completed after 16 iterations at t[s]:    211.95
	FillingsUpdate:  mu: -0.088967440  nElectrons: 330.000000
	SubspaceRotationAdjust: set factor to 0.203
ElecMinimize: Iter:  16  F: -657.453524674361233  |grad|_K:  1.816e-06  alpha:  2.688e-01  linmin: -3.785e-06  t[s]:    212.80
	Linear fluid (dielectric constant: 64) occupying 0.874603 of unit cell:	Completed after 11 iterations at t[s]:    213.53
	Linear fluid (dielectric constant: 64) occupying 0.874605 of unit cell:	Completed after 12 iterations at t[s]:    214.32
	FillingsUpdate:  mu: -0.089019777  nElectrons: 330.000000
	SubspaceRotationAdjust: set factor to 0.263
ElecMinimize: Iter:  17  F: -657.453578181833791  |grad|_K:  1.772e-06  alpha:  5.364e-01  linmin: -1.090e-05  t[s]:    215.18
	Linear fluid (dielectric constant: 64) occupying 0.874605 of unit cell:	Completed after 18 iterations at t[s]:    215.97
	Linear fluid (dielectric constant: 64) occupying 0.874605 of unit cell:	Completed after 7 iterations at t[s]:    216.71
	FillingsUpdate:  mu: -0.089987133  nElectrons: 330.000000
	SubspaceRotationAdjust: set factor to 0.23
ElecMinimize: Iter:  18  F: -657.453617900448876  |grad|_K:  2.577e-06  alpha:  4.206e-01  linmin: -2.000e-06  t[s]:    217.55
	Linear fluid (dielectric constant: 64) occupying 0.874606 of unit cell:	Completed after 25 iterations at t[s]:    218.41
	Linear fluid (dielectric constant: 64) occupying 0.874607 of unit cell:	Completed after 20 iterations at t[s]:    219.27
	FillingsUpdate:  mu: -0.088196316  nElectrons: 330.000000
	SubspaceRotationAdjust: set factor to 0.235
ElecMinimize: Iter:  19  F: -657.453676572958557  |grad|_K:  4.082e-06  alpha:  6.081e-01  linmin:  1.738e-04  t[s]:    220.11
ElecMinimize: 	Bad step direction: g.d > 0.
ElecMinimize: 	Undoing step.
	Linear fluid (dielectric constant: 64) occupying 0.874607 of unit cell:	Completed after 0 iterations at t[s]:    220.72
ElecMinimize: 	Step failed: resetting search direction.
	FillingsUpdate:  mu: -0.088196316  nElectrons: 330.000000
	SubspaceRotationAdjust: set factor to 0.326
ElecMinimize: Iter:  20  F: -657.453676572958784  |grad|_K:  4.094e-06  alpha:  0.000e+00
	Linear fluid (dielectric constant: 64) occupying 0.874607 of unit cell:	Completed after 14 iterations at t[s]:    222.27
	Linear fluid (dielectric constant: 64) occupying 0.874607 of unit cell:	Completed after 11 iterations at t[s]:    223.05
	FillingsUpdate:  mu: -0.089511752  nElectrons: 330.000000
	SubspaceRotationAdjust: set factor to 0.32
ElecMinimize: Iter:  21  F: -657.453809484922431  |grad|_K:  2.900e-06  alpha:  2.853e-01  linmin:  2.287e-05  t[s]:    223.89
	Linear fluid (dielectric constant: 64) occupying 0.874609 of unit cell:	Completed after 12 iterations at t[s]:    224.62
	Linear fluid (dielectric constant: 64) occupying 0.874608 of unit cell:	Completed after 4 iterations at t[s]:    225.34
	FillingsUpdate:  mu: -0.088324564  nElectrons: 330.000000
	SubspaceRotationAdjust: set factor to 0.286
ElecMinimize: Iter:  22  F: -657.453865576644830  |grad|_K:  2.413e-06  alpha:  2.382e-01  linmin: -1.136e-05  t[s]:    226.18
	Linear fluid (dielectric constant: 64) occupying 0.874608 of unit cell:	Completed after 9 iterations at t[s]:    226.89
	Linear fluid (dielectric constant: 64) occupying 0.874607 of unit cell:	Completed after 5 iterations at t[s]:    227.61
	FillingsUpdate:  mu: -0.089171615  nElectrons: 330.000000
	SubspaceRotationAdjust: set factor to 0.251
ElecMinimize: Iter:  23  F: -657.453923973171413  |grad|_K:  1.438e-06  alpha:  3.279e-01  linmin: -2.308e-05  t[s]:    228.44
	Linear fluid (dielectric constant: 64) occupying 0.874608 of unit cell:	Completed after 11 iterations at t[s]:    229.16
	Linear fluid (dielectric constant: 64) occupying 0.874609 of unit cell:	Completed after 6 iterations at t[s]:    229.89
	FillingsUpdate:  mu: -0.088412739  nElectrons: 330.000000
	SubspaceRotationAdjust: set factor to 0.217
ElecMinimize: Iter:  24  F: -657.453953510586985  |grad|_K:  1.449e-06  alpha:  4.549e-01  linmin: -7.835e-06  t[s]:    230.73
	Linear fluid (dielectric constant: 64) occupying 0.874609 of unit cell:	Completed after 12 iterations at t[s]:    231.47
	Linear fluid (dielectric constant: 64) occupying 0.874609 of unit cell:	Completed after 5 iterations at t[s]:    232.18
	FillingsUpdate:  mu: -0.089051940  nElectrons: 330.000000
	SubspaceRotationAdjust: set factor to 0.173
ElecMinimize: Iter:  25  F: -657.453972000727163  |grad|_K:  1.074e-06  alpha:  2.988e-01  linmin: -1.296e-06  t[s]:    233.02
	Linear fluid (dielectric constant: 64) occupying 0.874610 of unit cell:	Completed after 5 iterations at t[s]:    233.69
	Linear fluid (dielectric constant: 64) occupying 0.874611 of unit cell:	Completed after 4 iterations at t[s]:    234.39
	FillingsUpdate:  mu: -0.088685399  nElectrons: 330.000000
	SubspaceRotationAdjust: set factor to 0.161
ElecMinimize: Iter:  26  F: -657.453984011405964  |grad|_K:  7.899e-07  alpha:  3.607e-01  linmin:  4.842e-06  t[s]:    235.23
	Linear fluid (dielectric constant: 64) occupying 0.874611 of unit cell:	Completed after 5 iterations at t[s]:    235.90
	Linear fluid (dielectric constant: 64) occupying 0.874612 of unit cell:	Completed after 3 iterations at t[s]:    236.59
	FillingsUpdate:  mu: -0.088867582  nElectrons: 330.000000
	SubspaceRotationAdjust: set factor to 0.174
ElecMinimize: Iter:  27  F: -657.453992385857987  |grad|_K:  5.071e-07  alpha:  4.754e-01  linmin: -2.529e-06  t[s]:    237.45
	Linear fluid (dielectric constant: 64) occupying 0.874612 of unit cell:	Completed after 7 iterations at t[s]:    238.13
	Linear fluid (dielectric constant: 64) occupying 0.874612 of unit cell:	Completed after 2 iterations at t[s]:    238.81
	FillingsUpdate:  mu: -0.088816363  nElectrons: 330.000000
	SubspaceRotationAdjust: set factor to 0.198
ElecMinimize: Iter:  28  F: -657.453997035323027  |grad|_K:  4.797e-07  alpha:  6.108e-01  linmin: -1.658e-05  t[s]:    239.63
	Linear fluid (dielectric constant: 64) occupying 0.874612 of unit cell:	Completed after 10 iterations at t[s]:    240.35
	Linear fluid (dielectric constant: 64) occupying 0.874612 of unit cell:	Completed after 0 iterations at t[s]:    241.03
	FillingsUpdate:  mu: -0.088741138  nElectrons: 330.000000
	SubspaceRotationAdjust: set factor to 0.228
ElecMinimize: Iter:  29  F: -657.454001021154568  |grad|_K:  4.625e-07  alpha:  5.697e-01  linmin: -6.189e-06  t[s]:    241.85
	Linear fluid (dielectric constant: 64) occupying 0.874612 of unit cell:	Completed after 5 iterations at t[s]:    242.52
	Linear fluid (dielectric constant: 64) occupying 0.874612 of unit cell:	Completed after 5 iterations at t[s]:    243.23
	FillingsUpdate:  mu: -0.088952677  nElectrons: 330.000000
	SubspaceRotationAdjust: set factor to 0.227
ElecMinimize: Iter:  30  F: -657.454006289486870  |grad|_K:  7.490e-07  alpha:  8.714e-01  linmin:  1.163e-05  t[s]:    244.07
	Linear fluid (dielectric constant: 64) occupying 0.874611 of unit cell:	Completed after 17 iterations at t[s]:    244.85
	Linear fluid (dielectric constant: 64) occupying 0.874611 of unit cell:	Completed after 8 iterations at t[s]:    245.61
	FillingsUpdate:  mu: -0.088248513  nElectrons: 330.000000
	SubspaceRotationAdjust: set factor to 0.203
ElecMinimize: Iter:  31  F: -657.454015596152544  |grad|_K:  1.499e-06  alpha:  6.735e-01  linmin: -3.804e-06  t[s]:    246.45
	Linear fluid (dielectric constant: 64) occupying 0.874607 of unit cell:	Completed after 30 iterations at t[s]:    247.35
ElecMinimize: 	Wrong curvature in test step, increasing alphaT to 2.020439e+00.
	Linear fluid (dielectric constant: 64) occupying 0.874607 of unit cell:	Completed after 0 iterations at t[s]:    247.88
	FillingsUpdate:  mu: -0.087784450  nElectrons: 330.000000
	SubspaceRotationAdjust: set factor to 0.219
ElecMinimize: Iter:  32  F: -657.454281105365453  |grad|_K:  4.341e-06  alpha: -1.795e-01  linmin: -5.624e-05  t[s]:    248.72
	Linear fluid (dielectric constant: 64) occupying 0.607581 of unit cell:	Completed after 35 iterations at t[s]:    249.68
	Linear fluid (dielectric constant: 64) occupying 0.872425 of unit cell:	Completed after 52 iterations at t[s]:    250.86
ElecMinimize: 	Step increased F by 6.178106e-01, reducing alpha to 7.332798e-06.
	Linear fluid (dielectric constant: 64) occupying 0.872425 of unit cell:	Completed after 0 iterations at t[s]:    252.20
ElecMinimize: 	Step increased F by 6.178090e-01, reducing alpha to 7.332798e-07.
	Linear fluid (dielectric constant: 64) occupying 0.872425 of unit cell:	Completed after 0 iterations at t[s]:    253.49
ElecMinimize: 	Step increased F by 6.178089e-01, reducing alpha to 7.332798e-08.
ElecMinimize: 	Step failed to reduce F after 3 attempts. Quitting step.
ElecMinimize: 	Undoing step.
	Linear fluid (dielectric constant: 64) occupying 0.872425 of unit cell:	Completed after 0 iterations at t[s]:    254.78
ElecMinimize: 	Step failed: resetting search direction.
	FillingsUpdate:  mu: -0.118956589  nElectrons: 330.000000
	SubspaceRotationAdjust: set factor to 0.131
ElecMinimize: Iter:  33  F: -656.836472250604743  |grad|_K:  1.039e-04  alpha:  7.333e-08
	Linear fluid (dielectric constant: 64) occupying 0.873895 of unit cell:	Completed after 53 iterations at t[s]:    256.68
	Linear fluid (dielectric constant: 64) occupying 0.872987 of unit cell:	Completed after 46 iterations at t[s]:    257.81
	FillingsUpdate:  mu: -0.057789000  nElectrons: 330.000000
	SubspaceRotationAdjust: set factor to 0.141
ElecMinimize: Iter:  34  F: -656.911322261237387  |grad|_K:  1.031e-04  alpha:  3.381e-01  linmin:  1.883e-03  t[s]:    258.69
	Linear fluid (dielectric constant: 64) occupying 0.873643 of unit cell:	Completed after 32 iterations at t[s]:    259.60
	Linear fluid (dielectric constant: 64) occupying 0.874455 of unit cell:	Completed after 33 iterations at t[s]:    260.61
	FillingsUpdate:  mu: -0.052652632  nElectrons: 330.000000
	SubspaceRotationAdjust: set factor to 0.179
ElecMinimize: Iter:  35  F: -657.115808662032919  |grad|_K:  1.002e-04  alpha:  8.322e-01  linmin:  1.759e-04  t[s]:    261.46
	Linear fluid (dielectric constant: 64) occupying 0.875399 of unit cell:	Completed after 32 iterations at t[s]:    262.37
	Linear fluid (dielectric constant: 64) occupying 0.875289 of unit cell:	Completed after 21 iterations at t[s]:    263.27
	FillingsUpdate:  mu: -0.047489558  nElectrons: 330.000000
	SubspaceRotationAdjust: set factor to 0.223
ElecMinimize: Iter:  36  F: -657.314691466193494  |grad|_K:  9.104e-05  alpha:  7.068e-01  linmin: -6.499e-05  t[s]:    264.12
	Linear fluid (dielectric constant: 64) occupying 0.875324 of unit cell:	Completed after 37 iterations at t[s]:    265.07
	Linear fluid (dielectric constant: 64) occupying 0.875343 of unit cell:	Completed after 35 iterations at t[s]:    266.10
	FillingsUpdate:  mu: -0.082254470  nElectrons: 330.000000
	SubspaceRotationAdjust: set factor to 0.233
ElecMinimize: Iter:  37  F: -657.380511358616332  |grad|_K:  4.329e-05  alpha:  2.164e-01  linmin: -2.799e-03  t[s]:    266.95
	Linear fluid (dielectric constant: 64) occupying 0.875277 of unit cell:	Completed after 25 iterations at t[s]:    267.81
	Linear fluid (dielectric constant: 64) occupying 0.875139 of unit cell:	Completed after 39 iterations at t[s]:    268.86
	FillingsUpdate:  mu: -0.092035949  nElectrons: 330.000000
	SubspaceRotationAdjust: set factor to 0.282
ElecMinimize: Iter:  38  F: -657.421141752314497  |grad|_K:  4.417e-05  alpha:  6.387e-01  linmin:  4.017e-04  t[s]:    269.72
	Linear fluid (dielectric constant: 64) occupying 0.874716 of unit cell:	Completed after 37 iterations at t[s]:    270.68
	Linear fluid (dielectric constant: 64) occupying 0.875002 of unit cell:	Completed after 32 iterations at t[s]:    271.67
	FillingsUpdate:  mu: -0.076420041  nElectrons: 330.000000
	SubspaceRotationAdjust: set factor to 0.253
ElecMinimize: Iter:  39  F: -657.432575766345053  |grad|_K:  3.378e-05  alpha:  2.118e-01  linmin: -1.366e-04  t[s]:    272.54
	Linear fluid (dielectric constant: 64) occupying 0.874850 of unit cell:	Completed after 31 iterations at t[s]:    273.44
	Linear fluid (dielectric constant: 64) occupying 0.874727 of unit cell:	Completed after 28 iterations at t[s]:    274.39
	FillingsUpdate:  mu: -0.087899199  nElectrons: 330.000000
	SubspaceRotationAdjust: set factor to 0.326
ElecMinimize: Iter:  40  F: -657.444897351076520  |grad|_K:  2.456e-05  alpha:  3.732e-01  linmin:  3.086e-04  t[s]:    275.24
	Linear fluid (dielectric constant: 64) occupying 0.874547 of unit cell:	Completed after 23 iterations at t[s]:    276.08
	Linear fluid (dielectric constant: 64) occupying 0.874607 of unit cell:	Completed after 17 iterations at t[s]:    276.92
	FillingsUpdate:  mu: -0.094458457  nElectrons: 330.000000
	SubspaceRotationAdjust: set factor to 0.274
ElecMinimize: Iter:  41  F: -657.449133592292355  |grad|_K:  2.334e-05  alpha:  2.508e-01  linmin:  4.922e-06  t[s]:    277.76
	Linear fluid (dielectric constant: 64) occupying 0.874531 of unit cell:	Completed after 30 iterations at t[s]:    278.67
	Linear fluid (dielectric constant: 64) occupying 0.874546 of unit cell:	Completed after 18 iterations at t[s]:    279.54
	FillingsUpdate:  mu: -0.089442647  nElectrons: 330.000000
	SubspaceRotationAdjust: set factor to 0.346
ElecMinimize: Iter:  42  F: -657.452320864691842  |grad|_K:  1.263e-05  alpha:  2.017e-01  linmin:  2.446e-06  t[s]:    280.39
	Linear fluid (dielectric constant: 64) occupying 0.874549 of unit cell:	Completed after 21 iterations at t[s]:    281.21
	Linear fluid (dielectric constant: 64) occupying 0.874551 of unit cell:	Completed after 18 iterations at t[s]:    286.06
	FillingsUpdate:  mu: -0.085105470  nElectrons: 330.000000
	SubspaceRotationAdjust: set factor to 0.332
ElecMinimize: Iter:  43  F: -657.453684914109772  |grad|_K:  9.842e-06  alpha:  2.940e-01  linmin: -4.464e-05  t[s]:    292.11
	Linear fluid (dielectric constant: 64) occupying 0.874565 of unit cell:	Completed after 23 iterations at t[s]:    292.95
	Linear fluid (dielectric constant: 64) occupying 0.874559 of unit cell:	Completed after 15 iterations at t[s]:    293.76
	FillingsUpdate:  mu: -0.088777750  nElectrons: 330.000000
	SubspaceRotationAdjust: set factor to 0.27
ElecMinimize: Iter:  44  F: -657.454148780108085  |grad|_K:  6.529e-06  alpha:  1.633e-01  linmin: -4.021e-06  t[s]:    294.60
	Linear fluid (dielectric constant: 64) occupying 0.874574 of unit cell:	Completed after 19 iterations at t[s]:    295.40
	Linear fluid (dielectric constant: 64) occupying 0.874588 of unit cell:	Completed after 20 iterations at t[s]:    296.25
	FillingsUpdate:  mu: -0.088632721  nElectrons: 330.000000
	SubspaceRotationAdjust: set factor to 0.352
ElecMinimize: Iter:  45  F: -657.454545176768647  |grad|_K:  4.384e-06  alpha:  3.211e-01  linmin:  1.481e-05  t[s]:    297.11
	Linear fluid (dielectric constant: 64) occupying 0.874612 of unit cell:	Completed after 13 iterations at t[s]:    297.85
	Linear fluid (dielectric constant: 64) occupying 0.874607 of unit cell:	Completed after 5 iterations at t[s]:    298.57
	FillingsUpdate:  mu: -0.087326703  nElectrons: 330.000000
	SubspaceRotationAdjust: set factor to 0.314
ElecMinimize: Iter:  46  F: -657.454682630049206  |grad|_K:  3.563e-06  alpha:  2.478e-01  linmin:  2.099e-06  t[s]:    299.41
	Linear fluid (dielectric constant: 64) occupying 0.874618 of unit cell:	Completed after 14 iterations at t[s]:    300.17
	Linear fluid (dielectric constant: 64) occupying 0.874615 of unit cell:	Completed after 5 iterations at t[s]:    300.89
	FillingsUpdate:  mu: -0.088508164  nElectrons: 330.000000
	SubspaceRotationAdjust: set factor to 0.25
ElecMinimize: Iter:  47  F: -657.454751676175761  |grad|_K:  2.156e-06  alpha:  1.876e-01  linmin:  4.217e-06  t[s]:    301.73
	Linear fluid (dielectric constant: 64) occupying 0.874618 of unit cell:	Completed after 7 iterations at t[s]:    302.41
	Linear fluid (dielectric constant: 64) occupying 0.874620 of unit cell:	Completed after 10 iterations at t[s]:    303.18
	FillingsUpdate:  mu: -0.088367131  nElectrons: 330.000000
	SubspaceRotationAdjust: set factor to 0.331
ElecMinimize: Iter:  48  F: -657.454800764334209  |grad|_K:  1.423e-06  alpha:  3.646e-01  linmin: -6.246e-06  t[s]:    304.02
	Linear fluid (dielectric constant: 64) occupying 0.874619 of unit cell:	Completed after 9 iterations at t[s]:    304.73
	Linear fluid (dielectric constant: 64) occupying 0.874619 of unit cell:	Completed after 4 iterations at t[s]:    305.43
	FillingsUpdate:  mu: -0.087808744  nElectrons: 330.000000
	SubspaceRotationAdjust: set factor to 0.296
ElecMinimize: Iter:  49  F: -657.454816890073175  |grad|_K:  1.276e-06  alpha:  2.744e-01  linmin:  8.408e-09  t[s]:    306.26
	Linear fluid (dielectric constant: 64) occupying 0.874614 of unit cell:	Completed after 11 iterations at t[s]:    306.99
	Linear fluid (dielectric constant: 64) occupying 0.874615 of unit cell:	Completed after 3 iterations at t[s]:    307.69
	FillingsUpdate:  mu: -0.088270389  nElectrons: 330.000000
	SubspaceRotationAdjust: set factor to 0.266
ElecMinimize: Iter:  50  F: -657.454827661498484  |grad|_K:  8.154e-07  alpha:  2.278e-01  linmin:  1.892e-05  t[s]:    308.52
	Linear fluid (dielectric constant: 64) occupying 0.874612 of unit cell:	Completed after 3 iterations at t[s]:    309.16
	Linear fluid (dielectric constant: 64) occupying 0.874610 of unit cell:	Completed after 3 iterations at t[s]:    309.85
	FillingsUpdate:  mu: -0.088196154  nElectrons: 330.000000
	SubspaceRotationAdjust: set factor to 0.313
ElecMinimize: Iter:  51  F: -657.454834359206870  |grad|_K:  5.519e-07  alpha:  3.574e-01  linmin:  5.464e-06  t[s]:    310.68
	Linear fluid (dielectric constant: 64) occupying 0.874607 of unit cell:	Completed after 4 iterations at t[s]:    311.34
	Linear fluid (dielectric constant: 64) occupying 0.874607 of unit cell:	Completed after 0 iterations at t[s]:    311.99
	FillingsUpdate:  mu: -0.088225629  nElectrons: 330.000000
	SubspaceRotationAdjust: set factor to 0.367
ElecMinimize: Iter:  52  F: -657.454837683838832  |grad|_K:  3.936e-07  alpha:  3.785e-01  linmin: -1.019e-05  t[s]:    312.80
	Linear fluid (dielectric constant: 64) occupying 0.874605 of unit cell:	Completed after 4 iterations at t[s]:    313.46
	Linear fluid (dielectric constant: 64) occupying 0.874605 of unit cell:	Completed after 0 iterations at t[s]:    314.12
	FillingsUpdate:  mu: -0.088167704  nElectrons: 330.000000
	SubspaceRotationAdjust: set factor to 0.395
ElecMinimize: Iter:  53  F: -657.454839661381243  |grad|_K:  2.743e-07  alpha:  4.275e-01  linmin: -3.286e-05  t[s]:    314.94
	Linear fluid (dielectric constant: 64) occupying 0.874603 of unit cell:	Completed after 3 iterations at t[s]:    315.61
	Linear fluid (dielectric constant: 64) occupying 0.874604 of unit cell:	Completed after 0 iterations at t[s]:    316.27
	FillingsUpdate:  mu: -0.088285992  nElectrons: 330.000000
	SubspaceRotationAdjust: set factor to 0.348
ElecMinimize: Iter:  54  F: -657.454840370774832  |grad|_K:  3.023e-07  alpha:  2.981e-01  linmin:  3.064e-05  t[s]:    317.09
	Linear fluid (dielectric constant: 64) occupying 0.874603 of unit cell:	Completed after 3 iterations at t[s]:    317.76
	Linear fluid (dielectric constant: 64) occupying 0.874603 of unit cell:	Completed after 1 iterations at t[s]:    318.44
	FillingsUpdate:  mu: -0.088162825  nElectrons: 330.000000
	SubspaceRotationAdjust: set factor to 0.243
ElecMinimize: Iter:  55  F: -657.454840630414651  |grad|_K:  2.393e-07  alpha:  1.317e-01  linmin:  2.457e-05  t[s]:    319.26
	Linear fluid (dielectric constant: 64) occupying 0.874603 of unit cell:	Completed after 1 iterations at t[s]:    319.90
	Linear fluid (dielectric constant: 64) occupying 0.874603 of unit cell:	Completed after 0 iterations at t[s]:    320.53
	FillingsUpdate:  mu: -0.088179510  nElectrons: 330.000000
	SubspaceRotationAdjust: set factor to 0.378
ElecMinimize: Iter:  56  F: -657.454840955711347  |grad|_K:  1.686e-07  alpha:  1.850e-01  linmin: -8.032e-05  t[s]:    321.34
	Linear fluid (dielectric constant: 64) occupying 0.874602 of unit cell:	Completed after 3 iterations at t[s]:    322.01
	Linear fluid (dielectric constant: 64) occupying 0.874603 of unit cell:	Completed after 0 iterations at t[s]:    322.68
	FillingsUpdate:  mu: -0.088274620  nElectrons: 330.000000
	SubspaceRotationAdjust: set factor to 0.32
ElecMinimize: Iter:  57  F: -657.454840992848176  |grad|_K:  2.210e-07  alpha:  9.103e-02  linmin:  4.398e-05  t[s]:    323.49
	Linear fluid (dielectric constant: 64) occupying 0.874602 of unit cell:	Completed after 0 iterations at t[s]:    324.11
	Linear fluid (dielectric constant: 64) occupying 0.874602 of unit cell:	Completed after 0 iterations at t[s]:    324.74
	FillingsUpdate:  mu: -0.088276493  nElectrons: 330.000000
	SubspaceRotationAdjust: set factor to 0.299
ElecMinimize: Iter:  58  F: -657.454841117781939  |grad|_K:  2.045e-07  alpha:  1.176e-01  linmin:  7.417e-08  t[s]:    325.56
	Linear fluid (dielectric constant: 64) occupying 0.874602 of unit cell:	Completed after 2 iterations at t[s]:    326.22
	Linear fluid (dielectric constant: 64) occupying 0.874602 of unit cell:	Completed after 0 iterations at t[s]:    326.87
	FillingsUpdate:  mu: -0.088180623  nElectrons: 330.000000
	SubspaceRotationAdjust: set factor to 0.204
ElecMinimize: Iter:  59  F: -657.454841128283874  |grad|_K:  1.620e-07  alpha:  4.248e-02  linmin:  6.861e-05  t[s]:    327.69
	Linear fluid (dielectric constant: 64) occupying 0.874602 of unit cell:	Completed after 0 iterations at t[s]:    328.30
ElecMinimize: 	Predicted alpha/alphaT>3.000000, increasing alphaT to 1.274388e-01.
	Linear fluid (dielectric constant: 64) occupying 0.874602 of unit cell:	Completed after 0 iterations at t[s]:    328.93
	Linear fluid (dielectric constant: 64) occupying 0.874602 of unit cell:	Completed after 0 iterations at t[s]:    329.56
	FillingsUpdate:  mu: -0.088182099  nElectrons: 330.000000
	SubspaceRotationAdjust: set factor to 0.275
ElecMinimize: Iter:  60  F: -657.454841178583024  |grad|_K:  1.363e-07  alpha:  1.434e-01  linmin:  3.414e-08  t[s]:    330.38
	Linear fluid (dielectric constant: 64) occupying 0.874602 of unit cell:	Completed after 1 iterations at t[s]:    331.01
	Linear fluid (dielectric constant: 64) occupying 0.874602 of unit cell:	Completed after 0 iterations at t[s]:    331.66
	FillingsUpdate:  mu: -0.088230458  nElectrons: 330.000000
	SubspaceRotationAdjust: set factor to 0.233
ElecMinimize: Iter:  61  F: -657.454841189015724  |grad|_K:  9.084e-08  alpha:  7.555e-02  linmin: -1.950e-05  t[s]:    332.48
	Linear fluid (dielectric constant: 64) occupying 0.874602 of unit cell:	Completed after 0 iterations at t[s]:    333.11
	Linear fluid (dielectric constant: 64) occupying 0.874602 of unit cell:	Completed after 0 iterations at t[s]:    333.73
	FillingsUpdate:  mu: -0.088230957  nElectrons: 330.000000
	SubspaceRotationAdjust: set factor to 0.295
ElecMinimize: Iter:  62  F: -657.454841248091270  |grad|_K:  7.911e-08  alpha:  2.222e-01  linmin:  2.324e-08  t[s]:    334.54
	Linear fluid (dielectric constant: 64) occupying 0.874602 of unit cell:	Completed after 1 iterations at t[s]:    335.19
	Linear fluid (dielectric constant: 64) occupying 0.874602 of unit cell:	Completed after 0 iterations at t[s]:    335.82
ElecMinimize: 	Step increased F by 1.405851e-08, reducing alpha to 9.167483e-03.
	Linear fluid (dielectric constant: 64) occupying 0.874602 of unit cell:	Completed after 0 iterations at t[s]:    337.11
ElecMinimize: 	Step increased F by 2.005584e-08, reducing alpha to 9.167483e-04.
	Linear fluid (dielectric constant: 64) occupying 0.874602 of unit cell:	Completed after 0 iterations at t[s]:    338.42
ElecMinimize: 	Step increased F by 2.099716e-08, reducing alpha to 9.167483e-05.
ElecMinimize: 	Step failed to reduce F after 3 attempts. Quitting step.
ElecMinimize: 	Undoing step.
	Linear fluid (dielectric constant: 64) occupying 0.874602 of unit cell:	Completed after 0 iterations at t[s]:    339.73
ElecMinimize: 	Step failed: resetting search direction.
	FillingsUpdate:  mu: -0.088214097  nElectrons: 330.000000
	SubspaceRotationAdjust: set factor to 0.307
ElecMinimize: Iter:  63  F: -657.454841227078873  |grad|_K:  8.492e-08  alpha:  9.167e-05
	Linear fluid (dielectric constant: 64) occupying 0.874602 of unit cell:	Completed after 0 iterations at t[s]:    341.13
	Linear fluid (dielectric constant: 64) occupying 0.874602 of unit cell:	Completed after 0 iterations at t[s]:    341.77
	FillingsUpdate:  mu: -0.088222329  nElectrons: 330.000000
	SubspaceRotationAdjust: set factor to 0.344
ElecMinimize: Iter:  64  F: -657.454841280437904  |grad|_K:  6.324e-08  alpha:  2.391e-01  linmin: -4.565e-04  t[s]:    342.58
	Linear fluid (dielectric constant: 64) occupying 0.874602 of unit cell:	Completed after 1 iterations at t[s]:    343.21
	Linear fluid (dielectric constant: 64) occupying 0.874602 of unit cell:	Completed after 0 iterations at t[s]:    343.85
	FillingsUpdate:  mu: -0.088226931  nElectrons: 330.000000
	SubspaceRotationAdjust: set factor to 0.38
ElecMinimize: Iter:  65  F: -657.454841283917062  |grad|_K:  8.132e-08  alpha:  1.079e-01  linmin:  1.496e-04  t[s]:    344.65
	Linear fluid (dielectric constant: 64) occupying 0.874602 of unit cell:	Completed after 0 iterations at t[s]:    345.27
ElecMinimize: 	Wrong curvature in test step, increasing alphaT to 3.235621e-01.
	Linear fluid (dielectric constant: 64) occupying 0.874602 of unit cell:	Completed after 0 iterations at t[s]:    345.74
	FillingsUpdate:  mu: -0.088228248  nElectrons: 330.000000
	SubspaceRotationAdjust: set factor to 0.477
ElecMinimize: Iter:  66  F: -657.454841297718417  |grad|_K:  6.632e-08  alpha: -2.117e-01  linmin: -7.323e-05  t[s]:    346.56
	Linear fluid (dielectric constant: 64) occupying 0.874602 of unit cell:	Completed after 4 iterations at t[s]:    347.22
	Linear fluid (dielectric constant: 64) occupying 0.874602 of unit cell:	Completed after 3 iterations at t[s]:    347.91
ElecMinimize: 	Step increased F by 5.007792e-08, reducing alpha to 1.335080e-02.
	Linear fluid (dielectric constant: 64) occupying 0.874602 of unit cell:	Completed after 0 iterations at t[s]:    349.20
ElecMinimize: 	Step increased F by 2.448257e-08, reducing alpha to 1.335080e-03.
	Linear fluid (dielectric constant: 64) occupying 0.874602 of unit cell:	Completed after 0 iterations at t[s]:    350.53
ElecMinimize: 	Step increased F by 2.209697e-08, reducing alpha to 1.335080e-04.
ElecMinimize: 	Step failed to reduce F after 3 attempts. Quitting step.
ElecMinimize: 	Undoing step.
	Linear fluid (dielectric constant: 64) occupying 0.874602 of unit cell:	Completed after 0 iterations at t[s]:    351.83
ElecMinimize: 	Step failed: resetting search direction.
	FillingsUpdate:  mu: -0.088181502  nElectrons: 330.000000
	SubspaceRotationAdjust: set factor to 0.385
ElecMinimize: Iter:  67  F: -657.454841275648960  |grad|_K:  1.519e-07  alpha:  1.335e-04
	Linear fluid (dielectric constant: 64) occupying 0.874602 of unit cell:	Completed after 6 iterations at t[s]:    353.30
	Linear fluid (dielectric constant: 64) occupying 0.874602 of unit cell:	Completed after 5 iterations at t[s]:    354.03
ElecMinimize: 	Step increased F by 6.140465e-08, reducing alpha to 8.222626e-03.
	Linear fluid (dielectric constant: 64) occupying 0.874602 of unit cell:	Completed after 0 iterations at t[s]:    355.35
	FillingsUpdate:  mu: -0.088278545  nElectrons: 330.000000
	SubspaceRotationAdjust: set factor to 0.221
ElecMinimize: Iter:  68  F: -657.454841288709645  |grad|_K:  1.651e-07  alpha:  8.223e-03  linmin:  8.699e-04  t[s]:    356.16
	Linear fluid (dielectric constant: 64) occupying 0.874602 of unit cell:	Completed after 0 iterations at t[s]:    356.78
ElecMinimize: 	Wrong curvature in test step, increasing alphaT to 2.466788e-02.
	Linear fluid (dielectric constant: 64) occupying 0.874602 of unit cell:	Completed after 0 iterations at t[s]:    357.26
	FillingsUpdate:  mu: -0.088278449  nElectrons: 330.000000
	SubspaceRotationAdjust: set factor to 0.18
ElecMinimize: Iter:  69  F: -657.454841291930848  |grad|_K:  1.374e-07  alpha: -2.165e-01  linmin: -1.687e-04  t[s]:    358.06
	Linear fluid (dielectric constant: 64) occupying 0.874603 of unit cell:	Completed after 12 iterations at t[s]:    358.80
	Linear fluid (dielectric constant: 64) occupying 0.874602 of unit cell:	Completed after 11 iterations at t[s]:    359.56
	FillingsUpdate:  mu: -0.088183339  nElectrons: 330.000000
	SubspaceRotationAdjust: set factor to 0.0873
ElecMinimize: Iter:  70  F: -657.454841295990150  |grad|_K:  8.083e-08  alpha:  1.060e-01  linmin:  3.484e-04  t[s]:    360.41
ElecMinimize: Converged (|Delta F|<1.000000e-08 for 2 iters).
Setting wave functions to eigenvectors of Hamiltonian
Single-point solvation energy estimate, DeltaF = -0.181137227771615

Computing DFT-D3 correction:
# coordination-number C 3.300 3.302 3.302 3.301 3.300 3.331 3.300 3.300 3.355 3.300 3.300 3.300 3.300 3.300 3.295 3.299 3.300 3.288 3.483 3.300 3.300 3.300 3.300 3.300 3.315 3.288 3.301 3.300 3.397 3.302 3.300 3.497 3.300 3.305 3.300 3.300 3.303 3.294 3.300 3.300 3.414 3.300 3.300 3.300 3.300 3.300 3.312 3.300 3.302 3.282 3.289 3.300 3.298 3.481 3.300 3.301 3.300 3.417 3.303 3.300 3.512 3.300 3.300 3.292 3.300 3.299
# coordination-number N 3.259 3.188 3.205 3.221
# coordination-number Fe 6.039
# coordination-number S 2.930 3.879
# coordination-number Na 2.379 2.229
# diagonal-C6 C 24.28 24.27 24.27 24.27 24.28 23.96 24.28 24.28 23.69 24.28 24.29 24.28 24.29 24.29 24.33 24.29 24.29 24.40 21.89 24.29 24.28 24.29 24.28 24.29 24.14 24.39 24.28 24.28 23.15 24.26 24.29 21.69 24.28 24.24 24.28 24.28 24.25 24.34 24.28 24.28 22.92 24.28 24.28 24.29 24.29 24.29 24.17 24.28 24.26 24.45 24.39 24.29 24.30 21.92 24.29 24.27 24.29 22.86 24.26 24.29 21.47 24.28 24.28 24.36 24.28 24.29
# diagonal-C6 N 15.59 15.60 15.60 15.60
# diagonal-C6 Fe 109.50
# diagonal-C6 S 125.81 125.81
# diagonal-C6 Na 186.11 186.11
EvdW_6 =   -0.062307
EvdW_8 =   -0.056501

# Ionic positions in cartesian coordinates:
ion C   0.000000000000000   0.000000000000000   1.000001652210000 0
ion C  -2.333831667840000   4.042310104620000   1.000001652210000 0
ion C  11.669128103520009  20.211535405260001   1.000001652210000 0
[...]
	Linear fluid (dielectric constant: 64) occupying 0.873428 of unit cell:	Completed after 0 iterations at t[s]:   8005.47
ElecMinimize: 	Predicted alpha/alphaT>3.000000, increasing alphaT to 4.729468e-02.
	Linear fluid (dielectric constant: 64) occupying 0.873428 of unit cell:	Completed after 0 iterations at t[s]:   8006.10
ElecMinimize: 	Predicted alpha/alphaT>3.000000, increasing alphaT to 1.418841e-01.
	Linear fluid (dielectric constant: 64) occupying 0.873428 of unit cell:	Completed after 0 iterations at t[s]:   8006.74
ElecMinimize: 	Predicted alpha/alphaT>3.000000, increasing alphaT to 4.256522e-01.
	Linear fluid (dielectric constant: 64) occupying 0.873428 of unit cell:	Completed after 0 iterations at t[s]:   8007.37
	FillingsUpdate:  mu: -0.086764941  nElectrons: 330.000000
	SubspaceRotationAdjust: set factor to 0.0923
ElecMinimize: Iter:  15  F: -657.486569680952243  |grad|_K:  7.746e-08  alpha:  8.603e-01  linmin: -1.387e-04  t[s]:   8008.18
	Linear fluid (dielectric constant: 64) occupying 0.873428 of unit cell:	Completed after 5 iterations at t[s]:   8008.85
	Linear fluid (dielectric constant: 64) occupying 0.873428 of unit cell:	Completed after 3 iterations at t[s]:   8009.54
ElecMinimize: 	Step increased F by 1.316663e-07, reducing alpha to 1.150926e-02.
	Linear fluid (dielectric constant: 64) occupying 0.873428 of unit cell:	Completed after 0 iterations at t[s]:   8010.88
ElecMinimize: 	Step increased F by 6.776338e-08, reducing alpha to 1.150926e-03.
	Linear fluid (dielectric constant: 64) occupying 0.873428 of unit cell:	Completed after 0 iterations at t[s]:   8012.17
ElecMinimize: 	Step increased F by 6.096820e-08, reducing alpha to 1.150926e-04.
ElecMinimize: 	Step failed to reduce F after 3 attempts. Quitting step.
ElecMinimize: 	Undoing step.
	Linear fluid (dielectric constant: 64) occupying 0.873428 of unit cell:	Completed after 0 iterations at t[s]:   8013.48
ElecMinimize: 	Step failed: resetting search direction.
	FillingsUpdate:  mu: -0.086667791  nElectrons: 330.000000
	SubspaceRotationAdjust: set factor to 0.0863
ElecMinimize: Iter:  16  F: -657.486569620076693  |grad|_K:  1.934e-07  alpha:  1.151e-04
	Linear fluid (dielectric constant: 64) occupying 0.873428 of unit cell:	Completed after 4 iterations at t[s]:   8014.94
	Linear fluid (dielectric constant: 64) occupying 0.873428 of unit cell:	Completed after 4 iterations at t[s]:   8015.63
ElecMinimize: 	Step increased F by 2.135766e-08, reducing alpha to 1.538905e-02.
	Linear fluid (dielectric constant: 64) occupying 0.873428 of unit cell:	Completed after 0 iterations at t[s]:   8016.96
	FillingsUpdate:  mu: -0.086762009  nElectrons: 330.000000
	SubspaceRotationAdjust: set factor to 0.0429
ElecMinimize: Iter:  17  F: -657.486569640241441  |grad|_K:  5.071e-08  alpha:  1.539e-02  linmin:  1.145e-02  t[s]:   8017.78
	Linear fluid (dielectric constant: 64) occupying 0.873428 of unit cell:	Completed after 0 iterations at t[s]:   8018.40
ElecMinimize: 	Predicted alpha/alphaT>3.000000, increasing alphaT to 4.616715e-02.
	Linear fluid (dielectric constant: 64) occupying 0.873428 of unit cell:	Completed after 0 iterations at t[s]:   8019.02
ElecMinimize: 	Predicted alpha/alphaT>3.000000, increasing alphaT to 1.385014e-01.
	Linear fluid (dielectric constant: 64) occupying 0.873428 of unit cell:	Completed after 0 iterations at t[s]:   8019.65
	Linear fluid (dielectric constant: 64) occupying 0.873428 of unit cell:	Completed after 0 iterations at t[s]:   8020.29
	FillingsUpdate:  mu: -0.086753675  nElectrons: 330.000000
	SubspaceRotationAdjust: set factor to 0.0577
ElecMinimize: Iter:  18  F: -657.486569641891151  |grad|_K:  4.209e-08  alpha:  3.236e-01  linmin:  3.689e-03  t[s]:   8021.10
	Linear fluid (dielectric constant: 64) occupying 0.873428 of unit cell:	Completed after 1 iterations at t[s]:   8021.74
	Linear fluid (dielectric constant: 64) occupying 0.873428 of unit cell:	Completed after 0 iterations at t[s]:   8022.38
ElecMinimize: 	Step increased F by 7.844130e-08, reducing alpha to 4.410584e-03.
	Linear fluid (dielectric constant: 64) occupying 0.873428 of unit cell:	Completed after 0 iterations at t[s]:   8023.68
ElecMinimize: 	Step increased F by 7.418646e-08, reducing alpha to 4.410584e-04.
	Linear fluid (dielectric constant: 64) occupying 0.873428 of unit cell:	Completed after 0 iterations at t[s]:   8028.41
ElecMinimize: 	Step increased F by 7.374047e-08, reducing alpha to 4.410584e-05.
ElecMinimize: 	Step failed to reduce F after 3 attempts. Quitting step.
ElecMinimize: 	Undoing step.
	Linear fluid (dielectric constant: 64) occupying 0.873428 of unit cell:	Completed after 0 iterations at t[s]:   8035.07
ElecMinimize: 	Step failed: resetting search direction.
	FillingsUpdate:  mu: -0.086714320  nElectrons: 330.000000
	SubspaceRotationAdjust: set factor to 0.0552
ElecMinimize: Iter:  19  F: -657.486569568146933  |grad|_K:  8.308e-08  alpha:  4.411e-05
	Linear fluid (dielectric constant: 64) occupying 0.873428 of unit cell:	Completed after 1 iterations at t[s]:   8036.49
	Linear fluid (dielectric constant: 64) occupying 0.873428 of unit cell:	Completed after 0 iterations at t[s]:   8037.13
	FillingsUpdate:  mu: -0.086720587  nElectrons: 330.000000
	SubspaceRotationAdjust: set factor to 0.0724
ElecMinimize: Iter:  20  F: -657.486569603583121  |grad|_K:  4.247e-08  alpha:  2.241e-01  linmin: -7.441e-03  t[s]:   8037.93
	Linear fluid (dielectric constant: 64) occupying 0.873428 of unit cell:	Completed after 0 iterations at t[s]:   8038.54
ElecMinimize: 	Predicted alpha/alphaT>3.000000, increasing alphaT to 6.722599e-01.
	Linear fluid (dielectric constant: 64) occupying 0.873428 of unit cell:	Completed after 1 iterations at t[s]:   8039.18
	Linear fluid (dielectric constant: 64) occupying 0.873428 of unit cell:	Completed after 0 iterations at t[s]:   8039.83
	FillingsUpdate:  mu: -0.086748739  nElectrons: 330.000000
	SubspaceRotationAdjust: set factor to 0.0684
ElecMinimize: Iter:  21  F: -657.486569608574882  |grad|_K:  5.368e-08  alpha:  1.946e-01  linmin:  2.669e-02  t[s]:   8040.64
ElecMinimize: 	Bad step direction: g.d > 0.
ElecMinimize: 	Undoing step.
	Linear fluid (dielectric constant: 64) occupying 0.873428 of unit cell:	Completed after 0 iterations at t[s]:   8041.27
ElecMinimize: 	Step failed: resetting search direction.
	FillingsUpdate:  mu: -0.086748739  nElectrons: 330.000000
	SubspaceRotationAdjust: set factor to 0.0713
ElecMinimize: Iter:  22  F: -657.486569608581135  |grad|_K:  5.362e-08  alpha:  0.000e+00
ElecMinimize: Converged (|Delta F|<1.000000e-08 for 2 iters).
Setting wave functions to eigenvectors of Hamiltonian

Computing DFT-D3 correction:
# coordination-number C 3.302 3.308 3.305 3.301 3.300 3.323 3.301 3.301 3.311 3.300 3.300 3.300 3.300 3.300 3.296 3.299 3.300 3.288 3.483 3.300 3.300 3.300 3.291 3.300 3.320 3.288 3.300 3.300 3.290 3.301 3.300 3.487 3.298 3.314 3.301 3.301 3.310 3.298 3.300 3.300 3.327 3.300 3.300 3.300 3.300 3.300 3.304 3.301 3.307 3.281 3.289 3.300 3.298 3.483 3.300 3.300 3.300 3.325 3.303 3.300 3.486 3.300 3.300 3.290 3.300 3.290
# coordination-number N 3.190 3.198 3.186 3.178
# coordination-number Fe 5.995
# coordination-number S 1.182 2.265
# coordination-number Na 0.318 0.310
# diagonal-C6 C 24.27 24.20 24.23 24.27 24.28 24.05 24.28 24.27 24.18 24.28 24.29 24.28 24.28 24.29 24.32 24.29 24.29 24.40 21.90 24.29 24.28 24.29 24.37 24.28 24.08 24.39 24.28 24.28 24.38 24.27 24.29 21.84 24.30 24.15 24.28 24.28 24.18 24.31 24.28 24.28 24.01 24.28 24.28 24.29 24.29 24.28 24.24 24.28 24.22 24.46 24.39 24.29 24.30 21.90 24.29 24.28 24.28 24.03 24.25 24.29 21.85 24.29 24.28 24.38 24.28 24.38
# diagonal-C6 N 15.60 15.60 15.60 15.60
# diagonal-C6 Fe 109.50
# diagonal-C6 S 130.60 125.82
# diagonal-C6 Na 1167.91 1186.71
EvdW_6 =   -0.064489
EvdW_8 =   -0.059722

# Ionic positions in cartesian coordinates:
ion C   0.000000000000000   0.000000000000000   1.000001652210000 0
ion C  -2.333831667840000   4.042310104620000   1.000001652210000 0
ion C  11.669128103520009  20.211535405260001   1.000001652210000 0
ion C   4.667680343250000   0.000000000000000   1.000001652210000 0
ion C  23.338288332449999   0.000000000000000   1.000001652210000 0
ion C   2.333822219190000   4.042310104620000   1.000001652210000 0
ion C -11.669150780279990  20.211535405260001   1.000001652210000 0
ion C  -4.667665225410000   8.084622098970000   1.000001652210000 0
ion C   9.335305884330001  16.169223410910011   1.000001652210000 0
ion C   9.335322891900001   0.000000000000000   1.000001652210000 0
ion C  18.670626886499999   0.000000000000000   1.000001652210000 0
ion C  -9.335317222710000  16.169223410910011   1.000001652210000 0
ion C  -7.001485554870001  12.126913306290001   1.000001652210000 0
ion C  14.002984337850000   0.000000000000000   1.000001652210000 0
ion C   0.000000000000000   8.084622098970000   1.000001652210000 0
ion C   7.001485554870008  20.211535405260001   1.000001652210000 0
ion C  -7.001481775409990  20.211535405260001   1.000001652210000 0
ion C  -2.333822219189998  12.126913306290001   1.000001652210000 0
ion C   4.667663335679999  16.169223410910011   1.000001652210000 0
ion C  -2.333820329459989  20.211535405260001   1.000001652210000 0
ion C   2.333824108920002  20.211535405260001   1.000001652210000 0
ion C  -4.667659556220000  16.169223410910011   1.000001652210000 0
ion C   7.001483665139999   4.042310104620000   1.000001652210000 0
ion C  21.004430208390001   4.042310104620000   1.000001652210000 0
ion C  14.002948432980006  16.169223410910011   1.000001652210000 0
ion C   0.000001889729997  16.169223410910011   1.000001652210000 0
ion C  11.669126213789999   4.042310104620000   1.000001652210000 0
ion C  18.670609878930001   8.084622098970000   1.000001652210000 0
ion C  11.669126213789998  12.126913306290001   1.000001652210000 0
ion C  16.336787659739997  12.126913306290001   1.000001652210000 0
ion C  16.336789549470002   4.042310104620000   1.000001652210000 0
ion C   9.335303994600004   8.084622098970000   1.000001652210000 0
ion C  14.002948432980002   8.084622098970000   1.000001652210000 0
ion C   0.000000000000000   2.694874032990001   1.000001652210000 0
ion C  11.669128103519997  22.906390540950021   1.000001652210000 0
ion C -11.669124324059998  22.906390540950021   1.000001652210000 0
ion C  -2.333822219190000   6.737165240310008   1.000001652210000 0
ion C   9.335305884330001  18.864097443900004   1.000001652210000 0
ion C  -7.001481775409997  22.906390540950021   1.000001652210000 0
ion C   7.001485554870007  22.906390540950021   1.000001652210000 0
ion C   2.333822219190000   6.737165240310008   1.000001652210000 0
ion C  -9.335302104869990  18.864097443900004   1.000001652210000 0
ion C  -4.667661445950001  10.779477234660011   1.000001652210000 0
ion C  -2.333820329460000  22.906390540950021   1.000001652210000 0
ion C   2.333824108919996  22.906390540950021   1.000001652210000 0
ion C  -7.001483665140001  14.821787339280014   1.000001652210000 0
ion C   4.667661445950001   2.694874032990001   1.000001652210000 0
ion C  23.338269435150014   2.694874032990001   1.000001652210000 0
ion C  14.002967330280004  18.864097443900004   1.000001652210000 0
ion C  -0.000000000000001  10.779477234660011   1.000001652210000 0
ion C   4.667663335679999  18.864097443900004   1.000001652210000 0
ion C  -4.667640658919992  18.864097443900004   1.000001652210000 0
ion C  -2.333822219190002  14.821787339280014   1.000001652210000 0
ion C   2.333824108919995  14.821787339280014   1.000001652210000 0
ion C   0.000001889729999  18.864097443900004   1.000001652210000 0
ion C   9.335303994599997   2.694874032990001   1.000001652210000 0
ion C  21.004430208389998   6.737165240310008   1.000001652210000 0
ion C  11.669126213790001  14.821787339280014   1.000001652210000 0
ion C  16.336789549469998  14.821787339280014   1.000001652210000 0
ion C  18.670609878930012   2.694874032990001   1.000001652210000 0
ion C   7.001483665139997   6.737165240310008   1.000001652210000 0
ion C  14.002946543250001   2.694874032990001   1.000001652210000 0
ion C  18.670607989200008  10.779477234660011   1.000001652210000 0
ion C  11.669126213789998   6.737165240310008   1.000001652210000 0
ion C  16.336787659740001   6.737165240310008   1.000001652210000 0
ion C  14.002946543249999  10.779477234660011   1.000001652210000 0
ion N   4.667661445950002   8.084622098970000   1.000001652210000 0
ion N   2.333822219190005  12.126913306290001   1.000001652210000 0
ion N   7.001485554869992  14.821787339280014   1.000001652210000 0
ion N   9.335305884329998  10.779477234660011   1.000001652210000 0
ion Fe   5.837109518069997  11.454309266310009   1.000001652210000 0
ion S   7.904182909273087   9.137614034441798   7.160843875404627 1
ion S   5.562804906162333  11.540984739182898   5.238805941309082 1
ion Na  11.226707968449402  15.577996633596232   7.543226324059684 1
ion Na   1.403152911761153   5.842578120809091   7.511685999484548 1

# Forces in Cartesian coordinates:
force C   0.003523367634766   0.000287083452672   0.000062304048518 0
force C   0.000787903162885  -0.000635813417428   0.000099224563992 0
force C   0.002467373382029  -0.002003218257888   0.000118010685224 0
force C   0.000586195840711   0.002309616801967   0.000127079572891 0
force C   0.001717559582064  -0.000172838078751   0.000061897600492 0
force C   0.004877869276767   0.001773288016137  -0.000140419422949 0
force C   0.000671109813191  -0.000467865780161   0.000089738570039 0
force C  -0.000073673840757   0.000907499432003   0.000090364283087 0
force C  -0.036280888408768  -0.016300664378399  -0.000266236236363 0
force C  -0.000547640244656  -0.000095401861621  -0.000010248319168 0
force C  -0.000730353307561  -0.000220604961755   0.000027563054302 0
force C  -0.000061025641313   0.000835990791543   0.000067979785822 0
force C   0.001916465389357   0.003028214405317  -0.000006215526086 0
force C   0.000347630321320   0.000334289955526  -0.000003124345596 0
force C   0.011108915147523   0.006516669773225   0.000403078569626 0
force C   0.002404662877734   0.001959616462764   0.000032074546474 0
force C   0.001599948091383   0.000946597486242   0.000007901731473 0
force C   0.003780265710752   0.003090156159640   0.000310297179352 0
force C   0.032635298259265   0.007415296252086  -0.000344202403805 0
force C  -0.000423897828555  -0.000401232408438   0.000002978150367 0
force C  -0.001507117801157   0.000122663091651   0.000019883707379 0
force C   0.002521402922233  -0.000567390751334   0.000029419187986 0
force C   0.005259980772899   0.004227449931159  -0.000034062298819 0
force C   0.001755329767193   0.001040962387413   0.000020772081554 0
force C  -0.001058300577161  -0.000576342620417  -0.000186911508699 0
force C   0.006315954617621   0.002694382602433   0.000301431569492 0
force C  -0.000841295672916  -0.001167630149646   0.000212561333339 0
force C   0.000521205793536   0.001509909010047   0.000038159242304 0
force C  -0.031970595204372  -0.023064643432911   0.000241936846533 0
force C  -0.000327680816122   0.003252317532964   0.000071084810324 0
force C  -0.000543990462629  -0.000430537789543   0.000006454319419 0
force C   0.023108724221538   0.025318788185114  -0.000468950875832 0
force C   0.002401873518981   0.001077575034341   0.000167428065313 0
force C  -0.002700938821404   0.001776959745463  -0.000020589921832 0
force C  -0.003558660416906  -0.000143901281229   0.000048226584052 0
force C  -0.001532503660280   0.000245234121754   0.000086210195426 0
force C   0.001106681804795   0.000755635025197  -0.000013580416899 0
force C  -0.004514117384528  -0.001560463137848   0.000397483372036 0
force C   0.000723243877292   0.000192957772060   0.000030591025605 0
force C  -0.000783398265594  -0.002496503475508   0.000055567489187 0
force C   0.036054562168235   0.016149295144428  -0.000277851020808 0
force C  -0.001752787507815  -0.001039673022399   0.000024782578812 0
force C   0.000504790052220  -0.003168400384299   0.000030527817298 0
force C  -0.000353486282237  -0.000237307659456  -0.000004685350121 0
force C   0.000595236149152   0.000092922035175  -0.000007928432070 0
force C  -0.000681244315768  -0.001596162079485   0.000037760006995 0
force C  -0.002090053209938  -0.001627187237699   0.000064512454904 0
force C  -0.000641469618124   0.000493537296018   0.000085332666485 0
force C  -0.000743999276330   0.000484193251257   0.000119525870774 0
force C   0.031805804764458   0.022998091347729   0.000511011783674 0
force C  -0.005495108917271  -0.004328150993311   0.000300725508760 0
force C   0.000547812522367   0.000484828912710   0.000024407483728 0
force C  -0.002900146998360  -0.001065151541153  -0.000000685067128 0
force C  -0.022692677537282  -0.023896094964360   0.000004235117027 0
force C   0.000707769308957   0.001274281802885   0.000005476837162 0
force C   0.001470332644228   0.000110646954582   0.000236866739881 0
force C   0.000142567199934  -0.000827284289345   0.000053376674987 0
force C  -0.011057702707149  -0.006664858420092  -0.000375345205067 0
force C   0.000086185792338  -0.000996178576852   0.000103283310606 0
force C  -0.001617016155794  -0.000894651602218   0.000003362896759 0
force C  -0.033088243901518  -0.006757138052035  -0.000279865955871 0
force C   0.000372056129125   0.000308352618580   0.000014918483132 0
force C  -0.001960995733207  -0.002956514484681   0.000007256791302 0
force C  -0.006841069558135  -0.002157037741667  -0.000525339483034 0
force C  -0.002319044505537   0.000554832707406   0.000065487104392 0
force C  -0.003992615904800  -0.003262234944057   0.000512115264163 0
force N   0.025400972238356  -0.041516572125846  -0.010445455400016 0
force N  -0.023804227390493   0.041668583342677  -0.009656774619844 0
force N  -0.023251484078032   0.041247078243393  -0.010506540152093 0
force N   0.021337122807289  -0.041298236088316  -0.008566097341813 0
force Fe   0.002384706028937  -0.003099000840525   0.033214084306478 0
force S  -0.000158365989699   0.000016046057378  -0.000191607976421 1
force S  -0.000096464129288   0.000072917134577   0.000013049320498 1
force Na  -0.000047014397427   0.000105442661536   0.000011035592822 1
force Na   0.000012724270424   0.000161905362210  -0.000082310143267 1

# Energy components:
   A_diel =       -0.3425590987415086
   Eewald =     4140.4453342125407289
       EH =     4680.5271677684877432
     Eloc =    -9537.2460623960942030
      Enl =      -62.5637175528565024
     EvdW =       -0.1242110554759630
      Exc =     -167.8974176004649337
 Exc_core =        6.8981121307190776
       KE =      282.8853382625749191
-------------------------------------
     Etot =     -657.4180153293117428
       TS =        0.0685542792694128
-------------------------------------
        F =     -657.4865696085811351

IonicMinimize: Iter:  56  F: -657.486569608581135  |grad|_K:  1.014e-04  alpha:  2.126e+00  linmin: -4.151e-04  t[s]:   8044.73
IonicMinimize: Converged (|Delta F|<1.000000e-06 for 2 iters).

#--- Lowdin population analysis ---
# oxidation-state C +0.025 +0.013 +0.018 +0.017 +0.019 +0.007 +0.019 +0.015 +0.128 +0.021 +0.020 +0.019 +0.026 +0.020 -0.016 +0.031 +0.026 +0.009 +0.109 +0.021 +0.016 +0.018 +0.018 +0.028 +0.031 +0.018 +0.016 +0.019 +0.129 +0.019 +0.021 +0.122 +0.032 +0.018 +0.025 +0.018 +0.032 +0.007 +0.020 +0.018 +0.128 +0.028 +0.019 +0.021 +0.021 +0.019 +0.031 +0.019 +0.013 +0.129 +0.018 +0.020 +0.032 +0.109 +0.016 +0.016 +0.020 -0.016 +0.014 +0.026 +0.118 +0.021 +0.026 +0.020 +0.018 +0.009
# oxidation-state N -0.134 -0.137 -0.136 -0.132
# oxidation-state Fe +0.169
# oxidation-state S -0.564 -0.009
# oxidation-state Na +0.969 +0.970


Dumping 'Na2S2@FeN4-PC-vdw.fillings' ... done
Dumping 'Na2S2@FeN4-PC-vdw.wfns' ... done
Dumping 'Na2S2@FeN4-PC-vdw.fluidState' ... done
Dumping 'Na2S2@FeN4-PC-vdw.ionpos' ... done
Dumping 'Na2S2@FeN4-PC-vdw.eigenvals' ... done
End date and time: Sat Jan 18 21:42:51 2025  (Duration: 0-2:14:06.68)
Done!
