
*************** JDFTx 1.7.0  ***************

Start date and time: Wed Jan 15 17:30:30 2025
Executable jdftx_gpu with command-line: -i /home/akim2/JDFTx/Na2S@FeN4-vdw/Na2S@FeN4-vdw.in -o /home/akim2/JDFTx/Na2S@FeN4-vdw/Na2S@FeN4-vdw.out
Running on hosts (process indices):  exp-4-60 (0)
Divided in process groups (process indices):  0 (0)
gpuInit: Found compatible cuda device 0 'Tesla V100-SXM2-32GB'
gpuInit: Selected device 0
Resource initialization completed at t[s]:      0.68
Run totals: 1 processes, 1 threads, 1 GPUs


Input parsed successfully to the following command list (including defaults):

basis kpoint-dependent
coords-type Cartesian
core-overlap-check vector
coulomb-interaction Slab 001
coulomb-truncation-embed 0 0 3
davidson-band-ratio 1.1
dump End State
dump-name Na2S@FeN4-vdw.$VAR
elec-cutoff 20 100
elec-eigen-algo Davidson
elec-ex-corr gga-PBE
elec-smearing Fermi 0.01
electronic-minimize  \
	dirUpdateScheme      FletcherReeves \
	linminMethod         DirUpdateRecommended \
	nIterations          100 \
	history              15 \
	knormThreshold       0 \
	energyDiffThreshold  1e-08 \
	nEnergyDiff          2 \
	alphaTstart          1 \
	alphaTmin            1e-10 \
	updateTestStepSize   yes \
	alphaTreduceFactor   0.1 \
	alphaTincreaseFactor 3 \
	nAlphaAdjustMax      3 \
	wolfeEnergy          0.0001 \
	wolfeGradient        0.9 \
	fdTest               no
electronic-scf  \
	nIterations	50 \
	energyDiffThreshold	1e-08 \
	residualThreshold	1e-07 \
	mixFraction	0.5 \
	qMetric	0.8 \
	history	10 \
	nEigSteps	2 \
	eigDiffThreshold	1e-08 \
	mixedVariable	Density \
	qKerker	0.8 \
	qKappa	-1 \
	verbose	no \
	mixFractionMag	1.5
exchange-regularization WignerSeitzTruncated
fluid None
fluid-ex-corr lda-TF lda-PZ
fluid-gummel-loop 10 1.000000e-05
fluid-minimize  \
	dirUpdateScheme      PolakRibiere \
	linminMethod         DirUpdateRecommended \
	nIterations          100 \
	history              15 \
	knormThreshold       0 \
	energyDiffThreshold  0 \
	nEnergyDiff          2 \
	alphaTstart          1 \
	alphaTmin            1e-10 \
	updateTestStepSize   yes \
	alphaTreduceFactor   0.1 \
	alphaTincreaseFactor 3 \
	nAlphaAdjustMax      3 \
	wolfeEnergy          0.0001 \
	wolfeGradient        0.9 \
	fdTest               no
fluid-solvent H2O 55.338 ScalarEOS \
	epsBulk 78.4 \
	pMol 0.92466 \
	epsInf 1.77 \
	Pvap 1.06736e-10 \
	sigmaBulk 4.62e-05 \
	Rvdw 2.61727 \
	Res 1.42 \
	tauNuc 343133 \
	poleEl 15 7 1
forces-output-coords Positions
ion C  28.005857181630002   0.000000000000000   1.000001652210000 0
ion C  25.672025513790000   4.042310104620000   1.000001652210000 0
ion C  11.669128103520002  20.211535405260001   1.000001652210000 0
ion C   4.667680343250000   0.000000000000000   1.000001652210000 0
ion C  23.338288332449999   0.000000000000000   1.000001652210000 0
ion C   2.333822219190000   4.042310104620000   1.000001652210000 0
ion C  16.336708291080008  20.211535405260001   1.000001652210000 0
ion C  23.338191956219998   8.084622098970000   1.000001652210000 0
ion C   9.335305884329996  16.169223410910011   1.000001652210000 0
ion C   9.335322891900001   0.000000000000000   1.000001652210000 0
ion C  18.670626886499999   0.000000000000000   1.000001652210000 0
ion C  18.670539958920003  16.169223410910011   1.000001652210000 0
ion C  21.004371626759990  12.126913306290001   1.000001652210000 0
ion C  14.002984337850000   0.000000000000000   1.000001652210000 0
ion C   0.000000000000000   8.084622098970000   1.000001652210000 0
ion C   7.001485554870005  20.211535405260001   1.000001652210000 0
ion C  -7.001481775409994  20.211535405260001   1.000001652210000 0
ion C  -2.333822219189999  12.126913306290001   1.000001652210000 0
ion C   4.667663335679999  16.169223410910011   1.000001652210000 0
ion C  -2.333820329459996  20.211535405260001   1.000001652210000 0
ion C   2.333824108920002  20.211535405260001   1.000001652210000 0
ion C  -4.667659556220002  16.169223410910011   1.000001652210000 0
ion C   7.001483665139999   4.042310104620000   1.000001652210000 0
ion C  21.004430208389998   4.042310104620000   1.000001652210000 0
ion C  14.002948432980000  16.169223410910011   1.000001652210000 0
ion C   0.000001889729997  16.169223410910011   1.000001652210000 0
ion C  11.669126213789999   4.042310104620000   1.000001652210000 0
ion C  18.670609878929998   8.084622098970000   1.000001652210000 0
ion C  11.669126213789998  12.126913306290001   1.000001652210000 0
ion C  16.336787659739997  12.126913306290001   1.000001652210000 0
ion C  16.336789549470002   4.042310104620000   1.000001652210000 0
ion C   9.335303994600004   8.084622098970000   1.000001652210000 0
ion C  14.002948432980002   8.084622098970000   1.000001652210000 0
ion C   0.000000000000000   2.694874032990001   1.000001652210000 0
ion C  11.669128103519999  22.906390540950010   1.000001652210000 0
ion C -11.669124324059998  22.906390540950010   1.000001652210000 0
ion C  -2.333822219190000   6.737165240310004   1.000001652210000 0
ion C   9.335305884330001  18.864097443900004   1.000001652210000 0
ion C  -7.001481775409996  22.906390540950010   1.000001652210000 0
ion C   7.001485554870005  22.906390540950010   1.000001652210000 0
ion C   2.333822219189997   6.737165240310004   1.000001652210000 0
ion C  -9.335302104869998  18.864097443900004   1.000001652210000 0
ion C  -4.667661445950000  10.779477234660005   1.000001652210000 0
ion C  -2.333820329460000  22.906390540950010   1.000001652210000 0
ion C   2.333824108920002  22.906390540950010   1.000001652210000 0
ion C  -7.001483665140000  14.821787339280007   1.000001652210000 0
ion C   4.667661445950001   2.694874032990001   1.000001652210000 0
ion C  23.338269435150004   2.694874032990001   1.000001652210000 0
ion C  14.002967330279997  18.864097443900004   1.000001652210000 0
ion C   0.000000000000000  10.779477234660005   1.000001652210000 0
ion C   4.667663335679999  18.864097443900004   1.000001652210000 0
ion C  -4.667640658919996  18.864097443900004   1.000001652210000 0
ion C  -2.333822219190001  14.821787339280007   1.000001652210000 0
ion C   2.333824108919998  14.821787339280007   1.000001652210000 0
ion C   0.000001889729999  18.864097443900004   1.000001652210000 0
ion C   9.335303994599997   2.694874032990001   1.000001652210000 0
ion C  21.004430208390001   6.737165240310004   1.000001652210000 0
ion C  11.669126213790003  14.821787339280007   1.000001652210000 0
ion C  16.336789549469998  14.821787339280007   1.000001652210000 0
ion C  18.670609878930005   2.694874032990001   1.000001652210000 0
ion C   7.001483665139999   6.737165240310004   1.000001652210000 0
ion C  14.002946543250001   2.694874032990001   1.000001652210000 0
ion C  18.670607989199997  10.779477234660005   1.000001652210000 0
ion C  11.669126213789998   6.737165240310004   1.000001652210000 0
ion C  16.336787659740001   6.737165240310004   1.000001652210000 0
ion C  14.002946543250001  10.779477234660005   1.000001652210000 0
ion N   4.667661445950002   8.084622098970000   1.000001652210000 0
ion N   2.333822219190004  12.126913306290001   1.000001652210000 0
ion N   7.001485554869998  14.821787339280007   1.000001652210000 0
ion N   9.335305884330001  10.779477234660005   1.000001652210000 0
ion Fe   5.837109518069999  11.454309266310004   1.000001652210000 0
ion S  11.996321958307306  13.080363808714907   8.869696466513297 1
ion Na   8.177817050167437  12.403054816466332   5.947606613126949 1
ion Na  15.895421543116431  13.800966413369199   6.147004302818918 1
ion-species GBRV/$ID_pbe.uspp
ion-width 0
ionic-minimize  \
	dirUpdateScheme      FletcherReeves \
	linminMethod         DirUpdateRecommended \
	nIterations          200 \
	history              15 \
	knormThreshold       0.0001 \
	energyDiffThreshold  1e-06 \
	nEnergyDiff          2 \
	alphaTstart          1 \
	alphaTmin            1e-10 \
	updateTestStepSize   yes \
	alphaTreduceFactor   0.1 \
	alphaTincreaseFactor 3 \
	nAlphaAdjustMax      3 \
	wolfeEnergy          0.0001 \
	wolfeGradient        0.9 \
	fdTest               no
kpoint   0.000000000000   0.000000000000   0.000000000000  1.00000000000000
kpoint-folding 1 1 1 
latt-move-scale 1 1 1
latt-scale 1 1 1 
lattice Triclinic 28.0058 28.0058 32.1253 90 90 120
lattice-minimize  \
	dirUpdateScheme      L-BFGS \
	linminMethod         DirUpdateRecommended \
	nIterations          0 \
	history              15 \
	knormThreshold       0 \
	energyDiffThreshold  1e-06 \
	nEnergyDiff          2 \
	alphaTstart          1 \
	alphaTmin            1e-10 \
	updateTestStepSize   yes \
	alphaTreduceFactor   0.1 \
	alphaTincreaseFactor 3 \
	nAlphaAdjustMax      3 \
	wolfeEnergy          0.0001 \
	wolfeGradient        0.9 \
	fdTest               no
lcao-params -1 1e-06 0.01
pcm-variant GLSSA13
spintype no-spin
subspace-rotation-factor 1 yes
symmetries automatic
symmetry-threshold 0.0001
van-der-waals D3



---------- Setting up symmetries ----------

Found 24 point-group symmetries of the bravais lattice
Found 1 space-group symmetries with basis
Applied RMS atom displacement 0 bohrs to make symmetries exact.

---------- Initializing the Grid ----------
R = 
[      28.0058     -14.0029            0  ]
[            0      24.2537            0  ]
[            0            0      32.1253  ]
unit cell volume = 21821
G =
[   0.224353    0.12953         -0  ]
[          0   0.259061          0  ]
[          0         -0   0.195584  ]
Minimum fftbox size, Smin = [  128  128  148  ]
Chosen fftbox size, S = [  128  128  150  ]

---------- Initializing tighter grid for wavefunction operations ----------
R = 
[      28.0058     -14.0029            0  ]
[            0      24.2537            0  ]
[            0            0      32.1253  ]
unit cell volume = 21821
G =
[   0.224353    0.12953         -0  ]
[          0   0.259061          0  ]
[          0         -0   0.195584  ]
Minimum fftbox size, Smin = [  116  116  132  ]
Chosen fftbox size, S = [  120  120  140  ]

---------- Exchange Correlation functional ----------
Initalized PBE GGA exchange.
Initalized PBE GGA correlation.

---------- Setting up pseudopotentials ----------
Width of ionic core gaussian charges (only for fluid interactions / plotting) set to 0

Reading pseudopotential file '/home/akim2/jdftx_install/build/pseudopotentials/GBRV/c_pbe.uspp':
  Title: C.  Created by USPP 7.3.6 on 3-2-2014
  Reference state energy: -5.406344.  4 valence electrons in orbitals:
    |200>  occupation: 2  eigenvalue: -0.504890
    |210>  occupation: 2  eigenvalue: -0.194356
  lMax: 1  lLocal: 2  QijEcut: 5
  4 projectors sampled on a log grid with 503 points:
    l: 0  eig: -0.504890  rCut: 1.3
    l: 0  eig: 0.000000  rCut: 1.3
    l: 1  eig: -0.194357  rCut: 1.3
    l: 1  eig: 0.000000  rCut: 1.3
  Partial core density with radius 1.1
  Transforming core density to a uniform radial grid of dG=0.02 with 1618 points.
  Transforming local potential to a uniform radial grid of dG=0.02 with 1618 points.
  Transforming nonlocal projectors to a uniform radial grid of dG=0.02 with 432 points.
  Transforming density augmentations to a uniform radial grid of dG=0.02 with 1618 points.
  Transforming atomic orbitals to a uniform radial grid of dG=0.02 with 432 points.
  Core radius for overlap checks: 1.30 bohrs.

Reading pseudopotential file '/home/akim2/jdftx_install/build/pseudopotentials/GBRV/n_pbe.uspp':
  Title: N.  Created by USPP 7.3.6 on 3-2-2014
  Reference state energy: -9.763716.  5 valence electrons in orbitals:
    |200>  occupation: 2  eigenvalue: -0.681964
    |210>  occupation: 3  eigenvalue: -0.260726
  lMax: 1  lLocal: 2  QijEcut: 6
  4 projectors sampled on a log grid with 491 points:
    l: 0  eig: -0.681964  rCut: 1.15
    l: 0  eig: 0.000000  rCut: 1.15
    l: 1  eig: -0.260729  rCut: 1.2
    l: 1  eig: 0.500000  rCut: 1.2
  Partial core density with radius 0.8
  Transforming core density to a uniform radial grid of dG=0.02 with 1618 points.
  Transforming local potential to a uniform radial grid of dG=0.02 with 1618 points.
  Transforming nonlocal projectors to a uniform radial grid of dG=0.02 with 432 points.
  Transforming density augmentations to a uniform radial grid of dG=0.02 with 1618 points.
  Transforming atomic orbitals to a uniform radial grid of dG=0.02 with 432 points.
  Core radius for overlap checks: 1.20 bohrs.

Reading pseudopotential file '/home/akim2/jdftx_install/build/pseudopotentials/GBRV/fe_pbe.uspp':
  Title: Fe.  Created by USPP 7.3.6 on 15-6-15
  Reference state energy: -124.316937.  16 valence electrons in orbitals:
    |300>  occupation: 2  eigenvalue: -4.008817
    |310>  occupation: 6  eigenvalue: -2.753096
    |320>  occupation: 5  eigenvalue: -0.791264
    |400>  occupation: 2  eigenvalue: -0.516384
    |410>  occupation: 0  eigenvalue: -0.312222
  lMax: 2  lLocal: 3  QijEcut: 6
  6 projectors sampled on a log grid with 607 points:
    l: 0  eig: -4.008819  rCut: 1.55
    l: 0  eig: -0.516386  rCut: 1.55
    l: 1  eig: -2.753096  rCut: 1.55
    l: 1  eig: -0.312226  rCut: 1.55
    l: 2  eig: -0.791264  rCut: 1.65
    l: 2  eig: -0.450000  rCut: 1.65
  Partial core density with radius 0.65
  Transforming core density to a uniform radial grid of dG=0.02 with 1618 points.
  Transforming local potential to a uniform radial grid of dG=0.02 with 1618 points.
  Transforming nonlocal projectors to a uniform radial grid of dG=0.02 with 432 points.
  Transforming density augmentations to a uniform radial grid of dG=0.02 with 1618 points.
  Transforming atomic orbitals to a uniform radial grid of dG=0.02 with 432 points.
  Core radius for overlap checks: 1.65 bohrs.

Reading pseudopotential file '/home/akim2/jdftx_install/build/pseudopotentials/GBRV/s_pbe.uspp':
  Title: S.  Created by USPP 7.3.6 on 1-4-15
  Reference state energy: -11.898476.  6 valence electrons in orbitals:
    |300>  occupation: 2  eigenvalue: -0.634167
    |310>  occupation: 4  eigenvalue: -0.257568
  lMax: 2  lLocal: 3  QijEcut: 6
  6 projectors sampled on a log grid with 635 points:
    l: 0  eig: -0.634161  rCut: 1.5
    l: 0  eig: 1.500000  rCut: 1.5
    l: 1  eig: -0.257567  rCut: 1.5
    l: 1  eig: 1.500000  rCut: 1.5
    l: 2  eig: -1.000000  rCut: 1.5
    l: 2  eig: 1.500000  rCut: 1.5
  Partial core density with radius 1.15
  Transforming core density to a uniform radial grid of dG=0.02 with 1618 points.
  Transforming local potential to a uniform radial grid of dG=0.02 with 1618 points.
  Transforming nonlocal projectors to a uniform radial grid of dG=0.02 with 432 points.
  Transforming density augmentations to a uniform radial grid of dG=0.02 with 1618 points.
  Transforming atomic orbitals to a uniform radial grid of dG=0.02 with 432 points.
  Core radius for overlap checks: 1.50 bohrs.

Reading pseudopotential file '/home/akim2/jdftx_install/build/pseudopotentials/GBRV/na_pbe.uspp':
  Title: Na.  Created by USPP 7.3.6 on 23-9-15
  Reference state energy: -47.625620.  9 valence electrons in orbitals:
    |200>  occupation: 2  eigenvalue: -2.085638
    |210>  occupation: 6  eigenvalue: -1.053708
    |300>  occupation: 1  eigenvalue: -0.100838
  lMax: 2  lLocal: 0  QijEcut: 6
  5 projectors sampled on a log grid with 657 points:
    l: 0  eig: -2.085640  rCut: 1.37
    l: 0  eig: -0.100839  rCut: 1.37
    l: 1  eig: -1.053708  rCut: 1.47
    l: 1  eig: 0.500000  rCut: 1.47
    l: 2  eig: 0.750000  rCut: 2
  Transforming local potential to a uniform radial grid of dG=0.02 with 1618 points.
  Transforming nonlocal projectors to a uniform radial grid of dG=0.02 with 432 points.
  Transforming density augmentations to a uniform radial grid of dG=0.02 with 1618 points.
  Transforming atomic orbitals to a uniform radial grid of dG=0.02 with 432 points.
  Core radius for overlap checks: 2.00 bohrs.

Initialized 5 species with 74 total atoms.

Folded 1 k-points by 1x1x1 to 1 k-points.

---------- Setting up k-points, bands, fillings ----------
No reducable k-points. 
Computing the number of bands and number of electrons
Calculating initial fillings.
nElectrons: 324.000000   nBands: 307   nStates: 1

----- Setting up reduced wavefunction bases (one per k-point) -----
average nbasis = 93173.000 , ideal nbasis = 93220.781

---------- Setting up coulomb interaction ----------
Setting up double-sized grid for truncated Coulomb potentials:
R = 
[      28.0058     -14.0029            0  ]
[            0      24.2537            0  ]
[            0            0      64.2506  ]
unit cell volume = 43641.9
G =
[   0.224353    0.12953         -0  ]
[          0   0.259061          0  ]
[          0         -0  0.0977919  ]
Chosen fftbox size, S = [  128  128  300  ]
Integer grid location selected as the embedding center:
   Grid: [  0  0  14  ]
   Lattice: [  0  0  0.0933843  ]
   Cartesian: [  0  0  3  ]
Constructing Wigner-Seitz cell: 8 faces (6 quadrilaterals, 2 hexagons)
Range-separation parameter for embedded mesh potentials due to point charges: 0.590105 bohrs.
Initialized slab truncation along lattice direction 001

Initializing DFT-D3 calculator:
	Parameters set for gga-PBE functional
	s6:  1.000  s_r6:  1.217
	s8:  0.722  s_r8:  1.000
	Per-atom parameters loaded for:
	 C:  sqrtQ[a0]:  3.105  Rcov[a0]:  1.417  CN: [ 0.00 0.99 2.00 3.00 3.98 ]
	 N:  sqrtQ[a0]:  2.712  Rcov[a0]:  1.342  CN: [ 0.00 0.99 2.01 2.99 ]
	Fe:  sqrtQ[a0]:  5.584  Rcov[a0]:  1.965  CN: [ 0.00 1.65 9.14 ]
	 S:  sqrtQ[a0]:  4.041  Rcov[a0]:  1.928  CN: [ 0.00 0.99 1.99 ]
	Na:  sqrtQ[a0]:  6.586  Rcov[a0]:  2.646  CN: [ 0.00 0.97 ]

---------- Setting up 2D ewald sum ----------
Optimum gaussian width for ewald sums = 15.547689 bohr.
Real space sums over 289 unit cells with max indices [  8  8  0  ]
Reciprocal space sums over 81 terms with max indices [  4  4  0  ]

Computing DFT-D3 correction:
# coordination-number C 3.300 3.300 3.301 3.300 3.300 3.287 3.304 3.300 3.368 3.300 3.300 3.394 3.312 3.300 3.271 3.299 3.300 3.287 3.494 3.300 3.300 3.301 3.288 3.300 3.487 3.288 3.300 3.304 3.462 3.791 3.300 3.521 3.306 3.300 3.300 3.300 3.299 3.292 3.300 3.300 3.275 3.308 3.300 3.300 3.300 3.315 3.298 3.300 3.312 3.275 3.290 3.300 3.298 3.477 3.300 3.300 3.300 3.375 3.913 3.300 3.482 3.300 3.355 3.292 3.302 3.398
# coordination-number N 3.158 3.155 3.439 3.637
# coordination-number Fe 5.845
# coordination-number S 1.978
# coordination-number Na 3.220 2.854
# diagonal-C6 C 24.28 24.29 24.27 24.29 24.29 24.40 24.25 24.28 23.53 24.29 24.29 23.19 24.16 24.29 24.54 24.29 24.28 24.40 21.74 24.29 24.28 24.28 24.39 24.29 21.84 24.39 24.28 24.24 22.21 18.79 24.28 21.33 24.22 24.29 24.28 24.28 24.29 24.36 24.29 24.29 24.51 24.21 24.28 24.29 24.29 24.14 24.30 24.29 24.16 24.51 24.38 24.28 24.30 21.98 24.29 24.28 24.28 23.44 18.44 24.29 21.91 24.28 23.68 24.36 24.26 23.13
# diagonal-C6 N 15.60 15.60 15.58 15.58
# diagonal-C6 Fe 109.50
# diagonal-C6 S 125.92
# diagonal-C6 Na 186.11 186.11
EvdW_6 =   -0.058088
EvdW_8 =   -0.051205

---------- Allocating electronic variables ----------
Initializing wave functions:  linear combination of atomic orbitals
C pseudo-atom occupations:   s ( 2 )  p ( 2 )
N pseudo-atom occupations:   s ( 2 )  p ( 3 )
Fe pseudo-atom occupations:   s ( 2 0 )  p ( 6 0 )  d ( 8 )
S pseudo-atom occupations:   s ( 2 )  p ( 4 )
Na pseudo-atom occupations:   s ( 2 1 )  p ( 6 )
	FillingsUpdate:  mu: -0.305886846  nElectrons: 324.000000
LCAOMinimize: Iter:   0  F: -625.7285941670047578  |grad|_K:  2.432e-02  alpha:  1.000e+00
	FillingsUpdate:  mu: -0.274680278  nElectrons: 324.000000
LCAOMinimize: Iter:   1  F: -630.6029574630606476  |grad|_K:  1.513e-02  alpha:  1.381e-01  linmin: -7.654e-02  cgtest:  8.707e-01  t[s]:     10.09
LCAOMinimize: Encountered beta<0, resetting CG.
	FillingsUpdate:  mu: -0.069691067  nElectrons: 324.000000
LCAOMinimize: Iter:   2  F: -639.2959037810596783  |grad|_K:  4.331e-02  alpha:  9.572e-02  linmin:  2.302e-01  cgtest:  1.308e-01  t[s]:     11.49
LCAOMinimize: 	Bad step direction: g.d > 0.
LCAOMinimize: 	Undoing step.
LCAOMinimize: 	Step failed: resetting search direction.
	FillingsUpdate:  mu: -0.069691067  nElectrons: 324.000000
LCAOMinimize: Iter:   3  F: -639.2959037810596783  |grad|_K:  4.331e-02  alpha:  0.000e+00
	FillingsUpdate:  mu: -0.312354999  nElectrons: 324.000000
LCAOMinimize: Iter:   4  F: -640.4911778429026299  |grad|_K:  4.265e-02  alpha:  3.479e-02  linmin:  3.004e-01  cgtest: -6.632e-01  t[s]:     13.87
LCAOMinimize: 	Bad step direction: g.d > 0.
LCAOMinimize: 	Undoing step.
LCAOMinimize: 	Step failed: resetting search direction.
	FillingsUpdate:  mu: -0.312354999  nElectrons: 324.000000
LCAOMinimize: Iter:   5  F: -640.4911778429026299  |grad|_K:  4.265e-02  alpha:  0.000e+00
	FillingsUpdate:  mu: -0.228439872  nElectrons: 324.000000
LCAOMinimize: Iter:   6  F: -642.3354340521965469  |grad|_K:  7.280e-03  alpha:  1.927e-02  linmin:  1.600e-01  cgtest: -4.419e-01  t[s]:     16.24
LCAOMinimize: 	Predicted alpha/alphaT>3.000000, increasing alphaT to 5.780303e-02.
LCAOMinimize: 	Predicted alpha/alphaT>3.000000, increasing alphaT to 1.734091e-01.
	FillingsUpdate:  mu: -0.210655865  nElectrons: 324.000000
LCAOMinimize: Iter:   7  F: -642.6229818682353425  |grad|_K:  9.496e-03  alpha:  1.757e-01  linmin:  3.813e-03  cgtest:  6.464e-01  t[s]:     18.43
	FillingsUpdate:  mu: -0.272741360  nElectrons: 324.000000
LCAOMinimize: Iter:   8  F: -642.6851786423781050  |grad|_K:  4.380e-03  alpha:  2.544e-02  linmin:  1.889e-01  cgtest: -9.241e-01  t[s]:     19.83
LCAOMinimize: 	Bad step direction: g.d > 0.
LCAOMinimize: 	Undoing step.
LCAOMinimize: 	Step failed: resetting search direction.
	FillingsUpdate:  mu: -0.272741360  nElectrons: 324.000000
LCAOMinimize: Iter:   9  F: -642.6851786423781050  |grad|_K:  4.380e-03  alpha:  0.000e+00
	FillingsUpdate:  mu: -0.265784137  nElectrons: 324.000000
LCAOMinimize: Iter:  10  F: -642.7012784474964064  |grad|_K:  1.076e-03  alpha:  1.772e-02  linmin:  7.026e-04  cgtest: -7.204e-03  t[s]:     22.24
LCAOMinimize: 	Predicted alpha/alphaT>3.000000, increasing alphaT to 5.316692e-02.
LCAOMinimize: 	Predicted alpha/alphaT>3.000000, increasing alphaT to 1.595008e-01.
	FillingsUpdate:  mu: -0.275233358  nElectrons: 324.000000
LCAOMinimize: Iter:  11  F: -642.7145251289624639  |grad|_K:  7.205e-04  alpha:  2.446e-01  linmin:  8.291e-03  cgtest: -7.713e-02  t[s]:     24.44
	FillingsUpdate:  mu: -0.260756620  nElectrons: 324.000000
LCAOMinimize: Iter:  12  F: -642.7162869663611673  |grad|_K:  5.874e-04  alpha:  7.466e-02  linmin:  5.378e-04  cgtest:  3.719e-02  t[s]:     25.85
	FillingsUpdate:  mu: -0.266606671  nElectrons: 324.000000
LCAOMinimize: Iter:  13  F: -642.7170300898928872  |grad|_K:  6.591e-04  alpha:  4.537e-02  linmin: -7.660e-05  cgtest: -1.435e-02  t[s]:     27.24
	FillingsUpdate:  mu: -0.267845136  nElectrons: 324.000000
LCAOMinimize: Iter:  14  F: -642.7191222574734866  |grad|_K:  1.874e-04  alpha:  1.016e-01  linmin:  1.613e-03  cgtest:  9.785e-02  t[s]:     28.62
	FillingsUpdate:  mu: -0.271618193  nElectrons: 324.000000
LCAOMinimize: Iter:  15  F: -642.7195562114198992  |grad|_K:  2.275e-04  alpha:  2.614e-01  linmin:  2.794e-04  cgtest: -2.291e-04  t[s]:     30.02
	FillingsUpdate:  mu: -0.267466703  nElectrons: 324.000000
LCAOMinimize: Iter:  16  F: -642.7196779833346909  |grad|_K:  1.822e-04  alpha:  4.938e-02  linmin: -6.416e-04  cgtest:  1.055e-02  t[s]:     31.41
	FillingsUpdate:  mu: -0.268207543  nElectrons: 324.000000
LCAOMinimize: Iter:  17  F: -642.7197175949193024  |grad|_K:  4.676e-05  alpha:  2.508e-02  linmin:  8.503e-04  cgtest: -4.563e-02  t[s]:     32.83
LCAOMinimize: 	Predicted alpha/alphaT>3.000000, increasing alphaT to 7.522895e-02.
LCAOMinimize: 	Predicted alpha/alphaT>3.000000, increasing alphaT to 2.256868e-01.
	FillingsUpdate:  mu: -0.267684114  nElectrons: 324.000000
LCAOMinimize: Iter:  18  F: -642.7197496233216043  |grad|_K:  4.497e-05  alpha:  3.094e-01  linmin: -2.522e-05  cgtest:  1.444e-02  t[s]:     35.06
	FillingsUpdate:  mu: -0.268378840  nElectrons: 324.000000
LCAOMinimize: Iter:  19  F: -642.7197525261506144  |grad|_K:  3.072e-05  alpha:  3.004e-02  linmin: -7.777e-04  cgtest:  1.301e-02  t[s]:     36.46
	FillingsUpdate:  mu: -0.268445499  nElectrons: 324.000000
LCAOMinimize: Iter:  20  F: -642.7197544759100083  |grad|_K:  1.688e-05  alpha:  4.328e-02  linmin:  1.132e-04  cgtest: -2.153e-02  t[s]:     37.86
LCAOMinimize: 	Predicted alpha/alphaT>3.000000, increasing alphaT to 1.298281e-01.
	FillingsUpdate:  mu: -0.268563785  nElectrons: 324.000000
LCAOMinimize: Iter:  21  F: -642.7197574917729526  |grad|_K:  1.683e-05  alpha:  2.234e-01  linmin:  2.374e-05  cgtest:  1.322e-02  t[s]:     39.66
	FillingsUpdate:  mu: -0.268348696  nElectrons: 324.000000
LCAOMinimize: Iter:  22  F: -642.7197578150918389  |grad|_K:  9.429e-06  alpha:  2.410e-02  linmin:  1.040e-04  cgtest: -1.152e-03  t[s]:     41.07
LCAOMinimize: 	Predicted alpha/alphaT>3.000000, increasing alphaT to 7.228659e-02.
	FillingsUpdate:  mu: -0.268291597  nElectrons: 324.000000
LCAOMinimize: Iter:  23  F: -642.7197582292424158  |grad|_K:  8.942e-06  alpha:  9.828e-02  linmin: -2.172e-05  cgtest:  1.520e-03  t[s]:     42.87
LCAOMinimize: Converged (|Delta F|<1.000000e-06 for 2 iters).


---- Citations for features of the code used in this run ----

   Software package:
      R. Sundararaman, K. Letchworth-Weaver, K.A. Schwarz, D. Gunceler, Y. Ozhabes and T.A. Arias, 'JDFTx: software for joint density-functional theory', SoftwareX 6, 278 (2017)

   gga-PBE exchange-correlation functional:
      J.P. Perdew, K. Burke and M. Ernzerhof, Phys. Rev. Lett. 77, 3865 (1996)

   Pseudopotentials:
      KF Garrity, JW Bennett, KM Rabe and D Vanderbilt, Comput. Mater. Sci. 81, 446 (2014)

   Truncated Coulomb potentials:
      R. Sundararaman and T.A. Arias, Phys. Rev. B 87, 165122 (2013)

   DFT-D3 dispersion correction:
      S. Grimme, J. Antony, S. Ehrlich and H. Krieg, J. Chem. Phys. 132, 154104 (2010)

This list may not be complete. Please suggest additional citations or
report any other bugs at https://github.com/shankar1729/jdftx/issues

Initialization completed successfully at t[s]:     43.02


Computing DFT-D3 correction:
# coordination-number C 3.300 3.300 3.301 3.300 3.300 3.287 3.304 3.300 3.368 3.300 3.300 3.394 3.312 3.300 3.271 3.299 3.300 3.287 3.494 3.300 3.300 3.301 3.288 3.300 3.487 3.288 3.300 3.304 3.462 3.791 3.300 3.521 3.306 3.300 3.300 3.300 3.299 3.292 3.300 3.300 3.275 3.308 3.300 3.300 3.300 3.315 3.298 3.300 3.312 3.275 3.290 3.300 3.298 3.477 3.300 3.300 3.300 3.375 3.913 3.300 3.482 3.300 3.355 3.292 3.302 3.398
# coordination-number N 3.158 3.155 3.439 3.637
# coordination-number Fe 5.845
# coordination-number S 1.978
# coordination-number Na 3.220 2.854
# diagonal-C6 C 24.28 24.29 24.27 24.29 24.29 24.40 24.25 24.28 23.53 24.29 24.29 23.19 24.16 24.29 24.54 24.29 24.28 24.40 21.74 24.29 24.28 24.28 24.39 24.29 21.84 24.39 24.28 24.24 22.21 18.79 24.28 21.33 24.22 24.29 24.28 24.28 24.29 24.36 24.29 24.29 24.51 24.21 24.28 24.29 24.29 24.14 24.30 24.29 24.16 24.51 24.38 24.28 24.30 21.98 24.29 24.28 24.28 23.44 18.44 24.29 21.91 24.28 23.68 24.36 24.26 23.13
# diagonal-C6 N 15.60 15.60 15.58 15.58
# diagonal-C6 Fe 109.50
# diagonal-C6 S 125.92
# diagonal-C6 Na 186.11 186.11
EvdW_6 =   -0.058088
EvdW_8 =   -0.051205

-------- Electronic minimization -----------
Will mix electronic density at each iteration.
	FillingsUpdate:  mu: -0.268291597  nElectrons: 324.000000
	FillingsUpdate:  mu: -0.280088333  nElectrons: 324.000000
SCF: Cycle:  0   F: -646.007822897178357   dF: -3.288e+00   |Residual|: 9.514e-01   |deigs|: 1.158e-01  t[s]:     48.57
	FillingsUpdate:  mu: -0.268174920  nElectrons: 324.000000
SCF: Cycle:  1   F: -645.608510191124651   dF: +3.993e-01   |Residual|: 6.684e-01   |deigs|: 3.317e-02  t[s]:     51.45
	FillingsUpdate:  mu: -0.202471776  nElectrons: 324.000000
SCF: Cycle:  2   F: -635.141452448737482   dF: +1.047e+01   |Residual|: 1.948e+00   |deigs|: 3.432e-02  t[s]:     54.29
	FillingsUpdate:  mu: -0.230726465  nElectrons: 324.000000
SCF: Cycle:  3   F: -646.373155261214720   dF: -1.123e+01   |Residual|: 3.144e-01   |deigs|: 2.779e-02  t[s]:     57.16
	FillingsUpdate:  mu: -0.219708685  nElectrons: 324.000000
SCF: Cycle:  4   F: -646.785629832960126   dF: -4.125e-01   |Residual|: 2.204e-01   |deigs|: 1.246e-02  t[s]:     59.99
	FillingsUpdate:  mu: -0.219945859  nElectrons: 324.000000
SCF: Cycle:  5   F: -646.861174599918286   dF: -7.554e-02   |Residual|: 1.242e-01   |deigs|: 1.532e-03  t[s]:     62.84
	FillingsUpdate:  mu: -0.209216983  nElectrons: 324.000000
SCF: Cycle:  6   F: -646.875994952960809   dF: -1.482e-02   |Residual|: 1.151e-01   |deigs|: 7.504e-03  t[s]:     65.69
	FillingsUpdate:  mu: -0.205987129  nElectrons: 324.000000
SCF: Cycle:  7   F: -646.916788899133735   dF: -4.079e-02   |Residual|: 8.773e-02   |deigs|: 6.026e-03  t[s]:     68.54
	FillingsUpdate:  mu: -0.198535875  nElectrons: 324.000000
SCF: Cycle:  8   F: -646.943191174655681   dF: -2.640e-02   |Residual|: 3.672e-02   |deigs|: 4.913e-03  t[s]:     71.44
	FillingsUpdate:  mu: -0.193883817  nElectrons: 324.000000
SCF: Cycle:  9   F: -646.947572928989757   dF: -4.382e-03   |Residual|: 2.673e-02   |deigs|: 4.110e-03  t[s]:     74.08
	FillingsUpdate:  mu: -0.189460039  nElectrons: 324.000000
SCF: Cycle: 10   F: -646.935571202213964   dF: +1.200e-02   |Residual|: 6.597e-02   |deigs|: 4.740e-03  t[s]:     76.76
	FillingsUpdate:  mu: -0.188235241  nElectrons: 324.000000
SCF: Cycle: 11   F: -646.939879821172212   dF: -4.309e-03   |Residual|: 5.299e-02   |deigs|: 2.118e-03  t[s]:     79.61
	FillingsUpdate:  mu: -0.185347346  nElectrons: 324.000000
SCF: Cycle: 12   F: -646.950524210683284   dF: -1.064e-02   |Residual|: 1.818e-02   |deigs|: 3.047e-03  t[s]:     82.09
	FillingsUpdate:  mu: -0.181057635  nElectrons: 324.000000
SCF: Cycle: 13   F: -646.940851720550882   dF: +9.672e-03   |Residual|: 3.424e-02   |deigs|: 3.458e-03  t[s]:     84.54
	FillingsUpdate:  mu: -0.179029577  nElectrons: 324.000000
SCF: Cycle: 14   F: -646.950579023823821   dF: -9.727e-03   |Residual|: 7.680e-03   |deigs|: 2.208e-03  t[s]:     87.09
	FillingsUpdate:  mu: -0.174867930  nElectrons: 324.000000
SCF: Cycle: 15   F: -646.950837282704242   dF: -2.583e-04   |Residual|: 5.844e-03   |deigs|: 4.050e-03  t[s]:     89.60
	FillingsUpdate:  mu: -0.171336865  nElectrons: 324.000000
SCF: Cycle: 16   F: -646.951604668364325   dF: -7.674e-04   |Residual|: 7.397e-03   |deigs|: 3.661e-03  t[s]:     92.08
	FillingsUpdate:  mu: -0.167245846  nElectrons: 324.000000
SCF: Cycle: 17   F: -646.951732444983577   dF: -1.278e-04   |Residual|: 6.932e-03   |deigs|: 4.166e-03  t[s]:     94.54
	FillingsUpdate:  mu: -0.164765976  nElectrons: 324.000000
SCF: Cycle: 18   F: -646.951806646134742   dF: -7.420e-05   |Residual|: 6.002e-03   |deigs|: 2.591e-03  t[s]:     97.01
	FillingsUpdate:  mu: -0.162853947  nElectrons: 324.000000
SCF: Cycle: 19   F: -646.951898383814296   dF: -9.174e-05   |Residual|: 3.773e-03   |deigs|: 2.069e-03  t[s]:     99.53
	FillingsUpdate:  mu: -0.161522424  nElectrons: 324.000000
SCF: Cycle: 20   F: -646.951901698872575   dF: -3.315e-06   |Residual|: 3.089e-03   |deigs|: 1.324e-03  t[s]:    102.02
	FillingsUpdate:  mu: -0.161151325  nElectrons: 324.000000
SCF: Cycle: 21   F: -646.951940406658764   dF: -3.871e-05   |Residual|: 1.165e-03   |deigs|: 5.914e-04  t[s]:    104.51
	FillingsUpdate:  mu: -0.160961203  nElectrons: 324.000000
SCF: Cycle: 22   F: -646.951949383757096   dF: -8.977e-06   |Residual|: 5.603e-04   |deigs|: 7.316e-04  t[s]:    107.04
	FillingsUpdate:  mu: -0.160787158  nElectrons: 324.000000
SCF: Cycle: 23   F: -646.951944271700427   dF: +5.112e-06   |Residual|: 1.234e-03   |deigs|: 6.053e-04  t[s]:    109.54
	FillingsUpdate:  mu: -0.160797613  nElectrons: 324.000000
SCF: Cycle: 24   F: -646.951949830671083   dF: -5.559e-06   |Residual|: 3.640e-04   |deigs|: 2.530e-04  t[s]:    112.02
	FillingsUpdate:  mu: -0.160795628  nElectrons: 324.000000
SCF: Cycle: 25   F: -646.951950426671601   dF: -5.960e-07   |Residual|: 2.053e-04   |deigs|: 2.621e-04  t[s]:    114.53
	FillingsUpdate:  mu: -0.160813476  nElectrons: 324.000000
SCF: Cycle: 26   F: -646.951951100630595   dF: -6.740e-07   |Residual|: 1.274e-04   |deigs|: 1.874e-04  t[s]:    117.06
	FillingsUpdate:  mu: -0.160844390  nElectrons: 324.000000
SCF: Cycle: 27   F: -646.951951381095569   dF: -2.805e-07   |Residual|: 2.124e-04   |deigs|: 1.624e-04  t[s]:    119.53
	FillingsUpdate:  mu: -0.160860561  nElectrons: 324.000000
SCF: Cycle: 28   F: -646.951951722747822   dF: -3.417e-07   |Residual|: 2.015e-04   |deigs|: 1.054e-04  t[s]:    122.04
	FillingsUpdate:  mu: -0.160790077  nElectrons: 324.000000
SCF: Cycle: 29   F: -646.951951932192173   dF: -2.094e-07   |Residual|: 6.899e-05   |deigs|: 4.309e-04  t[s]:    124.54
	FillingsUpdate:  mu: -0.160755782  nElectrons: 324.000000
SCF: Cycle: 30   F: -646.951952002418466   dF: -7.023e-08   |Residual|: 4.602e-05   |deigs|: 1.138e-04  t[s]:    127.04
	FillingsUpdate:  mu: -0.160727641  nElectrons: 324.000000
SCF: Cycle: 31   F: -646.951952020228532   dF: -1.781e-08   |Residual|: 4.665e-05   |deigs|: 1.368e-04  t[s]:    129.54
	FillingsUpdate:  mu: -0.160727349  nElectrons: 324.000000
SCF: Cycle: 32   F: -646.951952030398047   dF: -1.017e-08   |Residual|: 2.086e-05   |deigs|: 5.246e-05  t[s]:    132.07
	FillingsUpdate:  mu: -0.160724752  nElectrons: 324.000000
SCF: Cycle: 33   F: -646.951952035660497   dF: -5.262e-09   |Residual|: 1.514e-05   |deigs|: 1.305e-04  t[s]:    134.61
	FillingsUpdate:  mu: -0.160724525  nElectrons: 324.000000
SCF: Cycle: 34   F: -646.951952037961178   dF: -2.301e-09   |Residual|: 9.280e-06   |deigs|: 4.127e-05  t[s]:    137.11
SCF: Converged (|Delta E|<1.000000e-08 for 2 iters).

Setting wave functions to eigenvectors of Hamiltonian

Computing DFT-D3 correction:
# coordination-number C 3.300 3.300 3.301 3.300 3.300 3.287 3.304 3.300 3.368 3.300 3.300 3.394 3.312 3.300 3.271 3.299 3.300 3.287 3.494 3.300 3.300 3.301 3.288 3.300 3.487 3.288 3.300 3.304 3.462 3.791 3.300 3.521 3.306 3.300 3.300 3.300 3.299 3.292 3.300 3.300 3.275 3.308 3.300 3.300 3.300 3.315 3.298 3.300 3.312 3.275 3.290 3.300 3.298 3.477 3.300 3.300 3.300 3.375 3.913 3.300 3.482 3.300 3.355 3.292 3.302 3.398
# coordination-number N 3.158 3.155 3.439 3.637
# coordination-number Fe 5.845
# coordination-number S 1.978
# coordination-number Na 3.220 2.854
# diagonal-C6 C 24.28 24.29 24.27 24.29 24.29 24.40 24.25 24.28 23.53 24.29 24.29 23.19 24.16 24.29 24.54 24.29 24.28 24.40 21.74 24.29 24.28 24.28 24.39 24.29 21.84 24.39 24.28 24.24 22.21 18.79 24.28 21.33 24.22 24.29 24.28 24.28 24.29 24.36 24.29 24.29 24.51 24.21 24.28 24.29 24.29 24.14 24.30 24.29 24.16 24.51 24.38 24.28 24.30 21.98 24.29 24.28 24.28 23.44 18.44 24.29 21.91 24.28 23.68 24.36 24.26 23.13
# diagonal-C6 N 15.60 15.60 15.58 15.58
# diagonal-C6 Fe 109.50
# diagonal-C6 S 125.92
# diagonal-C6 Na 186.11 186.11
EvdW_6 =   -0.058088
EvdW_8 =   -0.051205

# Ionic positions in cartesian coordinates:
ion C  28.005857181630002   0.000000000000000   1.000001652210000 0
ion C  25.672025513790000   4.042310104620000   1.000001652210000 0
ion C  11.669128103520002  20.211535405260001   1.000001652210000 0
ion C   4.667680343250000   0.000000000000000   1.000001652210000 0
ion C  23.338288332449999   0.000000000000000   1.000001652210000 0
ion C   2.333822219190000   4.042310104620000   1.000001652210000 0
ion C  16.336708291080008  20.211535405260001   1.000001652210000 0
ion C  23.338191956219998   8.084622098970000   1.000001652210000 0
ion C   9.335305884329996  16.169223410910011   1.000001652210000 0
ion C   9.335322891900001   0.000000000000000   1.000001652210000 0
ion C  18.670626886499999   0.000000000000000   1.000001652210000 0
ion C  18.670539958920003  16.169223410910011   1.000001652210000 0
ion C  21.004371626759990  12.126913306290001   1.000001652210000 0
ion C  14.002984337850000   0.000000000000000   1.000001652210000 0
ion C   0.000000000000000   8.084622098970000   1.000001652210000 0
ion C   7.001485554870005  20.211535405260001   1.000001652210000 0
ion C  -7.001481775409994  20.211535405260001   1.000001652210000 0
ion C  -2.333822219189999  12.126913306290001   1.000001652210000 0
ion C   4.667663335679999  16.169223410910011   1.000001652210000 0
ion C  -2.333820329459996  20.211535405260001   1.000001652210000 0
ion C   2.333824108920002  20.211535405260001   1.000001652210000 0
ion C  -4.667659556220002  16.169223410910011   1.000001652210000 0
ion C   7.001483665139999   4.042310104620000   1.000001652210000 0
ion C  21.004430208389998   4.042310104620000   1.000001652210000 0
ion C  14.002948432980000  16.169223410910011   1.000001652210000 0
ion C   0.000001889729997  16.169223410910011   1.000001652210000 0
ion C  11.669126213789999   4.042310104620000   1.000001652210000 0
ion C  18.670609878929998   8.084622098970000   1.000001652210000 0
ion C  11.669126213789998  12.126913306290001   1.000001652210000 0
ion C  16.336787659739997  12.126913306290001   1.000001652210000 0
ion C  16.336789549470002   4.042310104620000   1.000001652210000 0
ion C   9.335303994600004   8.084622098970000   1.000001652210000 0
ion C  14.002948432980002   8.084622098970000   1.000001652210000 0
ion C   0.000000000000000   2.694874032990001   1.000001652210000 0
ion C  11.669128103519999  22.906390540950010   1.000001652210000 0
ion C -11.669124324059998  22.906390540950010   1.000001652210000 0
ion C  -2.333822219190000   6.737165240310004   1.000001652210000 0
ion C   9.335305884330001  18.864097443900004   1.000001652210000 0
ion C  -7.001481775409996  22.906390540950010   1.000001652210000 0
ion C   7.001485554870005  22.906390540950010   1.000001652210000 0
ion C   2.333822219189997   6.737165240310004   1.000001652210000 0
ion C  -9.335302104869998  18.864097443900004   1.000001652210000 0
ion C  -4.667661445950000  10.779477234660005   1.000001652210000 0
ion C  -2.333820329460000  22.906390540950010   1.000001652210000 0
ion C   2.333824108920002  22.906390540950010   1.000001652210000 0
ion C  -7.001483665140000  14.821787339280007   1.000001652210000 0
ion C   4.667661445950001   2.694874032990001   1.000001652210000 0
ion C  23.338269435150004   2.694874032990001   1.000001652210000 0
ion C  14.002967330279997  18.864097443900004   1.000001652210000 0
ion C   0.000000000000000  10.779477234660005   1.000001652210000 0
ion C   4.667663335679999  18.864097443900004   1.000001652210000 0
ion C  -4.667640658919996  18.864097443900004   1.000001652210000 0
ion C  -2.333822219190001  14.821787339280007   1.000001652210000 0
ion C   2.333824108919998  14.821787339280007   1.000001652210000 0
ion C   0.000001889729999  18.864097443900004   1.000001652210000 0
ion C   9.335303994599997   2.694874032990001   1.000001652210000 0
ion C  21.004430208390001   6.737165240310004   1.000001652210000 0
ion C  11.669126213790003  14.821787339280007   1.000001652210000 0
ion C  16.336789549469998  14.821787339280007   1.000001652210000 0
ion C  18.670609878930005   2.694874032990001   1.000001652210000 0
ion C   7.001483665139999   6.737165240310004   1.000001652210000 0
ion C  14.002946543250001   2.694874032990001   1.000001652210000 0
ion C  18.670607989199997  10.779477234660005   1.000001652210000 0
ion C  11.669126213789998   6.737165240310004   1.000001652210000 0
ion C  16.336787659740001   6.737165240310004   1.000001652210000 0
ion C  14.002946543250001  10.779477234660005   1.000001652210000 0
ion N   4.667661445950002   8.084622098970000   1.000001652210000 0
ion N   2.333822219190004  12.126913306290001   1.000001652210000 0
ion N   7.001485554869998  14.821787339280007   1.000001652210000 0
ion N   9.335305884330001  10.779477234660005   1.000001652210000 0
ion Fe   5.837109518069999  11.454309266310004   1.000001652210000 0
ion S  11.996321958307306  13.080363808714907   8.869696466513297 1
ion Na   8.177817050167437  12.403054816466332   5.947606613126949 1
ion Na  15.895421543116431  13.800966413369199   6.147004302818918 1

# Forces in Cartesian coordinates:
force C   0.004017162359352   0.000002087225380  -0.000015416758754 0
force C   0.001274214885938  -0.001360632038670  -0.000008342938065 0
force C   0.003180281459292  -0.001800631843045   0.000144624914263 0
force C   0.001558873282096   0.002593824480510   0.000001776387558 0
force C   0.002424434747915  -0.000573286514084  -0.000001668918226 0
force C   0.005169349718634   0.002025793058268  -0.000052180214972 0
force C   0.001138635727285  -0.000290661392656  -0.000033073346083 0
force C  -0.000546840516461   0.001708917986779  -0.000010492619717 0
force C  -0.030578130872952  -0.010801932449506  -0.001094329856783 0
force C  -0.000622772666471   0.000341165581506  -0.000001523305247 0
force C  -0.000774472484464   0.000008487662023  -0.000012285455375 0
force C   0.002470585757951   0.002742339847041   0.000299540313759 0
force C   0.003041465561963   0.003168410611466  -0.000002918383118 0
force C  -0.000777715365316  -0.000632780647422  -0.000006907783661 0
force C   0.010946434096011   0.006301463153813   0.000047090750351 0
force C   0.003331337029465   0.003311003088436   0.000038515385899 0
force C   0.002148987101820   0.001041222646938   0.000005795593245 0
force C   0.004779140012485   0.003586957982528  -0.000060152228228 0
force C   0.026107915112189   0.013144730258469  -0.000510005327619 0
force C   0.000032373182729  -0.000985352489408   0.000013506485637 0
force C  -0.003562159917035   0.000749710607654  -0.000031586070069 0
force C   0.003360071055474   0.000133238747814   0.000093598463246 0
force C   0.005477830118143   0.006152060747589  -0.000008833890945 0
force C   0.001757569414056   0.000730561024740  -0.000007677334290 0
force C  -0.003585782600441   0.001345609750157  -0.000594560011662 0
force C   0.008370235700938   0.001363626872975  -0.000022570090391 0
force C  -0.000860097683875  -0.003447852570746  -0.000041318171650 0
force C   0.001154457133740   0.001933404806022   0.000123159732915 0
force C  -0.025401324981688  -0.021389174511709  -0.002117873223830 0
force C  -0.000130848342900   0.001011596304170  -0.000078675472509 0
force C  -0.000417823639618  -0.000662135273044   0.000040131568089 0
force C   0.024256144561923   0.014607733747919  -0.000743472509309 0
force C   0.004840668427847   0.000404581324393   0.000049139354139 0
force C  -0.003526444558229   0.001847483112175   0.000004704349152 0
force C  -0.004116740800857   0.000144913531634  -0.000016398179763 0
force C  -0.002464408781840   0.000595708070161   0.000062078068158 0
force C   0.002295843349184   0.001181424078475   0.000010585432621 0
force C  -0.004907705072818  -0.002050575198990  -0.000042831666231 0
force C   0.000246056670425   0.000378559929657  -0.000016034623770 0
force C  -0.001129100102297  -0.003087362638325   0.000031767302079 0
force C   0.033034365783861   0.013951879427120  -0.000025724702079 0
force C  -0.002034624253043   0.000072285824183   0.000126326594101 0
force C  -0.000128136680085  -0.004275520098488   0.000107638755042 0
force C   0.000687851069844   0.000659039949091  -0.000006671414719 0
force C   0.000927335373672  -0.000418465422654  -0.000001118637460 0
force C   0.000071123839112  -0.002112601019058   0.000063195982820 0
force C  -0.003225921090048  -0.002408837129164   0.000010027848041 0
force C  -0.000801574616171   0.000955210658824  -0.000009284684212 0
force C  -0.001667950303516   0.001423133008247   0.000126483019655 0
force C   0.028651963462267   0.021750859975108  -0.000043336541817 0
force C  -0.005226861523782  -0.007694320603928  -0.000164616420334 0
force C   0.000341483458423   0.000458967117581  -0.000020304771714 0
force C  -0.003723681514705  -0.001731133065635  -0.000000081612596 0
force C  -0.023722442646419  -0.020154347991313  -0.000193692761519 0
force C   0.001135102426001   0.003197622727144  -0.000018809926744 0
force C   0.003026455654108  -0.000484391759144  -0.000011728683743 0
force C   0.000483638665800  -0.000938005473356  -0.000012902320506 0
force C  -0.012394213361869  -0.006486629292090  -0.000740070762763 0
force C  -0.000186564375465   0.000143522377769  -0.000038528891026 0
force C  -0.001555804681595  -0.000967457431675  -0.000008309846818 0
force C  -0.028796842200979  -0.010204343616556  -0.000199558704392 0
force C  -0.000065028576881   0.001306595420179   0.000003575576675 0
force C  -0.000261152315675  -0.005375299033921   0.000128906897454 0
force C  -0.009456031615958  -0.000623000860788  -0.000089555324234 0
force C  -0.004055988293415   0.000252350831166   0.000027864515181 0
force C  -0.006465923145831  -0.004472144031314  -0.000680480564337 0
force N   0.026298092442616  -0.025847573715903   0.000918089826754 0
force N  -0.009363901681110   0.035758367770641   0.000903435664623 0
force N  -0.025903658196563   0.024504901969652   0.002814774227831 0
force N   0.009099019392198  -0.034049825197552   0.002576784572843 0
force Fe  -0.003820920341707  -0.001553703855235  -0.002859814483672 0
force S   0.000166870143686   0.000108864682792  -0.000792036452975 1
force Na  -0.000834524600337  -0.000168549189580   0.001141988495072 1
force Na   0.000437940189877   0.000091725451752   0.001032939788002 1

# Energy components:
   Eewald =    -1181.3678399921207074
       EH =     -676.3081987474718062
     Eloc =     1154.5349590680709753
      Enl =      -63.9798571154092031
     EvdW =       -0.1092932368575831
      Exc =     -163.4964001835208478
 Exc_core =        5.1303974300831765
       KE =      278.7393401037696208
-------------------------------------
     Etot =     -646.8568926734565139
       TS =        0.0950593645046990
-------------------------------------
        F =     -646.9519520379611777

IonicMinimize: Iter:   0  F: -646.951952037961178  |grad|_K:  6.636e-04  alpha:  1.000e+00

#--- Lowdin population analysis ---
# oxidation-state C +0.045 +0.036 +0.039 +0.037 +0.040 +0.028 +0.034 +0.035 +0.134 +0.041 +0.039 +0.013 +0.033 +0.041 +0.013 +0.047 +0.041 +0.026 +0.123 +0.040 +0.036 +0.032 +0.034 +0.046 +0.028 +0.033 +0.037 +0.034 +0.130 -0.008 +0.038 +0.122 +0.046 +0.040 +0.046 +0.038 +0.051 +0.028 +0.038 +0.038 +0.151 +0.038 +0.036 +0.042 +0.041 +0.026 +0.049 +0.040 +0.030 +0.150 +0.033 +0.037 +0.048 +0.129 +0.037 +0.037 +0.037 -0.002 -0.020 +0.045 +0.128 +0.042 +0.026 +0.034 +0.036 +0.013
# oxidation-state N -0.133 -0.133 -0.155 -0.160
# oxidation-state Fe +0.038
# oxidation-state S -0.878
# oxidation-state Na +0.734 +0.791


Computing DFT-D3 correction:
# coordination-number C 3.300 3.300 3.301 3.300 3.300 3.287 3.304 3.300 3.368 3.300 3.300 3.394 3.312 3.300 3.271 3.299 3.300 3.287 3.494 3.300 3.300 3.301 3.288 3.300 3.486 3.288 3.300 3.304 3.462 3.790 3.300 3.521 3.306 3.300 3.300 3.300 3.299 3.292 3.300 3.300 3.275 3.308 3.300 3.300 3.300 3.315 3.298 3.300 3.312 3.275 3.290 3.300 3.298 3.477 3.300 3.300 3.300 3.375 3.913 3.300 3.482 3.300 3.355 3.292 3.302 3.398
# coordination-number N 3.158 3.155 3.439 3.636
# coordination-number Fe 5.844
# coordination-number S 1.978
# coordination-number Na 3.217 2.851
# diagonal-C6 C 24.28 24.29 24.27 24.29 24.29 24.40 24.25 24.28 23.53 24.29 24.29 23.19 24.16 24.29 24.54 24.29 24.28 24.40 21.74 24.29 24.28 24.28 24.39 24.29 21.85 24.39 24.28 24.24 22.22 18.79 24.28 21.33 24.22 24.29 24.28 24.28 24.29 24.36 24.29 24.29 24.51 24.21 24.28 24.29 24.29 24.14 24.30 24.29 24.16 24.51 24.38 24.28 24.30 21.98 24.29 24.28 24.28 23.44 18.44 24.29 21.91 24.28 23.68 24.36 24.26 23.13
# diagonal-C6 N 15.60 15.60 15.58 15.58
# diagonal-C6 Fe 109.50
# diagonal-C6 S 125.92
# diagonal-C6 Na 186.11 186.11
EvdW_6 =   -0.058090
EvdW_8 =   -0.051207

-------- Electronic minimization -----------
Will mix electronic density at each iteration.
	FillingsUpdate:  mu: -0.160724525  nElectrons: 324.000000
	FillingsUpdate:  mu: -0.160703932  nElectrons: 324.000000
SCF: Cycle:  0   F: -646.951953190772542   dF: +2.719e-06   |Residual|: 6.371e-04   |deigs|: 2.870e-06  t[s]:    144.62
	FillingsUpdate:  mu: -0.160771083  nElectrons: 324.000000
SCF: Cycle:  1   F: -646.951803864739077   dF: +1.493e-04   |Residual|: 6.553e-03   |deigs|: 5.313e-05  t[s]:    146.61
	FillingsUpdate:  mu: -0.160688302  nElectrons: 324.000000
SCF: Cycle:  2   F: -646.951954979752600   dF: -1.511e-04   |Residual|: 4.066e-04   |deigs|: 5.239e-05  t[s]:    148.59
	FillingsUpdate:  mu: -0.160703486  nElectrons: 324.000000
SCF: Cycle:  3   F: -646.951955951224704   dF: -9.715e-07   |Residual|: 4.862e-05   |deigs|: 7.288e-06  t[s]:    150.51
	FillingsUpdate:  mu: -0.160703932  nElectrons: 324.000000
SCF: Cycle:  4   F: -646.951955977199873   dF: -2.598e-08   |Residual|: 2.276e-05   |deigs|: 6.564e-06  t[s]:    152.46
	FillingsUpdate:  mu: -0.160704097  nElectrons: 324.000000
SCF: Cycle:  5   F: -646.951955973003578   dF: +4.196e-09   |Residual|: 4.116e-05   |deigs|: 5.967e-06  t[s]:    154.40
	FillingsUpdate:  mu: -0.160705554  nElectrons: 324.000000
SCF: Cycle:  6   F: -646.951955981676292   dF: -8.673e-09   |Residual|: 1.005e-05   |deigs|: 1.073e-05  t[s]:    156.37
	FillingsUpdate:  mu: -0.160706313  nElectrons: 324.000000
SCF: Cycle:  7   F: -646.951955981997344   dF: -3.211e-10   |Residual|: 8.226e-06   |deigs|: 1.111e-05  t[s]:    171.27
SCF: Converged (|Delta E|<1.000000e-08 for 2 iters).

Setting wave functions to eigenvectors of Hamiltonian
IonicMinimize: 	Predicted alpha/alphaT>3.000000, increasing alphaT to 3.000000e+00.

Computing DFT-D3 correction:
# coordination-number C 3.300 3.300 3.301 3.300 3.300 3.287 3.304 3.300 3.368 3.300 3.300 3.394 3.312 3.300 3.271 3.299 3.300 3.287 3.493 3.300 3.300 3.301 3.288 3.300 3.485 3.288 3.300 3.304 3.461 3.789 3.300 3.521 3.306 3.300 3.300 3.300 3.299 3.292 3.300 3.300 3.275 3.308 3.300 3.300 3.300 3.315 3.298 3.300 3.312 3.275 3.290 3.300 3.298 3.477 3.300 3.300 3.300 3.374 3.911 3.300 3.482 3.300 3.355 3.292 3.302 3.398
# coordination-number N 3.158 3.155 3.438 3.634
# coordination-number Fe 5.844
# coordination-number S 1.978
# coordination-number Na 3.211 2.846
# diagonal-C6 C 24.28 24.29 24.27 24.29 24.29 24.40 24.25 24.28 23.53 24.29 24.29 23.19 24.16 24.29 24.54 24.29 24.28 24.40 21.74 24.29 24.28 24.28 24.39 24.29 21.86 24.39 24.28 24.24 22.23 18.80 24.28 21.33 24.22 24.29 24.28 24.28 24.29 24.36 24.29 24.29 24.51 24.21 24.28 24.29 24.29 24.14 24.30 24.29 24.16 24.51 24.38 24.28 24.30 21.98 24.29 24.28 24.28 23.45 18.44 24.29 21.91 24.28 23.69 24.36 24.26 23.14
# diagonal-C6 N 15.60 15.60 15.58 15.58
# diagonal-C6 Fe 109.50
# diagonal-C6 S 125.92
# diagonal-C6 Na 186.11 186.11
EvdW_6 =   -0.058093
EvdW_8 =   -0.051212

-------- Electronic minimization -----------
Will mix electronic density at each iteration.
	FillingsUpdate:  mu: -0.160706313  nElectrons: 324.000000
	FillingsUpdate:  mu: -0.160676028  nElectrons: 324.000000
SCF: Cycle:  0   F: -646.951960232705233   dF: +3.193e-06   |Residual|: 6.358e-04   |deigs|: 1.336e-06  t[s]:    181.58
	FillingsUpdate:  mu: -0.160727765  nElectrons: 324.000000
SCF: Cycle:  1   F: -646.951841514866373   dF: +1.187e-04   |Residual|: 5.810e-03   |deigs|: 4.752e-05  t[s]:    183.55
	FillingsUpdate:  mu: -0.160651378  nElectrons: 324.000000
SCF: Cycle:  2   F: -646.951961470676679   dF: -1.200e-04   |Residual|: 6.974e-04   |deigs|: 4.882e-05  t[s]:    185.50
	FillingsUpdate:  mu: -0.160674069  nElectrons: 324.000000
SCF: Cycle:  3   F: -646.951963580211554   dF: -2.110e-06   |Residual|: 8.649e-05   |deigs|: 1.079e-05  t[s]:    187.40
	FillingsUpdate:  mu: -0.160674043  nElectrons: 324.000000
SCF: Cycle:  4   F: -646.951963675366073   dF: -9.515e-08   |Residual|: 4.145e-05   |deigs|: 1.150e-05  t[s]:    189.39
	FillingsUpdate:  mu: -0.160675018  nElectrons: 324.000000
SCF: Cycle:  5   F: -646.951963678547372   dF: -3.181e-09   |Residual|: 4.217e-05   |deigs|: 1.115e-05  t[s]:    191.32
	FillingsUpdate:  mu: -0.160677010  nElectrons: 324.000000
SCF: Cycle:  6   F: -646.951963688481555   dF: -9.934e-09   |Residual|: 1.402e-05   |deigs|: 1.864e-05  t[s]:    193.81
SCF: Converged (|Delta E|<1.000000e-08 for 2 iters).

Setting wave functions to eigenvectors of Hamiltonian
IonicMinimize: 	Predicted alpha/alphaT>3.000000, increasing alphaT to 9.000000e+00.

Computing DFT-D3 correction:
# coordination-number C 3.300 3.300 3.301 3.300 3.300 3.287 3.304 3.300 3.366 3.300 3.300 3.393 3.312 3.300 3.271 3.299 3.300 3.287 3.493 3.300 3.300 3.301 3.288 3.300 3.483 3.288 3.300 3.304 3.458 3.784 3.300 3.520 3.306 3.300 3.300 3.300 3.299 3.292 3.300 3.300 3.275 3.308 3.300 3.300 3.300 3.315 3.298 3.300 3.312 3.275 3.289 3.300 3.298 3.477 3.300 3.300 3.300 3.373 3.907 3.300 3.482 3.300 3.355 3.292 3.302 3.396
# coordination-number N 3.158 3.155 3.435 3.629
# coordination-number Fe 5.842
# coordination-number S 1.978
# coordination-number Na 3.194 2.830
# diagonal-C6 C 24.28 24.29 24.27 24.29 24.29 24.40 24.25 24.28 23.55 24.29 24.29 23.20 24.16 24.29 24.54 24.29 24.28 24.40 21.74 24.29 24.28 24.28 24.39 24.29 21.89 24.39 24.28 24.24 22.27 18.82 24.28 21.34 24.22 24.29 24.28 24.28 24.29 24.36 24.29 24.29 24.51 24.21 24.28 24.29 24.29 24.14 24.30 24.29 24.16 24.51 24.38 24.28 24.30 21.98 24.29 24.28 24.28 23.46 18.45 24.29 21.91 24.28 23.69 24.36 24.26 23.16
# diagonal-C6 N 15.60 15.60 15.58 15.58
# diagonal-C6 Fe 109.50
# diagonal-C6 S 125.92
# diagonal-C6 Na 186.11 186.11
EvdW_6 =   -0.058104
EvdW_8 =   -0.051225

-------- Electronic minimization -----------
Will mix electronic density at each iteration.
	FillingsUpdate:  mu: -0.160677010  nElectrons: 324.000000
	FillingsUpdate:  mu: -0.160563687  nElectrons: 324.000000
SCF: Cycle:  0   F: -646.951924351251478   dF: +5.861e-05   |Residual|: 2.994e-03   |deigs|: 1.115e-06  t[s]:    198.89
	FillingsUpdate:  mu: -0.160875391  nElectrons: 324.000000
SCF: Cycle:  1   F: -646.948702216743072   dF: +3.222e-03   |Residual|: 3.049e-02   |deigs|: 2.485e-04  t[s]:    200.84
	FillingsUpdate:  mu: -0.160496032  nElectrons: 324.000000
SCF: Cycle:  2   F: -646.951964711308619   dF: -3.262e-03   |Residual|: 1.830e-03   |deigs|: 2.439e-04  t[s]:    202.77
	FillingsUpdate:  mu: -0.160566133  nElectrons: 324.000000
SCF: Cycle:  3   F: -646.951984354817341   dF: -1.964e-05   |Residual|: 2.753e-04   |deigs|: 3.393e-05  t[s]:    204.70
	FillingsUpdate:  mu: -0.160566615  nElectrons: 324.000000
SCF: Cycle:  4   F: -646.951985204313246   dF: -8.495e-07   |Residual|: 1.275e-04   |deigs|: 3.942e-05  t[s]:    206.67
	FillingsUpdate:  mu: -0.160568461  nElectrons: 324.000000
SCF: Cycle:  5   F: -646.951985121638359   dF: +8.267e-08   |Residual|: 2.009e-04   |deigs|: 3.605e-05  t[s]:    208.60
	FillingsUpdate:  mu: -0.160576199  nElectrons: 324.000000
SCF: Cycle:  6   F: -646.951985321972074   dF: -2.003e-07   |Residual|: 5.845e-05   |deigs|: 5.517e-05  t[s]:    210.56
	FillingsUpdate:  mu: -0.160580210  nElectrons: 324.000000
SCF: Cycle:  7   F: -646.951985329342733   dF: -7.371e-09   |Residual|: 4.596e-05   |deigs|: 4.598e-05  t[s]:    212.51
	FillingsUpdate:  mu: -0.160587806  nElectrons: 324.000000
SCF: Cycle:  8   F: -646.951985355573470   dF: -2.623e-08   |Residual|: 3.532e-05   |deigs|: 4.607e-05  t[s]:    215.02
	FillingsUpdate:  mu: -0.160593128  nElectrons: 324.000000
SCF: Cycle:  9   F: -646.951985365539713   dF: -9.966e-09   |Residual|: 2.441e-05   |deigs|: 2.193e-05  t[s]:    216.96
	FillingsUpdate:  mu: -0.160602270  nElectrons: 324.000000
SCF: Cycle: 10   F: -646.951985379972825   dF: -1.443e-08   |Residual|: 1.559e-05   |deigs|: 2.076e-05  t[s]:    219.49
	FillingsUpdate:  mu: -0.160608443  nElectrons: 324.000000
SCF: Cycle: 11   F: -646.951985384786440   dF: -4.814e-09   |Residual|: 2.047e-05   |deigs|: 2.791e-05  t[s]:    221.99
	FillingsUpdate:  mu: -0.160612588  nElectrons: 324.000000
SCF: Cycle: 12   F: -646.951985387951709   dF: -3.165e-09   |Residual|: 9.021e-06   |deigs|: 3.400e-05  t[s]:    224.49
SCF: Converged (|Delta E|<1.000000e-08 for 2 iters).

Setting wave functions to eigenvectors of Hamiltonian
IonicMinimize: 	Predicted alpha/alphaT>3.000000, increasing alphaT to 2.700000e+01.

Computing DFT-D3 correction:
# coordination-number C 3.300 3.300 3.301 3.300 3.300 3.287 3.304 3.300 3.355 3.300 3.300 3.386 3.312 3.300 3.271 3.299 3.300 3.287 3.492 3.300 3.300 3.301 3.288 3.300 3.463 3.288 3.300 3.304 3.431 3.742 3.300 3.516 3.305 3.300 3.300 3.300 3.299 3.291 3.300 3.300 3.275 3.307 3.300 3.300 3.300 3.314 3.298 3.300 3.311 3.275 3.289 3.300 3.298 3.477 3.300 3.300 3.300 3.360 3.864 3.300 3.482 3.300 3.351 3.292 3.302 3.384
# coordination-number N 3.158 3.155 3.406 3.577
# coordination-number Fe 5.825
# coordination-number S 1.982
# coordination-number Na 3.027 2.674
# diagonal-C6 C 24.28 24.29 24.27 24.29 24.29 24.40 24.25 24.28 23.69 24.29 24.29 23.29 24.17 24.29 24.54 24.29 24.28 24.40 21.75 24.29 24.28 24.28 24.39 24.29 22.20 24.39 24.28 24.24 22.67 19.03 24.28 21.40 24.23 24.29 24.28 24.28 24.29 24.36 24.29 24.29 24.51 24.21 24.28 24.29 24.29 24.14 24.30 24.29 24.17 24.51 24.38 24.28 24.30 21.98 24.29 24.28 24.28 23.63 18.54 24.29 21.91 24.29 23.74 24.36 24.26 23.32
# diagonal-C6 N 15.60 15.60 15.58 15.58
# diagonal-C6 Fe 109.50
# diagonal-C6 S 125.91
# diagonal-C6 Na 186.11 186.11
EvdW_6 =   -0.058206
EvdW_8 =   -0.051349

-------- Electronic minimization -----------
Will mix electronic density at each iteration.
	FillingsUpdate:  mu: -0.160612588  nElectrons: 324.000000
	FillingsUpdate:  mu: -0.156739166  nElectrons: 324.000000
SCF: Cycle:  0   F: -646.879013281013613   dF: -1.633e-01   |Residual|: 2.420e-01   |deigs|: 3.267e-03  t[s]:    230.54
	FillingsUpdate:  mu: -0.161900287  nElectrons: 324.000000
SCF: Cycle:  1   F: -645.509629417934093   dF: +1.369e+00   |Residual|: 6.946e-01   |deigs|: 7.539e-03  t[s]:    233.47
	FillingsUpdate:  mu: -0.154631040  nElectrons: 324.000000
SCF: Cycle:  2   F: -646.809195461350328   dF: -1.300e+00   |Residual|: 2.250e-01   |deigs|: 8.776e-03  t[s]:    236.38
	FillingsUpdate:  mu: -0.161727780  nElectrons: 324.000000
SCF: Cycle:  3   F: -646.842209948419509   dF: -3.301e-02   |Residual|: 1.716e-01   |deigs|: 3.043e-03  t[s]:    239.32
	FillingsUpdate:  mu: -0.158302636  nElectrons: 324.000000
SCF: Cycle:  4   F: -646.949807165084962   dF: -1.076e-01   |Residual|: 2.586e-02   |deigs|: 1.833e-03  t[s]:    242.29
	FillingsUpdate:  mu: -0.157835760  nElectrons: 324.000000
SCF: Cycle:  5   F: -646.945376325667098   dF: +4.431e-03   |Residual|: 4.307e-02   |deigs|: 4.545e-04  t[s]:    244.81
	FillingsUpdate:  mu: -0.158696223  nElectrons: 324.000000
SCF: Cycle:  6   F: -646.950858910874331   dF: -5.483e-03   |Residual|: 1.732e-02   |deigs|: 5.275e-04  t[s]:    247.37
	FillingsUpdate:  mu: -0.158428157  nElectrons: 324.000000
SCF: Cycle:  7   F: -646.951355439076906   dF: -4.965e-04   |Residual|: 1.148e-02   |deigs|: 3.499e-04  t[s]:    249.91
	FillingsUpdate:  mu: -0.158695432  nElectrons: 324.000000
SCF: Cycle:  8   F: -646.951929030944370   dF: -5.736e-04   |Residual|: 2.524e-03   |deigs|: 2.680e-04  t[s]:    252.41
	FillingsUpdate:  mu: -0.158979164  nElectrons: 324.000000
SCF: Cycle:  9   F: -646.951989595471787   dF: -6.056e-05   |Residual|: 1.375e-03   |deigs|: 4.324e-04  t[s]:    254.98
	FillingsUpdate:  mu: -0.159146538  nElectrons: 324.000000
SCF: Cycle: 10   F: -646.952032670970311   dF: -4.308e-05   |Residual|: 1.103e-03   |deigs|: 3.526e-04  t[s]:    257.48
	FillingsUpdate:  mu: -0.159381789  nElectrons: 324.000000
SCF: Cycle: 11   F: -646.952044232051321   dF: -1.156e-05   |Residual|: 2.648e-03   |deigs|: 3.708e-04  t[s]:    260.01
	FillingsUpdate:  mu: -0.159476161  nElectrons: 324.000000
SCF: Cycle: 12   F: -646.952073943840787   dF: -2.971e-05   |Residual|: 1.224e-03   |deigs|: 2.189e-04  t[s]:    262.53
	FillingsUpdate:  mu: -0.159548950  nElectrons: 324.000000
SCF: Cycle: 13   F: -646.952081566985271   dF: -7.623e-06   |Residual|: 4.965e-04   |deigs|: 1.443e-04  t[s]:    265.04
	FillingsUpdate:  mu: -0.159643981  nElectrons: 324.000000
SCF: Cycle: 14   F: -646.952085490162972   dF: -3.923e-06   |Residual|: 3.956e-04   |deigs|: 1.334e-04  t[s]:    267.59
	FillingsUpdate:  mu: -0.159740530  nElectrons: 324.000000
SCF: Cycle: 15   F: -646.952086830750204   dF: -1.341e-06   |Residual|: 3.828e-04   |deigs|: 1.664e-04  t[s]:    270.10
	FillingsUpdate:  mu: -0.159763479  nElectrons: 324.000000
SCF: Cycle: 16   F: -646.952087802932283   dF: -9.722e-07   |Residual|: 2.356e-04   |deigs|: 1.771e-04  t[s]:    272.63
	FillingsUpdate:  mu: -0.159824594  nElectrons: 324.000000
SCF: Cycle: 17   F: -646.952087130109135   dF: +6.728e-07   |Residual|: 4.293e-04   |deigs|: 2.727e-04  t[s]:    275.15
	FillingsUpdate:  mu: -0.159858707  nElectrons: 324.000000
SCF: Cycle: 18   F: -646.952087871863341   dF: -7.418e-07   |Residual|: 1.322e-04   |deigs|: 3.250e-04  t[s]:    277.65
	FillingsUpdate:  mu: -0.159881824  nElectrons: 324.000000
SCF: Cycle: 19   F: -646.952087963291547   dF: -9.143e-08   |Residual|: 1.260e-04   |deigs|: 1.208e-04  t[s]:    280.19
	FillingsUpdate:  mu: -0.159905683  nElectrons: 324.000000
SCF: Cycle: 20   F: -646.952088053492389   dF: -9.020e-08   |Residual|: 6.097e-05   |deigs|: 4.455e-05  t[s]:    282.71
	FillingsUpdate:  mu: -0.159917807  nElectrons: 324.000000
SCF: Cycle: 21   F: -646.952088075163488   dF: -2.167e-08   |Residual|: 6.269e-05   |deigs|: 6.376e-05  t[s]:    285.24
	FillingsUpdate:  mu: -0.159934663  nElectrons: 324.000000
SCF: Cycle: 22   F: -646.952088102797916   dF: -2.763e-08   |Residual|: 7.535e-05   |deigs|: 8.739e-05  t[s]:    287.80
	FillingsUpdate:  mu: -0.159942213  nElectrons: 324.000000
SCF: Cycle: 23   F: -646.952088117308676   dF: -1.451e-08   |Residual|: 4.157e-05   |deigs|: 7.094e-05  t[s]:    290.38
	FillingsUpdate:  mu: -0.159955056  nElectrons: 324.000000
SCF: Cycle: 24   F: -646.952088123744375   dF: -6.436e-09   |Residual|: 3.422e-05   |deigs|: 9.506e-05  t[s]:    292.93
	FillingsUpdate:  mu: -0.159967031  nElectrons: 324.000000
SCF: Cycle: 25   F: -646.952088130202242   dF: -6.458e-09   |Residual|: 2.415e-05   |deigs|: 5.634e-05  t[s]:    295.41
SCF: Converged (|Delta E|<1.000000e-08 for 2 iters).

Setting wave functions to eigenvectors of Hamiltonian

Computing DFT-D3 correction:
# coordination-number C 3.300 3.300 3.301 3.300 3.300 3.287 3.304 3.300 3.355 3.300 3.300 3.386 3.312 3.300 3.271 3.299 3.300 3.287 3.492 3.300 3.300 3.301 3.288 3.300 3.463 3.288 3.300 3.304 3.431 3.742 3.300 3.516 3.305 3.300 3.300 3.300 3.299 3.291 3.300 3.300 3.275 3.307 3.300 3.300 3.300 3.314 3.298 3.300 3.311 3.275 3.289 3.300 3.298 3.477 3.300 3.300 3.300 3.360 3.864 3.300 3.482 3.300 3.351 3.292 3.302 3.384
# coordination-number N 3.158 3.155 3.406 3.577
# coordination-number Fe 5.825
# coordination-number S 1.982
# coordination-number Na 3.027 2.674
# diagonal-C6 C 24.28 24.29 24.27 24.29 24.29 24.40 24.25 24.28 23.69 24.29 24.29 23.29 24.17 24.29 24.54 24.29 24.28 24.40 21.75 24.29 24.28 24.28 24.39 24.29 22.20 24.39 24.28 24.24 22.67 19.03 24.28 21.40 24.23 24.29 24.28 24.28 24.29 24.36 24.29 24.29 24.51 24.21 24.28 24.29 24.29 24.14 24.30 24.29 24.17 24.51 24.38 24.28 24.30 21.98 24.29 24.28 24.28 23.63 18.54 24.29 21.91 24.29 23.74 24.36 24.26 23.32
# diagonal-C6 N 15.60 15.60 15.58 15.58
# diagonal-C6 Fe 109.50
# diagonal-C6 S 125.91
# diagonal-C6 Na 186.11 186.11
EvdW_6 =   -0.058206
EvdW_8 =   -0.051349

# Ionic positions in cartesian coordinates:
ion C  28.005857181630002   0.000000000000000   1.000001652210000 0
ion C  25.672025513790000   4.042310104620000   1.000001652210000 0
ion C  11.669128103520002  20.211535405260001   1.000001652210000 0
ion C   4.667680343250000   0.000000000000000   1.000001652210000 0
ion C  23.338288332449999   0.000000000000000   1.000001652210000 0
ion C   2.333822219190000   4.042310104620000   1.000001652210000 0
ion C  16.336708291080008  20.211535405260001   1.000001652210000 0
ion C  23.338191956219998   8.084622098970000   1.000001652210000 0
ion C   9.335305884329996  16.169223410910011   1.000001652210000 0
ion C   9.335322891900001   0.000000000000000   1.000001652210000 0
ion C  18.670626886499999   0.000000000000000   1.000001652210000 0
ion C  18.670539958920003  16.169223410910011   1.000001652210000 0
ion C  21.004371626759990  12.126913306290001   1.000001652210000 0
ion C  14.002984337850000   0.000000000000000   1.000001652210000 0
ion C   0.000000000000000   8.084622098970000   1.000001652210000 0
ion C   7.001485554870005  20.211535405260001   1.000001652210000 0
ion C  -7.001481775409994  20.211535405260001   1.000001652210000 0
ion C  -2.333822219189999  12.126913306290001   1.000001652210000 0
ion C   4.667663335679999  16.169223410910011   1.000001652210000 0
ion C  -2.333820329459996  20.211535405260001   1.000001652210000 0
ion C   2.333824108920002  20.211535405260001   1.000001652210000 0
ion C  -4.667659556220002  16.169223410910011   1.000001652210000 0
ion C   7.001483665139999   4.042310104620000   1.000001652210000 0
ion C  21.004430208389998   4.042310104620000   1.000001652210000 0
ion C  14.002948432980000  16.169223410910011   1.000001652210000 0
ion C   0.000001889729997  16.169223410910011   1.000001652210000 0
ion C  11.669126213789999   4.042310104620000   1.000001652210000 0
ion C  18.670609878929998   8.084622098970000   1.000001652210000 0
ion C  11.669126213789998  12.126913306290001   1.000001652210000 0
ion C  16.336787659739997  12.126913306290001   1.000001652210000 0
ion C  16.336789549470002   4.042310104620000   1.000001652210000 0
ion C   9.335303994600004   8.084622098970000   1.000001652210000 0
ion C  14.002948432980002   8.084622098970000   1.000001652210000 0
ion C   0.000000000000000   2.694874032990001   1.000001652210000 0
ion C  11.669128103519999  22.906390540950010   1.000001652210000 0
ion C -11.669124324059998  22.906390540950010   1.000001652210000 0
ion C  -2.333822219190000   6.737165240310004   1.000001652210000 0
ion C   9.335305884330001  18.864097443900004   1.000001652210000 0
ion C  -7.001481775409996  22.906390540950010   1.000001652210000 0
ion C   7.001485554870005  22.906390540950010   1.000001652210000 0
ion C   2.333822219189997   6.737165240310004   1.000001652210000 0
ion C  -9.335302104869998  18.864097443900004   1.000001652210000 0
ion C  -4.667661445950000  10.779477234660005   1.000001652210000 0
ion C  -2.333820329460000  22.906390540950010   1.000001652210000 0
ion C   2.333824108920002  22.906390540950010   1.000001652210000 0
ion C  -7.001483665140000  14.821787339280007   1.000001652210000 0
ion C   4.667661445950001   2.694874032990001   1.000001652210000 0
ion C  23.338269435150004   2.694874032990001   1.000001652210000 0
ion C  14.002967330279997  18.864097443900004   1.000001652210000 0
ion C   0.000000000000000  10.779477234660005   1.000001652210000 0
ion C   4.667663335679999  18.864097443900004   1.000001652210000 0
ion C  -4.667640658919996  18.864097443900004   1.000001652210000 0
ion C  -2.333822219190001  14.821787339280007   1.000001652210000 0
ion C   2.333824108919998  14.821787339280007   1.000001652210000 0
ion C   0.000001889729999  18.864097443900004   1.000001652210000 0
ion C   9.335303994599997   2.694874032990001   1.000001652210000 0
ion C  21.004430208390001   6.737165240310004   1.000001652210000 0
ion C  11.669126213790003  14.821787339280007   1.000001652210000 0
ion C  16.336789549469998  14.821787339280007   1.000001652210000 0
ion C  18.670609878930005   2.694874032990001   1.000001652210000 0
ion C   7.001483665139999   6.737165240310004   1.000001652210000 0
ion C  14.002946543250001   2.694874032990001   1.000001652210000 0
ion C  18.670607989199997  10.779477234660005   1.000001652210000 0
ion C  11.669126213789998   6.737165240310004   1.000001652210000 0
ion C  16.336787659740001   6.737165240310004   1.000001652210000 0
ion C  14.002946543250001  10.779477234660005   1.000001652210000 0
ion N   4.667661445950002   8.084622098970000   1.000001652210000 0
ion N   2.333822219190004  12.126913306290001   1.000001652210000 0
ion N   7.001485554869998  14.821787339280007   1.000001652210000 0
ion N   9.335305884330001  10.779477234660005   1.000001652210000 0
ion Fe   5.837109518069999  11.454309266310004   1.000001652210000 0
ion S  12.007874228132962  13.087900412701169   8.814864495889918 1
ion Na   8.120043663351362  12.391386307804970   6.026665448586905 1
ion Na  15.925739748214074  13.807316483819850   6.218513794457478 1

# Forces in Cartesian coordinates:
force C   0.004011347169913  -0.000000958955772  -0.000018237723942 0
force C   0.001272966379597  -0.001361139076290  -0.000012425984309 0
force C   0.003208925442416  -0.001815839961972   0.000149228754578 0
force C   0.001539659543321   0.002615312871131  -0.000001706929848 0
force C   0.002437166632830  -0.000561410234810  -0.000004520336022 0
force C   0.005170339451433   0.002032597804437  -0.000057156788552 0
force C   0.001106417684449  -0.000307159142903  -0.000029754448743 0
force C  -0.000539680595318   0.001705820182914  -0.000014114691022 0
force C  -0.030589254090605  -0.011017351555327  -0.001005055473498 0
force C  -0.000638019765708   0.000361447633415  -0.000005147948154 0
force C  -0.000752744273194   0.000003440507025  -0.000016125140636 0
force C   0.002364664020802   0.002699278415036   0.000321330897360 0
force C   0.003019353869764   0.003178925655797   0.000003850589433 0
force C  -0.000794917804930  -0.000627764804192  -0.000010750176016 0
force C   0.010943760573959   0.006302803608670   0.000043906441330 0
force C   0.003333881382289   0.003286456965811   0.000039346758054 0
force C   0.002122421060036   0.001050386301450   0.000001883489771 0
force C   0.004771684378951   0.003566068282858  -0.000065122681053 0
force C   0.026255523799126   0.013073357809745  -0.000507741936067 0
force C   0.000035058163771  -0.000994802600328   0.000009182060603 0
force C  -0.003567266785525   0.000768418574366  -0.000034098829041 0
force C   0.003394142509506   0.000129531475171   0.000090268962246 0
force C   0.005447399761059   0.006235721823440  -0.000014036357234 0
force C   0.001754264554655   0.000741257674363  -0.000011408290072 0
force C  -0.003709071814120   0.001172989329557  -0.000545103015084 0
force C   0.008405998203481   0.001331372414123  -0.000027961666196 0
force C  -0.000866927940709  -0.003463577644404  -0.000041415780609 0
force C   0.001137610400367   0.001910627798586   0.000124199833349 0
force C  -0.025648433134773  -0.021373775664638  -0.001891471378662 0
force C  -0.000186594836356   0.001113987623643  -0.000009509450900 0
force C  -0.000403284968086  -0.000637485928066   0.000037474282018 0
force C   0.024319110014098   0.014967036625007  -0.000692485237461 0
force C   0.004763826397091   0.000505823698783   0.000047603260387 0
force C  -0.003533805685037   0.001836206585578   0.000001013691837 0
force C  -0.004116464607137   0.000132936542503  -0.000019136183046 0
force C  -0.002462006300484   0.000595726429018   0.000058293283510 0
force C   0.002294933493235   0.001183187668723   0.000005379105440 0
force C  -0.004920945880801  -0.002106396413232  -0.000040240887047 0
force C   0.000267287783213   0.000360877005492  -0.000019724888326 0
force C  -0.001155936998314  -0.003079748121203   0.000029096225338 0
force C   0.033026630104942   0.013938834808786  -0.000032616401267 0
force C  -0.002015485771513   0.000073815828706   0.000126814968926 0
force C  -0.000114720948795  -0.004275641328718   0.000104693246569 0
force C   0.000713208553916   0.000668427495144  -0.000010949170820 0
force C   0.000928052815156  -0.000431899533664  -0.000005206497548 0
force C   0.000049061054669  -0.002134726267584   0.000072264477088 0
force C  -0.003221426316675  -0.002429968727124   0.000006100435042 0
force C  -0.000804087970140   0.000941560004223  -0.000013129758213 0
force C  -0.001683560279415   0.001391100320759   0.000122965332904 0
force C   0.028629380937620   0.021735610145271  -0.000049643211694 0
force C  -0.005205505062035  -0.007667187095947  -0.000159974305857 0
force C   0.000351055002491   0.000464818095861  -0.000024531494417 0
force C  -0.003742949201177  -0.001704924867569  -0.000004786021109 0
force C  -0.023768175827284  -0.020102362304796  -0.000204782249174 0
force C   0.001132431362909   0.003222196820425  -0.000023080755653 0
force C   0.003077301129334  -0.000503894658631  -0.000012849335906 0
force C   0.000469966817958  -0.000958064487157  -0.000015746545444 0
force C  -0.012285925934483  -0.006516507730652  -0.000683299022827 0
force C  -0.000246449587080   0.000008574558971   0.000188373321462 0
force C  -0.001563737356105  -0.000962451632921  -0.000012090407111 0
force C  -0.028813184348254  -0.010306821239275  -0.000207180788799 0
force C  -0.000078646950805   0.001300013196476   0.000001429110741 0
force C  -0.000363166306421  -0.005307280179662   0.000142628037610 0
force C  -0.009412445589067  -0.000597271083247  -0.000073835535424 0
force C  -0.004023210029160   0.000234813614580   0.000031837686706 0
force C  -0.006484105874164  -0.004409897286284  -0.000646467515101 0
force N   0.026300236105178  -0.025839038891020   0.000923550680356 0
force N  -0.009332548502225   0.035741412695655   0.000907526463083 0
force N  -0.025877708130967   0.024537478200083   0.002788282189632 0
force N   0.009187268440895  -0.034080393233111   0.002553204720743 0
force Fe  -0.003439731692991  -0.001404612387273  -0.002413300860294 0
force S  -0.001161745502381  -0.000140770684396   0.000968868390346 1
force Na  -0.001047286111085  -0.000266016003760  -0.000084032786149 1
force Na   0.001981658109396   0.000409378185844  -0.000737647429475 1

# Energy components:
   Eewald =    -1184.1895719407316392
       EH =     -678.8870432496631793
     Eloc =     1159.9387127215838973
      Enl =      -63.9808179868790319
     EvdW =       -0.1095555194185659
      Exc =     -163.4955298920364157
 Exc_core =        5.1303968234335313
       KE =      278.7360826843857922
-------------------------------------
     Etot =     -646.8573263593257252
       TS =        0.0947617708764845
-------------------------------------
        F =     -646.9520881302022417

IonicMinimize: Iter:   1  F: -646.952088130202242  |grad|_K:  9.499e-04  alpha:  6.923e+01  linmin:  4.227e-05  t[s]:    298.02

#--- Lowdin population analysis ---
# oxidation-state C +0.045 +0.036 +0.039 +0.037 +0.040 +0.028 +0.034 +0.035 +0.136 +0.040 +0.039 +0.013 +0.032 +0.041 +0.013 +0.047 +0.041 +0.026 +0.123 +0.040 +0.036 +0.032 +0.034 +0.046 +0.029 +0.033 +0.037 +0.034 +0.133 -0.006 +0.038 +0.123 +0.046 +0.040 +0.046 +0.038 +0.051 +0.028 +0.038 +0.038 +0.151 +0.038 +0.036 +0.042 +0.041 +0.026 +0.049 +0.039 +0.030 +0.150 +0.033 +0.037 +0.048 +0.129 +0.037 +0.037 +0.037 -0.000 -0.018 +0.045 +0.127 +0.042 +0.026 +0.034 +0.036 +0.014
# oxidation-state N -0.134 -0.134 -0.153 -0.158
# oxidation-state Fe +0.038
# oxidation-state S -0.890
# oxidation-state Na +0.734 +0.791


Computing DFT-D3 correction:
# coordination-number C 3.300 3.300 3.301 3.300 3.300 3.287 3.304 3.300 3.344 3.300 3.300 3.388 3.312 3.300 3.271 3.299 3.300 3.287 3.492 3.300 3.300 3.301 3.288 3.300 3.447 3.288 3.300 3.304 3.405 3.717 3.300 3.512 3.305 3.300 3.300 3.300 3.299 3.291 3.300 3.300 3.275 3.308 3.300 3.300 3.300 3.315 3.298 3.300 3.311 3.275 3.289 3.300 3.298 3.477 3.300 3.300 3.300 3.347 3.842 3.300 3.481 3.300 3.350 3.292 3.302 3.372
# coordination-number N 3.158 3.155 3.383 3.528
# coordination-number Fe 5.815
# coordination-number S 1.979
# coordination-number Na 2.867 2.559
# diagonal-C6 C 24.28 24.29 24.27 24.29 24.29 24.40 24.25 24.28 23.82 24.29 24.29 23.27 24.16 24.29 24.54 24.29 24.28 24.40 21.76 24.29 24.28 24.28 24.39 24.29 22.44 24.39 24.28 24.25 23.03 19.19 24.28 21.46 24.24 24.29 24.28 24.28 24.29 24.37 24.29 24.29 24.51 24.21 24.28 24.29 24.29 24.13 24.30 24.29 24.18 24.51 24.38 24.28 24.30 21.98 24.29 24.28 24.28 23.79 18.60 24.29 21.92 24.29 23.74 24.36 24.27 23.47
# diagonal-C6 N 15.60 15.60 15.59 15.58
# diagonal-C6 Fe 109.50
# diagonal-C6 S 125.91
# diagonal-C6 Na 186.11 186.11
EvdW_6 =   -0.058277
EvdW_8 =   -0.051464

-------- Electronic minimization -----------
Will mix electronic density at each iteration.
	FillingsUpdate:  mu: -0.159967031  nElectrons: 324.000000
	FillingsUpdate:  mu: -0.152594367  nElectrons: 324.000000
SCF: Cycle:  0   F: -646.834343828519536   dF: -2.363e-01   |Residual|: 2.823e-01   |deigs|: 4.859e-03  t[s]:    303.84
	FillingsUpdate:  mu: -0.151384213  nElectrons: 324.000000
SCF: Cycle:  1   F: -646.404251718646719   dF: +4.301e-01   |Residual|: 3.937e-01   |deigs|: 3.997e-03  t[s]:    306.72
	FillingsUpdate:  mu: -0.163905478  nElectrons: 324.000000
SCF: Cycle:  2   F: -645.797266684689362   dF: +6.070e-01   |Residual|: 6.443e-01   |deigs|: 8.238e-03  t[s]:    309.64
	FillingsUpdate:  mu: -0.155208961  nElectrons: 324.000000
SCF: Cycle:  3   F: -646.764273810606369   dF: -9.670e-01   |Residual|: 1.904e-01   |deigs|: 6.521e-03  t[s]:    312.50
	FillingsUpdate:  mu: -0.157092169  nElectrons: 324.000000
SCF: Cycle:  4   F: -646.942969679276416   dF: -1.787e-01   |Residual|: 3.473e-02   |deigs|: 1.426e-03  t[s]:    315.45
	FillingsUpdate:  mu: -0.156002451  nElectrons: 324.000000
SCF: Cycle:  5   F: -646.944693365091780   dF: -1.724e-03   |Residual|: 4.492e-02   |deigs|: 6.262e-04  t[s]:    318.00
	FillingsUpdate:  mu: -0.156720656  nElectrons: 324.000000
SCF: Cycle:  6   F: -646.948705063407260   dF: -4.012e-03   |Residual|: 2.836e-02   |deigs|: 6.724e-04  t[s]:    320.54
	FillingsUpdate:  mu: -0.156735197  nElectrons: 324.000000
SCF: Cycle:  7   F: -646.949518013651186   dF: -8.130e-04   |Residual|: 2.241e-02   |deigs|: 4.441e-04  t[s]:    323.10
	FillingsUpdate:  mu: -0.157169977  nElectrons: 324.000000
SCF: Cycle:  8   F: -646.951897396101458   dF: -2.379e-03   |Residual|: 3.302e-03   |deigs|: 3.498e-04  t[s]:    325.58
	FillingsUpdate:  mu: -0.157438079  nElectrons: 324.000000
SCF: Cycle:  9   F: -646.952002398672903   dF: -1.050e-04   |Residual|: 4.143e-03   |deigs|: 5.470e-04  t[s]:    328.14
	FillingsUpdate:  mu: -0.157762163  nElectrons: 324.000000
SCF: Cycle: 10   F: -646.952116222905488   dF: -1.138e-04   |Residual|: 1.273e-03   |deigs|: 4.761e-04  t[s]:    330.64
	FillingsUpdate:  mu: -0.158044694  nElectrons: 324.000000
SCF: Cycle: 11   F: -646.952144602713702   dF: -2.838e-05   |Residual|: 9.305e-04   |deigs|: 5.296e-04  t[s]:    333.14
	FillingsUpdate:  mu: -0.158301700  nElectrons: 324.000000
SCF: Cycle: 12   F: -646.952163952657429   dF: -1.935e-05   |Residual|: 1.953e-03   |deigs|: 4.666e-04  t[s]:    335.63
	FillingsUpdate:  mu: -0.158452591  nElectrons: 324.000000
SCF: Cycle: 13   F: -646.952176779400816   dF: -1.283e-05   |Residual|: 6.014e-04   |deigs|: 2.801e-04  t[s]:    338.16
	FillingsUpdate:  mu: -0.158604880  nElectrons: 324.000000
SCF: Cycle: 14   F: -646.952180035075571   dF: -3.256e-06   |Residual|: 9.927e-04   |deigs|: 2.268e-04  t[s]:    340.63
	FillingsUpdate:  mu: -0.158771825  nElectrons: 324.000000
SCF: Cycle: 15   F: -646.952183484700981   dF: -3.450e-06   |Residual|: 6.450e-04   |deigs|: 1.829e-04  t[s]:    343.13
	FillingsUpdate:  mu: -0.158879306  nElectrons: 324.000000
SCF: Cycle: 16   F: -646.952184084246710   dF: -5.995e-07   |Residual|: 5.516e-04   |deigs|: 2.328e-04  t[s]:    345.61
	FillingsUpdate:  mu: -0.158958247  nElectrons: 324.000000
SCF: Cycle: 17   F: -646.952185187539385   dF: -1.103e-06   |Residual|: 1.925e-04   |deigs|: 4.168e-04  t[s]:    348.10
	FillingsUpdate:  mu: -0.159021383  nElectrons: 324.000000
SCF: Cycle: 18   F: -646.952185247142324   dF: -5.960e-08   |Residual|: 1.419e-04   |deigs|: 2.673e-04  t[s]:    350.64
	FillingsUpdate:  mu: -0.159075996  nElectrons: 324.000000
SCF: Cycle: 19   F: -646.952185340559822   dF: -9.342e-08   |Residual|: 1.491e-04   |deigs|: 8.328e-05  t[s]:    353.14
	FillingsUpdate:  mu: -0.159119909  nElectrons: 324.000000
SCF: Cycle: 20   F: -646.952185465447201   dF: -1.249e-07   |Residual|: 8.635e-05   |deigs|: 9.928e-05  t[s]:    355.65
[...]
	FillingsUpdate:  mu: -0.160347629  nElectrons: 324.000000
SCF: Cycle: 14   F: -646.952008239537236   dF: -5.226e-06   |Residual|: 5.458e-04   |deigs|: 5.405e-04  t[s]:    718.35
	FillingsUpdate:  mu: -0.159913747  nElectrons: 324.000000
SCF: Cycle: 15   F: -646.952008273289152   dF: -3.375e-08   |Residual|: 4.681e-04   |deigs|: 6.623e-04  t[s]:    720.76
	FillingsUpdate:  mu: -0.159565943  nElectrons: 324.000000
SCF: Cycle: 16   F: -646.952011468369733   dF: -3.195e-06   |Residual|: 3.655e-04   |deigs|: 6.744e-04  t[s]:    723.26
	FillingsUpdate:  mu: -0.159317706  nElectrons: 324.000000
SCF: Cycle: 17   F: -646.952011421317593   dF: +4.705e-08   |Residual|: 5.273e-04   |deigs|: 5.514e-04  t[s]:    725.71
	FillingsUpdate:  mu: -0.159052723  nElectrons: 324.000000
SCF: Cycle: 18   F: -646.952012905244942   dF: -1.484e-06   |Residual|: 2.471e-04   |deigs|: 6.915e-04  t[s]:    728.20
	FillingsUpdate:  mu: -0.158900693  nElectrons: 324.000000
SCF: Cycle: 19   F: -646.952012923721441   dF: -1.848e-08   |Residual|: 3.722e-04   |deigs|: 5.135e-04  t[s]:    730.65
	FillingsUpdate:  mu: -0.158776127  nElectrons: 324.000000
SCF: Cycle: 20   F: -646.952013512043322   dF: -5.883e-07   |Residual|: 1.634e-04   |deigs|: 3.379e-04  t[s]:    733.14
	FillingsUpdate:  mu: -0.158701601  nElectrons: 324.000000
SCF: Cycle: 21   F: -646.952013512884946   dF: -8.416e-10   |Residual|: 1.527e-04   |deigs|: 2.130e-04  t[s]:    735.60
	FillingsUpdate:  mu: -0.158635470  nElectrons: 324.000000
SCF: Cycle: 22   F: -646.952013563758214   dF: -5.087e-08   |Residual|: 8.678e-05   |deigs|: 2.214e-04  t[s]:    738.31
	FillingsUpdate:  mu: -0.158621639  nElectrons: 324.000000
SCF: Cycle: 23   F: -646.952013651661559   dF: -8.790e-08   |Residual|: 4.779e-05   |deigs|: 1.193e-04  t[s]:    740.76
	FillingsUpdate:  mu: -0.158622642  nElectrons: 324.000000
SCF: Cycle: 24   F: -646.952013679509264   dF: -2.785e-08   |Residual|: 4.373e-05   |deigs|: 4.564e-05  t[s]:    743.21
	FillingsUpdate:  mu: -0.158624502  nElectrons: 324.000000
SCF: Cycle: 25   F: -646.952013693318008   dF: -1.381e-08   |Residual|: 2.702e-05   |deigs|: 5.291e-05  t[s]:    745.67
	FillingsUpdate:  mu: -0.158621960  nElectrons: 324.000000
SCF: Cycle: 26   F: -646.952013699535087   dF: -6.217e-09   |Residual|: 1.843e-05   |deigs|: 3.688e-05  t[s]:    748.14
	FillingsUpdate:  mu: -0.158618789  nElectrons: 324.000000
SCF: Cycle: 27   F: -646.952013703402940   dF: -3.868e-09   |Residual|: 1.260e-05   |deigs|: 3.671e-05  t[s]:    750.54
SCF: Converged (|Delta E|<1.000000e-08 for 2 iters).

Setting wave functions to eigenvectors of Hamiltonian

Computing DFT-D3 correction:
# coordination-number C 3.300 3.300 3.301 3.300 3.300 3.287 3.304 3.300 3.345 3.300 3.300 3.394 3.313 3.300 3.271 3.299 3.300 3.287 3.493 3.300 3.300 3.301 3.288 3.300 3.451 3.288 3.300 3.304 3.406 3.723 3.300 3.516 3.305 3.300 3.300 3.300 3.299 3.291 3.300 3.300 3.275 3.308 3.300 3.300 3.300 3.316 3.298 3.300 3.311 3.275 3.289 3.300 3.298 3.478 3.300 3.300 3.300 3.346 3.858 3.300 3.482 3.300 3.351 3.292 3.302 3.371
# coordination-number N 3.159 3.156 3.400 3.555
# coordination-number Fe 5.846
# coordination-number S 1.980
# coordination-number Na 2.935 2.578
# diagonal-C6 C 24.28 24.29 24.27 24.29 24.29 24.40 24.25 24.28 23.81 24.29 24.29 23.19 24.16 24.29 24.54 24.29 24.28 24.40 21.74 24.29 24.28 24.28 24.39 24.29 22.38 24.39 24.28 24.25 23.02 19.15 24.28 21.41 24.24 24.29 24.28 24.28 24.29 24.37 24.29 24.29 24.51 24.20 24.28 24.29 24.29 24.13 24.30 24.29 24.17 24.51 24.38 24.28 24.30 21.97 24.29 24.28 24.28 23.79 18.56 24.29 21.90 24.29 23.73 24.36 24.27 23.49
# diagonal-C6 N 15.60 15.60 15.59 15.58
# diagonal-C6 Fe 109.50
# diagonal-C6 S 125.91
# diagonal-C6 Na 186.11 186.11
EvdW_6 =   -0.058335
EvdW_8 =   -0.051505

-------- Electronic minimization -----------
Will mix electronic density at each iteration.
	FillingsUpdate:  mu: -0.158618789  nElectrons: 324.000000
	FillingsUpdate:  mu: -0.158607592  nElectrons: 324.000000
SCF: Cycle:  0   F: -646.938059501521252   dF: +1.383e-02   |Residual|: 5.653e-02   |deigs|: 2.792e-05  t[s]:    756.37
	FillingsUpdate:  mu: -0.163421311  nElectrons: 324.000000
SCF: Cycle:  1   F: -646.179554752428885   dF: +7.585e-01   |Residual|: 4.916e-01   |deigs|: 4.789e-03  t[s]:    759.29
	FillingsUpdate:  mu: -0.159329877  nElectrons: 324.000000
SCF: Cycle:  2   F: -646.948681126527731   dF: -7.691e-01   |Residual|: 3.076e-02   |deigs|: 4.339e-03  t[s]:    762.16
	FillingsUpdate:  mu: -0.159188417  nElectrons: 324.000000
SCF: Cycle:  3   F: -646.952104149420734   dF: -3.423e-03   |Residual|: 3.314e-03   |deigs|: 2.447e-04  t[s]:    764.65
	FillingsUpdate:  mu: -0.158977328  nElectrons: 324.000000
SCF: Cycle:  4   F: -646.951960916932194   dF: +1.432e-04   |Residual|: 9.040e-03   |deigs|: 1.340e-04  t[s]:    766.57
	FillingsUpdate:  mu: -0.159128357  nElectrons: 324.000000
SCF: Cycle:  5   F: -646.952225681157188   dF: -2.648e-04   |Residual|: 1.131e-03   |deigs|: 9.122e-05  t[s]:    768.56
	FillingsUpdate:  mu: -0.159121045  nElectrons: 324.000000
SCF: Cycle:  6   F: -646.952231408180864   dF: -5.727e-06   |Residual|: 4.872e-04   |deigs|: 9.210e-05  t[s]:    770.51
	FillingsUpdate:  mu: -0.159105471  nElectrons: 324.000000
SCF: Cycle:  7   F: -646.952232428929165   dF: -1.021e-06   |Residual|: 4.439e-04   |deigs|: 1.249e-04  t[s]:    772.48
	FillingsUpdate:  mu: -0.159077823  nElectrons: 324.000000
SCF: Cycle:  8   F: -646.952232136932480   dF: +2.920e-07   |Residual|: 5.096e-04   |deigs|: 9.750e-05  t[s]:    774.43
	FillingsUpdate:  mu: -0.159060513  nElectrons: 324.000000
SCF: Cycle:  9   F: -646.952233039041630   dF: -9.021e-07   |Residual|: 1.985e-04   |deigs|: 1.182e-04  t[s]:    776.91
	FillingsUpdate:  mu: -0.159043190  nElectrons: 324.000000
SCF: Cycle: 10   F: -646.952233204149366   dF: -1.651e-07   |Residual|: 8.785e-05   |deigs|: 7.079e-05  t[s]:    778.87
	FillingsUpdate:  mu: -0.159019292  nElectrons: 324.000000
SCF: Cycle: 11   F: -646.952233259327727   dF: -5.518e-08   |Residual|: 1.074e-04   |deigs|: 6.512e-05  t[s]:    781.37
	FillingsUpdate:  mu: -0.159000702  nElectrons: 324.000000
SCF: Cycle: 12   F: -646.952233314112163   dF: -5.478e-08   |Residual|: 6.013e-05   |deigs|: 3.985e-05  t[s]:    783.91
	FillingsUpdate:  mu: -0.158978028  nElectrons: 324.000000
SCF: Cycle: 13   F: -646.952233342728505   dF: -2.862e-08   |Residual|: 3.319e-05   |deigs|: 7.769e-05  t[s]:    786.42
	FillingsUpdate:  mu: -0.158956263  nElectrons: 324.000000
SCF: Cycle: 14   F: -646.952233345524292   dF: -2.796e-09   |Residual|: 2.717e-05   |deigs|: 1.199e-04  t[s]:    788.97
	FillingsUpdate:  mu: -0.158941758  nElectrons: 324.000000
SCF: Cycle: 15   F: -646.952233348212417   dF: -2.688e-09   |Residual|: 2.824e-05   |deigs|: 1.116e-04  t[s]:    791.49
SCF: Converged (|Delta E|<1.000000e-08 for 2 iters).

Setting wave functions to eigenvectors of Hamiltonian

Computing DFT-D3 correction:
# coordination-number C 3.300 3.300 3.301 3.300 3.300 3.287 3.304 3.300 3.345 3.300 3.300 3.394 3.313 3.300 3.271 3.299 3.300 3.287 3.493 3.300 3.300 3.301 3.288 3.300 3.451 3.288 3.300 3.304 3.406 3.723 3.300 3.516 3.305 3.300 3.300 3.300 3.299 3.291 3.300 3.300 3.275 3.308 3.300 3.300 3.300 3.316 3.298 3.300 3.311 3.275 3.289 3.300 3.298 3.478 3.300 3.300 3.300 3.346 3.858 3.300 3.482 3.300 3.351 3.292 3.302 3.371
# coordination-number N 3.159 3.156 3.400 3.555
# coordination-number Fe 5.846
# coordination-number S 1.980
# coordination-number Na 2.935 2.578
# diagonal-C6 C 24.28 24.29 24.27 24.29 24.29 24.40 24.25 24.28 23.81 24.29 24.29 23.19 24.16 24.29 24.54 24.29 24.28 24.40 21.74 24.29 24.28 24.28 24.39 24.29 22.38 24.39 24.28 24.25 23.02 19.15 24.28 21.41 24.24 24.29 24.28 24.28 24.29 24.37 24.29 24.29 24.51 24.20 24.28 24.29 24.29 24.13 24.30 24.29 24.17 24.51 24.38 24.28 24.30 21.97 24.29 24.28 24.28 23.79 18.56 24.29 21.90 24.29 23.73 24.36 24.27 23.49
# diagonal-C6 N 15.60 15.60 15.59 15.58
# diagonal-C6 Fe 109.50
# diagonal-C6 S 125.91
# diagonal-C6 Na 186.11 186.11
EvdW_6 =   -0.058335
EvdW_8 =   -0.051505

# Ionic positions in cartesian coordinates:
ion C  28.005857181630002   0.000000000000000   1.000001652210000 0
ion C  25.672025513790000   4.042310104620000   1.000001652210000 0
ion C  11.669128103520002  20.211535405260001   1.000001652210000 0
ion C   4.667680343250000   0.000000000000000   1.000001652210000 0
ion C  23.338288332449999   0.000000000000000   1.000001652210000 0
ion C   2.333822219190000   4.042310104620000   1.000001652210000 0
ion C  16.336708291080008  20.211535405260001   1.000001652210000 0
ion C  23.338191956219998   8.084622098970000   1.000001652210000 0
ion C   9.335305884329996  16.169223410910011   1.000001652210000 0
ion C   9.335322891900001   0.000000000000000   1.000001652210000 0
ion C  18.670626886499999   0.000000000000000   1.000001652210000 0
ion C  18.670539958920003  16.169223410910011   1.000001652210000 0
ion C  21.004371626759990  12.126913306290001   1.000001652210000 0
ion C  14.002984337850000   0.000000000000000   1.000001652210000 0
ion C   0.000000000000000   8.084622098970000   1.000001652210000 0
ion C   7.001485554870005  20.211535405260001   1.000001652210000 0
ion C  -7.001481775409994  20.211535405260001   1.000001652210000 0
ion C  -2.333822219189999  12.126913306290001   1.000001652210000 0
ion C   4.667663335679999  16.169223410910011   1.000001652210000 0
ion C  -2.333820329459996  20.211535405260001   1.000001652210000 0
ion C   2.333824108920002  20.211535405260001   1.000001652210000 0
ion C  -4.667659556220002  16.169223410910011   1.000001652210000 0
ion C   7.001483665139999   4.042310104620000   1.000001652210000 0
ion C  21.004430208389998   4.042310104620000   1.000001652210000 0
ion C  14.002948432980000  16.169223410910011   1.000001652210000 0
ion C   0.000001889729997  16.169223410910011   1.000001652210000 0
ion C  11.669126213789999   4.042310104620000   1.000001652210000 0
ion C  18.670609878929998   8.084622098970000   1.000001652210000 0
ion C  11.669126213789998  12.126913306290001   1.000001652210000 0
ion C  16.336787659739997  12.126913306290001   1.000001652210000 0
ion C  16.336789549470002   4.042310104620000   1.000001652210000 0
ion C   9.335303994600004   8.084622098970000   1.000001652210000 0
ion C  14.002948432980002   8.084622098970000   1.000001652210000 0
ion C   0.000000000000000   2.694874032990001   1.000001652210000 0
ion C  11.669128103519999  22.906390540950010   1.000001652210000 0
ion C -11.669124324059998  22.906390540950010   1.000001652210000 0
ion C  -2.333822219190000   6.737165240310004   1.000001652210000 0
ion C   9.335305884330001  18.864097443900004   1.000001652210000 0
ion C  -7.001481775409996  22.906390540950010   1.000001652210000 0
ion C   7.001485554870005  22.906390540950010   1.000001652210000 0
ion C   2.333822219189997   6.737165240310004   1.000001652210000 0
ion C  -9.335302104869998  18.864097443900004   1.000001652210000 0
ion C  -4.667661445950000  10.779477234660005   1.000001652210000 0
ion C  -2.333820329460000  22.906390540950010   1.000001652210000 0
ion C   2.333824108920002  22.906390540950010   1.000001652210000 0
ion C  -7.001483665140000  14.821787339280007   1.000001652210000 0
ion C   4.667661445950001   2.694874032990001   1.000001652210000 0
ion C  23.338269435150004   2.694874032990001   1.000001652210000 0
ion C  14.002967330279997  18.864097443900004   1.000001652210000 0
ion C   0.000000000000000  10.779477234660005   1.000001652210000 0
ion C   4.667663335679999  18.864097443900004   1.000001652210000 0
ion C  -4.667640658919996  18.864097443900004   1.000001652210000 0
ion C  -2.333822219190001  14.821787339280007   1.000001652210000 0
ion C   2.333824108919998  14.821787339280007   1.000001652210000 0
ion C   0.000001889729999  18.864097443900004   1.000001652210000 0
ion C   9.335303994599997   2.694874032990001   1.000001652210000 0
ion C  21.004430208390001   6.737165240310004   1.000001652210000 0
ion C  11.669126213790003  14.821787339280007   1.000001652210000 0
ion C  16.336789549469998  14.821787339280007   1.000001652210000 0
ion C  18.670609878930005   2.694874032990001   1.000001652210000 0
ion C   7.001483665139999   6.737165240310004   1.000001652210000 0
ion C  14.002946543250001   2.694874032990001   1.000001652210000 0
ion C  18.670607989199997  10.779477234660005   1.000001652210000 0
ion C  11.669126213789998   6.737165240310004   1.000001652210000 0
ion C  16.336787659740001   6.737165240310004   1.000001652210000 0
ion C  14.002946543250001  10.779477234660005   1.000001652210000 0
ion N   4.667661445950002   8.084622098970000   1.000001652210000 0
ion N   2.333822219190004  12.126913306290001   1.000001652210000 0
ion N   7.001485554869998  14.821787339280007   1.000001652210000 0
ion N   9.335305884330001  10.779477234660005   1.000001652210000 0
ion Fe   5.837109518069999  11.454309266310004   1.000001652210000 0
ion S  11.973236278354388  13.109663553921921   8.686050950095195 1
ion Na   7.985526385502310  12.337794779702941   6.042168396907133 1
ion Na  16.031706243136092  13.848807499615891   6.241311494266298 1

# Forces in Cartesian coordinates:
force C   0.003998653794803  -0.000005091847476  -0.000011198134860 0
force C   0.001261302754597  -0.001353873453491  -0.000002853336003 0
force C   0.003223591338145  -0.001851427246644   0.000168313573780 0
force C   0.001514667648804   0.002640123576288   0.000009070143533 0
force C   0.002443388944930  -0.000553933848400   0.000002454245961 0
force C   0.005157430324544   0.002033579719721  -0.000046566781206 0
force C   0.001071876014165  -0.000309517068075  -0.000018204502747 0
force C  -0.000528388232540   0.001686874914255  -0.000004400275033 0
force C  -0.030465054264088  -0.011197495695689  -0.000933370343660 0
force C  -0.000644649942212   0.000366966142438   0.000005004329230 0
force C  -0.000728864074619  -0.000000948843617  -0.000007729691259 0
force C   0.002315487767656   0.002699466697525   0.000364899618943 0
force C   0.003047249550515   0.003151483165215   0.000024784944897 0
force C  -0.000792473437874  -0.000622527142107  -0.000001731048362 0
force C   0.010964489206850   0.006312193050111   0.000062932936324 0
force C   0.003349648906319   0.003261237480379   0.000052610556346 0
force C   0.002117223016843   0.001071336591884   0.000010498335327 0
force C   0.004770046677043   0.003536303663324  -0.000054586717884 0
force C   0.026326272368297   0.013066090818231  -0.000518879567015 0
force C   0.000030889379467  -0.001006827952177   0.000020876219808 0
force C  -0.003569917595164   0.000783881502738  -0.000023474164044 0
force C   0.003459274633470   0.000127396014322   0.000106073694836 0
force C   0.005431945728887   0.006295206306844  -0.000005427446486 0
force C   0.001759009736867   0.000751552802518  -0.000003643313812 0
force C  -0.003990496765513   0.001008640090696  -0.000546358765466 0
force C   0.008436564570100   0.001314663124326  -0.000018633762456 0
force C  -0.000865609418036  -0.003471398321082  -0.000031372560810 0
force C   0.001110415583155   0.001859319201085   0.000146531427030 0
force C  -0.025782222966486  -0.021309335848674  -0.001665687075966 0
force C  -0.000338104384381   0.001099592370251   0.000005682460065 0
force C  -0.000379930966660  -0.000605995189749   0.000046259012878 0
force C   0.024407819711351   0.015216281999055  -0.000675348597591 0
force C   0.004697956063717   0.000663178609730   0.000052009342686 0
force C  -0.003522269928742   0.001827958795559   0.000011068422328 0
force C  -0.004111470106735   0.000117804380556  -0.000015765931257 0
force C  -0.002449309465878   0.000606796625607   0.000068002304275 0
force C   0.002275044195497   0.001173463940081   0.000017017494288 0
force C  -0.004934176231595  -0.002204442599485  -0.000030146208598 0
force C   0.000289456664963   0.000346792221592  -0.000010116572730 0
force C  -0.001181761795882  -0.003073604973476   0.000037821787465 0
force C   0.032956246811985   0.013904386896526  -0.000020668354396 0
force C  -0.002007201560176   0.000165949608265   0.000155240548546 0
force C  -0.000080953120233  -0.004267952174741   0.000121560377696 0
force C   0.000720330026798   0.000677561113859  -0.000001533124966 0
force C   0.000917874255202  -0.000441364867761   0.000004611059513 0
force C   0.000118508230138  -0.002154745333903   0.000103239960138 0
force C  -0.003219254041931  -0.002462171963547   0.000018962484196 0
force C  -0.000804871569807   0.000931774413504  -0.000005654862054 0
force C  -0.001725026214898   0.001333598647372   0.000125640477920 0
force C   0.028562175306582   0.021697176326807  -0.000037450209388 0
force C  -0.005183937011662  -0.007630369750561  -0.000144039580084 0
force C   0.000371209102372   0.000486658170494  -0.000016347520959 0
force C  -0.003769395772938  -0.001675733925570   0.000007454129233 0
force C  -0.023816495277108  -0.019974439027089  -0.000213050383068 0
force C   0.001132942405353   0.003238510910865  -0.000011945197339 0
force C   0.003111991533347  -0.000516147677016  -0.000000633147778 0
force C   0.000457716954461  -0.000974762737251  -0.000008649624219 0
force C  -0.012187553604235  -0.006547950633106  -0.000643426635986 0
force C  -0.000404146340911  -0.000105853621823   0.000246882280770 0
force C  -0.001579645378183  -0.000964602090123  -0.000004332028046 0
force C  -0.028757145067642  -0.010453138317514  -0.000217233268707 0
force C  -0.000099369079267   0.001289585399077   0.000011135972199 0
force C  -0.000464083567450  -0.005283854557816   0.000152674514017 0
force C  -0.009354155213864  -0.000570905484556  -0.000043787401303 0
force C  -0.003999410854927   0.000216874019850   0.000047082200660 0
force C  -0.006580525663646  -0.004339491395275  -0.000629766610143 0
force N   0.026292013983137  -0.025775451361627   0.001006238855057 0
force N  -0.009276087906280   0.035690274958197   0.000984690789938 0
force N  -0.025829877408760   0.024562029737552   0.002791819109310 0
force N   0.009340049138341  -0.034085554736355   0.002463477834685 0
force Fe  -0.003411485992636  -0.001393811952004  -0.002710116605816 0
force S   0.000027544072033   0.000055152644132   0.000038622226200 1
force Na  -0.000011434336494  -0.000017805711306   0.000090981840926 1
force Na   0.000014885363972   0.000074818577831  -0.000145911985544 1

# Energy components:
   Eewald =    -1183.2167045559226608
       EH =     -677.5748948214570646
     Eloc =     1157.6549335586178131
      Enl =      -63.9786361649756969
     EvdW =       -0.1098404766476877
      Exc =     -163.4931411894990845
 Exc_core =        5.1303974155952110
       KE =      278.7302489408315864
-------------------------------------
     Etot =     -646.8576372934576284
       TS =        0.0945960547548285
-------------------------------------
        F =     -646.9522333482124168

IonicMinimize: Iter:   5  F: -646.952233348212417  |grad|_K:  6.760e-05  alpha:  1.228e+01  linmin: -4.207e-05  t[s]:    794.07
IonicMinimize: Converged (|grad|_K<1.000000e-04).

#--- Lowdin population analysis ---
# oxidation-state C +0.045 +0.036 +0.040 +0.037 +0.040 +0.027 +0.034 +0.035 +0.138 +0.040 +0.038 +0.011 +0.032 +0.041 +0.012 +0.047 +0.040 +0.026 +0.123 +0.039 +0.035 +0.032 +0.034 +0.046 +0.031 +0.033 +0.037 +0.034 +0.137 -0.005 +0.038 +0.123 +0.047 +0.039 +0.046 +0.038 +0.051 +0.028 +0.038 +0.038 +0.150 +0.037 +0.036 +0.042 +0.041 +0.025 +0.049 +0.039 +0.031 +0.150 +0.033 +0.037 +0.047 +0.128 +0.036 +0.037 +0.037 +0.003 -0.018 +0.044 +0.127 +0.042 +0.025 +0.034 +0.036 +0.016
# oxidation-state N -0.134 -0.134 -0.152 -0.156
# oxidation-state Fe +0.034
# oxidation-state S -0.892
# oxidation-state Na +0.734 +0.793


Dumping 'Na2S@FeN4-vdw.fillings' ... done
Dumping 'Na2S@FeN4-vdw.wfns' ... done
Dumping 'Na2S@FeN4-vdw.ionpos' ... done
Dumping 'Na2S@FeN4-vdw.eigenvals' ... done
End date and time: Wed Jan 15 17:43:47 2025  (Duration: 0-0:13:16.63)
Done!
