
*************** JDFTx 1.7.0  ***************

Start date and time: Wed Jan 15 17:30:30 2025
Executable jdftx_gpu with command-line: -i /home/akim2/JDFTx/Na2S8@FeN4-vdw/Na2S8@FeN4-vdw.in -o /home/akim2/JDFTx/Na2S8@FeN4-vdw/Na2S8@FeN4-vdw.out
Running on hosts (process indices):  exp-10-58 (0)
Divided in process groups (process indices):  0 (0)
gpuInit: Found compatible cuda device 0 'Tesla V100-SXM2-32GB'
gpuInit: Selected device 0
Resource initialization completed at t[s]:      0.66
Run totals: 1 processes, 1 threads, 1 GPUs


Input parsed successfully to the following command list (including defaults):

basis kpoint-dependent
coords-type Cartesian
core-overlap-check vector
coulomb-interaction Slab 001
coulomb-truncation-embed 0 0 4
davidson-band-ratio 1.1
dump End State
dump-name Na2S8@FeN4-vdw.$VAR
elec-cutoff 20 100
elec-eigen-algo Davidson
elec-ex-corr gga-PBE
elec-smearing Fermi 0.01
electronic-minimize  \
	dirUpdateScheme      FletcherReeves \
	linminMethod         DirUpdateRecommended \
	nIterations          100 \
	history              15 \
	knormThreshold       0 \
	energyDiffThreshold  1e-08 \
	nEnergyDiff          2 \
	alphaTstart          1 \
	alphaTmin            1e-10 \
	updateTestStepSize   yes \
	alphaTreduceFactor   0.1 \
	alphaTincreaseFactor 3 \
	nAlphaAdjustMax      3 \
	wolfeEnergy          0.0001 \
	wolfeGradient        0.9 \
	fdTest               no
electronic-scf  \
	nIterations	50 \
	energyDiffThreshold	1e-08 \
	residualThreshold	1e-07 \
	mixFraction	0.5 \
	qMetric	0.8 \
	history	10 \
	nEigSteps	2 \
	eigDiffThreshold	1e-08 \
	mixedVariable	Density \
	qKerker	0.8 \
	qKappa	-1 \
	verbose	no \
	mixFractionMag	1.5
exchange-regularization WignerSeitzTruncated
fluid None
fluid-ex-corr lda-TF lda-PZ
fluid-gummel-loop 10 1.000000e-05
fluid-minimize  \
	dirUpdateScheme      PolakRibiere \
	linminMethod         DirUpdateRecommended \
	nIterations          100 \
	history              15 \
	knormThreshold       0 \
	energyDiffThreshold  0 \
	nEnergyDiff          2 \
	alphaTstart          1 \
	alphaTmin            1e-10 \
	updateTestStepSize   yes \
	alphaTreduceFactor   0.1 \
	alphaTincreaseFactor 3 \
	nAlphaAdjustMax      3 \
	wolfeEnergy          0.0001 \
	wolfeGradient        0.9 \
	fdTest               no
fluid-solvent H2O 55.338 ScalarEOS \
	epsBulk 78.4 \
	pMol 0.92466 \
	epsInf 1.77 \
	Pvap 1.06736e-10 \
	sigmaBulk 4.62e-05 \
	Rvdw 2.61727 \
	Res 1.42 \
	tauNuc 343133 \
	poleEl 15 7 1
forces-output-coords Positions
ion C   0.000000000000000   0.000000000000000   1.000007321400000 0
ion C  -2.333835447300000   4.042302545699999   1.000007321400000 0
ion C  11.669120544600000  20.211531625799999   1.000007321400000 0
ion C   4.667689791900001   0.000000000000000   1.000007321400000 0
ion C  23.338297781100000   0.000000000000000   1.000007321400000 0
ion C   2.333816549999999   4.042302545699999   1.000007321400000 0
ion C -11.669158339200006  20.211531625799999   1.000007321400000 0
ion C  -4.667670894600000   8.084623988700001   1.000007321400000 0
ion C   9.335303994599997  16.169229080099999   1.000007321400000 0
ion C   9.335322891900001   0.000000000000000   1.000007321400000 0
ion C  18.670626886499999   0.000000000000000   1.000007321400000 0
ion C  -9.335322891900001  16.169229080099999   1.000007321400000 0
ion C  -7.001487444600000  12.126907637100000   1.000007321400000 0
ion C  14.002993786499999   0.000000000000000   1.000007321400000 0
ion C   0.000000000000000   8.084623988700001   1.000007321400000 0
ion C   7.001487444599997  20.211531625799999   1.000007321400000 0
ion C  -7.001487444600006  20.211531625799999   1.000007321400000 0
ion C  -2.333816549999999  12.126907637100000   1.000007321400000 0
ion C   4.667670894600002  16.169229080099999   1.000007321400000 0
ion C  -2.333816550000000  20.211531625799999   1.000007321400000 0
ion C   2.333816550000000  20.211531625799999   1.000007321400000 0
ion C  -4.667651997299995  16.169229080099999   1.000007321400000 0
ion C   7.001487444600000   4.042302545699999   1.000007321400000 0
ion C  21.004424539199999   4.042302545699999   1.000007321400000 0
ion C  14.002955991899999  16.169229080099999   1.000007321400000 0
ion C   0.000000000000000  16.169229080099999   1.000007321400000 0
ion C  11.669120544600000   4.042302545699999   1.000007321400000 0
ion C  18.670607989199997   8.084623988700001   1.000007321400000 0
ion C  11.669120544599998  12.126907637100000   1.000007321400000 0
ion C  16.336791439199999  12.126907637100000   1.000007321400000 0
ion C  16.336791439199999   4.042302545699999   1.000007321400000 0
ion C   9.335303994599997   8.084623988700001   1.000007321400000 0
ion C  14.002955991899999   8.084623988700001   1.000007321400000 0
ion C   0.000000000000000   2.694868363800000   1.000007321400000 0
ion C  11.669120544600000  22.906399989600001   1.000007321400000 0
ion C -11.669120544600000  22.906399989600001   1.000007321400000 0
ion C  -2.333816550000000   6.737170909500000   1.000007321400000 0
ion C   9.335303994599995  18.864097443900000   1.000007321400000 0
ion C  -7.001487444600000  22.906399989600001   1.000007321400000 0
ion C   7.001487444600000  22.906399989600001   1.000007321400000 0
ion C   2.333816550000000   6.737170909500000   1.000007321400000 0
ion C  -9.335303994599998  18.864097443900000   1.000007321400000 0
ion C  -4.667670894599997  10.779473455200000   1.000007321400000 0
ion C  -2.333816550000000  22.906399989600001   1.000007321400000 0
ion C   2.333816550000000  22.906399989600001   1.000007321400000 0
ion C  -7.001487444600004  14.821794898200000   1.000007321400000 0
ion C   4.667670894600000   2.694868363800000   1.000007321400000 0
ion C  23.338259986499999   2.694868363800000   1.000007321400000 0
ion C  14.002974889199999  18.864097443900000   1.000007321400000 0
ion C   0.000000000000000  10.779473455200000   1.000007321400000 0
ion C   4.667670894600001  18.864097443900000   1.000007321400000 0
ion C  -4.667633100000005  18.864097443900000   1.000007321400000 0
ion C  -2.333816550000003  14.821794898200000   1.000007321400000 0
ion C   2.333816549999993  14.821794898200000   1.000007321400000 0
ion C  -0.000000000000005  18.864097443900000   1.000007321400000 0
ion C   9.335303994599998   2.694868363800000   1.000007321400000 0
ion C  21.004424539199999   6.737170909500000   1.000007321400000 0
ion C  11.669120544600000  14.821794898200000   1.000007321400000 0
ion C  16.336791439199999  14.821794898200000   1.000007321400000 0
ion C  18.670607989199997   2.694868363800000   1.000007321400000 0
ion C   7.001487444600001   6.737170909500000   1.000007321400000 0
ion C  14.002955991899999   2.694868363800000   1.000007321400000 0
ion C  18.670607989200004  10.779473455200000   1.000007321400000 0
ion C  11.669120544599998   6.737170909500000   1.000007321400000 0
ion C  16.336791439199999   6.737170909500000   1.000007321400000 0
ion C  14.002955991899999  10.779473455200000   1.000007321400000 0
ion N   4.667670894599999   8.084623988700001   1.000007321400000 0
ion N   2.333816549999999  12.126907637100000   1.000007321400000 0
ion N   7.001487444599997  14.821794898200000   1.000007321400000 0
ion N   9.335303994599997  10.779473455200000   1.000007321400000 0
ion Fe   5.837111407799997  11.454314935499999   1.000007321400000 0
ion S  11.360847367630779   9.897173047914528   8.924860720187636 1
ion S   9.243279663880450   6.848425324510333  10.364907345126323 1
ion S   6.114005829208654   6.180593810533836   8.286086021532769 1
ion S  -0.123971094284832   8.971640691538205  10.150863307369573 1
ion S  -1.537331094902258  12.498725715059303  10.440813493425772 1
ion S  -0.146478208325270  14.836025638585346   7.860653339882294 1
ion S   8.796533521490623  12.804335810194477   8.152566476914991 1
ion S   6.555073153791652  13.695821452733806  11.114490513119504 1
ion Na   3.646709305541593  11.077742202504542   6.733714416844920 1
ion Na   4.643157505767872   9.004450766100119  12.570164346469403 1
ion-species GBRV/$ID_pbe.uspp
ion-width 0
ionic-minimize  \
	dirUpdateScheme      FletcherReeves \
	linminMethod         DirUpdateRecommended \
	nIterations          200 \
	history              15 \
	knormThreshold       0.0001 \
	energyDiffThreshold  1e-06 \
	nEnergyDiff          2 \
	alphaTstart          1 \
	alphaTmin            1e-10 \
	updateTestStepSize   yes \
	alphaTreduceFactor   0.1 \
	alphaTincreaseFactor 3 \
	nAlphaAdjustMax      3 \
	wolfeEnergy          0.0001 \
	wolfeGradient        0.9 \
	fdTest               no
kpoint   0.000000000000   0.000000000000   0.000000000000  1.00000000000000
kpoint-folding 1 1 1 
latt-move-scale 1 1 1
latt-scale 1 1 1 
lattice Triclinic 28.0058 28.0058 37.7946 90 90 120
lattice-minimize  \
	dirUpdateScheme      L-BFGS \
	linminMethod         DirUpdateRecommended \
	nIterations          0 \
	history              15 \
	knormThreshold       0 \
	energyDiffThreshold  1e-06 \
	nEnergyDiff          2 \
	alphaTstart          1 \
	alphaTmin            1e-10 \
	updateTestStepSize   yes \
	alphaTreduceFactor   0.1 \
	alphaTincreaseFactor 3 \
	nAlphaAdjustMax      3 \
	wolfeEnergy          0.0001 \
	wolfeGradient        0.9 \
	fdTest               no
lcao-params -1 1e-06 0.01
pcm-variant GLSSA13
spintype no-spin
subspace-rotation-factor 1 yes
symmetries automatic
symmetry-threshold 0.0001
van-der-waals D3



---------- Setting up symmetries ----------

Found 24 point-group symmetries of the bravais lattice
Found 1 space-group symmetries with basis
Applied RMS atom displacement 0 bohrs to make symmetries exact.

---------- Initializing the Grid ----------
R = 
[      28.0058     -14.0029            0  ]
[            0      24.2537            0  ]
[            0            0      37.7946  ]
unit cell volume = 25671.8
G =
[   0.224353    0.12953         -0  ]
[          0   0.259061          0  ]
[          0         -0   0.166246  ]
Minimum fftbox size, Smin = [  128  128  172  ]
Chosen fftbox size, S = [  128  128  180  ]

---------- Initializing tighter grid for wavefunction operations ----------
R = 
[      28.0058     -14.0029            0  ]
[            0      24.2537            0  ]
[            0            0      37.7946  ]
unit cell volume = 25671.8
G =
[   0.224353    0.12953         -0  ]
[          0   0.259061          0  ]
[          0         -0   0.166246  ]
Minimum fftbox size, Smin = [  116  116  156  ]
Chosen fftbox size, S = [  120  120  160  ]

---------- Exchange Correlation functional ----------
Initalized PBE GGA exchange.
Initalized PBE GGA correlation.

---------- Setting up pseudopotentials ----------
Width of ionic core gaussian charges (only for fluid interactions / plotting) set to 0

Reading pseudopotential file '/home/akim2/jdftx_install/build/pseudopotentials/GBRV/c_pbe.uspp':
  Title: C.  Created by USPP 7.3.6 on 3-2-2014
  Reference state energy: -5.406344.  4 valence electrons in orbitals:
    |200>  occupation: 2  eigenvalue: -0.504890
    |210>  occupation: 2  eigenvalue: -0.194356
  lMax: 1  lLocal: 2  QijEcut: 5
  4 projectors sampled on a log grid with 503 points:
    l: 0  eig: -0.504890  rCut: 1.3
    l: 0  eig: 0.000000  rCut: 1.3
    l: 1  eig: -0.194357  rCut: 1.3
    l: 1  eig: 0.000000  rCut: 1.3
  Partial core density with radius 1.1
  Transforming core density to a uniform radial grid of dG=0.02 with 1625 points.
  Transforming local potential to a uniform radial grid of dG=0.02 with 1625 points.
  Transforming nonlocal projectors to a uniform radial grid of dG=0.02 with 432 points.
  Transforming density augmentations to a uniform radial grid of dG=0.02 with 1625 points.
  Transforming atomic orbitals to a uniform radial grid of dG=0.02 with 432 points.
  Core radius for overlap checks: 1.30 bohrs.

Reading pseudopotential file '/home/akim2/jdftx_install/build/pseudopotentials/GBRV/n_pbe.uspp':
  Title: N.  Created by USPP 7.3.6 on 3-2-2014
  Reference state energy: -9.763716.  5 valence electrons in orbitals:
    |200>  occupation: 2  eigenvalue: -0.681964
    |210>  occupation: 3  eigenvalue: -0.260726
  lMax: 1  lLocal: 2  QijEcut: 6
  4 projectors sampled on a log grid with 491 points:
    l: 0  eig: -0.681964  rCut: 1.15
    l: 0  eig: 0.000000  rCut: 1.15
    l: 1  eig: -0.260729  rCut: 1.2
    l: 1  eig: 0.500000  rCut: 1.2
  Partial core density with radius 0.8
  Transforming core density to a uniform radial grid of dG=0.02 with 1625 points.
  Transforming local potential to a uniform radial grid of dG=0.02 with 1625 points.
  Transforming nonlocal projectors to a uniform radial grid of dG=0.02 with 432 points.
  Transforming density augmentations to a uniform radial grid of dG=0.02 with 1625 points.
  Transforming atomic orbitals to a uniform radial grid of dG=0.02 with 432 points.
  Core radius for overlap checks: 1.20 bohrs.

Reading pseudopotential file '/home/akim2/jdftx_install/build/pseudopotentials/GBRV/fe_pbe.uspp':
  Title: Fe.  Created by USPP 7.3.6 on 15-6-15
  Reference state energy: -124.316937.  16 valence electrons in orbitals:
    |300>  occupation: 2  eigenvalue: -4.008817
    |310>  occupation: 6  eigenvalue: -2.753096
    |320>  occupation: 5  eigenvalue: -0.791264
    |400>  occupation: 2  eigenvalue: -0.516384
    |410>  occupation: 0  eigenvalue: -0.312222
  lMax: 2  lLocal: 3  QijEcut: 6
  6 projectors sampled on a log grid with 607 points:
    l: 0  eig: -4.008819  rCut: 1.55
    l: 0  eig: -0.516386  rCut: 1.55
    l: 1  eig: -2.753096  rCut: 1.55
    l: 1  eig: -0.312226  rCut: 1.55
    l: 2  eig: -0.791264  rCut: 1.65
    l: 2  eig: -0.450000  rCut: 1.65
  Partial core density with radius 0.65
  Transforming core density to a uniform radial grid of dG=0.02 with 1625 points.
  Transforming local potential to a uniform radial grid of dG=0.02 with 1625 points.
  Transforming nonlocal projectors to a uniform radial grid of dG=0.02 with 432 points.
  Transforming density augmentations to a uniform radial grid of dG=0.02 with 1625 points.
  Transforming atomic orbitals to a uniform radial grid of dG=0.02 with 432 points.
  Core radius for overlap checks: 1.65 bohrs.

Reading pseudopotential file '/home/akim2/jdftx_install/build/pseudopotentials/GBRV/s_pbe.uspp':
  Title: S.  Created by USPP 7.3.6 on 1-4-15
  Reference state energy: -11.898476.  6 valence electrons in orbitals:
    |300>  occupation: 2  eigenvalue: -0.634167
    |310>  occupation: 4  eigenvalue: -0.257568
  lMax: 2  lLocal: 3  QijEcut: 6
  6 projectors sampled on a log grid with 635 points:
    l: 0  eig: -0.634161  rCut: 1.5
    l: 0  eig: 1.500000  rCut: 1.5
    l: 1  eig: -0.257567  rCut: 1.5
    l: 1  eig: 1.500000  rCut: 1.5
    l: 2  eig: -1.000000  rCut: 1.5
    l: 2  eig: 1.500000  rCut: 1.5
  Partial core density with radius 1.15
  Transforming core density to a uniform radial grid of dG=0.02 with 1625 points.
  Transforming local potential to a uniform radial grid of dG=0.02 with 1625 points.
  Transforming nonlocal projectors to a uniform radial grid of dG=0.02 with 432 points.
  Transforming density augmentations to a uniform radial grid of dG=0.02 with 1625 points.
  Transforming atomic orbitals to a uniform radial grid of dG=0.02 with 432 points.
  Core radius for overlap checks: 1.50 bohrs.

Reading pseudopotential file '/home/akim2/jdftx_install/build/pseudopotentials/GBRV/na_pbe.uspp':
  Title: Na.  Created by USPP 7.3.6 on 23-9-15
  Reference state energy: -47.625620.  9 valence electrons in orbitals:
    |200>  occupation: 2  eigenvalue: -2.085638
    |210>  occupation: 6  eigenvalue: -1.053708
    |300>  occupation: 1  eigenvalue: -0.100838
  lMax: 2  lLocal: 0  QijEcut: 6
  5 projectors sampled on a log grid with 657 points:
    l: 0  eig: -2.085640  rCut: 1.37
    l: 0  eig: -0.100839  rCut: 1.37
    l: 1  eig: -1.053708  rCut: 1.47
    l: 1  eig: 0.500000  rCut: 1.47
    l: 2  eig: 0.750000  rCut: 2
  Transforming local potential to a uniform radial grid of dG=0.02 with 1625 points.
  Transforming nonlocal projectors to a uniform radial grid of dG=0.02 with 432 points.
  Transforming density augmentations to a uniform radial grid of dG=0.02 with 1625 points.
  Transforming atomic orbitals to a uniform radial grid of dG=0.02 with 432 points.
  Core radius for overlap checks: 2.00 bohrs.

Initialized 5 species with 81 total atoms.

Folded 1 k-points by 1x1x1 to 1 k-points.

---------- Setting up k-points, bands, fillings ----------
No reducable k-points. 
Computing the number of bands and number of electrons
Calculating initial fillings.
nElectrons: 366.000000   nBands: 335   nStates: 1

----- Setting up reduced wavefunction bases (one per k-point) -----
average nbasis = 109673.000 , ideal nbasis = 109671.883

---------- Setting up coulomb interaction ----------
Setting up double-sized grid for truncated Coulomb potentials:
R = 
[      28.0058     -14.0029            0  ]
[            0      24.2537            0  ]
[            0            0      75.5892  ]
unit cell volume = 51343.6
G =
[   0.224353    0.12953         -0  ]
[          0   0.259061          0  ]
[          0         -0  0.0831228  ]
Chosen fftbox size, S = [  128  128  360  ]
Integer grid location selected as the embedding center:
   Grid: [  0  0  19  ]
   Lattice: [  0  0  0.105835  ]
   Cartesian: [  0  0  4  ]
Constructing Wigner-Seitz cell: 8 faces (6 quadrilaterals, 2 hexagons)
Range-separation parameter for embedded mesh potentials due to point charges: 0.590105 bohrs.
Initialized slab truncation along lattice direction 001

Initializing DFT-D3 calculator:
	Parameters set for gga-PBE functional
	s6:  1.000  s_r6:  1.217
	s8:  0.722  s_r8:  1.000
	Per-atom parameters loaded for:
	 C:  sqrtQ[a0]:  3.105  Rcov[a0]:  1.417  CN: [ 0.00 0.99 2.00 3.00 3.98 ]
	 N:  sqrtQ[a0]:  2.712  Rcov[a0]:  1.342  CN: [ 0.00 0.99 2.01 2.99 ]
	Fe:  sqrtQ[a0]:  5.584  Rcov[a0]:  1.965  CN: [ 0.00 1.65 9.14 ]
	 S:  sqrtQ[a0]:  4.041  Rcov[a0]:  1.928  CN: [ 0.00 0.99 1.99 ]
	Na:  sqrtQ[a0]:  6.586  Rcov[a0]:  2.646  CN: [ 0.00 0.97 ]

---------- Setting up 2D ewald sum ----------
Optimum gaussian width for ewald sums = 15.547689 bohr.
Real space sums over 289 unit cells with max indices [  8  8  0  ]
Reciprocal space sums over 81 terms with max indices [  4  4  0  ]

Computing DFT-D3 correction:
# coordination-number C 3.300 3.300 3.300 3.300 3.300 3.289 3.300 3.300 3.276 3.300 3.300 3.300 3.300 3.300 3.284 3.298 3.300 3.292 3.482 3.300 3.300 3.301 3.290 3.300 3.300 3.294 3.300 3.300 3.277 3.300 3.300 3.478 3.298 3.300 3.300 3.300 3.301 3.287 3.300 3.300 3.291 3.300 3.301 3.300 3.300 3.300 3.299 3.300 3.300 3.312 3.289 3.300 3.302 3.502 3.301 3.300 3.300 3.272 3.300 3.300 3.481 3.300 3.300 3.289 3.300 3.288
# coordination-number N 3.197 3.296 3.158 3.155
# coordination-number Fe 5.504
# coordination-number S 2.114 2.902 2.733 2.819 2.314 1.946 2.944 2.627
# coordination-number Na 5.935 4.638
# diagonal-C6 C 24.28 24.28 24.28 24.28 24.28 24.38 24.28 24.28 24.50 24.28 24.28 24.28 24.28 24.28 24.43 24.30 24.28 24.36 21.91 24.28 24.28 24.28 24.38 24.28 24.28 24.34 24.28 24.28 24.49 24.28 24.28 21.97 24.30 24.28 24.28 24.28 24.27 24.40 24.28 24.28 24.37 24.28 24.28 24.28 24.28 24.28 24.29 24.28 24.28 24.16 24.39 24.28 24.27 21.61 24.27 24.28 24.28 24.53 24.28 24.29 21.92 24.28 24.28 24.38 24.28 24.39
# diagonal-C6 N 15.60 15.59 15.60 15.60
# diagonal-C6 Fe 109.60
# diagonal-C6 S 125.85 125.81 125.81 125.81 125.82 125.95 125.81 125.81
# diagonal-C6 Na 186.11 186.11
EvdW_6 =   -0.071524
EvdW_8 =   -0.062595

---------- Allocating electronic variables ----------
Initializing wave functions:  linear combination of atomic orbitals
C pseudo-atom occupations:   s ( 2 )  p ( 2 )
N pseudo-atom occupations:   s ( 2 )  p ( 3 )
Fe pseudo-atom occupations:   s ( 2 0 )  p ( 6 0 )  d ( 8 )
S pseudo-atom occupations:   s ( 2 )  p ( 4 )
Na pseudo-atom occupations:   s ( 2 1 )  p ( 6 )
	FillingsUpdate:  mu: -0.223544069  nElectrons: 366.000000
LCAOMinimize: Iter:   0  F: -697.2108058007424916  |grad|_K:  2.446e-02  alpha:  1.000e+00
	FillingsUpdate:  mu: -0.274895990  nElectrons: 366.000000
LCAOMinimize: Iter:   1  F: -701.9604812996595911  |grad|_K:  1.285e-02  alpha:  1.284e-01  linmin: -1.409e-01  cgtest:  8.917e-01  t[s]:     11.85
LCAOMinimize: Encountered beta<0, resetting CG.
LCAOMinimize: 	Wrong curvature in test step, increasing alphaT to 3.852007e-01.
	FillingsUpdate:  mu: +0.024847321  nElectrons: 366.000000
LCAOMinimize: Iter:   2  F: -705.9546905026077184  |grad|_K:  6.232e-02  alpha: -9.602e-02  linmin:  2.403e-01  cgtest: -1.845e-01  t[s]:     13.52
LCAOMinimize: 	Bad step direction: g.d > 0.
LCAOMinimize: 	Undoing step.
LCAOMinimize: 	Step failed: resetting search direction.
	FillingsUpdate:  mu: +0.024847321  nElectrons: 366.000000
LCAOMinimize: Iter:   3  F: -705.9546905026077184  |grad|_K:  6.232e-02  alpha:  0.000e+00
LCAOMinimize: 	Step increased F by 4.392973e+01, reducing alpha to 3.089674e-02.
	FillingsUpdate:  mu: -0.164834738  nElectrons: 366.000000
LCAOMinimize: Iter:   4  F: -712.5285976708123599  |grad|_K:  2.811e-02  alpha:  3.090e-02  linmin: -3.763e-01  cgtest:  9.139e-01  t[s]:     17.68
LCAOMinimize: Encountered beta<0, resetting CG.
	FillingsUpdate:  mu: -0.241716566  nElectrons: 366.000000
LCAOMinimize: Iter:   5  F: -713.8684179445017435  |grad|_K:  6.804e-03  alpha:  2.281e-02  linmin:  2.590e-01  cgtest: -3.149e-01  t[s]:     19.44
LCAOMinimize: 	Predicted alpha/alphaT>3.000000, increasing alphaT to 6.843683e-02.
	FillingsUpdate:  mu: -0.247784450  nElectrons: 366.000000
LCAOMinimize: Iter:   6  F: -714.0787152506292159  |grad|_K:  1.001e-02  alpha:  1.506e-01  linmin:  1.174e-02  cgtest:  6.465e-01  t[s]:     21.67
	FillingsUpdate:  mu: -0.224063988  nElectrons: 366.000000
LCAOMinimize: Iter:   7  F: -714.0926349987537378  |grad|_K:  8.739e-03  alpha:  3.468e-02  linmin:  1.573e-01  cgtest: -9.658e-01  t[s]:     23.42
LCAOMinimize: 	Bad step direction: g.d > 0.
LCAOMinimize: 	Undoing step.
LCAOMinimize: 	Step failed: resetting search direction.
	FillingsUpdate:  mu: -0.224063988  nElectrons: 366.000000
LCAOMinimize: Iter:   8  F: -714.0926349987537378  |grad|_K:  8.739e-03  alpha:  0.000e+00
	FillingsUpdate:  mu: -0.249293113  nElectrons: 366.000000
LCAOMinimize: Iter:   9  F: -714.1752654244880887  |grad|_K:  2.002e-03  alpha:  1.767e-02  linmin: -4.137e-02  cgtest:  1.628e-01  t[s]:     26.37
LCAOMinimize: 	Predicted alpha/alphaT>3.000000, increasing alphaT to 5.299821e-02.
	FillingsUpdate:  mu: -0.258194494  nElectrons: 366.000000
LCAOMinimize: Iter:  10  F: -714.1982966392470189  |grad|_K:  7.894e-04  alpha:  9.938e-02  linmin: -1.801e-02  cgtest:  2.863e-02  t[s]:     28.58
	FillingsUpdate:  mu: -0.267276337  nElectrons: 366.000000
LCAOMinimize: Iter:  11  F: -714.2015062975668798  |grad|_K:  1.317e-03  alpha:  8.865e-02  linmin:  4.773e-04  cgtest: -8.914e-03  t[s]:     30.30
	FillingsUpdate:  mu: -0.256622505  nElectrons: 366.000000
LCAOMinimize: Iter:  12  F: -714.2059612136154101  |grad|_K:  4.808e-04  alpha:  4.632e-02  linmin:  1.372e-03  cgtest:  1.071e-01  t[s]:     32.06
LCAOMinimize: 	Predicted alpha/alphaT>3.000000, increasing alphaT to 1.389542e-01.
	FillingsUpdate:  mu: -0.253632774  nElectrons: 366.000000
LCAOMinimize: Iter:  13  F: -714.2086370748030504  |grad|_K:  4.796e-04  alpha:  2.105e-01  linmin:  7.426e-03  cgtest: -3.577e-02  t[s]:     34.29
	FillingsUpdate:  mu: -0.260606608  nElectrons: 366.000000
LCAOMinimize: Iter:  14  F: -714.2089821586248490  |grad|_K:  3.644e-04  alpha:  2.700e-02  linmin: -4.765e-03  cgtest:  1.281e-01  t[s]:     36.02
LCAOMinimize: 	Predicted alpha/alphaT>3.000000, increasing alphaT to 8.099131e-02.
	FillingsUpdate:  mu: -0.256496297  nElectrons: 366.000000
LCAOMinimize: Iter:  15  F: -714.2098958026558648  |grad|_K:  1.881e-04  alpha:  1.180e-01  linmin: -1.391e-03  cgtest: -3.878e-01  t[s]:     38.29
	FillingsUpdate:  mu: -0.259556675  nElectrons: 366.000000
LCAOMinimize: Iter:  16  F: -714.2099849393350723  |grad|_K:  2.028e-04  alpha:  4.401e-02  linmin: -1.706e-04  cgtest: -1.055e-02  t[s]:     40.03
	FillingsUpdate:  mu: -0.258225175  nElectrons: 366.000000
LCAOMinimize: Iter:  17  F: -714.2101622513947632  |grad|_K:  1.006e-04  alpha:  7.638e-02  linmin:  8.646e-04  cgtest:  1.693e-02  t[s]:     41.77
	FillingsUpdate:  mu: -0.259605098  nElectrons: 366.000000
LCAOMinimize: Iter:  18  F: -714.2102226518446741  |grad|_K:  1.227e-04  alpha:  1.065e-01  linmin:  3.292e-04  cgtest:  3.588e-03  t[s]:     43.51
	FillingsUpdate:  mu: -0.258181648  nElectrons: 366.000000
LCAOMinimize: Iter:  19  F: -714.2102434576532914  |grad|_K:  4.141e-05  alpha:  2.450e-02  linmin: -5.851e-04  cgtest:  1.973e-02  t[s]:     45.22
LCAOMinimize: 	Predicted alpha/alphaT>3.000000, increasing alphaT to 7.349139e-02.
	FillingsUpdate:  mu: -0.258309485  nElectrons: 366.000000
LCAOMinimize: Iter:  20  F: -714.2102526492312791  |grad|_K:  2.400e-05  alpha:  9.467e-02  linmin: -4.350e-04  cgtest: -6.590e-03  t[s]:     47.47
	FillingsUpdate:  mu: -0.257931769  nElectrons: 366.000000
LCAOMinimize: Iter:  21  F: -714.2102539194037263  |grad|_K:  2.505e-05  alpha:  3.901e-02  linmin:  6.161e-05  cgtest: -2.215e-03  t[s]:     49.17
	FillingsUpdate:  mu: -0.258246319  nElectrons: 366.000000
LCAOMinimize: Iter:  22  F: -714.2102573756167203  |grad|_K:  1.487e-05  alpha:  9.766e-02  linmin:  1.602e-04  cgtest:  6.657e-03  t[s]:     50.88
	FillingsUpdate:  mu: -0.258058300  nElectrons: 366.000000
LCAOMinimize: Iter:  23  F: -714.2102587387721542  |grad|_K:  1.827e-05  alpha:  1.093e-01  linmin:  1.176e-05  cgtest:  7.891e-04  t[s]:     52.57
	FillingsUpdate:  mu: -0.258281571  nElectrons: 366.000000
LCAOMinimize: Iter:  24  F: -714.2102592280684803  |grad|_K:  8.447e-06  alpha:  2.598e-02  linmin: -5.006e-05  cgtest:  7.458e-04  t[s]:     54.28
LCAOMinimize: 	Predicted alpha/alphaT>3.000000, increasing alphaT to 7.792571e-02.
	FillingsUpdate:  mu: -0.258170829  nElectrons: 366.000000
LCAOMinimize: Iter:  25  F: -714.2102598945400587  |grad|_K:  7.663e-06  alpha:  1.654e-01  linmin: -1.108e-05  cgtest: -7.225e-04  t[s]:     56.46
LCAOMinimize: Converged (|Delta F|<1.000000e-06 for 2 iters).


---- Citations for features of the code used in this run ----

   Software package:
      R. Sundararaman, K. Letchworth-Weaver, K.A. Schwarz, D. Gunceler, Y. Ozhabes and T.A. Arias, 'JDFTx: software for joint density-functional theory', SoftwareX 6, 278 (2017)

   gga-PBE exchange-correlation functional:
      J.P. Perdew, K. Burke and M. Ernzerhof, Phys. Rev. Lett. 77, 3865 (1996)

   Pseudopotentials:
      KF Garrity, JW Bennett, KM Rabe and D Vanderbilt, Comput. Mater. Sci. 81, 446 (2014)

   Truncated Coulomb potentials:
      R. Sundararaman and T.A. Arias, Phys. Rev. B 87, 165122 (2013)

   DFT-D3 dispersion correction:
      S. Grimme, J. Antony, S. Ehrlich and H. Krieg, J. Chem. Phys. 132, 154104 (2010)

This list may not be complete. Please suggest additional citations or
report any other bugs at https://github.com/shankar1729/jdftx/issues

Initialization completed successfully at t[s]:     56.69


Computing DFT-D3 correction:
# coordination-number C 3.300 3.300 3.300 3.300 3.300 3.289 3.300 3.300 3.276 3.300 3.300 3.300 3.300 3.300 3.284 3.298 3.300 3.292 3.482 3.300 3.300 3.301 3.290 3.300 3.300 3.294 3.300 3.300 3.277 3.300 3.300 3.478 3.298 3.300 3.300 3.300 3.301 3.287 3.300 3.300 3.291 3.300 3.301 3.300 3.300 3.300 3.299 3.300 3.300 3.312 3.289 3.300 3.302 3.502 3.301 3.300 3.300 3.272 3.300 3.300 3.481 3.300 3.300 3.289 3.300 3.288
# coordination-number N 3.197 3.296 3.158 3.155
# coordination-number Fe 5.504
# coordination-number S 2.114 2.902 2.733 2.819 2.314 1.946 2.944 2.627
# coordination-number Na 5.935 4.638
# diagonal-C6 C 24.28 24.28 24.28 24.28 24.28 24.38 24.28 24.28 24.50 24.28 24.28 24.28 24.28 24.28 24.43 24.30 24.28 24.36 21.91 24.28 24.28 24.28 24.38 24.28 24.28 24.34 24.28 24.28 24.49 24.28 24.28 21.97 24.30 24.28 24.28 24.28 24.27 24.40 24.28 24.28 24.37 24.28 24.28 24.28 24.28 24.28 24.29 24.28 24.28 24.16 24.39 24.28 24.27 21.61 24.27 24.28 24.28 24.53 24.28 24.29 21.92 24.28 24.28 24.38 24.28 24.39
# diagonal-C6 N 15.60 15.59 15.60 15.60
# diagonal-C6 Fe 109.60
# diagonal-C6 S 125.85 125.81 125.81 125.81 125.82 125.95 125.81 125.81
# diagonal-C6 Na 186.11 186.11
EvdW_6 =   -0.071524
EvdW_8 =   -0.062595

-------- Electronic minimization -----------
Will mix electronic density at each iteration.
	FillingsUpdate:  mu: -0.258170829  nElectrons: 366.000000
	FillingsUpdate:  mu: -0.270723525  nElectrons: 366.000000
SCF: Cycle:  0   F: -717.897440810424541   dF: -3.687e+00   |Residual|: 1.011e+00   |deigs|: 1.224e-01  t[s]:     63.75
	FillingsUpdate:  mu: -0.256786247  nElectrons: 366.000000
SCF: Cycle:  1   F: -717.284123397528333   dF: +6.133e-01   |Residual|: 7.602e-01   |deigs|: 3.061e-02  t[s]:     67.30
	FillingsUpdate:  mu: -0.204450366  nElectrons: 366.000000
SCF: Cycle:  2   F: -706.585642108929392   dF: +1.070e+01   |Residual|: 2.000e+00   |deigs|: 3.600e-02  t[s]:     70.88
	FillingsUpdate:  mu: -0.222834661  nElectrons: 366.000000
SCF: Cycle:  3   F: -718.828828163516960   dF: -1.224e+01   |Residual|: 1.748e-01   |deigs|: 2.977e-02  t[s]:     74.44
	FillingsUpdate:  mu: -0.215784728  nElectrons: 366.000000
SCF: Cycle:  4   F: -718.878733560337992   dF: -4.991e-02   |Residual|: 1.347e-01   |deigs|: 5.826e-03  t[s]:     78.01
	FillingsUpdate:  mu: -0.211480922  nElectrons: 366.000000
SCF: Cycle:  5   F: -718.652430813098590   dF: +2.263e-01   |Residual|: 3.082e-01   |deigs|: 7.154e-03  t[s]:     81.59
	FillingsUpdate:  mu: -0.202762867  nElectrons: 366.000000
SCF: Cycle:  6   F: -718.771084935141289   dF: -1.187e-01   |Residual|: 2.259e-01   |deigs|: 4.938e-03  t[s]:     85.15
	FillingsUpdate:  mu: -0.201114336  nElectrons: 366.000000
SCF: Cycle:  7   F: -718.904086036037711   dF: -1.330e-01   |Residual|: 1.489e-01   |deigs|: 5.134e-03  t[s]:     88.72
	FillingsUpdate:  mu: -0.192593523  nElectrons: 366.000000
SCF: Cycle:  8   F: -718.881052240106897   dF: +2.303e-02   |Residual|: 1.673e-01   |deigs|: 5.550e-03  t[s]:     92.32
	FillingsUpdate:  mu: -0.191919837  nElectrons: 366.000000
SCF: Cycle:  9   F: -718.943257759829294   dF: -6.221e-02   |Residual|: 1.170e-01   |deigs|: 3.432e-03  t[s]:     95.88
	FillingsUpdate:  mu: -0.189773678  nElectrons: 366.000000
SCF: Cycle: 10   F: -718.960793009007148   dF: -1.754e-02   |Residual|: 9.318e-02   |deigs|: 1.937e-03  t[s]:     98.93
	FillingsUpdate:  mu: -0.186952673  nElectrons: 366.000000
SCF: Cycle: 11   F: -718.985686027994461   dF: -2.489e-02   |Residual|: 3.519e-02   |deigs|: 2.571e-03  t[s]:    102.06
	FillingsUpdate:  mu: -0.184863870  nElectrons: 366.000000
SCF: Cycle: 12   F: -718.989679008218104   dF: -3.993e-03   |Residual|: 1.287e-02   |deigs|: 1.988e-03  t[s]:    105.11
	FillingsUpdate:  mu: -0.183349772  nElectrons: 366.000000
SCF: Cycle: 13   F: -718.989764173605863   dF: -8.517e-05   |Residual|: 1.481e-02   |deigs|: 1.459e-03  t[s]:    108.16
	FillingsUpdate:  mu: -0.181140457  nElectrons: 366.000000
SCF: Cycle: 14   F: -718.989434071769665   dF: +3.301e-04   |Residual|: 1.456e-02   |deigs|: 1.877e-03  t[s]:    111.24
	FillingsUpdate:  mu: -0.179736312  nElectrons: 366.000000
SCF: Cycle: 15   F: -718.990342606350168   dF: -9.085e-04   |Residual|: 4.950e-03   |deigs|: 1.088e-03  t[s]:    114.28
	FillingsUpdate:  mu: -0.176221695  nElectrons: 366.000000
SCF: Cycle: 16   F: -718.989465509866818   dF: +8.771e-04   |Residual|: 1.331e-02   |deigs|: 3.244e-03  t[s]:    117.32
	FillingsUpdate:  mu: -0.174337060  nElectrons: 366.000000
SCF: Cycle: 17   F: -718.990179676100070   dF: -7.142e-04   |Residual|: 9.007e-03   |deigs|: 1.998e-03  t[s]:    120.32
	FillingsUpdate:  mu: -0.172285434  nElectrons: 366.000000
SCF: Cycle: 18   F: -718.990687095104249   dF: -5.074e-04   |Residual|: 4.808e-03   |deigs|: 2.209e-03  t[s]:    123.33
	FillingsUpdate:  mu: -0.169761854  nElectrons: 366.000000
SCF: Cycle: 19   F: -718.990897246143959   dF: -2.102e-04   |Residual|: 3.121e-03   |deigs|: 2.454e-03  t[s]:    126.36
	FillingsUpdate:  mu: -0.167576172  nElectrons: 366.000000
SCF: Cycle: 20   F: -718.990940188119907   dF: -4.294e-05   |Residual|: 3.792e-03   |deigs|: 2.137e-03  t[s]:    129.39
	FillingsUpdate:  mu: -0.165596276  nElectrons: 366.000000
SCF: Cycle: 21   F: -718.990993685630770   dF: -5.350e-05   |Residual|: 2.867e-03   |deigs|: 1.957e-03  t[s]:    132.44
	FillingsUpdate:  mu: -0.163550081  nElectrons: 366.000000
SCF: Cycle: 22   F: -718.991015313696153   dF: -2.163e-05   |Residual|: 1.647e-03   |deigs|: 2.074e-03  t[s]:    135.45
	FillingsUpdate:  mu: -0.162315047  nElectrons: 366.000000
SCF: Cycle: 23   F: -718.991018072081602   dF: -2.758e-06   |Residual|: 1.564e-03   |deigs|: 1.425e-03  t[s]:    138.51
	FillingsUpdate:  mu: -0.162090853  nElectrons: 366.000000
SCF: Cycle: 24   F: -718.991017171375915   dF: +9.007e-07   |Residual|: 1.007e-03   |deigs|: 5.556e-04  t[s]:    141.58
	FillingsUpdate:  mu: -0.161906540  nElectrons: 366.000000
SCF: Cycle: 25   F: -718.991016726220550   dF: +4.452e-07   |Residual|: 6.822e-04   |deigs|: 5.389e-04  t[s]:    144.63
	FillingsUpdate:  mu: -0.161479224  nElectrons: 366.000000
SCF: Cycle: 26   F: -718.991016594921689   dF: +1.313e-07   |Residual|: 1.120e-03   |deigs|: 7.061e-04  t[s]:    147.75
	FillingsUpdate:  mu: -0.161194574  nElectrons: 366.000000
SCF: Cycle: 27   F: -718.991027467294998   dF: -1.087e-05   |Residual|: 9.472e-04   |deigs|: 6.380e-04  t[s]:    150.89
	FillingsUpdate:  mu: -0.161122717  nElectrons: 366.000000
SCF: Cycle: 28   F: -718.991031828978180   dF: -4.362e-06   |Residual|: 5.295e-04   |deigs|: 2.030e-04  t[s]:    153.94
	FillingsUpdate:  mu: -0.161133912  nElectrons: 366.000000
SCF: Cycle: 29   F: -718.991033693053737   dF: -1.864e-06   |Residual|: 2.120e-04   |deigs|: 7.070e-05  t[s]:    156.97
	FillingsUpdate:  mu: -0.161056171  nElectrons: 366.000000
SCF: Cycle: 30   F: -718.991034141811951   dF: -4.488e-07   |Residual|: 1.485e-04   |deigs|: 3.222e-04  t[s]:    174.28
	FillingsUpdate:  mu: -0.161013689  nElectrons: 366.000000
SCF: Cycle: 31   F: -718.991034290684865   dF: -1.489e-07   |Residual|: 2.562e-04   |deigs|: 1.683e-04  t[s]:    177.34
	FillingsUpdate:  mu: -0.161050073  nElectrons: 366.000000
SCF: Cycle: 32   F: -718.991034518472588   dF: -2.278e-07   |Residual|: 2.117e-04   |deigs|: 1.361e-04  t[s]:    180.38
	FillingsUpdate:  mu: -0.161051466  nElectrons: 366.000000
SCF: Cycle: 33   F: -718.991034675806645   dF: -1.573e-07   |Residual|: 8.926e-05   |deigs|: 9.912e-05  t[s]:    183.38
	FillingsUpdate:  mu: -0.161078184  nElectrons: 366.000000
SCF: Cycle: 34   F: -718.991034739708880   dF: -6.390e-08   |Residual|: 4.525e-05   |deigs|: 5.060e-05  t[s]:    186.41
	FillingsUpdate:  mu: -0.161080425  nElectrons: 366.000000
SCF: Cycle: 35   F: -718.991034748226298   dF: -8.517e-09   |Residual|: 6.359e-05   |deigs|: 4.644e-05  t[s]:    189.43
	FillingsUpdate:  mu: -0.161072668  nElectrons: 366.000000
SCF: Cycle: 36   F: -718.991034767325800   dF: -1.910e-08   |Residual|: 3.612e-05   |deigs|: 5.447e-05  t[s]:    192.49
	FillingsUpdate:  mu: -0.161053840  nElectrons: 366.000000
SCF: Cycle: 37   F: -718.991034774532409   dF: -7.207e-09   |Residual|: 2.625e-05   |deigs|: 9.696e-05  t[s]:    195.54
	FillingsUpdate:  mu: -0.161038103  nElectrons: 366.000000
SCF: Cycle: 38   F: -718.991034777169943   dF: -2.638e-09   |Residual|: 1.272e-05   |deigs|: 6.006e-05  t[s]:    198.59
SCF: Converged (|Delta E|<1.000000e-08 for 2 iters).

Setting wave functions to eigenvectors of Hamiltonian

Computing DFT-D3 correction:
# coordination-number C 3.300 3.300 3.300 3.300 3.300 3.289 3.300 3.300 3.276 3.300 3.300 3.300 3.300 3.300 3.284 3.298 3.300 3.292 3.482 3.300 3.300 3.301 3.290 3.300 3.300 3.294 3.300 3.300 3.277 3.300 3.300 3.478 3.298 3.300 3.300 3.300 3.301 3.287 3.300 3.300 3.291 3.300 3.301 3.300 3.300 3.300 3.299 3.300 3.300 3.312 3.289 3.300 3.302 3.502 3.301 3.300 3.300 3.272 3.300 3.300 3.481 3.300 3.300 3.289 3.300 3.288
# coordination-number N 3.197 3.296 3.158 3.155
# coordination-number Fe 5.504
# coordination-number S 2.114 2.902 2.733 2.819 2.314 1.946 2.944 2.627
# coordination-number Na 5.935 4.638
# diagonal-C6 C 24.28 24.28 24.28 24.28 24.28 24.38 24.28 24.28 24.50 24.28 24.28 24.28 24.28 24.28 24.43 24.30 24.28 24.36 21.91 24.28 24.28 24.28 24.38 24.28 24.28 24.34 24.28 24.28 24.49 24.28 24.28 21.97 24.30 24.28 24.28 24.28 24.27 24.40 24.28 24.28 24.37 24.28 24.28 24.28 24.28 24.28 24.29 24.28 24.28 24.16 24.39 24.28 24.27 21.61 24.27 24.28 24.28 24.53 24.28 24.29 21.92 24.28 24.28 24.38 24.28 24.39
# diagonal-C6 N 15.60 15.59 15.60 15.60
# diagonal-C6 Fe 109.60
# diagonal-C6 S 125.85 125.81 125.81 125.81 125.82 125.95 125.81 125.81
# diagonal-C6 Na 186.11 186.11
EvdW_6 =   -0.071524
EvdW_8 =   -0.062595

# Ionic positions in cartesian coordinates:
ion C   0.000000000000000   0.000000000000000   1.000007321400000 0
ion C  -2.333835447300000   4.042302545699999   1.000007321400000 0
ion C  11.669120544600000  20.211531625799999   1.000007321400000 0
ion C   4.667689791900001   0.000000000000000   1.000007321400000 0
ion C  23.338297781100000   0.000000000000000   1.000007321400000 0
ion C   2.333816549999999   4.042302545699999   1.000007321400000 0
ion C -11.669158339200006  20.211531625799999   1.000007321400000 0
ion C  -4.667670894600000   8.084623988700001   1.000007321400000 0
ion C   9.335303994599997  16.169229080099999   1.000007321400000 0
ion C   9.335322891900001   0.000000000000000   1.000007321400000 0
ion C  18.670626886499999   0.000000000000000   1.000007321400000 0
ion C  -9.335322891900001  16.169229080099999   1.000007321400000 0
ion C  -7.001487444600000  12.126907637100000   1.000007321400000 0
ion C  14.002993786499999   0.000000000000000   1.000007321400000 0
ion C   0.000000000000000   8.084623988700001   1.000007321400000 0
ion C   7.001487444599997  20.211531625799999   1.000007321400000 0
ion C  -7.001487444600006  20.211531625799999   1.000007321400000 0
ion C  -2.333816549999999  12.126907637100000   1.000007321400000 0
ion C   4.667670894600002  16.169229080099999   1.000007321400000 0
ion C  -2.333816550000000  20.211531625799999   1.000007321400000 0
ion C   2.333816550000000  20.211531625799999   1.000007321400000 0
ion C  -4.667651997299995  16.169229080099999   1.000007321400000 0
ion C   7.001487444600000   4.042302545699999   1.000007321400000 0
ion C  21.004424539199999   4.042302545699999   1.000007321400000 0
ion C  14.002955991899999  16.169229080099999   1.000007321400000 0
ion C   0.000000000000000  16.169229080099999   1.000007321400000 0
ion C  11.669120544600000   4.042302545699999   1.000007321400000 0
ion C  18.670607989199997   8.084623988700001   1.000007321400000 0
ion C  11.669120544599998  12.126907637100000   1.000007321400000 0
ion C  16.336791439199999  12.126907637100000   1.000007321400000 0
ion C  16.336791439199999   4.042302545699999   1.000007321400000 0
ion C   9.335303994599997   8.084623988700001   1.000007321400000 0
ion C  14.002955991899999   8.084623988700001   1.000007321400000 0
ion C   0.000000000000000   2.694868363800000   1.000007321400000 0
ion C  11.669120544600000  22.906399989600001   1.000007321400000 0
ion C -11.669120544600000  22.906399989600001   1.000007321400000 0
ion C  -2.333816550000000   6.737170909500000   1.000007321400000 0
ion C   9.335303994599995  18.864097443900000   1.000007321400000 0
ion C  -7.001487444600000  22.906399989600001   1.000007321400000 0
ion C   7.001487444600000  22.906399989600001   1.000007321400000 0
ion C   2.333816550000000   6.737170909500000   1.000007321400000 0
ion C  -9.335303994599998  18.864097443900000   1.000007321400000 0
ion C  -4.667670894599997  10.779473455200000   1.000007321400000 0
ion C  -2.333816550000000  22.906399989600001   1.000007321400000 0
ion C   2.333816550000000  22.906399989600001   1.000007321400000 0
ion C  -7.001487444600004  14.821794898200000   1.000007321400000 0
ion C   4.667670894600000   2.694868363800000   1.000007321400000 0
ion C  23.338259986499999   2.694868363800000   1.000007321400000 0
ion C  14.002974889199999  18.864097443900000   1.000007321400000 0
ion C   0.000000000000000  10.779473455200000   1.000007321400000 0
ion C   4.667670894600001  18.864097443900000   1.000007321400000 0
ion C  -4.667633100000005  18.864097443900000   1.000007321400000 0
ion C  -2.333816550000003  14.821794898200000   1.000007321400000 0
ion C   2.333816549999993  14.821794898200000   1.000007321400000 0
ion C  -0.000000000000005  18.864097443900000   1.000007321400000 0
ion C   9.335303994599998   2.694868363800000   1.000007321400000 0
ion C  21.004424539199999   6.737170909500000   1.000007321400000 0
ion C  11.669120544600000  14.821794898200000   1.000007321400000 0
ion C  16.336791439199999  14.821794898200000   1.000007321400000 0
ion C  18.670607989199997   2.694868363800000   1.000007321400000 0
ion C   7.001487444600001   6.737170909500000   1.000007321400000 0
ion C  14.002955991899999   2.694868363800000   1.000007321400000 0
ion C  18.670607989200004  10.779473455200000   1.000007321400000 0
ion C  11.669120544599998   6.737170909500000   1.000007321400000 0
ion C  16.336791439199999   6.737170909500000   1.000007321400000 0
ion C  14.002955991899999  10.779473455200000   1.000007321400000 0
ion N   4.667670894599999   8.084623988700001   1.000007321400000 0
ion N   2.333816549999999  12.126907637100000   1.000007321400000 0
ion N   7.001487444599997  14.821794898200000   1.000007321400000 0
ion N   9.335303994599997  10.779473455200000   1.000007321400000 0
ion Fe   5.837111407799997  11.454314935499999   1.000007321400000 0
ion S  11.360847367630779   9.897173047914528   8.924860720187636 1
ion S   9.243279663880450   6.848425324510333  10.364907345126323 1
ion S   6.114005829208654   6.180593810533836   8.286086021532769 1
ion S  -0.123971094284832   8.971640691538205  10.150863307369573 1
ion S  -1.537331094902258  12.498725715059303  10.440813493425772 1
ion S  -0.146478208325270  14.836025638585346   7.860653339882294 1
ion S   8.796533521490623  12.804335810194477   8.152566476914991 1
ion S   6.555073153791652  13.695821452733806  11.114490513119504 1
ion Na   3.646709305541593  11.077742202504542   6.733714416844920 1
ion Na   4.643157505767872   9.004450766100119  12.570164346469403 1

# Forces in Cartesian coordinates:
force C   0.004043266571895  -0.000103664915295   0.000023254977199 0
force C   0.001475059548063  -0.001513341471879   0.000033054762332 0
force C   0.003925859761866  -0.001932385103676   0.000024043954611 0
force C   0.001487946054731   0.002887790705971   0.000066275413539 0
force C   0.002585331019635  -0.000437557577995   0.000001691787626 0
force C   0.005649432052082   0.001937179147824   0.000199830723376 0
force C   0.000776199692347  -0.000856913056387   0.000000743734497 0
force C  -0.000444462767168   0.001983408001450   0.000082163760661 0
force C  -0.033549458375734  -0.014220628003527   0.000256419561435 0
force C  -0.001202805434588   0.001067380287149   0.000065725579329 0
force C  -0.000462386469728  -0.000322626827355  -0.000000508396102 0
force C  -0.000325696071202   0.000987007527934   0.000017295507312 0
force C   0.001873774024359   0.003664755110821   0.000113703814865 0
force C  -0.001746868911277  -0.000901324285014   0.000024450641170 0
force C   0.010136974911799   0.006019950563416   0.000195920947773 0
force C   0.002963779496001   0.002278195424993   0.000058662517237 0
force C   0.001191981209399   0.000702733536009   0.000011668134522 0
force C   0.004314350258255   0.003762235526528  -0.000050029522002 0
force C   0.029886847722759   0.011443119686529   0.000034572806706 0
force C   0.000083336138968  -0.001532837565353   0.000117512778351 0
force C  -0.003958141239249   0.000949628190303   0.000076118305922 0
force C   0.003508396152739  -0.000198063538757   0.000022488136912 0
force C   0.004410088225146   0.008067470544313  -0.000049993157302 0
force C   0.001295332564931   0.000778898368217   0.000015181208605 0
force C  -0.003248441973660  -0.001843975203133   0.000070001363848 0
force C   0.008922964528127   0.000051498483538  -0.000183547546739 0
force C  -0.001286502009604  -0.004017654520556   0.000169555783094 0
force C   0.000789353938266   0.002394052029472   0.000037118987178 0
force C  -0.029439077585487  -0.022474266496091   0.000375644560172 0
force C   0.000326624221900   0.004287962319328   0.000067807331737 0
force C  -0.000417721271079  -0.000225891045032   0.000031519403664 0
force C   0.025198942627398   0.020660846943188   0.000326846510090 0
force C   0.003190188774605   0.001546601404335   0.000161419182356 0
force C  -0.003943708509130   0.001797328150282   0.000071440228664 0
force C  -0.003995636175082   0.000174930073050  -0.000003390356373 0
force C  -0.002499819039048   0.000490397456328   0.000020535294166 0
force C   0.002455233422765   0.001617659079992   0.000269614521570 0
force C  -0.005415970755980  -0.002157482368057   0.000066789299089 0
force C   0.000527928276420   0.000213427919357   0.000055084839333 0
force C  -0.001625945214888  -0.002653745084262   0.000004732991610 0
force C   0.033179842510714   0.013064083137509   0.000066422960073 0
force C  -0.001271498730758  -0.000714964333218   0.000015085755995 0
force C  -0.000078419298674  -0.004160498627898   0.000116566332049 0
force C   0.001689947519344   0.000895606839087   0.000027583072436 0
force C   0.001179582902622  -0.000839477327759   0.000022786636402 0
force C  -0.000791545052705  -0.002520297385908   0.000077846777431 0
force C  -0.002807277765833  -0.002284674414406   0.000097319370430 0
force C  -0.000759371984534   0.000883539843430   0.000005547417539 0
force C  -0.001488684198768   0.001603556528020   0.000026027328699 0
force C   0.026251174377381   0.021236558748625  -0.000245085250119 0
force C  -0.004617032978961  -0.007162544481694   0.000156192267431 0
force C   0.000559863709035   0.000202582138699   0.000085416463150 0
force C  -0.004025644822132  -0.001355994521462   0.000108946097838 0
force C  -0.025526912494457  -0.017345859694418  -0.000586900193241 0
force C   0.001072293868361   0.003883575775041   0.000016323827154 0
force C   0.003992100916199  -0.000908720860028   0.000069440285938 0
force C   0.000357668380061  -0.001082241406831   0.000022641594652 0
force C  -0.010069269731791  -0.005690241361539   0.000183090016322 0
force C   0.000717700367800  -0.002091393169586   0.000055158783931 0
force C  -0.001183470150330  -0.000558713480527   0.000001425479735 0
force C  -0.029400173840581  -0.012585068562301   0.000018453895612 0
force C  -0.000288355108468   0.001411396753605   0.000044510920898 0
force C  -0.001828783421638  -0.003460977066207   0.000041812385969 0
force C  -0.008810749112727   0.000073368808295   0.000306745231497 0
force C  -0.003008470341419   0.000004874279444   0.000053082576909 0
force C  -0.004597788898761  -0.003878888187986   0.000187383380649 0
force N   0.026303568666057  -0.026839739793447   0.001064115015302 0
force N  -0.009095710778375   0.035465886053978   0.002297545301763 0
force N  -0.025851935658066   0.027291495679429   0.000220144609682 0
force N   0.011300843074664  -0.036525428080126  -0.000082217060195 0
force Fe   0.001947530020398   0.000324253644303   0.000473187408636 0
force S  -0.000303354150236   0.000423518707359  -0.001269831137836 1
force S   0.000050726650147   0.000055816680005  -0.000841779512945 1
force S  -0.000180831258289  -0.000946329653866  -0.001615528199380 1
force S  -0.000362360513117  -0.000273563680515  -0.000401964341164 1
force S   0.000705595163086  -0.000047612266500  -0.000786306189567 1
force S  -0.000417978999850   0.000275334947056  -0.000881551625253 1
force S  -0.000006754933134   0.000061893471612  -0.000269705936541 1
force S   0.000466498077622   0.000281276357038  -0.000697726179095 1
force Na   0.000402221215290  -0.000621036683610  -0.001556161443119 1
force Na  -0.000320057155876   0.000408377953844  -0.000176562557925 1

# Energy components:
   Eewald =    -2353.2451827131590107
       EH =    -1788.1185682958764573
     Eloc =     3344.4302674503383059
      Enl =      -51.7249922318447659
     EvdW =       -0.1341187816747658
      Exc =     -192.7898576587476782
 Exc_core =       17.5044987994556891
       KE =      305.1977564605515454
-------------------------------------
     Etot =     -718.8801969709572859
       TS =        0.1108378062126966
-------------------------------------
        F =     -718.9910347771699435

IonicMinimize: Iter:   0  F: -718.991034777169943  |grad|_K:  6.527e-04  alpha:  1.000e+00

#--- Lowdin population analysis ---
# oxidation-state C +0.049 +0.041 +0.044 +0.042 +0.044 +0.032 +0.043 +0.041 +0.158 +0.046 +0.042 +0.043 +0.049 +0.045 +0.009 +0.053 +0.048 +0.034 +0.133 +0.046 +0.041 +0.044 +0.043 +0.049 +0.055 +0.039 +0.043 +0.044 +0.157 +0.044 +0.042 +0.141 +0.055 +0.044 +0.049 +0.044 +0.055 +0.033 +0.043 +0.041 +0.149 +0.049 +0.045 +0.046 +0.045 +0.045 +0.056 +0.043 +0.040 +0.145 +0.038 +0.044 +0.056 +0.129 +0.041 +0.044 +0.043 +0.016 +0.040 +0.047 +0.141 +0.045 +0.049 +0.041 +0.041 +0.034
# oxidation-state N -0.137 -0.146 -0.129 -0.126
# oxidation-state Fe +0.088
# oxidation-state S +0.024 +0.107 -0.395 -0.389 +0.335 -0.274 +0.132 -0.388
# oxidation-state Na +0.665 +0.758


Computing DFT-D3 correction:
# coordination-number C 3.300 3.300 3.300 3.300 3.300 3.289 3.300 3.300 3.276 3.300 3.300 3.300 3.300 3.300 3.284 3.298 3.300 3.292 3.482 3.300 3.300 3.301 3.290 3.300 3.300 3.294 3.300 3.300 3.277 3.300 3.300 3.478 3.298 3.300 3.300 3.300 3.301 3.287 3.300 3.300 3.291 3.300 3.301 3.300 3.300 3.300 3.299 3.300 3.300 3.312 3.289 3.300 3.302 3.502 3.301 3.300 3.300 3.272 3.300 3.300 3.481 3.300 3.300 3.289 3.300 3.288
# coordination-number N 3.197 3.296 3.158 3.155
# coordination-number Fe 5.505
# coordination-number S 2.114 2.902 2.732 2.818 2.313 1.946 2.944 2.626
# coordination-number Na 5.935 4.637
# diagonal-C6 C 24.28 24.28 24.28 24.28 24.28 24.38 24.28 24.28 24.50 24.28 24.28 24.28 24.28 24.28 24.43 24.30 24.28 24.36 21.91 24.28 24.28 24.28 24.38 24.28 24.28 24.34 24.28 24.28 24.49 24.28 24.28 21.97 24.30 24.28 24.28 24.28 24.27 24.40 24.28 24.28 24.37 24.28 24.28 24.28 24.28 24.28 24.29 24.28 24.28 24.16 24.39 24.28 24.27 21.61 24.27 24.28 24.28 24.53 24.28 24.29 21.92 24.28 24.28 24.38 24.28 24.39
# diagonal-C6 N 15.60 15.59 15.60 15.60
# diagonal-C6 Fe 109.60
# diagonal-C6 S 125.85 125.81 125.81 125.81 125.82 125.95 125.81 125.81
# diagonal-C6 Na 186.11 186.11
EvdW_6 =   -0.071528
EvdW_8 =   -0.062602

-------- Electronic minimization -----------
Will mix electronic density at each iteration.
	FillingsUpdate:  mu: -0.161038103  nElectrons: 366.000000
	FillingsUpdate:  mu: -0.161031520  nElectrons: 366.000000
SCF: Cycle:  0   F: -718.991044986389625   dF: +1.313e-06   |Residual|: 7.340e-04   |deigs|: 2.069e-06  t[s]:    208.26
	FillingsUpdate:  mu: -0.160936502  nElectrons: 366.000000
SCF: Cycle:  1   F: -718.990835857357411   dF: +2.091e-04   |Residual|: 7.863e-03   |deigs|: 5.914e-05  t[s]:    210.63
	FillingsUpdate:  mu: -0.161023345  nElectrons: 366.000000
SCF: Cycle:  2   F: -718.991047114661569   dF: -2.113e-04   |Residual|: 1.444e-04   |deigs|: 5.483e-05  t[s]:    212.97
	FillingsUpdate:  mu: -0.161021997  nElectrons: 366.000000
SCF: Cycle:  3   F: -718.991047177161249   dF: -6.250e-08   |Residual|: 5.209e-05   |deigs|: 2.767e-06  t[s]:    215.24
	FillingsUpdate:  mu: -0.161022198  nElectrons: 366.000000
SCF: Cycle:  4   F: -718.991047180690430   dF: -3.529e-09   |Residual|: 4.365e-05   |deigs|: 2.630e-06  t[s]:    217.59
	FillingsUpdate:  mu: -0.161022072  nElectrons: 366.000000
SCF: Cycle:  5   F: -718.991047180606529   dF: +8.390e-11   |Residual|: 4.304e-05   |deigs|: 2.138e-06  t[s]:    219.96
	FillingsUpdate:  mu: -0.161021252  nElectrons: 366.000000
SCF: Cycle:  6   F: -718.991047188145330   dF: -7.539e-09   |Residual|: 9.510e-06   |deigs|: 2.813e-06  t[s]:    223.23
	FillingsUpdate:  mu: -0.161021031  nElectrons: 366.000000
SCF: Cycle:  7   F: -718.991047188738094   dF: -5.928e-10   |Residual|: 3.172e-06   |deigs|: 2.225e-06  t[s]:    225.43
SCF: Converged (|Delta E|<1.000000e-08 for 2 iters).

Setting wave functions to eigenvectors of Hamiltonian
IonicMinimize: 	Predicted alpha/alphaT>3.000000, increasing alphaT to 3.000000e+00.

Computing DFT-D3 correction:
# coordination-number C 3.300 3.300 3.300 3.300 3.300 3.289 3.300 3.300 3.276 3.300 3.300 3.300 3.300 3.300 3.284 3.298 3.300 3.292 3.482 3.300 3.300 3.301 3.290 3.300 3.300 3.294 3.300 3.300 3.277 3.300 3.300 3.478 3.298 3.300 3.300 3.300 3.301 3.287 3.300 3.300 3.291 3.300 3.301 3.300 3.300 3.300 3.299 3.300 3.300 3.313 3.289 3.300 3.302 3.502 3.301 3.300 3.300 3.272 3.300 3.300 3.481 3.300 3.300 3.289 3.300 3.288
# coordination-number N 3.197 3.297 3.158 3.155
# coordination-number Fe 5.507
# coordination-number S 2.114 2.901 2.731 2.817 2.313 1.945 2.944 2.625
# coordination-number Na 5.934 4.635
# diagonal-C6 C 24.28 24.28 24.28 24.28 24.28 24.38 24.28 24.28 24.50 24.28 24.28 24.28 24.28 24.28 24.43 24.30 24.28 24.36 21.91 24.28 24.28 24.28 24.38 24.28 24.28 24.34 24.28 24.28 24.49 24.28 24.28 21.97 24.30 24.28 24.28 24.28 24.27 24.40 24.28 24.28 24.37 24.28 24.28 24.28 24.28 24.28 24.29 24.28 24.28 24.16 24.39 24.28 24.27 21.61 24.27 24.28 24.28 24.53 24.28 24.29 21.92 24.28 24.28 24.38 24.28 24.39
# diagonal-C6 N 15.60 15.59 15.60 15.60
# diagonal-C6 Fe 109.59
# diagonal-C6 S 125.85 125.81 125.81 125.81 125.82 125.95 125.81 125.81
# diagonal-C6 Na 186.11 186.11
EvdW_6 =   -0.071535
EvdW_8 =   -0.062617

-------- Electronic minimization -----------
Will mix electronic density at each iteration.
	FillingsUpdate:  mu: -0.161021031  nElectrons: 366.000000
	FillingsUpdate:  mu: -0.161041460  nElectrons: 366.000000
SCF: Cycle:  0   F: -718.991055875345069   dF: +1.146e-05   |Residual|: 1.847e-03   |deigs|: 2.210e-07  t[s]:    231.80
	FillingsUpdate:  mu: -0.160799338  nElectrons: 366.000000
SCF: Cycle:  1   F: -718.989598322164284   dF: +1.458e-03   |Residual|: 2.073e-02   |deigs|: 1.541e-04  t[s]:    234.16
	FillingsUpdate:  mu: -0.161028372  nElectrons: 366.000000
SCF: Cycle:  2   F: -718.991070603540493   dF: -1.472e-03   |Residual|: 2.928e-04   |deigs|: 1.437e-04  t[s]:    236.49
	FillingsUpdate:  mu: -0.161024354  nElectrons: 366.000000
SCF: Cycle:  3   F: -718.991070821193603   dF: -2.177e-07   |Residual|: 1.183e-04   |deigs|: 7.431e-06  t[s]:    238.84
	FillingsUpdate:  mu: -0.161024994  nElectrons: 366.000000
SCF: Cycle:  4   F: -718.991070831928710   dF: -1.074e-08   |Residual|: 1.023e-04   |deigs|: 8.686e-06  t[s]:    241.19
	FillingsUpdate:  mu: -0.161024555  nElectrons: 366.000000
SCF: Cycle:  5   F: -718.991070805541653   dF: +2.639e-08   |Residual|: 1.194e-04   |deigs|: 7.514e-06  t[s]:    243.56
	FillingsUpdate:  mu: -0.161022467  nElectrons: 366.000000
SCF: Cycle:  6   F: -718.991070869777332   dF: -6.424e-08   |Residual|: 1.369e-05   |deigs|: 1.101e-05  t[s]:    245.92
	FillingsUpdate:  mu: -0.161021436  nElectrons: 366.000000
SCF: Cycle:  7   F: -718.991070873170088   dF: -3.393e-09   |Residual|: 1.054e-05   |deigs|: 1.236e-05  t[s]:    248.31
	FillingsUpdate:  mu: -0.161019953  nElectrons: 366.000000
SCF: Cycle:  8   F: -718.991070876048980   dF: -2.879e-09   |Residual|: 1.206e-05   |deigs|: 1.614e-05  t[s]:    251.33
SCF: Converged (|Delta E|<1.000000e-08 for 2 iters).

Setting wave functions to eigenvectors of Hamiltonian
IonicMinimize: 	Predicted alpha/alphaT>3.000000, increasing alphaT to 9.000000e+00.

Computing DFT-D3 correction:
# coordination-number C 3.300 3.300 3.300 3.300 3.300 3.289 3.300 3.300 3.276 3.300 3.300 3.300 3.300 3.300 3.284 3.298 3.300 3.292 3.482 3.300 3.300 3.301 3.290 3.300 3.300 3.294 3.300 3.300 3.277 3.300 3.300 3.478 3.298 3.300 3.300 3.300 3.301 3.287 3.300 3.300 3.291 3.300 3.301 3.300 3.300 3.300 3.299 3.300 3.300 3.313 3.289 3.300 3.302 3.502 3.301 3.300 3.300 3.272 3.300 3.300 3.481 3.300 3.300 3.289 3.300 3.288
# coordination-number N 3.198 3.299 3.158 3.155
# coordination-number Fe 5.513
# coordination-number S 2.114 2.899 2.727 2.813 2.313 1.941 2.943 2.620
# coordination-number Na 5.932 4.627
# diagonal-C6 C 24.28 24.28 24.28 24.28 24.28 24.38 24.28 24.28 24.50 24.28 24.28 24.28 24.28 24.28 24.43 24.30 24.28 24.36 21.91 24.28 24.28 24.28 24.37 24.28 24.28 24.34 24.28 24.28 24.49 24.28 24.28 21.97 24.30 24.28 24.28 24.28 24.27 24.40 24.28 24.28 24.37 24.28 24.28 24.28 24.28 24.28 24.29 24.28 24.28 24.15 24.39 24.28 24.27 21.61 24.27 24.28 24.28 24.53 24.28 24.29 21.92 24.28 24.28 24.38 24.28 24.39
# diagonal-C6 N 15.60 15.59 15.60 15.60
# diagonal-C6 Fe 109.56
# diagonal-C6 S 125.85 125.81 125.81 125.81 125.82 125.95 125.81 125.81
# diagonal-C6 Na 186.11 186.11
EvdW_6 =   -0.071556
EvdW_8 =   -0.062662

-------- Electronic minimization -----------
Will mix electronic density at each iteration.
	FillingsUpdate:  mu: -0.161019953  nElectrons: 366.000000
	FillingsUpdate:  mu: -0.161075433  nElectrons: 366.000000
SCF: Cycle:  0   F: -718.991025379306393   dF: +7.573e-05   |Residual|: 5.028e-03   |deigs|: 1.045e-06  t[s]:    258.34
	FillingsUpdate:  mu: -0.160413113  nElectrons: 366.000000
SCF: Cycle:  1   F: -718.980333536390731   dF: +1.069e-02   |Residual|: 5.598e-02   |deigs|: 4.129e-04  t[s]:    261.43
	FillingsUpdate:  mu: -0.161039074  nElectrons: 366.000000
SCF: Cycle:  2   F: -718.991130287807323   dF: -1.080e-02   |Residual|: 9.378e-04   |deigs|: 3.861e-04  t[s]:    264.48
	FillingsUpdate:  mu: -0.161022095  nElectrons: 366.000000
SCF: Cycle:  3   F: -718.991132298202842   dF: -2.010e-06   |Residual|: 5.045e-04   |deigs|: 2.149e-05  t[s]:    266.83
	FillingsUpdate:  mu: -0.161031557  nElectrons: 366.000000
SCF: Cycle:  4   F: -718.991131710927561   dF: +5.873e-07   |Residual|: 5.772e-04   |deigs|: 2.234e-05  t[s]:    269.20
	FillingsUpdate:  mu: -0.161025601  nElectrons: 366.000000
SCF: Cycle:  5   F: -718.991132671766195   dF: -9.608e-07   |Residual|: 2.470e-04   |deigs|: 2.036e-05  t[s]:    271.56
	FillingsUpdate:  mu: -0.161021007  nElectrons: 366.000000
SCF: Cycle:  6   F: -718.991132954382579   dF: -2.826e-07   |Residual|: 3.600e-05   |deigs|: 2.416e-05  t[s]:    273.93
	FillingsUpdate:  mu: -0.161018255  nElectrons: 366.000000
SCF: Cycle:  7   F: -718.991132967813201   dF: -1.343e-08   |Residual|: 2.468e-05   |deigs|: 2.831e-05  t[s]:    276.30
	FillingsUpdate:  mu: -0.161015569  nElectrons: 366.000000
SCF: Cycle:  8   F: -718.991132964382587   dF: +3.431e-09   |Residual|: 5.707e-05   |deigs|: 2.740e-05  t[s]:    279.32
	FillingsUpdate:  mu: -0.161011568  nElectrons: 366.000000
SCF: Cycle:  9   F: -718.991132987078799   dF: -2.270e-08   |Residual|: 1.517e-05   |deigs|: 2.262e-05  t[s]:    282.36
	FillingsUpdate:  mu: -0.161008135  nElectrons: 366.000000
SCF: Cycle: 10   F: -718.991132991492009   dF: -4.413e-09   |Residual|: 1.007e-05   |deigs|: 1.493e-05  t[s]:    285.39
	FillingsUpdate:  mu: -0.161004188  nElectrons: 366.000000
SCF: Cycle: 11   F: -718.991132994701275   dF: -3.209e-09   |Residual|: 9.293e-06   |deigs|: 1.065e-05  t[s]:    288.43
SCF: Converged (|Delta E|<1.000000e-08 for 2 iters).

Setting wave functions to eigenvectors of Hamiltonian
IonicMinimize: 	Predicted alpha/alphaT>3.000000, increasing alphaT to 2.700000e+01.

Computing DFT-D3 correction:
# coordination-number C 3.300 3.300 3.300 3.300 3.300 3.289 3.300 3.300 3.276 3.300 3.300 3.300 3.300 3.300 3.285 3.298 3.300 3.292 3.482 3.300 3.300 3.301 3.290 3.300 3.300 3.294 3.300 3.300 3.277 3.300 3.300 3.478 3.299 3.300 3.300 3.300 3.301 3.287 3.300 3.300 3.292 3.300 3.301 3.300 3.300 3.300 3.299 3.300 3.300 3.315 3.289 3.300 3.302 3.503 3.301 3.300 3.300 3.272 3.300 3.300 3.482 3.300 3.300 3.289 3.300 3.288
# coordination-number N 3.202 3.308 3.158 3.155
# coordination-number Fe 5.536
# coordination-number S 2.114 2.892 2.712 2.800 2.312 1.929 2.942 2.604
# coordination-number Na 5.925 4.600
# diagonal-C6 C 24.28 24.28 24.28 24.28 24.28 24.38 24.28 24.28 24.50 24.28 24.28 24.28 24.28 24.28 24.42 24.30 24.28 24.36 21.90 24.28 24.28 24.28 24.37 24.28 24.28 24.34 24.28 24.28 24.49 24.28 24.28 21.97 24.30 24.28 24.28 24.28 24.27 24.40 24.28 24.28 24.36 24.28 24.28 24.28 24.28 24.28 24.29 24.28 24.28 24.14 24.39 24.28 24.27 21.59 24.27 24.28 24.28 24.53 24.28 24.29 21.91 24.28 24.28 24.38 24.28 24.39
# diagonal-C6 N 15.60 15.59 15.60 15.60
# diagonal-C6 Fe 109.52
# diagonal-C6 S 125.85 125.81 125.81 125.81 125.82 125.97 125.81 125.81
# diagonal-C6 Na 186.11 186.11
EvdW_6 =   -0.071635
EvdW_8 =   -0.062828

-------- Electronic minimization -----------
Will mix electronic density at each iteration.
	FillingsUpdate:  mu: -0.161004188  nElectrons: 366.000000
	FillingsUpdate:  mu: -0.167463072  nElectrons: 366.000000
SCF: Cycle:  0   F: -718.644908227868427   dF: +3.056e-01   |Residual|: 2.269e-01   |deigs|: 5.841e-04  t[s]:    295.97
	FillingsUpdate:  mu: -0.139979005  nElectrons: 366.000000
SCF: Cycle:  1   F: -708.725747458136425   dF: +9.919e+00   |Residual|: 1.705e+00   |deigs|: 1.418e-02  t[s]:    299.53
	FillingsUpdate:  mu: -0.167962599  nElectrons: 366.000000
SCF: Cycle:  2   F: -718.964744639675700   dF: -1.024e+01   |Residual|: 7.662e-02   |deigs|: 1.361e-02  t[s]:    303.10
	FillingsUpdate:  mu: -0.166906108  nElectrons: 366.000000
SCF: Cycle:  3   F: -718.983797667606382   dF: -1.905e-02   |Residual|: 2.499e-02   |deigs|: 8.534e-04  t[s]:    306.65
	FillingsUpdate:  mu: -0.166988266  nElectrons: 366.000000
SCF: Cycle:  4   F: -718.983421084860538   dF: +3.766e-04   |Residual|: 3.254e-02   |deigs|: 6.897e-04  t[s]:    310.21
	FillingsUpdate:  mu: -0.166596079  nElectrons: 366.000000
SCF: Cycle:  5   F: -718.988587638565491   dF: -5.167e-03   |Residual|: 9.724e-03   |deigs|: 4.145e-04  t[s]:    313.24
	FillingsUpdate:  mu: -0.166354893  nElectrons: 366.000000
SCF: Cycle:  6   F: -718.989613859979954   dF: -1.026e-03   |Residual|: 6.996e-03   |deigs|: 4.918e-04  t[s]:    315.61
	FillingsUpdate:  mu: -0.165897119  nElectrons: 366.000000
SCF: Cycle:  7   F: -718.990554327563700   dF: -9.405e-04   |Residual|: 4.529e-03   |deigs|: 5.708e-04  t[s]:    318.63
	FillingsUpdate:  mu: -0.165460539  nElectrons: 366.000000
SCF: Cycle:  8   F: -718.990862338879197   dF: -3.080e-04   |Residual|: 5.153e-03   |deigs|: 5.919e-04  t[s]:    321.64
	FillingsUpdate:  mu: -0.165078521  nElectrons: 366.000000
SCF: Cycle:  9   F: -718.991068838063370   dF: -2.065e-04   |Residual|: 2.374e-03   |deigs|: 3.622e-04  t[s]:    324.66
	FillingsUpdate:  mu: -0.164425984  nElectrons: 366.000000
SCF: Cycle: 10   F: -718.991168225372348   dF: -9.939e-05   |Residual|: 4.177e-03   |deigs|: 5.731e-04  t[s]:    327.68
	FillingsUpdate:  mu: -0.164194924  nElectrons: 366.000000
SCF: Cycle: 11   F: -718.991213068199954   dF: -4.484e-05   |Residual|: 1.428e-03   |deigs|: 2.478e-04  t[s]:    330.75
	FillingsUpdate:  mu: -0.163709904  nElectrons: 366.000000
SCF: Cycle: 12   F: -718.991219382300301   dF: -6.314e-06   |Residual|: 1.979e-03   |deigs|: 6.360e-04  t[s]:    333.80
	FillingsUpdate:  mu: -0.163457811  nElectrons: 366.000000
SCF: Cycle: 13   F: -718.991232281278371   dF: -1.290e-05   |Residual|: 9.444e-04   |deigs|: 3.146e-04  t[s]:    336.81
	FillingsUpdate:  mu: -0.162999371  nElectrons: 366.000000
SCF: Cycle: 14   F: -718.991232183675606   dF: +9.760e-08   |Residual|: 1.449e-03   |deigs|: 5.947e-04  t[s]:    339.88
	FillingsUpdate:  mu: -0.162629066  nElectrons: 366.000000
SCF: Cycle: 15   F: -718.991233617246394   dF: -1.434e-06   |Residual|: 1.222e-03   |deigs|: 3.811e-04  t[s]:    343.00
	FillingsUpdate:  mu: -0.162343009  nElectrons: 366.000000
SCF: Cycle: 16   F: -718.991241117693448   dF: -7.500e-06   |Residual|: 4.513e-04   |deigs|: 3.647e-04  t[s]:    346.07
	FillingsUpdate:  mu: -0.162177145  nElectrons: 366.000000
SCF: Cycle: 17   F: -718.991241007897656   dF: +1.098e-07   |Residual|: 5.412e-04   |deigs|: 1.595e-04  t[s]:    349.10
	FillingsUpdate:  mu: -0.161940297  nElectrons: 366.000000
SCF: Cycle: 18   F: -718.991242593223546   dF: -1.585e-06   |Residual|: 6.986e-04   |deigs|: 3.128e-04  t[s]:    352.14
	FillingsUpdate:  mu: -0.161650841  nElectrons: 366.000000
SCF: Cycle: 19   F: -718.991243415465533   dF: -8.222e-07   |Residual|: 5.108e-04   |deigs|: 4.943e-04  t[s]:    357.56
	FillingsUpdate:  mu: -0.161414172  nElectrons: 366.000000
SCF: Cycle: 20   F: -718.991244960573567   dF: -1.545e-06   |Residual|: 2.853e-04   |deigs|: 5.431e-04  t[s]:    360.60
	FillingsUpdate:  mu: -0.161243429  nElectrons: 366.000000
SCF: Cycle: 21   F: -718.991245373654806   dF: -4.131e-07   |Residual|: 1.869e-04   |deigs|: 4.057e-04  t[s]:    363.65
	FillingsUpdate:  mu: -0.161104457  nElectrons: 366.000000
SCF: Cycle: 22   F: -718.991245416069887   dF: -4.242e-08   |Residual|: 2.251e-04   |deigs|: 3.989e-04  t[s]:    366.73
	FillingsUpdate:  mu: -0.161039127  nElectrons: 366.000000
SCF: Cycle: 23   F: -718.991245618318771   dF: -2.022e-07   |Residual|: 1.054e-04   |deigs|: 2.338e-04  t[s]:    369.78
	FillingsUpdate:  mu: -0.161011228  nElectrons: 366.000000
SCF: Cycle: 24   F: -718.991245635180576   dF: -1.686e-08   |Residual|: 8.048e-05   |deigs|: 1.258e-04  t[s]:    372.81
	FillingsUpdate:  mu: -0.160989994  nElectrons: 366.000000
SCF: Cycle: 25   F: -718.991245649191683   dF: -1.401e-08   |Residual|: 6.315e-05   |deigs|: 8.986e-05  t[s]:    375.86
	FillingsUpdate:  mu: -0.160949585  nElectrons: 366.000000
SCF: Cycle: 26   F: -718.991245733080973   dF: -8.389e-08   |Residual|: 3.573e-05   |deigs|: 1.066e-04  t[s]:    378.92
	FillingsUpdate:  mu: -0.160924506  nElectrons: 366.000000
SCF: Cycle: 27   F: -718.991245759411754   dF: -2.633e-08   |Residual|: 4.216e-05   |deigs|: 1.257e-04  t[s]:    381.94
	FillingsUpdate:  mu: -0.160906288  nElectrons: 366.000000
SCF: Cycle: 28   F: -718.991245771707213   dF: -1.230e-08   |Residual|: 2.649e-05   |deigs|: 1.641e-04  t[s]:    385.01
	FillingsUpdate:  mu: -0.160901572  nElectrons: 366.000000
SCF: Cycle: 29   F: -718.991245767583223   dF: +4.124e-09   |Residual|: 4.142e-05   |deigs|: 4.721e-05  t[s]:    388.03
	FillingsUpdate:  mu: -0.160899934  nElectrons: 366.000000
SCF: Cycle: 30   F: -718.991245774670574   dF: -7.087e-09   |Residual|: 1.070e-05   |deigs|: 4.140e-05  t[s]:    391.07
	FillingsUpdate:  mu: -0.160896587  nElectrons: 366.000000
SCF: Cycle: 31   F: -718.991245775761968   dF: -1.091e-09   |Residual|: 9.169e-06   |deigs|: 3.646e-05  t[s]:    394.05
SCF: Converged (|Delta E|<1.000000e-08 for 2 iters).

Setting wave functions to eigenvectors of Hamiltonian

Computing DFT-D3 correction:
# coordination-number C 3.300 3.300 3.300 3.300 3.300 3.289 3.300 3.300 3.276 3.300 3.300 3.300 3.300 3.300 3.285 3.298 3.300 3.292 3.482 3.300 3.300 3.301 3.290 3.300 3.300 3.294 3.300 3.300 3.277 3.300 3.300 3.478 3.299 3.300 3.300 3.300 3.301 3.287 3.300 3.300 3.292 3.300 3.301 3.300 3.300 3.300 3.299 3.300 3.300 3.315 3.289 3.300 3.302 3.503 3.301 3.300 3.300 3.272 3.300 3.300 3.482 3.300 3.300 3.289 3.300 3.288
# coordination-number N 3.202 3.308 3.158 3.155
# coordination-number Fe 5.536
# coordination-number S 2.114 2.892 2.712 2.800 2.312 1.929 2.942 2.604
# coordination-number Na 5.925 4.600
# diagonal-C6 C 24.28 24.28 24.28 24.28 24.28 24.38 24.28 24.28 24.50 24.28 24.28 24.28 24.28 24.28 24.42 24.30 24.28 24.36 21.90 24.28 24.28 24.28 24.37 24.28 24.28 24.34 24.28 24.28 24.49 24.28 24.28 21.97 24.30 24.28 24.28 24.28 24.27 24.40 24.28 24.28 24.36 24.28 24.28 24.28 24.28 24.28 24.29 24.28 24.28 24.14 24.39 24.28 24.27 21.59 24.27 24.28 24.28 24.53 24.28 24.29 21.91 24.28 24.28 24.38 24.28 24.39
# diagonal-C6 N 15.60 15.59 15.60 15.60
# diagonal-C6 Fe 109.52
# diagonal-C6 S 125.85 125.81 125.81 125.81 125.82 125.97 125.81 125.81
# diagonal-C6 Na 186.11 186.11
EvdW_6 =   -0.071635
EvdW_8 =   -0.062828

# Ionic positions in cartesian coordinates:
ion C   0.000000000000000   0.000000000000000   1.000007321400000 0
ion C  -2.333835447300000   4.042302545699999   1.000007321400000 0
ion C  11.669120544600000  20.211531625799999   1.000007321400000 0
ion C   4.667689791900001   0.000000000000000   1.000007321400000 0
ion C  23.338297781100000   0.000000000000000   1.000007321400000 0
ion C   2.333816549999999   4.042302545699999   1.000007321400000 0
ion C -11.669158339200006  20.211531625799999   1.000007321400000 0
ion C  -4.667670894600000   8.084623988700001   1.000007321400000 0
ion C   9.335303994599997  16.169229080099999   1.000007321400000 0
ion C   9.335322891900001   0.000000000000000   1.000007321400000 0
ion C  18.670626886499999   0.000000000000000   1.000007321400000 0
ion C  -9.335322891900001  16.169229080099999   1.000007321400000 0
ion C  -7.001487444600000  12.126907637100000   1.000007321400000 0
ion C  14.002993786499999   0.000000000000000   1.000007321400000 0
ion C   0.000000000000000   8.084623988700001   1.000007321400000 0
ion C   7.001487444599997  20.211531625799999   1.000007321400000 0
ion C  -7.001487444600006  20.211531625799999   1.000007321400000 0
ion C  -2.333816549999999  12.126907637100000   1.000007321400000 0
ion C   4.667670894600002  16.169229080099999   1.000007321400000 0
ion C  -2.333816550000000  20.211531625799999   1.000007321400000 0
ion C   2.333816550000000  20.211531625799999   1.000007321400000 0
ion C  -4.667651997299995  16.169229080099999   1.000007321400000 0
ion C   7.001487444600000   4.042302545699999   1.000007321400000 0
ion C  21.004424539199999   4.042302545699999   1.000007321400000 0
ion C  14.002955991899999  16.169229080099999   1.000007321400000 0
ion C   0.000000000000000  16.169229080099999   1.000007321400000 0
ion C  11.669120544600000   4.042302545699999   1.000007321400000 0
ion C  18.670607989199997   8.084623988700001   1.000007321400000 0
ion C  11.669120544599998  12.126907637100000   1.000007321400000 0
ion C  16.336791439199999  12.126907637100000   1.000007321400000 0
ion C  16.336791439199999   4.042302545699999   1.000007321400000 0
ion C   9.335303994599997   8.084623988700001   1.000007321400000 0
ion C  14.002955991899999   8.084623988700001   1.000007321400000 0
ion C   0.000000000000000   2.694868363800000   1.000007321400000 0
ion C  11.669120544600000  22.906399989600001   1.000007321400000 0
ion C -11.669120544600000  22.906399989600001   1.000007321400000 0
ion C  -2.333816550000000   6.737170909500000   1.000007321400000 0
ion C   9.335303994599995  18.864097443900000   1.000007321400000 0
ion C  -7.001487444600000  22.906399989600001   1.000007321400000 0
ion C   7.001487444600000  22.906399989600001   1.000007321400000 0
ion C   2.333816550000000   6.737170909500000   1.000007321400000 0
ion C  -9.335303994599998  18.864097443900000   1.000007321400000 0
ion C  -4.667670894599997  10.779473455200000   1.000007321400000 0
ion C  -2.333816550000000  22.906399989600001   1.000007321400000 0
ion C   2.333816550000000  22.906399989600001   1.000007321400000 0
ion C  -7.001487444600004  14.821794898200000   1.000007321400000 0
ion C   4.667670894600000   2.694868363800000   1.000007321400000 0
ion C  23.338259986499999   2.694868363800000   1.000007321400000 0
ion C  14.002974889199999  18.864097443900000   1.000007321400000 0
ion C   0.000000000000000  10.779473455200000   1.000007321400000 0
ion C   4.667670894600001  18.864097443900000   1.000007321400000 0
ion C  -4.667633100000005  18.864097443900000   1.000007321400000 0
ion C  -2.333816550000003  14.821794898200000   1.000007321400000 0
ion C   2.333816549999993  14.821794898200000   1.000007321400000 0
ion C  -0.000000000000005  18.864097443900000   1.000007321400000 0
ion C   9.335303994599998   2.694868363800000   1.000007321400000 0
ion C  21.004424539199999   6.737170909500000   1.000007321400000 0
ion C  11.669120544600000  14.821794898200000   1.000007321400000 0
ion C  16.336791439199999  14.821794898200000   1.000007321400000 0
ion C  18.670607989199997   2.694868363800000   1.000007321400000 0
ion C   7.001487444600001   6.737170909500000   1.000007321400000 0
ion C  14.002955991899999   2.694868363800000   1.000007321400000 0
ion C  18.670607989200004  10.779473455200000   1.000007321400000 0
ion C  11.669120544599998   6.737170909500000   1.000007321400000 0
ion C  16.336791439199999   6.737170909500000   1.000007321400000 0
ion C  14.002955991899999  10.779473455200000   1.000007321400000 0
ion N   4.667670894599999   8.084623988700001   1.000007321400000 0
ion N   2.333816549999999  12.126907637100000   1.000007321400000 0
ion N   7.001487444599997  14.821794898200000   1.000007321400000 0
ion N   9.335303994599997  10.779473455200000   1.000007321400000 0
ion Fe   5.837111407799997  11.454314935499999   1.000007321400000 0
ion S  11.351501689009190   9.910220734013839   8.885739997070246 1
ion S   9.244842441147391   6.850144914476847  10.338973957394201 1
ion S   6.108434813208424   6.151439461373876   8.236315127204264 1
ion S  -0.135134630033762   8.963212792204578  10.138479664202226 1
ion S  -1.515593249463145  12.497258885148410  10.416589117592647 1
ion S  -0.159355228139013  14.844508106771373   7.833494660261349 1
ion S   8.796325416758467  12.806242612834273   8.144257426245055 1
ion S   6.569444940390420  13.704486962780990  11.092995093885543 1
ion Na   3.659100862439556  11.058609419080575   6.685772482576430 1
ion Na   4.633297244034091   9.017031998662096  12.564724839801425 1

# Forces in Cartesian coordinates:
force C   0.004045641725045  -0.000101371103489   0.000035770432871 0
force C   0.001477663869660  -0.001507769030036   0.000047557979381 0
force C   0.003924172045539  -0.001935781845454   0.000035668149652 0
force C   0.001487815063731   0.002897849993917   0.000082192291353 0
force C   0.002586359316446  -0.000436934493141   0.000012461559096 0
force C   0.005655198471246   0.001931972663581   0.000217691676751 0
force C   0.000778889301669  -0.000855337430120   0.000012000625751 0
force C  -0.000436137546851   0.001979877662046   0.000098160118049 0
force C  -0.033550139468169  -0.014229250833990   0.000272243998815 0
force C  -0.001203746202133   0.001076602984294   0.000082232694311 0
force C  -0.000461847082529  -0.000324912450346   0.000010784057191 0
force C  -0.000323818326170   0.000985495275088   0.000029974671319 0
force C   0.001872412296094   0.003667937069256   0.000129795846555 0
force C  -0.001746554254003  -0.000897879140278   0.000037957151329 0
force C   0.010141841753136   0.006025621907527   0.000208272050656 0
force C   0.002959179851211   0.002275472837798   0.000071799895479 0
force C   0.001192888117981   0.000709016678640   0.000024430226272 0
force C   0.004310693951281   0.003755416024499  -0.000044558634759 0
force C   0.029881473644208   0.011363353724624   0.000044919538416 0
force C   0.000078147652254  -0.001530600359993   0.000133250063367 0
force C  -0.003947638118273   0.000946779195784   0.000092393410387 0
force C   0.003513845831982  -0.000202856938121   0.000032617925174 0
force C   0.004410530521914   0.008073750043235  -0.000055302585475 0
force C   0.001297459819541   0.000781511757358   0.000027366372033 0
force C  -0.003248678571301  -0.001843305674305   0.000083357853711 0
force C   0.008941308285362   0.000048347691957  -0.000195805274563 0
force C  -0.001294871863723  -0.004017610444201   0.000190100193895 0
force C   0.000788166241813   0.002391539567926   0.000051128138616 0
force C  -0.029449017096485  -0.022476313804345   0.000392034276811 0
force C   0.000323741574871   0.004286636064872   0.000082400078443 0
force C  -0.000416784742623  -0.000225825858470   0.000044911513871 0
force C   0.025136171189682   0.020694502638309   0.000334550147540 0
force C   0.003181314325836   0.001547696824414   0.000176466522567 0
force C  -0.003939453023015   0.001799060180604   0.000086846046933 0
force C  -0.003995287877332   0.000177407032342   0.000007140274604 0
force C  -0.002494374306846   0.000492699939322   0.000033225469414 0
force C   0.002433101999663   0.001608177760103   0.000290101880079 0
force C  -0.005415339512485  -0.002160881909561   0.000080376174778 0
force C   0.000529882374110   0.000214877130010   0.000071210865286 0
force C  -0.001629021066883  -0.002652503993561   0.000015843159633 0
force C   0.033153465003527   0.013019010186510   0.000065031624199 0
force C  -0.001271898834553  -0.000714833194743   0.000026874880512 0
force C  -0.000070034511993  -0.004155840173572   0.000131864010737 0
force C   0.001684477103884   0.000897893777382   0.000042059192883 0
force C   0.001177090019715  -0.000837244399767   0.000035105111703 0
force C  -0.000793042621339  -0.002521412588754   0.000092203021655 0
force C  -0.002792778574692  -0.002284369336605   0.000104405038184 0
force C  -0.000761204455858   0.000885233930570   0.000017447661319 0
force C  -0.001489105019893   0.001600387284844   0.000037996322681 0
force C   0.026160027491378   0.021210536979135  -0.000260112680687 0
force C  -0.004621922566316  -0.007153366546515   0.000171399146045 0
force C   0.000560704312199   0.000204083232863   0.000099215530052 0
force C  -0.004038951326021  -0.001351683614555   0.000119584421865 0
force C  -0.025475264018030  -0.017297719961461  -0.000610078553716 0
force C   0.001073134710066   0.003874769437762   0.000028268112988 0
force C   0.003982453729736  -0.000900447007469   0.000080557092049 0
force C   0.000354573596856  -0.001083270293299   0.000036315582555 0
force C  -0.010073680067119  -0.005692519073259   0.000198963992005 0
force C   0.000718451661513  -0.002093082324781   0.000069609308412 0
force C  -0.001188604382862  -0.000555556590561   0.000013152037206 0
force C  -0.029368770667566  -0.012552573409555   0.000013398252585 0
force C  -0.000294674217046   0.001412048617342   0.000058824873320 0
force C  -0.001828398122098  -0.003459889894936   0.000056217374915 0
force C  -0.008811464538227   0.000071432204139   0.000326145402667 0
force C  -0.003005612694276   0.000004133045920   0.000068136797884 0
force C  -0.004598848831480  -0.003882521039200   0.000199796663066 0
force N   0.026322950108810  -0.026811241998319   0.001086568809184 0
force N  -0.009041595505810   0.035460473585665   0.002346581319600 0
force N  -0.025861323997578   0.027272867319741   0.000244382818535 0
force N   0.011287724330896  -0.036527980793111  -0.000053219297729 0
force Fe   0.002003155109070   0.000346169720607   0.000456298075110 0
force S   0.000546005273083  -0.001683890474621  -0.000064583317703 1
force S  -0.002793127573915  -0.000185529868611  -0.003237004964651 1
force S   0.002711804968521   0.000427259439521   0.001154814726146 1
force S   0.000730115590180  -0.000663436378274  -0.001179131857901 1
force S  -0.000905601011147   0.000826208942461   0.000695834699358 1
force S   0.000566264415902  -0.000280181463256  -0.001554093992439 1
force S   0.000249474198016   0.001104556932371  -0.003585450916471 1
force S  -0.001281103790966   0.000622732700761   0.001878871651780 1
force Na   0.000177342457610  -0.000657917580552  -0.001194875738182 1
force Na   0.000049874816343   0.000090374340034  -0.000952173723243 1

# Energy components:
   Eewald =    -2348.8479256473356145
       EH =    -1783.6951295279677652
     Eloc =     3335.6054750207576944
      Enl =      -51.7217235063920100
     EvdW =       -0.1344623394049931
      Exc =     -192.7898477293571204
 Exc_core =       17.5044986895875141
       KE =      305.1986368662519453
-------------------------------------
     Etot =     -718.8804781738601832
       TS =        0.1107676019018146
-------------------------------------
        F =     -718.9912457757619677

IonicMinimize: Iter:   1  F: -718.991245775761968  |grad|_K:  1.414e-03  alpha:  3.081e+01  linmin: -2.359e-03  t[s]:    397.47

#--- Lowdin population analysis ---
[...]
# oxidation-state N -0.147 -0.153 -0.127 -0.127
# oxidation-state Fe +0.082
# oxidation-state S +0.019 +0.132 -0.420 -0.395 +0.326 -0.263 +0.128 -0.368
# oxidation-state Na +0.668 +0.759


Computing DFT-D3 correction:
# coordination-number C 3.300 3.302 3.300 3.301 3.300 3.298 3.300 3.302 3.276 3.300 3.300 3.300 3.301 3.300 3.401 3.298 3.300 3.301 3.479 3.300 3.300 3.301 3.296 3.300 3.300 3.295 3.301 3.300 3.278 3.300 3.300 3.484 3.299 3.302 3.300 3.300 3.307 3.287 3.300 3.300 3.446 3.300 3.303 3.300 3.300 3.300 3.304 3.300 3.300 3.496 3.288 3.300 3.305 3.504 3.301 3.302 3.300 3.272 3.300 3.300 3.498 3.300 3.300 3.292 3.300 3.288
# coordination-number N 3.463 3.553 3.156 3.159
# coordination-number Fe 5.694
# coordination-number S 2.129 2.800 2.774 2.823 2.302 1.934 3.003 2.647
# coordination-number Na 7.304 4.528
# diagonal-C6 C 24.28 24.27 24.28 24.27 24.28 24.30 24.28 24.26 24.50 24.28 24.28 24.28 24.28 24.28 23.09 24.30 24.28 24.27 21.95 24.28 24.28 24.27 24.32 24.28 24.28 24.33 24.27 24.28 24.49 24.28 24.28 21.88 24.29 24.27 24.28 24.28 24.22 24.40 24.28 24.28 22.45 24.28 24.26 24.28 24.28 24.28 24.24 24.28 24.28 21.70 24.39 24.28 24.23 21.58 24.27 24.27 24.28 24.53 24.28 24.28 21.67 24.28 24.28 24.36 24.28 24.39
# diagonal-C6 N 15.58 15.58 15.60 15.60
# diagonal-C6 Fe 109.50
# diagonal-C6 S 125.84 125.81 125.81 125.81 125.82 125.96 125.81 125.81
# diagonal-C6 Na 186.11 186.11
EvdW_6 =   -0.075572
EvdW_8 =   -0.067006

-------- Electronic minimization -----------
Will mix electronic density at each iteration.
	FillingsUpdate:  mu: -0.160438634  nElectrons: 366.000000
	FillingsUpdate:  mu: -0.160469361  nElectrons: 366.000000
SCF: Cycle:  0   F: -718.996318851623073   dF: -2.919e-06   |Residual|: 7.832e-04   |deigs|: 8.572e-08  t[s]:  14052.86
	FillingsUpdate:  mu: -0.160453085  nElectrons: 366.000000
SCF: Cycle:  1   F: -718.996315098054083   dF: +3.754e-06   |Residual|: 1.255e-03   |deigs|: 1.026e-05  t[s]:  14055.23
	FillingsUpdate:  mu: -0.160499346  nElectrons: 366.000000
SCF: Cycle:  2   F: -718.996290309650021   dF: +2.479e-05   |Residual|: 2.943e-03   |deigs|: 2.851e-05  t[s]:  14057.57
	FillingsUpdate:  mu: -0.160466272  nElectrons: 366.000000
SCF: Cycle:  3   F: -718.996320187732408   dF: -2.988e-05   |Residual|: 9.180e-05   |deigs|: 2.085e-05  t[s]:  14059.92
	FillingsUpdate:  mu: -0.160465766  nElectrons: 366.000000
SCF: Cycle:  4   F: -718.996320201228514   dF: -1.350e-08   |Residual|: 4.560e-05   |deigs|: 5.579e-06  t[s]:  14062.06
	FillingsUpdate:  mu: -0.160465563  nElectrons: 366.000000
SCF: Cycle:  5   F: -718.996320206374435   dF: -5.146e-09   |Residual|: 2.237e-05   |deigs|: 7.811e-06  t[s]:  14064.43
	FillingsUpdate:  mu: -0.160464823  nElectrons: 366.000000
SCF: Cycle:  6   F: -718.996320209519126   dF: -3.145e-09   |Residual|: 1.583e-05   |deigs|: 6.313e-06  t[s]:  14066.77
SCF: Converged (|Delta E|<1.000000e-08 for 2 iters).

Setting wave functions to eigenvectors of Hamiltonian

Computing DFT-D3 correction:
# coordination-number C 3.300 3.302 3.300 3.301 3.300 3.298 3.300 3.302 3.276 3.300 3.300 3.300 3.301 3.300 3.401 3.298 3.300 3.301 3.479 3.300 3.300 3.301 3.296 3.300 3.300 3.295 3.301 3.300 3.278 3.300 3.300 3.484 3.299 3.302 3.300 3.300 3.307 3.287 3.300 3.300 3.446 3.300 3.303 3.300 3.300 3.300 3.304 3.300 3.300 3.496 3.288 3.300 3.305 3.504 3.301 3.302 3.300 3.272 3.300 3.300 3.498 3.300 3.300 3.292 3.300 3.288
# coordination-number N 3.463 3.553 3.156 3.159
# coordination-number Fe 5.694
# coordination-number S 2.129 2.800 2.774 2.822 2.301 1.935 3.003 2.647
# coordination-number Na 7.304 4.528
# diagonal-C6 C 24.28 24.27 24.28 24.27 24.28 24.30 24.28 24.26 24.50 24.28 24.28 24.28 24.28 24.28 23.09 24.30 24.28 24.27 21.95 24.28 24.28 24.27 24.32 24.28 24.28 24.33 24.27 24.28 24.49 24.28 24.28 21.88 24.29 24.27 24.28 24.28 24.22 24.40 24.28 24.28 22.45 24.28 24.26 24.28 24.28 24.28 24.24 24.28 24.28 21.70 24.39 24.28 24.23 21.58 24.27 24.27 24.28 24.53 24.28 24.28 21.67 24.28 24.28 24.36 24.28 24.39
# diagonal-C6 N 15.58 15.58 15.60 15.60
# diagonal-C6 Fe 109.50
# diagonal-C6 S 125.84 125.81 125.81 125.81 125.82 125.96 125.81 125.81
# diagonal-C6 Na 186.11 186.11
EvdW_6 =   -0.075573
EvdW_8 =   -0.067008

-------- Electronic minimization -----------
Will mix electronic density at each iteration.
	FillingsUpdate:  mu: -0.160464823  nElectrons: 366.000000
	FillingsUpdate:  mu: -0.160472252  nElectrons: 366.000000
SCF: Cycle:  0   F: -718.996319243308676   dF: -1.814e-07   |Residual|: 5.760e-04   |deigs|: 4.934e-08  t[s]:  14073.07
	FillingsUpdate:  mu: -0.160414051  nElectrons: 366.000000
SCF: Cycle:  1   F: -718.996253357593559   dF: +6.589e-05   |Residual|: 4.434e-03   |deigs|: 3.407e-05  t[s]:  14075.43
	FillingsUpdate:  mu: -0.160467025  nElectrons: 366.000000
SCF: Cycle:  2   F: -718.996319921521035   dF: -6.656e-05   |Residual|: 3.305e-04   |deigs|: 3.242e-05  t[s]:  14077.77
	FillingsUpdate:  mu: -0.160464022  nElectrons: 366.000000
SCF: Cycle:  3   F: -718.996320268997920   dF: -3.475e-07   |Residual|: 5.617e-05   |deigs|: 2.789e-06  t[s]:  14080.02
	FillingsUpdate:  mu: -0.160463776  nElectrons: 366.000000
SCF: Cycle:  4   F: -718.996320281704698   dF: -1.271e-08   |Residual|: 2.918e-05   |deigs|: 1.218e-06  t[s]:  14082.37
	FillingsUpdate:  mu: -0.160464381  nElectrons: 366.000000
SCF: Cycle:  5   F: -718.996320282858960   dF: -1.154e-09   |Residual|: 2.800e-05   |deigs|: 1.223e-06  t[s]:  14084.74
	FillingsUpdate:  mu: -0.160463962  nElectrons: 366.000000
SCF: Cycle:  6   F: -718.996320285390993   dF: -2.532e-09   |Residual|: 1.475e-05   |deigs|: 1.410e-06  t[s]:  14087.72
SCF: Converged (|Delta E|<1.000000e-08 for 2 iters).

Setting wave functions to eigenvectors of Hamiltonian

Computing DFT-D3 correction:
# coordination-number C 3.300 3.302 3.300 3.301 3.300 3.298 3.300 3.302 3.276 3.300 3.300 3.300 3.301 3.300 3.401 3.298 3.300 3.301 3.479 3.300 3.300 3.301 3.296 3.300 3.300 3.295 3.301 3.300 3.278 3.300 3.300 3.484 3.299 3.302 3.300 3.300 3.307 3.287 3.300 3.300 3.446 3.300 3.303 3.300 3.300 3.300 3.304 3.300 3.300 3.496 3.288 3.300 3.305 3.504 3.301 3.302 3.300 3.272 3.300 3.300 3.498 3.300 3.300 3.292 3.300 3.288
# coordination-number N 3.463 3.553 3.156 3.159
# coordination-number Fe 5.694
# coordination-number S 2.129 2.800 2.774 2.822 2.301 1.935 3.003 2.647
# coordination-number Na 7.304 4.528
# diagonal-C6 C 24.28 24.27 24.28 24.27 24.28 24.30 24.28 24.26 24.50 24.28 24.28 24.28 24.28 24.28 23.09 24.30 24.28 24.27 21.95 24.28 24.28 24.27 24.32 24.28 24.28 24.33 24.27 24.28 24.49 24.28 24.28 21.88 24.29 24.27 24.28 24.28 24.22 24.40 24.28 24.28 22.45 24.28 24.26 24.28 24.28 24.28 24.24 24.28 24.28 21.70 24.39 24.28 24.23 21.58 24.27 24.27 24.28 24.53 24.28 24.28 21.67 24.28 24.28 24.36 24.28 24.39
# diagonal-C6 N 15.58 15.58 15.60 15.60
# diagonal-C6 Fe 109.50
# diagonal-C6 S 125.84 125.81 125.81 125.81 125.82 125.96 125.81 125.81
# diagonal-C6 Na 186.11 186.11
EvdW_6 =   -0.075573
EvdW_8 =   -0.067008

# Ionic positions in cartesian coordinates:
ion C   0.000000000000000   0.000000000000000   1.000007321400000 0
ion C  -2.333835447300000   4.042302545699999   1.000007321400000 0
ion C  11.669120544600000  20.211531625799999   1.000007321400000 0
ion C   4.667689791900001   0.000000000000000   1.000007321400000 0
ion C  23.338297781100000   0.000000000000000   1.000007321400000 0
ion C   2.333816549999999   4.042302545699999   1.000007321400000 0
ion C -11.669158339200006  20.211531625799999   1.000007321400000 0
ion C  -4.667670894600000   8.084623988700001   1.000007321400000 0
ion C   9.335303994599997  16.169229080099999   1.000007321400000 0
ion C   9.335322891900001   0.000000000000000   1.000007321400000 0
ion C  18.670626886499999   0.000000000000000   1.000007321400000 0
ion C  -9.335322891900001  16.169229080099999   1.000007321400000 0
ion C  -7.001487444600000  12.126907637100000   1.000007321400000 0
ion C  14.002993786499999   0.000000000000000   1.000007321400000 0
ion C   0.000000000000000   8.084623988700001   1.000007321400000 0
ion C   7.001487444599997  20.211531625799999   1.000007321400000 0
ion C  -7.001487444600006  20.211531625799999   1.000007321400000 0
ion C  -2.333816549999999  12.126907637100000   1.000007321400000 0
ion C   4.667670894600002  16.169229080099999   1.000007321400000 0
ion C  -2.333816550000000  20.211531625799999   1.000007321400000 0
ion C   2.333816550000000  20.211531625799999   1.000007321400000 0
ion C  -4.667651997299995  16.169229080099999   1.000007321400000 0
ion C   7.001487444600000   4.042302545699999   1.000007321400000 0
ion C  21.004424539199999   4.042302545699999   1.000007321400000 0
ion C  14.002955991899999  16.169229080099999   1.000007321400000 0
ion C   0.000000000000000  16.169229080099999   1.000007321400000 0
ion C  11.669120544600000   4.042302545699999   1.000007321400000 0
ion C  18.670607989199997   8.084623988700001   1.000007321400000 0
ion C  11.669120544599998  12.126907637100000   1.000007321400000 0
ion C  16.336791439199999  12.126907637100000   1.000007321400000 0
ion C  16.336791439199999   4.042302545699999   1.000007321400000 0
ion C   9.335303994599997   8.084623988700001   1.000007321400000 0
ion C  14.002955991899999   8.084623988700001   1.000007321400000 0
ion C   0.000000000000000   2.694868363800000   1.000007321400000 0
ion C  11.669120544600000  22.906399989600001   1.000007321400000 0
ion C -11.669120544600000  22.906399989600001   1.000007321400000 0
ion C  -2.333816550000000   6.737170909500000   1.000007321400000 0
ion C   9.335303994599995  18.864097443900000   1.000007321400000 0
ion C  -7.001487444600000  22.906399989600001   1.000007321400000 0
ion C   7.001487444600000  22.906399989600001   1.000007321400000 0
ion C   2.333816550000000   6.737170909500000   1.000007321400000 0
ion C  -9.335303994599998  18.864097443900000   1.000007321400000 0
ion C  -4.667670894599997  10.779473455200000   1.000007321400000 0
ion C  -2.333816550000000  22.906399989600001   1.000007321400000 0
ion C   2.333816550000000  22.906399989600001   1.000007321400000 0
ion C  -7.001487444600004  14.821794898200000   1.000007321400000 0
ion C   4.667670894600000   2.694868363800000   1.000007321400000 0
ion C  23.338259986499999   2.694868363800000   1.000007321400000 0
ion C  14.002974889199999  18.864097443900000   1.000007321400000 0
ion C   0.000000000000000  10.779473455200000   1.000007321400000 0
ion C   4.667670894600001  18.864097443900000   1.000007321400000 0
ion C  -4.667633100000005  18.864097443900000   1.000007321400000 0
ion C  -2.333816550000003  14.821794898200000   1.000007321400000 0
ion C   2.333816549999993  14.821794898200000   1.000007321400000 0
ion C  -0.000000000000005  18.864097443900000   1.000007321400000 0
ion C   9.335303994599998   2.694868363800000   1.000007321400000 0
ion C  21.004424539199999   6.737170909500000   1.000007321400000 0
ion C  11.669120544600000  14.821794898200000   1.000007321400000 0
ion C  16.336791439199999  14.821794898200000   1.000007321400000 0
ion C  18.670607989199997   2.694868363800000   1.000007321400000 0
ion C   7.001487444600001   6.737170909500000   1.000007321400000 0
ion C  14.002955991899999   2.694868363800000   1.000007321400000 0
ion C  18.670607989200004  10.779473455200000   1.000007321400000 0
ion C  11.669120544599998   6.737170909500000   1.000007321400000 0
ion C  16.336791439199999   6.737170909500000   1.000007321400000 0
ion C  14.002955991899999  10.779473455200000   1.000007321400000 0
ion N   4.667670894599999   8.084623988700001   1.000007321400000 0
ion N   2.333816549999999  12.126907637100000   1.000007321400000 0
ion N   7.001487444599997  14.821794898200000   1.000007321400000 0
ion N   9.335303994599997  10.779473455200000   1.000007321400000 0
ion Fe   5.837111407799997  11.454314935499999   1.000007321400000 0
ion S  10.370664299165949   8.605633521020472   7.671556878067245 1
ion S   8.325525196568861   5.722486331255142   9.300994123579475 1
ion S   5.110262908214478   4.910660350311832   7.367309311334873 1
ion S  -1.202109933504843   7.717106749513896   8.483408677496390 1
ion S  -2.696015785854861  11.197659734103697   8.944189347115973 1
ion S  -0.617166143400181  13.917008347326183   7.422441450172490 1
ion S   7.944358007562156  11.848575743784108   7.469626880140270 1
ion S   5.809225464498033  12.293065748579203  10.583106961642898 1
ion Na   3.042272139349258  10.035570198985027   5.984361793653185 1
ion Na   3.333501317035982   7.658409214653106  11.461157877789701 1

# Forces in Cartesian coordinates:
force C   0.004111447699085  -0.000117706909680   0.000153658773780 0
force C   0.001399168407915  -0.001135582177780   0.000144071772853 0
force C   0.003937810624066  -0.001940340842000   0.000023804959752 0
force C   0.001425466562362   0.003273557457219  -0.000069138182264 0
force C   0.002519747508670  -0.000385093699095   0.000033744271729 0
force C   0.005673888599110   0.001327127253420   0.000031737400612 0
force C   0.000731332609254  -0.000798287803892   0.000032351859779 0
force C  -0.000140744506874   0.001703615347983   0.000156830531060 0
force C  -0.034053891972733  -0.014420990033063   0.000203391183289 0
force C  -0.001344360047957   0.001057177086256   0.000214440984225 0
force C  -0.000438925100575  -0.000326394163633   0.000020492422554 0
force C  -0.000306271266370   0.000940116456805   0.000041220178932 0
force C   0.001827354417250   0.003708189193603   0.000248974073976 0
force C  -0.001681771627389  -0.000869613773063   0.000051317385524 0
force C   0.009758970927282   0.005692959149451  -0.000613120021224 0
force C   0.002936099772701   0.002148679197928   0.000051840361320 0
force C   0.001170350017762   0.000768090119583   0.000045871258421 0
force C   0.003696245277394   0.003740111209348  -0.000415420900241 0
force C   0.030243540399220   0.010717080413038   0.000224166590119 0
force C   0.000040377512088  -0.001513049946517   0.000160472000537 0
force C  -0.003898599561811   0.000904712961912   0.000084031728835 0
force C   0.003536463030664  -0.000288753402448  -0.000076369440277 0
force C   0.004564646444097   0.008129336569440  -0.000519878417182 0
force C   0.001346001821412   0.000805886282341   0.000099471646649 0
force C  -0.003324864093656  -0.001906797187503   0.000062818395496 0
force C   0.009180081376709  -0.000034301472756  -0.000338699535385 0
force C  -0.001273301185102  -0.003631947285941   0.000198859990246 0
force C   0.000812838999214   0.002313787910443   0.000094939624334 0
force C  -0.029535024450874  -0.022545595982980   0.000391995543181 0
force C   0.000294715453604   0.004343466871095   0.000081351223591 0
force C  -0.000473836821836  -0.000181608909402   0.000072515500193 0
force C   0.024547956559147   0.020735352785482  -0.000347653595834 0
force C   0.002864378273398   0.001319134928643   0.000030037735463 0
force C  -0.003729404351335   0.001906102417975   0.000198172590160 0
force C  -0.003929587058019   0.000211728583524   0.000037482099194 0
force C  -0.002419558880437   0.000569788930072   0.000101832277300 0
force C   0.001568619908525   0.001128546370668   0.000447183468824 0
force C  -0.005447045605400  -0.002073301107891   0.000083134372340 0
force C   0.000521305965663   0.000315406286085   0.000175879376139 0
force C  -0.001575472775153  -0.002532344863603   0.000016082243857 0
force C   0.032400059593911   0.011275777725019  -0.001340961491894 0
force C  -0.001230236391400  -0.000704027465400   0.000040756077014 0
force C   0.000242820245636  -0.004007722686055   0.000235417785925 0
force C   0.001611965353755   0.000878365835391   0.000052220109035 0
force C   0.001146173024893  -0.000784459615488   0.000031115476569 0
force C  -0.000746196060661  -0.002535537920171   0.000182736505078 0
force C  -0.002878974149401  -0.002622631005789  -0.000365976947660 0
force C  -0.000731509256621   0.000965465095581   0.000074629516897 0
force C  -0.001469162795352   0.001675587306865   0.000033494056163 0
force C   0.024862642152792   0.021866231897585  -0.001894425127741 0
force C  -0.004591160741410  -0.007010014382209   0.000203612199979 0
force C   0.000572345052311   0.000120897429214   0.000110876278779 0
force C  -0.004237496922091  -0.001457139023503  -0.000084947829025 0
force C  -0.025328657287079  -0.017043717228981  -0.000249037920850 0
force C   0.001108779288007   0.003735140114357  -0.000010263765916 0
force C   0.003602408791571  -0.000705699516636   0.000043051592104 0
force C   0.000491493687736  -0.001080384257753   0.000124511972391 0
force C  -0.009896705821115  -0.005588316506342   0.000174231759531 0
force C   0.000790174811885  -0.002107714855693   0.000059492990428 0
force C  -0.001094047020878  -0.000533594925735   0.000028135304559 0
force C  -0.027917955690015  -0.013146999769599  -0.000481900862957 0
force C  -0.000240395551083   0.001423122086676   0.000114774010479 0
force C  -0.001688620272487  -0.003417458279360   0.000080978757102 0
force C  -0.008410540339938  -0.000247464393590  -0.000197262949330 0
force C  -0.002878654113762  -0.000046206222719   0.000097429200251 0
force C  -0.004490527077367  -0.003897705790866   0.000220092280429 0
force N   0.026452304991048  -0.026782117321849   0.000534688596839 0
force N  -0.009350962700141   0.035797946905299   0.001315357178646 0
force N  -0.025786845771883   0.028282236077043  -0.000723908619555 0
force N   0.011950586281167  -0.037022405690590  -0.001435010521616 0
force Fe   0.003337217822758   0.001500158806224   0.002288102568026 0
force S   0.000114466586420   0.000107539014970  -0.000052521025095 1
force S   0.000192856502019   0.000104986579192   0.000186601242910 1
force S  -0.000039636548128  -0.000114713190523  -0.000001707474284 1
force S  -0.000017746373858   0.000039201905846   0.000023821849063 1
force S   0.000169844040294   0.000242928579637  -0.000064870185285 1
force S  -0.000189412145568  -0.000117140414082   0.000079223647083 1
force S  -0.000502117229743   0.000160402771632   0.000204356172978 1
force S   0.000541440222376  -0.000185296645776  -0.000315693395508 1
force Na  -0.000165768099896   0.000180859484149   0.000030551636222 1
force Na  -0.000309011968968   0.000024700509569   0.000089025933169 1

# Energy components:
   Eewald =    -2170.2483543429189012
       EH =    -1604.9751161643378055
     Eloc =     2978.2737920195459083
      Enl =      -51.7245433225475324
     EvdW =       -0.1425814987843794
      Exc =     -192.8170121026024333
 Exc_core =       17.5044951780354516
       KE =      305.2429007722033703
-------------------------------------
     Etot =     -718.8864194614064900
       TS =        0.1099008239844666
-------------------------------------
        F =     -718.9963202853909934

IonicMinimize: Iter: 117  F: -718.996320285390993  |grad|_K:  1.990e-04  alpha:  2.733e+00  linmin:  1.307e-04  t[s]:  14091.13
IonicMinimize: Converged (|Delta F|<1.000000e-06 for 2 iters).

#--- Lowdin population analysis ---
# oxidation-state C +0.049 +0.042 +0.044 +0.044 +0.044 +0.033 +0.043 +0.043 +0.158 +0.047 +0.042 +0.043 +0.050 +0.045 +0.000 +0.053 +0.048 +0.035 +0.135 +0.046 +0.041 +0.044 +0.046 +0.050 +0.055 +0.040 +0.042 +0.044 +0.155 +0.044 +0.042 +0.140 +0.054 +0.044 +0.049 +0.045 +0.058 +0.032 +0.044 +0.041 +0.137 +0.049 +0.045 +0.046 +0.045 +0.045 +0.059 +0.044 +0.040 +0.135 +0.038 +0.044 +0.058 +0.132 +0.041 +0.043 +0.044 +0.016 +0.040 +0.047 +0.139 +0.045 +0.049 +0.041 +0.041 +0.032
# oxidation-state N -0.147 -0.153 -0.127 -0.127
# oxidation-state Fe +0.083
# oxidation-state S +0.019 +0.133 -0.420 -0.395 +0.325 -0.263 +0.127 -0.368
# oxidation-state Na +0.668 +0.758


Dumping 'Na2S8@FeN4-vdw.fillings' ... done
Dumping 'Na2S8@FeN4-vdw.wfns' ... done
Dumping 'Na2S8@FeN4-vdw.ionpos' ... done
Dumping 'Na2S8@FeN4-vdw.eigenvals' ... done
End date and time: Wed Jan 15 21:25:24 2025  (Duration: 0-3:54:53.55)
Done!
