
*************** JDFTx 1.7.0  ***************

Start date and time: Wed Jan 15 17:30:30 2025
Executable jdftx_gpu with command-line: -i /home/akim2/JDFTx/Na2S6@FeN4-vdw/Na2S6@FeN4-vdw.in -o /home/akim2/JDFTx/Na2S6@FeN4-vdw/Na2S6@FeN4-vdw.out
Running on hosts (process indices):  exp-9-59 (0)
Divided in process groups (process indices):  0 (0)
gpuInit: Found compatible cuda device 0 'Tesla V100-SXM2-32GB'
gpuInit: Selected device 0
Resource initialization completed at t[s]:      0.70
Run totals: 1 processes, 1 threads, 1 GPUs


Input parsed successfully to the following command list (including defaults):

basis kpoint-dependent
coords-type Cartesian
core-overlap-check vector
coulomb-interaction Slab 001
coulomb-truncation-embed 0 0 5
davidson-band-ratio 1.1
dump End State
dump-name Na2S6@FeN4-vdw.$VAR
elec-cutoff 20 100
elec-eigen-algo Davidson
elec-ex-corr gga-PBE
elec-smearing Fermi 0.01
electronic-minimize  \
	dirUpdateScheme      FletcherReeves \
	linminMethod         DirUpdateRecommended \
	nIterations          100 \
	history              15 \
	knormThreshold       0 \
	energyDiffThreshold  1e-08 \
	nEnergyDiff          2 \
	alphaTstart          1 \
	alphaTmin            1e-10 \
	updateTestStepSize   yes \
	alphaTreduceFactor   0.1 \
	alphaTincreaseFactor 3 \
	nAlphaAdjustMax      3 \
	wolfeEnergy          0.0001 \
	wolfeGradient        0.9 \
	fdTest               no
electronic-scf  \
	nIterations	50 \
	energyDiffThreshold	1e-08 \
	residualThreshold	1e-07 \
	mixFraction	0.5 \
	qMetric	0.8 \
	history	10 \
	nEigSteps	2 \
	eigDiffThreshold	1e-08 \
	mixedVariable	Density \
	qKerker	0.8 \
	qKappa	-1 \
	verbose	no \
	mixFractionMag	1.5
exchange-regularization WignerSeitzTruncated
fluid None
fluid-ex-corr lda-TF lda-PZ
fluid-gummel-loop 10 1.000000e-05
fluid-minimize  \
	dirUpdateScheme      PolakRibiere \
	linminMethod         DirUpdateRecommended \
	nIterations          100 \
	history              15 \
	knormThreshold       0 \
	energyDiffThreshold  0 \
	nEnergyDiff          2 \
	alphaTstart          1 \
	alphaTmin            1e-10 \
	updateTestStepSize   yes \
	alphaTreduceFactor   0.1 \
	alphaTincreaseFactor 3 \
	nAlphaAdjustMax      3 \
	wolfeEnergy          0.0001 \
	wolfeGradient        0.9 \
	fdTest               no
fluid-solvent H2O 55.338 ScalarEOS \
	epsBulk 78.4 \
	pMol 0.92466 \
	epsInf 1.77 \
	Pvap 1.06736e-10 \
	sigmaBulk 4.62e-05 \
	Rvdw 2.61727 \
	Res 1.42 \
	tauNuc 343133 \
	poleEl 15 7 1
forces-output-coords Positions
ion C   0.000000000000000   0.000000000000000   1.000007321400000 0
ion C  -2.333835447300000   4.042302545699999   1.000007321400000 0
ion C  11.669120544600000  20.211531625799999   1.000007321400000 0
ion C   4.667689791900001   0.000000000000000   1.000007321400000 0
ion C  23.338297781100000   0.000000000000000   1.000007321400000 0
ion C   2.333816549999999   4.042302545699999   1.000007321400000 0
ion C -11.669158339200003  20.211531625799999   1.000007321400000 0
ion C  -4.667670894600000   8.084623988700001   1.000007321400000 0
ion C   9.335303994599997  16.169229080099999   1.000007321400000 0
ion C   9.335322891900001   0.000000000000000   1.000007321400000 0
ion C  18.670626886499999   0.000000000000000   1.000007321400000 0
ion C  -9.335322891900001  16.169229080099999   1.000007321400000 0
ion C  -7.001487444600000  12.126907637100000   1.000007321400000 0
ion C  14.002993786499999   0.000000000000000   1.000007321400000 0
ion C   0.000000000000000   8.084623988700001   1.000007321400000 0
ion C   7.001487444599997  20.211531625799999   1.000007321400000 0
ion C  -7.001487444600003  20.211531625799999   1.000007321400000 0
ion C  -2.333816549999999  12.126907637100000   1.000007321400000 0
ion C   4.667670894600002  16.169229080099999   1.000007321400000 0
ion C  -2.333816550000000  20.211531625799999   1.000007321400000 0
ion C   2.333816550000000  20.211531625799999   1.000007321400000 0
ion C  -4.667651997299997  16.169229080099999   1.000007321400000 0
ion C   7.001487444600000   4.042302545699999   1.000007321400000 0
ion C  21.004424539199999   4.042302545699999   1.000007321400000 0
ion C  14.002955991899999  16.169229080099999   1.000007321400000 0
ion C   0.000000000000000  16.169229080099999   1.000007321400000 0
ion C  11.669120544600000   4.042302545699999   1.000007321400000 0
ion C  18.670607989199997   8.084623988700001   1.000007321400000 0
ion C  11.669120544599998  12.126907637100000   1.000007321400000 0
ion C  16.336791439199999  12.126907637100000   1.000007321400000 0
ion C  16.336791439199999   4.042302545699999   1.000007321400000 0
ion C   9.335303994599997   8.084623988700001   1.000007321400000 0
ion C  14.002955991899999   8.084623988700001   1.000007321400000 0
ion C   0.000000000000000   2.694868363800000   1.000007321400000 0
ion C  11.669120544600000  22.906399989600001   1.000007321400000 0
ion C -11.669120544600000  22.906399989600001   1.000007321400000 0
ion C  -2.333816550000000   6.737170909500000   1.000007321400000 0
ion C   9.335303994599995  18.864097443900000   1.000007321400000 0
ion C  -7.001487444600000  22.906399989600001   1.000007321400000 0
ion C   7.001487444600000  22.906399989600001   1.000007321400000 0
ion C   2.333816550000000   6.737170909500000   1.000007321400000 0
ion C  -9.335303994599998  18.864097443900000   1.000007321400000 0
ion C  -4.667670894599998  10.779473455200000   1.000007321400000 0
ion C  -2.333816550000000  22.906399989600001   1.000007321400000 0
ion C   2.333816550000000  22.906399989600001   1.000007321400000 0
ion C  -7.001487444600003  14.821794898200000   1.000007321400000 0
ion C   4.667670894600000   2.694868363800000   1.000007321400000 0
ion C  23.338259986499999   2.694868363800000   1.000007321400000 0
ion C  14.002974889199999  18.864097443900000   1.000007321400000 0
ion C   0.000000000000000  10.779473455200000   1.000007321400000 0
ion C   4.667670894600001  18.864097443900000   1.000007321400000 0
ion C  -4.667633100000002  18.864097443900000   1.000007321400000 0
ion C  -2.333816550000002  14.821794898200000   1.000007321400000 0
ion C   2.333816549999996  14.821794898200000   1.000007321400000 0
ion C  -0.000000000000004  18.864097443900000   1.000007321400000 0
ion C   9.335303994599998   2.694868363800000   1.000007321400000 0
ion C  21.004424539199999   6.737170909500000   1.000007321400000 0
ion C  11.669120544600000  14.821794898200000   1.000007321400000 0
ion C  16.336791439199999  14.821794898200000   1.000007321400000 0
ion C  18.670607989199997   2.694868363800000   1.000007321400000 0
ion C   7.001487444600001   6.737170909500000   1.000007321400000 0
ion C  14.002955991899999   2.694868363800000   1.000007321400000 0
ion C  18.670607989200004  10.779473455200000   1.000007321400000 0
ion C  11.669120544599998   6.737170909500000   1.000007321400000 0
ion C  16.336791439199999   6.737170909500000   1.000007321400000 0
ion C  14.002955991899999  10.779473455200000   1.000007321400000 0
ion N   4.667670894599999   8.084623988700001   1.000007321400000 0
ion N   2.333816549999999  12.126907637100000   1.000007321400000 0
ion N   7.001487444599997  14.821794898200000   1.000007321400000 0
ion N   9.335303994599997  10.779473455200000   1.000007321400000 0
ion Fe   5.837111407799997  11.454314935499999   1.000007321400000 0
ion S   0.972514686328656  10.280029133119969  10.978440437176102 1
ion S   3.681247965627498  12.869330513075642  11.114906222772364 1
ion S   4.133043418746228  14.621883535381638   7.767910980955014 1
ion S   7.572771482429999   8.159403449824440   7.652828678714473 1
ion S   8.078401124558020   9.811647685871222  11.042511241251466 1
ion S  10.770125004560008  12.420687714590761  10.937725384969188 1
ion Na   2.697100092660198   9.801905612606184   6.039595816369336 1
ion Na   8.977703302300373  13.027807243984991   6.034508422101376 1
ion-species GBRV/$ID_pbe.uspp
ion-width 0
ionic-minimize  \
	dirUpdateScheme      FletcherReeves \
	linminMethod         DirUpdateRecommended \
	nIterations          200 \
	history              15 \
	knormThreshold       0.0001 \
	energyDiffThreshold  1e-06 \
	nEnergyDiff          2 \
	alphaTstart          1 \
	alphaTmin            1e-10 \
	updateTestStepSize   yes \
	alphaTreduceFactor   0.1 \
	alphaTincreaseFactor 3 \
	nAlphaAdjustMax      3 \
	wolfeEnergy          0.0001 \
	wolfeGradient        0.9 \
	fdTest               no
kpoint   0.000000000000   0.000000000000   0.000000000000  1.00000000000000
kpoint-folding 1 1 1 
latt-move-scale 1 1 1
latt-scale 1 1 1 
lattice Triclinic 28.0058 28.0058 37.7946 90 90 120
lattice-minimize  \
	dirUpdateScheme      L-BFGS \
	linminMethod         DirUpdateRecommended \
	nIterations          0 \
	history              15 \
	knormThreshold       0 \
	energyDiffThreshold  1e-06 \
	nEnergyDiff          2 \
	alphaTstart          1 \
	alphaTmin            1e-10 \
	updateTestStepSize   yes \
	alphaTreduceFactor   0.1 \
	alphaTincreaseFactor 3 \
	nAlphaAdjustMax      3 \
	wolfeEnergy          0.0001 \
	wolfeGradient        0.9 \
	fdTest               no
lcao-params -1 1e-06 0.01
pcm-variant GLSSA13
spintype no-spin
subspace-rotation-factor 1 yes
symmetries automatic
symmetry-threshold 0.0001
van-der-waals D3



---------- Setting up symmetries ----------

Found 24 point-group symmetries of the bravais lattice
Found 1 space-group symmetries with basis
Applied RMS atom displacement 0 bohrs to make symmetries exact.

---------- Initializing the Grid ----------
R = 
[      28.0058     -14.0029            0  ]
[            0      24.2537            0  ]
[            0            0      37.7946  ]
unit cell volume = 25671.8
G =
[   0.224353    0.12953         -0  ]
[          0   0.259061          0  ]
[          0         -0   0.166246  ]
Minimum fftbox size, Smin = [  128  128  172  ]
Chosen fftbox size, S = [  128  128  180  ]

---------- Initializing tighter grid for wavefunction operations ----------
R = 
[      28.0058     -14.0029            0  ]
[            0      24.2537            0  ]
[            0            0      37.7946  ]
unit cell volume = 25671.8
G =
[   0.224353    0.12953         -0  ]
[          0   0.259061          0  ]
[          0         -0   0.166246  ]
Minimum fftbox size, Smin = [  116  116  156  ]
Chosen fftbox size, S = [  120  120  160  ]

---------- Exchange Correlation functional ----------
Initalized PBE GGA exchange.
Initalized PBE GGA correlation.

---------- Setting up pseudopotentials ----------
Width of ionic core gaussian charges (only for fluid interactions / plotting) set to 0

Reading pseudopotential file '/home/akim2/jdftx_install/build/pseudopotentials/GBRV/c_pbe.uspp':
  Title: C.  Created by USPP 7.3.6 on 3-2-2014
  Reference state energy: -5.406344.  4 valence electrons in orbitals:
    |200>  occupation: 2  eigenvalue: -0.504890
    |210>  occupation: 2  eigenvalue: -0.194356
  lMax: 1  lLocal: 2  QijEcut: 5
  4 projectors sampled on a log grid with 503 points:
    l: 0  eig: -0.504890  rCut: 1.3
    l: 0  eig: 0.000000  rCut: 1.3
    l: 1  eig: -0.194357  rCut: 1.3
    l: 1  eig: 0.000000  rCut: 1.3
  Partial core density with radius 1.1
  Transforming core density to a uniform radial grid of dG=0.02 with 1625 points.
  Transforming local potential to a uniform radial grid of dG=0.02 with 1625 points.
  Transforming nonlocal projectors to a uniform radial grid of dG=0.02 with 432 points.
  Transforming density augmentations to a uniform radial grid of dG=0.02 with 1625 points.
  Transforming atomic orbitals to a uniform radial grid of dG=0.02 with 432 points.
  Core radius for overlap checks: 1.30 bohrs.

Reading pseudopotential file '/home/akim2/jdftx_install/build/pseudopotentials/GBRV/n_pbe.uspp':
  Title: N.  Created by USPP 7.3.6 on 3-2-2014
  Reference state energy: -9.763716.  5 valence electrons in orbitals:
    |200>  occupation: 2  eigenvalue: -0.681964
    |210>  occupation: 3  eigenvalue: -0.260726
  lMax: 1  lLocal: 2  QijEcut: 6
  4 projectors sampled on a log grid with 491 points:
    l: 0  eig: -0.681964  rCut: 1.15
    l: 0  eig: 0.000000  rCut: 1.15
    l: 1  eig: -0.260729  rCut: 1.2
    l: 1  eig: 0.500000  rCut: 1.2
  Partial core density with radius 0.8
  Transforming core density to a uniform radial grid of dG=0.02 with 1625 points.
  Transforming local potential to a uniform radial grid of dG=0.02 with 1625 points.
  Transforming nonlocal projectors to a uniform radial grid of dG=0.02 with 432 points.
  Transforming density augmentations to a uniform radial grid of dG=0.02 with 1625 points.
  Transforming atomic orbitals to a uniform radial grid of dG=0.02 with 432 points.
  Core radius for overlap checks: 1.20 bohrs.

Reading pseudopotential file '/home/akim2/jdftx_install/build/pseudopotentials/GBRV/fe_pbe.uspp':
  Title: Fe.  Created by USPP 7.3.6 on 15-6-15
  Reference state energy: -124.316937.  16 valence electrons in orbitals:
    |300>  occupation: 2  eigenvalue: -4.008817
    |310>  occupation: 6  eigenvalue: -2.753096
    |320>  occupation: 5  eigenvalue: -0.791264
    |400>  occupation: 2  eigenvalue: -0.516384
    |410>  occupation: 0  eigenvalue: -0.312222
  lMax: 2  lLocal: 3  QijEcut: 6
  6 projectors sampled on a log grid with 607 points:
    l: 0  eig: -4.008819  rCut: 1.55
    l: 0  eig: -0.516386  rCut: 1.55
    l: 1  eig: -2.753096  rCut: 1.55
    l: 1  eig: -0.312226  rCut: 1.55
    l: 2  eig: -0.791264  rCut: 1.65
    l: 2  eig: -0.450000  rCut: 1.65
  Partial core density with radius 0.65
  Transforming core density to a uniform radial grid of dG=0.02 with 1625 points.
  Transforming local potential to a uniform radial grid of dG=0.02 with 1625 points.
  Transforming nonlocal projectors to a uniform radial grid of dG=0.02 with 432 points.
  Transforming density augmentations to a uniform radial grid of dG=0.02 with 1625 points.
  Transforming atomic orbitals to a uniform radial grid of dG=0.02 with 432 points.
  Core radius for overlap checks: 1.65 bohrs.

Reading pseudopotential file '/home/akim2/jdftx_install/build/pseudopotentials/GBRV/s_pbe.uspp':
  Title: S.  Created by USPP 7.3.6 on 1-4-15
  Reference state energy: -11.898476.  6 valence electrons in orbitals:
    |300>  occupation: 2  eigenvalue: -0.634167
    |310>  occupation: 4  eigenvalue: -0.257568
  lMax: 2  lLocal: 3  QijEcut: 6
  6 projectors sampled on a log grid with 635 points:
    l: 0  eig: -0.634161  rCut: 1.5
    l: 0  eig: 1.500000  rCut: 1.5
    l: 1  eig: -0.257567  rCut: 1.5
    l: 1  eig: 1.500000  rCut: 1.5
    l: 2  eig: -1.000000  rCut: 1.5
    l: 2  eig: 1.500000  rCut: 1.5
  Partial core density with radius 1.15
  Transforming core density to a uniform radial grid of dG=0.02 with 1625 points.
  Transforming local potential to a uniform radial grid of dG=0.02 with 1625 points.
  Transforming nonlocal projectors to a uniform radial grid of dG=0.02 with 432 points.
  Transforming density augmentations to a uniform radial grid of dG=0.02 with 1625 points.
  Transforming atomic orbitals to a uniform radial grid of dG=0.02 with 432 points.
  Core radius for overlap checks: 1.50 bohrs.

Reading pseudopotential file '/home/akim2/jdftx_install/build/pseudopotentials/GBRV/na_pbe.uspp':
  Title: Na.  Created by USPP 7.3.6 on 23-9-15
  Reference state energy: -47.625620.  9 valence electrons in orbitals:
    |200>  occupation: 2  eigenvalue: -2.085638
    |210>  occupation: 6  eigenvalue: -1.053708
    |300>  occupation: 1  eigenvalue: -0.100838
  lMax: 2  lLocal: 0  QijEcut: 6
  5 projectors sampled on a log grid with 657 points:
    l: 0  eig: -2.085640  rCut: 1.37
    l: 0  eig: -0.100839  rCut: 1.37
    l: 1  eig: -1.053708  rCut: 1.47
    l: 1  eig: 0.500000  rCut: 1.47
    l: 2  eig: 0.750000  rCut: 2
  Transforming local potential to a uniform radial grid of dG=0.02 with 1625 points.
  Transforming nonlocal projectors to a uniform radial grid of dG=0.02 with 432 points.
  Transforming density augmentations to a uniform radial grid of dG=0.02 with 1625 points.
  Transforming atomic orbitals to a uniform radial grid of dG=0.02 with 432 points.
  Core radius for overlap checks: 2.00 bohrs.

Initialized 5 species with 79 total atoms.

Folded 1 k-points by 1x1x1 to 1 k-points.

---------- Setting up k-points, bands, fillings ----------
No reducable k-points. 
Computing the number of bands and number of electrons
Calculating initial fillings.
nElectrons: 354.000000   nBands: 327   nStates: 1

----- Setting up reduced wavefunction bases (one per k-point) -----
average nbasis = 109673.000 , ideal nbasis = 109671.883

---------- Setting up coulomb interaction ----------
Setting up double-sized grid for truncated Coulomb potentials:
R = 
[      28.0058     -14.0029            0  ]
[            0      24.2537            0  ]
[            0            0      75.5892  ]
unit cell volume = 51343.6
G =
[   0.224353    0.12953         -0  ]
[          0   0.259061          0  ]
[          0         -0  0.0831228  ]
Chosen fftbox size, S = [  128  128  360  ]
Integer grid location selected as the embedding center:
   Grid: [  0  0  24  ]
   Lattice: [  0  0  0.132294  ]
   Cartesian: [  0  0  5  ]
Constructing Wigner-Seitz cell: 8 faces (6 quadrilaterals, 2 hexagons)
Range-separation parameter for embedded mesh potentials due to point charges: 0.590105 bohrs.
Initialized slab truncation along lattice direction 001

Initializing DFT-D3 calculator:
	Parameters set for gga-PBE functional
	s6:  1.000  s_r6:  1.217
	s8:  0.722  s_r8:  1.000
	Per-atom parameters loaded for:
	 C:  sqrtQ[a0]:  3.105  Rcov[a0]:  1.417  CN: [ 0.00 0.99 2.00 3.00 3.98 ]
	 N:  sqrtQ[a0]:  2.712  Rcov[a0]:  1.342  CN: [ 0.00 0.99 2.01 2.99 ]
	Fe:  sqrtQ[a0]:  5.584  Rcov[a0]:  1.965  CN: [ 0.00 1.65 9.14 ]
	 S:  sqrtQ[a0]:  4.041  Rcov[a0]:  1.928  CN: [ 0.00 0.99 1.99 ]
	Na:  sqrtQ[a0]:  6.586  Rcov[a0]:  2.646  CN: [ 0.00 0.97 ]

---------- Setting up 2D ewald sum ----------
Optimum gaussian width for ewald sums = 15.547689 bohr.
Real space sums over 289 unit cells with max indices [  8  8  0  ]
Reciprocal space sums over 81 terms with max indices [  4  4  0  ]

Computing DFT-D3 correction:
# coordination-number C 3.300 3.301 3.301 3.300 3.300 3.296 3.300 3.301 3.470 3.300 3.300 3.300 3.300 3.300 3.457 3.300 3.300 3.299 3.495 3.300 3.300 3.300 3.291 3.300 3.307 3.292 3.300 3.300 3.543 3.301 3.300 3.503 3.300 3.301 3.300 3.300 3.308 3.296 3.300 3.300 3.484 3.300 3.301 3.300 3.300 3.300 3.300 3.300 3.301 3.533 3.291 3.300 3.300 3.499 3.300 3.300 3.300 3.451 3.301 3.300 3.496 3.300 3.300 3.292 3.300 3.300
# coordination-number N 3.419 3.483 3.408 3.506
# coordination-number Fe 6.006
# coordination-number S 2.003 2.986 2.904 2.905 2.979 2.003
# coordination-number Na 5.692 5.708
# diagonal-C6 C 24.28 24.27 24.27 24.28 24.28 24.32 24.28 24.27 22.10 24.28 24.28 24.28 24.28 24.28 22.29 24.29 24.29 24.29 21.72 24.28 24.28 24.28 24.36 24.28 24.21 24.36 24.28 24.28 21.01 24.27 24.28 21.59 24.28 24.27 24.28 24.28 24.21 24.32 24.28 24.28 21.89 24.28 24.27 24.28 24.28 24.28 24.28 24.28 24.27 21.15 24.37 24.28 24.28 21.65 24.28 24.28 24.28 22.37 24.27 24.29 21.70 24.28 24.28 24.36 24.28 24.29
# diagonal-C6 N 15.58 15.58 15.58 15.58
# diagonal-C6 Fe 109.50
# diagonal-C6 S 125.90 125.81 125.81 125.81 125.81 125.90
# diagonal-C6 Na 186.11 186.11
EvdW_6 =   -0.066209
EvdW_8 =   -0.062118

---------- Allocating electronic variables ----------
Initializing wave functions:  linear combination of atomic orbitals
C pseudo-atom occupations:   s ( 2 )  p ( 2 )
N pseudo-atom occupations:   s ( 2 )  p ( 3 )
Fe pseudo-atom occupations:   s ( 2 0 )  p ( 6 0 )  d ( 8 )
S pseudo-atom occupations:   s ( 2 )  p ( 4 )
Na pseudo-atom occupations:   s ( 2 1 )  p ( 6 )
	FillingsUpdate:  mu: -0.267627502  nElectrons: 354.000000
LCAOMinimize: Iter:   0  F: -676.8599845681508214  |grad|_K:  2.375e-02  alpha:  1.000e+00
	FillingsUpdate:  mu: -0.308225294  nElectrons: 354.000000
LCAOMinimize: Iter:   1  F: -681.5276763593863052  |grad|_K:  1.317e-02  alpha:  1.290e-01  linmin: -1.652e-01  cgtest:  9.822e-01  t[s]:     11.30
LCAOMinimize: Encountered beta<0, resetting CG.
LCAOMinimize: 	Wrong curvature in test step, increasing alphaT to 3.870203e-01.
	FillingsUpdate:  mu: -0.016476952  nElectrons: 354.000000
LCAOMinimize: Iter:   2  F: -685.9738823399709418  |grad|_K:  6.174e-02  alpha: -7.627e-02  linmin:  2.308e-01  cgtest: -1.581e-01  t[s]:     12.87
LCAOMinimize: 	Bad step direction: g.d > 0.
LCAOMinimize: 	Undoing step.
LCAOMinimize: 	Step failed: resetting search direction.
	FillingsUpdate:  mu: -0.016476952  nElectrons: 354.000000
LCAOMinimize: Iter:   3  F: -685.9738823399709418  |grad|_K:  6.174e-02  alpha:  0.000e+00
LCAOMinimize: 	Step increased F by 2.936903e+01, reducing alpha to 3.067626e-02.
	FillingsUpdate:  mu: -0.194278120  nElectrons: 354.000000
LCAOMinimize: Iter:   4  F: -691.9585450224191163  |grad|_K:  2.806e-02  alpha:  3.068e-02  linmin: -3.644e-01  cgtest:  9.769e-01  t[s]:     16.80
LCAOMinimize: Encountered beta<0, resetting CG.
	FillingsUpdate:  mu: -0.276206708  nElectrons: 354.000000
LCAOMinimize: Iter:   5  F: -693.2562393312304039  |grad|_K:  1.762e-02  alpha:  3.075e-02  linmin:  3.413e-01  cgtest: -5.911e-01  t[s]:     18.44
LCAOMinimize: 	Bad step direction: g.d > 0.
LCAOMinimize: 	Undoing step.
LCAOMinimize: 	Step failed: resetting search direction.
	FillingsUpdate:  mu: -0.276206708  nElectrons: 354.000000
LCAOMinimize: Iter:   6  F: -693.2562393312304039  |grad|_K:  1.762e-02  alpha:  0.000e+00
	FillingsUpdate:  mu: -0.246657597  nElectrons: 354.000000
LCAOMinimize: Iter:   7  F: -693.5722879585059673  |grad|_K:  4.384e-03  alpha:  1.931e-02  linmin:  2.009e-02  cgtest: -7.591e-02  t[s]:     21.24
LCAOMinimize: 	Predicted alpha/alphaT>3.000000, increasing alphaT to 5.794076e-02.
LCAOMinimize: 	Predicted alpha/alphaT>3.000000, increasing alphaT to 1.738223e-01.
	FillingsUpdate:  mu: -0.265146424  nElectrons: 354.000000
LCAOMinimize: Iter:   8  F: -693.7709992971099382  |grad|_K:  1.890e-03  alpha:  1.993e-01  linmin:  3.675e-02  cgtest:  7.652e-02  t[s]:     23.84
	FillingsUpdate:  mu: -0.291694495  nElectrons: 354.000000
LCAOMinimize: Iter:   9  F: -693.7758858483205131  |grad|_K:  1.206e-03  alpha:  2.538e-02  linmin: -2.614e-02  cgtest:  2.103e-01  t[s]:     25.47
LCAOMinimize: 	Predicted alpha/alphaT>3.000000, increasing alphaT to 7.615446e-02.
	FillingsUpdate:  mu: -0.273080668  nElectrons: 354.000000
LCAOMinimize: Iter:  10  F: -693.7876360414040846  |grad|_K:  9.992e-04  alpha:  1.498e-01  linmin:  1.770e-02  cgtest: -2.981e-01  t[s]:     27.60
	FillingsUpdate:  mu: -0.287932633  nElectrons: 354.000000
LCAOMinimize: Iter:  11  F: -693.7892313270073146  |grad|_K:  7.113e-04  alpha:  3.174e-02  linmin: -7.301e-03  cgtest:  2.495e-01  t[s]:     29.23
LCAOMinimize: 	Predicted alpha/alphaT>3.000000, increasing alphaT to 9.521422e-02.
	FillingsUpdate:  mu: -0.277810796  nElectrons: 354.000000
LCAOMinimize: Iter:  12  F: -693.7921830210359531  |grad|_K:  4.825e-04  alpha:  1.055e-01  linmin: -1.005e-03  cgtest: -1.961e-01  t[s]:     31.36
	FillingsUpdate:  mu: -0.286339838  nElectrons: 354.000000
LCAOMinimize: Iter:  13  F: -693.7927409505591640  |grad|_K:  4.771e-04  alpha:  4.421e-02  linmin: -8.887e-05  cgtest: -1.772e-02  t[s]:     33.02
	FillingsUpdate:  mu: -0.281686499  nElectrons: 354.000000
LCAOMinimize: Iter:  14  F: -693.7941866355878346  |grad|_K:  2.518e-04  alpha:  1.205e-01  linmin:  8.159e-03  cgtest: -6.651e-02  t[s]:     34.66
	FillingsUpdate:  mu: -0.286404954  nElectrons: 354.000000
LCAOMinimize: Iter:  15  F: -693.7944057492170487  |grad|_K:  2.892e-04  alpha:  6.715e-02  linmin: -2.157e-05  cgtest:  3.983e-02  t[s]:     36.30
	FillingsUpdate:  mu: -0.282365668  nElectrons: 354.000000
LCAOMinimize: Iter:  16  F: -693.7946116383596973  |grad|_K:  1.619e-04  alpha:  4.549e-02  linmin:  4.514e-05  cgtest: -5.858e-02  t[s]:     37.94
	FillingsUpdate:  mu: -0.284418738  nElectrons: 354.000000
LCAOMinimize: Iter:  17  F: -693.7947448085265023  |grad|_K:  1.319e-04  alpha:  9.418e-02  linmin: -9.360e-04  cgtest:  6.884e-03  t[s]:     39.58
	FillingsUpdate:  mu: -0.282382574  nElectrons: 354.000000
LCAOMinimize: Iter:  18  F: -693.7947733316867698  |grad|_K:  6.768e-05  alpha:  3.027e-02  linmin:  8.122e-05  cgtest: -2.275e-02  t[s]:     41.23
	FillingsUpdate:  mu: -0.283120390  nElectrons: 354.000000
LCAOMinimize: Iter:  19  F: -693.7947908174860459  |grad|_K:  4.547e-05  alpha:  7.096e-02  linmin: -2.250e-04  cgtest:  7.366e-03  t[s]:     43.08
	FillingsUpdate:  mu: -0.282187732  nElectrons: 354.000000
LCAOMinimize: Iter:  20  F: -693.7947984056181667  |grad|_K:  5.602e-05  alpha:  6.816e-02  linmin: -1.205e-04  cgtest: -1.360e-03  t[s]:     44.73
	FillingsUpdate:  mu: -0.283035599  nElectrons: 354.000000
LCAOMinimize: Iter:  21  F: -693.7948080836408735  |grad|_K:  2.754e-05  alpha:  5.721e-02  linmin:  3.498e-04  cgtest: -6.747e-03  t[s]:     46.40
	FillingsUpdate:  mu: -0.282665171  nElectrons: 354.000000
LCAOMinimize: Iter:  22  F: -693.7948106578114675  |grad|_K:  2.352e-05  alpha:  6.319e-02  linmin:  2.876e-05  cgtest:  2.638e-03  t[s]:     48.05
	FillingsUpdate:  mu: -0.283049825  nElectrons: 354.000000
LCAOMinimize: Iter:  23  F: -693.7948117818541505  |grad|_K:  1.544e-05  alpha:  3.777e-02  linmin: -3.305e-06  cgtest: -1.332e-04  t[s]:     49.69
LCAOMinimize: 	Predicted alpha/alphaT>3.000000, increasing alphaT to 1.133224e-01.
	FillingsUpdate:  mu: -0.282785867  nElectrons: 354.000000
LCAOMinimize: Iter:  24  F: -693.7948137300592180  |grad|_K:  1.949e-05  alpha:  1.520e-01  linmin:  3.826e-05  cgtest:  2.274e-04  t[s]:     51.80
	FillingsUpdate:  mu: -0.283106792  nElectrons: 354.000000
LCAOMinimize: Iter:  25  F: -693.7948145712816768  |grad|_K:  1.461e-05  alpha:  4.124e-02  linmin:  1.452e-04  cgtest: -1.028e-03  t[s]:     53.44
	FillingsUpdate:  mu: -0.282915809  nElectrons: 354.000000
LCAOMinimize: Iter:  26  F: -693.7948152523396175  |grad|_K:  7.242e-06  alpha:  5.940e-02  linmin: -3.256e-05  cgtest:  2.984e-03  t[s]:     55.08
LCAOMinimize: Converged (|Delta F|<1.000000e-06 for 2 iters).


---- Citations for features of the code used in this run ----

   Software package:
      R. Sundararaman, K. Letchworth-Weaver, K.A. Schwarz, D. Gunceler, Y. Ozhabes and T.A. Arias, 'JDFTx: software for joint density-functional theory', SoftwareX 6, 278 (2017)

   gga-PBE exchange-correlation functional:
      J.P. Perdew, K. Burke and M. Ernzerhof, Phys. Rev. Lett. 77, 3865 (1996)

   Pseudopotentials:
      KF Garrity, JW Bennett, KM Rabe and D Vanderbilt, Comput. Mater. Sci. 81, 446 (2014)

   Truncated Coulomb potentials:
      R. Sundararaman and T.A. Arias, Phys. Rev. B 87, 165122 (2013)

   DFT-D3 dispersion correction:
      S. Grimme, J. Antony, S. Ehrlich and H. Krieg, J. Chem. Phys. 132, 154104 (2010)

This list may not be complete. Please suggest additional citations or
report any other bugs at https://github.com/shankar1729/jdftx/issues

Initialization completed successfully at t[s]:     55.28


Computing DFT-D3 correction:
# coordination-number C 3.300 3.301 3.301 3.300 3.300 3.296 3.300 3.301 3.470 3.300 3.300 3.300 3.300 3.300 3.457 3.300 3.300 3.299 3.495 3.300 3.300 3.300 3.291 3.300 3.307 3.292 3.300 3.300 3.543 3.301 3.300 3.503 3.300 3.301 3.300 3.300 3.308 3.296 3.300 3.300 3.484 3.300 3.301 3.300 3.300 3.300 3.300 3.300 3.301 3.533 3.291 3.300 3.300 3.499 3.300 3.300 3.300 3.451 3.301 3.300 3.496 3.300 3.300 3.292 3.300 3.300
# coordination-number N 3.419 3.483 3.408 3.506
# coordination-number Fe 6.006
# coordination-number S 2.003 2.986 2.904 2.905 2.979 2.003
# coordination-number Na 5.692 5.708
# diagonal-C6 C 24.28 24.27 24.27 24.28 24.28 24.32 24.28 24.27 22.10 24.28 24.28 24.28 24.28 24.28 22.29 24.29 24.29 24.29 21.72 24.28 24.28 24.28 24.36 24.28 24.21 24.36 24.28 24.28 21.01 24.27 24.28 21.59 24.28 24.27 24.28 24.28 24.21 24.32 24.28 24.28 21.89 24.28 24.27 24.28 24.28 24.28 24.28 24.28 24.27 21.15 24.37 24.28 24.28 21.65 24.28 24.28 24.28 22.37 24.27 24.29 21.70 24.28 24.28 24.36 24.28 24.29
# diagonal-C6 N 15.58 15.58 15.58 15.58
# diagonal-C6 Fe 109.50
# diagonal-C6 S 125.90 125.81 125.81 125.81 125.81 125.90
# diagonal-C6 Na 186.11 186.11
EvdW_6 =   -0.066209
EvdW_8 =   -0.062118

-------- Electronic minimization -----------
Will mix electronic density at each iteration.
	FillingsUpdate:  mu: -0.282915809  nElectrons: 354.000000
	FillingsUpdate:  mu: -0.296095108  nElectrons: 354.000000
SCF: Cycle:  0   F: -697.393093154041935   dF: -3.598e+00   |Residual|: 9.998e-01   |deigs|: 1.190e-01  t[s]:     61.86
	FillingsUpdate:  mu: -0.279632833  nElectrons: 354.000000
SCF: Cycle:  1   F: -696.686171950281050   dF: +7.069e-01   |Residual|: 7.702e-01   |deigs|: 3.169e-02  t[s]:     65.33
	FillingsUpdate:  mu: -0.228020329  nElectrons: 354.000000
SCF: Cycle:  2   F: -686.255859012954716   dF: +1.043e+01   |Residual|: 1.988e+00   |deigs|: 3.509e-02  t[s]:     68.78
	FillingsUpdate:  mu: -0.245622765  nElectrons: 354.000000
SCF: Cycle:  3   F: -698.094749820887614   dF: -1.184e+01   |Residual|: 2.256e-01   |deigs|: 3.006e-02  t[s]:     72.24
	FillingsUpdate:  mu: -0.234144280  nElectrons: 354.000000
SCF: Cycle:  4   F: -698.336996490663637   dF: -2.422e-01   |Residual|: 1.975e-01   |deigs|: 7.268e-03  t[s]:     75.70
	FillingsUpdate:  mu: -0.235381107  nElectrons: 354.000000
SCF: Cycle:  5   F: -697.833550866993619   dF: +5.034e-01   |Residual|: 4.077e-01   |deigs|: 5.962e-03  t[s]:     79.15
	FillingsUpdate:  mu: -0.226125187  nElectrons: 354.000000
SCF: Cycle:  6   F: -698.363073396973050   dF: -5.295e-01   |Residual|: 1.251e-01   |deigs|: 6.140e-03  t[s]:     82.62
	FillingsUpdate:  mu: -0.219199020  nElectrons: 354.000000
SCF: Cycle:  7   F: -698.367615735693221   dF: -4.542e-03   |Residual|: 1.338e-01   |deigs|: 6.395e-03  t[s]:     86.07
	FillingsUpdate:  mu: -0.212088376  nElectrons: 354.000000
SCF: Cycle:  8   F: -698.399241147484759   dF: -3.163e-02   |Residual|: 8.631e-02   |deigs|: 4.346e-03  t[s]:     89.54
	FillingsUpdate:  mu: -0.211727126  nElectrons: 354.000000
SCF: Cycle:  9   F: -698.314428408968638   dF: +8.481e-02   |Residual|: 1.812e-01   |deigs|: 4.075e-03  t[s]:     93.02
	FillingsUpdate:  mu: -0.206385732  nElectrons: 354.000000
SCF: Cycle: 10   F: -698.426325360921510   dF: -1.119e-01   |Residual|: 1.627e-02   |deigs|: 3.328e-03  t[s]:     96.50
	FillingsUpdate:  mu: -0.203556654  nElectrons: 354.000000
SCF: Cycle: 11   F: -698.420450526806235   dF: +5.875e-03   |Residual|: 4.409e-02   |deigs|: 3.913e-03  t[s]:     99.66
	FillingsUpdate:  mu: -0.200544933  nElectrons: 354.000000
SCF: Cycle: 12   F: -698.427321499916957   dF: -6.871e-03   |Residual|: 8.838e-03   |deigs|: 2.453e-03  t[s]:    102.69
	FillingsUpdate:  mu: -0.197646132  nElectrons: 354.000000
SCF: Cycle: 13   F: -698.426458539925534   dF: +8.630e-04   |Residual|: 1.328e-02   |deigs|: 2.918e-03  t[s]:    105.73
	FillingsUpdate:  mu: -0.195166687  nElectrons: 354.000000
SCF: Cycle: 14   F: -698.423748201373883   dF: +2.710e-03   |Residual|: 2.689e-02   |deigs|: 2.493e-03  t[s]:    108.69
	FillingsUpdate:  mu: -0.189678684  nElectrons: 354.000000
SCF: Cycle: 15   F: -698.425305156863942   dF: -1.557e-03   |Residual|: 2.483e-02   |deigs|: 4.672e-03  t[s]:    111.64
	FillingsUpdate:  mu: -0.187859615  nElectrons: 354.000000
SCF: Cycle: 16   F: -698.427076049657330   dF: -1.771e-03   |Residual|: 6.964e-03   |deigs|: 2.156e-03  t[s]:    114.59
	FillingsUpdate:  mu: -0.183735556  nElectrons: 354.000000
SCF: Cycle: 17   F: -698.427746695044448   dF: -6.706e-04   |Residual|: 3.879e-03   |deigs|: 4.502e-03  t[s]:    117.54
	FillingsUpdate:  mu: -0.181534074  nElectrons: 354.000000
SCF: Cycle: 18   F: -698.427926752243593   dF: -1.801e-04   |Residual|: 6.161e-03   |deigs|: 2.503e-03  t[s]:    120.47
	FillingsUpdate:  mu: -0.179699865  nElectrons: 354.000000
SCF: Cycle: 19   F: -698.428132612829472   dF: -2.059e-04   |Residual|: 2.833e-03   |deigs|: 1.676e-03  t[s]:    123.41
	FillingsUpdate:  mu: -0.176985483  nElectrons: 354.000000
SCF: Cycle: 20   F: -698.428201021303948   dF: -6.841e-05   |Residual|: 2.360e-03   |deigs|: 2.287e-03  t[s]:    126.35
	FillingsUpdate:  mu: -0.175834759  nElectrons: 354.000000
SCF: Cycle: 21   F: -698.428202079384619   dF: -1.058e-06   |Residual|: 2.020e-03   |deigs|: 1.052e-03  t[s]:    129.30
	FillingsUpdate:  mu: -0.173625746  nElectrons: 354.000000
SCF: Cycle: 22   F: -698.428216066039681   dF: -1.399e-05   |Residual|: 1.424e-03   |deigs|: 2.427e-03  t[s]:    132.32
	FillingsUpdate:  mu: -0.172670873  nElectrons: 354.000000
SCF: Cycle: 23   F: -698.428229830908663   dF: -1.376e-05   |Residual|: 1.073e-03   |deigs|: 1.247e-03  t[s]:    135.29
	FillingsUpdate:  mu: -0.172047526  nElectrons: 354.000000
SCF: Cycle: 24   F: -698.428234497385233   dF: -4.666e-06   |Residual|: 9.108e-04   |deigs|: 8.885e-04  t[s]:    138.25
	FillingsUpdate:  mu: -0.171874824  nElectrons: 354.000000
SCF: Cycle: 25   F: -698.428233760679518   dF: +7.367e-07   |Residual|: 1.150e-03   |deigs|: 5.140e-04  t[s]:    141.18
	FillingsUpdate:  mu: -0.171838883  nElectrons: 354.000000
SCF: Cycle: 26   F: -698.428238916210830   dF: -5.156e-06   |Residual|: 5.395e-04   |deigs|: 2.153e-04  t[s]:    144.13
	FillingsUpdate:  mu: -0.171874418  nElectrons: 354.000000
SCF: Cycle: 27   F: -698.428238708959839   dF: +2.073e-07   |Residual|: 3.615e-04   |deigs|: 5.241e-04  t[s]:    147.08
	FillingsUpdate:  mu: -0.171826338  nElectrons: 354.000000
SCF: Cycle: 28   F: -698.428239021267586   dF: -3.123e-07   |Residual|: 3.014e-04   |deigs|: 2.713e-04  t[s]:    150.02
	FillingsUpdate:  mu: -0.171828351  nElectrons: 354.000000
SCF: Cycle: 29   F: -698.428239686587176   dF: -6.653e-07   |Residual|: 5.797e-04   |deigs|: 1.294e-04  t[s]:    152.97
	FillingsUpdate:  mu: -0.171858469  nElectrons: 354.000000
SCF: Cycle: 30   F: -698.428242103466118   dF: -2.417e-06   |Residual|: 2.918e-04   |deigs|: 1.978e-04  t[s]:    155.93
	FillingsUpdate:  mu: -0.171865399  nElectrons: 354.000000
SCF: Cycle: 31   F: -698.428242591370463   dF: -4.879e-07   |Residual|: 1.303e-04   |deigs|: 3.350e-04  t[s]:    174.29
	FillingsUpdate:  mu: -0.171829148  nElectrons: 354.000000
SCF: Cycle: 32   F: -698.428242599200644   dF: -7.830e-09   |Residual|: 1.521e-04   |deigs|: 2.963e-04  t[s]:    177.23
	FillingsUpdate:  mu: -0.171755868  nElectrons: 354.000000
SCF: Cycle: 33   F: -698.428242702390662   dF: -1.032e-07   |Residual|: 6.510e-05   |deigs|: 3.292e-04  t[s]:    180.25
	FillingsUpdate:  mu: -0.171728740  nElectrons: 354.000000
SCF: Cycle: 34   F: -698.428242721549509   dF: -1.916e-08   |Residual|: 4.965e-05   |deigs|: 1.131e-04  t[s]:    183.19
	FillingsUpdate:  mu: -0.171738215  nElectrons: 354.000000
SCF: Cycle: 35   F: -698.428242733305979   dF: -1.176e-08   |Residual|: 3.208e-05   |deigs|: 5.094e-05  t[s]:    186.16
	FillingsUpdate:  mu: -0.171752542  nElectrons: 354.000000
SCF: Cycle: 36   F: -698.428242739264078   dF: -5.958e-09   |Residual|: 1.963e-05   |deigs|: 8.215e-05  t[s]:    189.10
	FillingsUpdate:  mu: -0.171759792  nElectrons: 354.000000
SCF: Cycle: 37   F: -698.428242741237341   dF: -1.973e-09   |Residual|: 1.424e-05   |deigs|: 6.334e-05  t[s]:    192.03
SCF: Converged (|Delta E|<1.000000e-08 for 2 iters).

Setting wave functions to eigenvectors of Hamiltonian

Computing DFT-D3 correction:
# coordination-number C 3.300 3.301 3.301 3.300 3.300 3.296 3.300 3.301 3.470 3.300 3.300 3.300 3.300 3.300 3.457 3.300 3.300 3.299 3.495 3.300 3.300 3.300 3.291 3.300 3.307 3.292 3.300 3.300 3.543 3.301 3.300 3.503 3.300 3.301 3.300 3.300 3.308 3.296 3.300 3.300 3.484 3.300 3.301 3.300 3.300 3.300 3.300 3.300 3.301 3.533 3.291 3.300 3.300 3.499 3.300 3.300 3.300 3.451 3.301 3.300 3.496 3.300 3.300 3.292 3.300 3.300
# coordination-number N 3.419 3.483 3.408 3.506
# coordination-number Fe 6.006
# coordination-number S 2.003 2.986 2.904 2.905 2.979 2.003
# coordination-number Na 5.692 5.708
# diagonal-C6 C 24.28 24.27 24.27 24.28 24.28 24.32 24.28 24.27 22.10 24.28 24.28 24.28 24.28 24.28 22.29 24.29 24.29 24.29 21.72 24.28 24.28 24.28 24.36 24.28 24.21 24.36 24.28 24.28 21.01 24.27 24.28 21.59 24.28 24.27 24.28 24.28 24.21 24.32 24.28 24.28 21.89 24.28 24.27 24.28 24.28 24.28 24.28 24.28 24.27 21.15 24.37 24.28 24.28 21.65 24.28 24.28 24.28 22.37 24.27 24.29 21.70 24.28 24.28 24.36 24.28 24.29
# diagonal-C6 N 15.58 15.58 15.58 15.58
# diagonal-C6 Fe 109.50
# diagonal-C6 S 125.90 125.81 125.81 125.81 125.81 125.90
# diagonal-C6 Na 186.11 186.11
EvdW_6 =   -0.066209
EvdW_8 =   -0.062118

# Ionic positions in cartesian coordinates:
ion C   0.000000000000000   0.000000000000000   1.000007321400000 0
ion C  -2.333835447300000   4.042302545699999   1.000007321400000 0
ion C  11.669120544600000  20.211531625799999   1.000007321400000 0
ion C   4.667689791900001   0.000000000000000   1.000007321400000 0
ion C  23.338297781100000   0.000000000000000   1.000007321400000 0
ion C   2.333816549999999   4.042302545699999   1.000007321400000 0
ion C -11.669158339200003  20.211531625799999   1.000007321400000 0
ion C  -4.667670894600000   8.084623988700001   1.000007321400000 0
ion C   9.335303994599997  16.169229080099999   1.000007321400000 0
ion C   9.335322891900001   0.000000000000000   1.000007321400000 0
ion C  18.670626886499999   0.000000000000000   1.000007321400000 0
ion C  -9.335322891900001  16.169229080099999   1.000007321400000 0
ion C  -7.001487444600000  12.126907637100000   1.000007321400000 0
ion C  14.002993786499999   0.000000000000000   1.000007321400000 0
ion C   0.000000000000000   8.084623988700001   1.000007321400000 0
ion C   7.001487444599997  20.211531625799999   1.000007321400000 0
ion C  -7.001487444600003  20.211531625799999   1.000007321400000 0
ion C  -2.333816549999999  12.126907637100000   1.000007321400000 0
ion C   4.667670894600002  16.169229080099999   1.000007321400000 0
ion C  -2.333816550000000  20.211531625799999   1.000007321400000 0
ion C   2.333816550000000  20.211531625799999   1.000007321400000 0
ion C  -4.667651997299997  16.169229080099999   1.000007321400000 0
ion C   7.001487444600000   4.042302545699999   1.000007321400000 0
ion C  21.004424539199999   4.042302545699999   1.000007321400000 0
ion C  14.002955991899999  16.169229080099999   1.000007321400000 0
ion C   0.000000000000000  16.169229080099999   1.000007321400000 0
ion C  11.669120544600000   4.042302545699999   1.000007321400000 0
ion C  18.670607989199997   8.084623988700001   1.000007321400000 0
ion C  11.669120544599998  12.126907637100000   1.000007321400000 0
ion C  16.336791439199999  12.126907637100000   1.000007321400000 0
ion C  16.336791439199999   4.042302545699999   1.000007321400000 0
ion C   9.335303994599997   8.084623988700001   1.000007321400000 0
ion C  14.002955991899999   8.084623988700001   1.000007321400000 0
ion C   0.000000000000000   2.694868363800000   1.000007321400000 0
ion C  11.669120544600000  22.906399989600001   1.000007321400000 0
ion C -11.669120544600000  22.906399989600001   1.000007321400000 0
ion C  -2.333816550000000   6.737170909500000   1.000007321400000 0
ion C   9.335303994599995  18.864097443900000   1.000007321400000 0
ion C  -7.001487444600000  22.906399989600001   1.000007321400000 0
ion C   7.001487444600000  22.906399989600001   1.000007321400000 0
ion C   2.333816550000000   6.737170909500000   1.000007321400000 0
ion C  -9.335303994599998  18.864097443900000   1.000007321400000 0
ion C  -4.667670894599998  10.779473455200000   1.000007321400000 0
ion C  -2.333816550000000  22.906399989600001   1.000007321400000 0
ion C   2.333816550000000  22.906399989600001   1.000007321400000 0
ion C  -7.001487444600003  14.821794898200000   1.000007321400000 0
ion C   4.667670894600000   2.694868363800000   1.000007321400000 0
ion C  23.338259986499999   2.694868363800000   1.000007321400000 0
ion C  14.002974889199999  18.864097443900000   1.000007321400000 0
ion C   0.000000000000000  10.779473455200000   1.000007321400000 0
ion C   4.667670894600001  18.864097443900000   1.000007321400000 0
ion C  -4.667633100000002  18.864097443900000   1.000007321400000 0
ion C  -2.333816550000002  14.821794898200000   1.000007321400000 0
ion C   2.333816549999996  14.821794898200000   1.000007321400000 0
ion C  -0.000000000000004  18.864097443900000   1.000007321400000 0
ion C   9.335303994599998   2.694868363800000   1.000007321400000 0
ion C  21.004424539199999   6.737170909500000   1.000007321400000 0
ion C  11.669120544600000  14.821794898200000   1.000007321400000 0
ion C  16.336791439199999  14.821794898200000   1.000007321400000 0
ion C  18.670607989199997   2.694868363800000   1.000007321400000 0
ion C   7.001487444600001   6.737170909500000   1.000007321400000 0
ion C  14.002955991899999   2.694868363800000   1.000007321400000 0
ion C  18.670607989200004  10.779473455200000   1.000007321400000 0
ion C  11.669120544599998   6.737170909500000   1.000007321400000 0
ion C  16.336791439199999   6.737170909500000   1.000007321400000 0
ion C  14.002955991899999  10.779473455200000   1.000007321400000 0
ion N   4.667670894599999   8.084623988700001   1.000007321400000 0
ion N   2.333816549999999  12.126907637100000   1.000007321400000 0
ion N   7.001487444599997  14.821794898200000   1.000007321400000 0
ion N   9.335303994599997  10.779473455200000   1.000007321400000 0
ion Fe   5.837111407799997  11.454314935499999   1.000007321400000 0
ion S   0.972514686328656  10.280029133119969  10.978440437176102 1
ion S   3.681247965627498  12.869330513075642  11.114906222772364 1
ion S   4.133043418746228  14.621883535381638   7.767910980955014 1
ion S   7.572771482429999   8.159403449824440   7.652828678714473 1
ion S   8.078401124558020   9.811647685871222  11.042511241251466 1
ion S  10.770125004560008  12.420687714590761  10.937725384969188 1
ion Na   2.697100092660198   9.801905612606184   6.039595816369336 1
ion Na   8.977703302300373  13.027807243984991   6.034508422101376 1

# Forces in Cartesian coordinates:
force C   0.004371078564767  -0.000180359375174   0.000036140507572 0
force C   0.001403249788851  -0.001139885220331  -0.000057350465918 0
force C   0.003726025315411  -0.001668348492191   0.000050271605270 0
force C   0.001400680520883   0.002913874723033   0.000038057957873 0
force C   0.002581033677832  -0.000360953818549   0.000006837059814 0
force C   0.005168307669239   0.001112951488463   0.000132492380330 0
force C   0.001120059947550  -0.000672687386576   0.000005587094128 0
force C  -0.000267059559932   0.001762362989798  -0.000050375287288 0
force C  -0.032480000567052  -0.010800572691255  -0.001401953914473 0
force C  -0.001034722621510   0.000597270775542   0.000023915985335 0
force C  -0.000615760915206  -0.000171343370980   0.000010547361322 0
force C  -0.000000611096854   0.001260213762173   0.000012601762473 0
force C   0.002016954423849   0.003878710003732   0.000043616680153 0
force C  -0.001135250398976  -0.000579559351049   0.000017025516479 0
force C   0.010472244435038   0.005935850144696   0.000300191755578 0
force C   0.002980326601359   0.002975629669346   0.000055241304232 0
force C   0.001548871444003   0.000871561277550   0.000003471656435 0
force C   0.003441064844180   0.003963014384645   0.000178145357815 0
force C   0.026574720733944   0.011780642294459   0.000093728388007 0
force C  -0.000013825073622  -0.001142539969715   0.000025569984604 0
force C  -0.003431808451674   0.000620068197947   0.000079037141282 0
force C   0.003202340501952  -0.000233353406960   0.000046358211982 0
force C   0.005289045978618   0.007140979022793  -0.000049025475203 0
force C   0.001695691083413   0.000990808190527   0.000012842684986 0
force C  -0.000104872852479  -0.000123231501012   0.000397696376574 0
force C   0.008979380241865   0.000848906256331  -0.000132079894566 0
force C  -0.001170869914378  -0.003173962850441   0.000081216686198 0
force C   0.000953853568790   0.002458968605386   0.000019050004583 0
force C  -0.025327770051823  -0.022718600071829  -0.001635285769971 0
force C   0.000385081182267   0.004014498631800   0.000058048221644 0
force C  -0.000496328742057  -0.000377816672415   0.000012532597290 0
force C   0.023854664490741   0.017137288410027  -0.000266371702731 0
force C   0.003944575364280   0.001041176055922   0.000085887685473 0
force C  -0.003711055318993   0.001663333205922   0.000052509804049 0
force C  -0.004340637183745   0.000174432265285   0.000034228712811 0
force C  -0.002609797115837   0.000372056771395   0.000007761270193 0
force C   0.000072222765507   0.000105519271921   0.000401106814171 0
force C  -0.005171679373872  -0.001178199601366   0.000123022645696 0
force C   0.000619777553500   0.000176370984422   0.000012725361168 0
force C  -0.001418446489578  -0.002908425952389   0.000034622975548 0
force C   0.032571474597200   0.010825972404627  -0.001466764154275 0
force C  -0.001699702582045  -0.000993526391718   0.000012455265450 0
force C  -0.000393017542219  -0.003993554194065   0.000055443494284 0
force C   0.001126666050048   0.000592064402829   0.000016541793300 0
force C   0.001038122471421  -0.000587500130702   0.000021838102073 0
force C  -0.000946234245617  -0.002475999603364   0.000017811669405 0
force C  -0.002968376327930  -0.002958984445333   0.000056211950778 0
force C  -0.001099116279572   0.000680446041108   0.000006700486337 0
force C  -0.001419810000788   0.001144910220736  -0.000055832231012 0
force C   0.025517515696143   0.022872957379937  -0.001608698235784 0
force C  -0.005270188174505  -0.007186296363950  -0.000030542498943 0
force C   0.000470152198914   0.000374683031326   0.000011417516028 0
force C  -0.003958785502452  -0.001093613177197   0.000082617216443 0
force C  -0.023809021979197  -0.017367767369550  -0.000151721788040 0
force C   0.001174031358561   0.003194524582718   0.000071253400943 0
force C   0.003426574556941  -0.000613025135057   0.000090163960535 0
force C   0.000018161043144  -0.001252023044846   0.000012030964085 0
force C  -0.010516284233964  -0.005933266101219   0.000294368539378 0
force C   0.000263104319163  -0.001782440196124  -0.000049480832216 0
force C  -0.001546223264279  -0.000880347794974   0.000003288068779 0
force C  -0.026634191446186  -0.011777794424556   0.000031520470269 0
force C   0.000010270875654   0.001155531089757   0.000027786223571 0
force C  -0.002008529474611  -0.003864823430962   0.000043635679599 0
force C  -0.008980476848874  -0.000820343623073  -0.000179620933179 0
force C  -0.003226602797539   0.000233906307064   0.000053139930182 0
force C  -0.003459592956571  -0.003959335820619   0.000184774044244 0
force N   0.026547179288077  -0.025511949475430   0.001256928099234 0
force N  -0.008711603402190   0.036042400130631   0.000980449253649 0
force N  -0.026358281182233   0.025659493981548   0.001308326311895 0
force N   0.008990967012216  -0.036014912879195   0.000938871734490 0
force Fe  -0.000098901863134   0.000106124013374   0.000165334889615 0
force S  -0.000117915697237  -0.000266291135982  -0.000028865193042 1
force S   0.000245231275088   0.000536478320923   0.000014712589777 1
force S  -0.000058865493466   0.000736887572893  -0.001249003940397 1
force S   0.000126172390557  -0.000773065259502  -0.001097083980597 1
force S  -0.000424783361289  -0.000336236182888  -0.000107392114258 1
force S   0.000179709016163   0.000125071313461  -0.000085343883616 1
force Na  -0.000198815783807  -0.000596605241036   0.001015300750181 1
force Na   0.000253995591209   0.000644954584950   0.001125766026973 1

# Energy components:
   Eewald =    -1925.5520432141352103
       EH =    -1381.6047677444835244
     Eloc =     2536.9250503709881741
      Enl =      -55.2217181825751737
     EvdW =       -0.1283271641068881
      Exc =     -184.4882208282695615
 Exc_core =       13.9690391124048094
       KE =      297.7665644364780064
-------------------------------------
     Etot =     -698.3344232136992105
       TS =        0.0938195275381709
-------------------------------------
        F =     -698.4282427412373409

IonicMinimize: Iter:   0  F: -698.428242741237341  |grad|_K:  5.734e-04  alpha:  1.000e+00

#--- Lowdin population analysis ---
# oxidation-state C +0.047 +0.036 +0.040 +0.040 +0.042 +0.025 +0.041 +0.037 +0.122 +0.045 +0.042 +0.041 +0.048 +0.045 -0.016 +0.050 +0.047 +0.026 +0.130 +0.045 +0.041 +0.040 +0.038 +0.049 +0.048 +0.040 +0.041 +0.043 +0.119 +0.041 +0.042 +0.133 +0.051 +0.040 +0.047 +0.042 +0.048 +0.026 +0.042 +0.040 +0.121 +0.049 +0.041 +0.045 +0.045 +0.043 +0.050 +0.041 +0.036 +0.120 +0.038 +0.042 +0.051 +0.133 +0.041 +0.041 +0.041 -0.016 +0.037 +0.047 +0.130 +0.045 +0.048 +0.040 +0.040 +0.026
# oxidation-state N -0.153 -0.153 -0.152 -0.153
# oxidation-state Fe +0.046
# oxidation-state S -0.304 +0.409 -0.397 -0.397 +0.409 -0.304
# oxidation-state Na +0.710 +0.710


Computing DFT-D3 correction:
# coordination-number C 3.300 3.301 3.301 3.300 3.300 3.296 3.300 3.301 3.469 3.300 3.300 3.300 3.300 3.300 3.457 3.300 3.300 3.299 3.495 3.300 3.300 3.300 3.291 3.300 3.307 3.292 3.300 3.300 3.543 3.301 3.300 3.503 3.300 3.301 3.300 3.300 3.308 3.296 3.300 3.300 3.483 3.300 3.301 3.300 3.300 3.300 3.300 3.300 3.301 3.533 3.291 3.300 3.300 3.499 3.300 3.300 3.300 3.451 3.301 3.300 3.496 3.300 3.300 3.292 3.300 3.300
# coordination-number N 3.419 3.482 3.408 3.506
# coordination-number Fe 6.004
# coordination-number S 2.003 2.986 2.904 2.904 2.979 2.003
# coordination-number Na 5.689 5.705
# diagonal-C6 C 24.28 24.27 24.27 24.28 24.28 24.32 24.28 24.27 22.10 24.28 24.28 24.28 24.28 24.28 22.29 24.29 24.29 24.29 21.72 24.28 24.28 24.28 24.36 24.28 24.21 24.36 24.28 24.28 21.02 24.27 24.28 21.59 24.28 24.27 24.28 24.28 24.21 24.32 24.28 24.28 21.89 24.28 24.27 24.28 24.28 24.28 24.28 24.28 24.27 21.16 24.37 24.28 24.28 21.65 24.28 24.28 24.28 22.38 24.27 24.29 21.70 24.28 24.28 24.36 24.28 24.29
# diagonal-C6 N 15.58 15.58 15.58 15.58
# diagonal-C6 Fe 109.50
# diagonal-C6 S 125.90 125.81 125.81 125.81 125.81 125.90
# diagonal-C6 Na 186.11 186.11
EvdW_6 =   -0.066211
EvdW_8 =   -0.062124

-------- Electronic minimization -----------
Will mix electronic density at each iteration.
	FillingsUpdate:  mu: -0.171759792  nElectrons: 354.000000
	FillingsUpdate:  mu: -0.171729408  nElectrons: 354.000000
SCF: Cycle:  0   F: -698.428242041117642   dF: +7.541e-06   |Residual|: 1.357e-03   |deigs|: 3.423e-06  t[s]:    200.94
	FillingsUpdate:  mu: -0.171953160  nElectrons: 354.000000
SCF: Cycle:  1   F: -698.427571306725667   dF: +6.707e-04   |Residual|: 1.436e-02   |deigs|: 1.205e-04  t[s]:    203.23
	FillingsUpdate:  mu: -0.171749981  nElectrons: 354.000000
SCF: Cycle:  2   F: -698.428250068734087   dF: -6.788e-04   |Residual|: 1.745e-04   |deigs|: 1.094e-04  t[s]:    205.52
	FillingsUpdate:  mu: -0.171750035  nElectrons: 354.000000
SCF: Cycle:  3   F: -698.428250197084708   dF: -1.284e-07   |Residual|: 5.497e-05   |deigs|: 7.658e-06  t[s]:    207.75
	FillingsUpdate:  mu: -0.171750450  nElectrons: 354.000000
SCF: Cycle:  4   F: -698.428250204373853   dF: -7.289e-09   |Residual|: 7.334e-05   |deigs|: 8.773e-06  t[s]:    210.07
	FillingsUpdate:  mu: -0.171751783  nElectrons: 354.000000
SCF: Cycle:  5   F: -698.428250216673518   dF: -1.230e-08   |Residual|: 5.499e-05   |deigs|: 1.103e-05  t[s]:    212.38
	FillingsUpdate:  mu: -0.171753828  nElectrons: 354.000000
SCF: Cycle:  6   F: -698.428250235463793   dF: -1.879e-08   |Residual|: 1.243e-05   |deigs|: 1.269e-05  t[s]:    214.67
	FillingsUpdate:  mu: -0.171755474  nElectrons: 354.000000
SCF: Cycle:  7   F: -698.428250240691682   dF: -5.228e-09   |Residual|: 1.005e-05   |deigs|: 1.899e-05  t[s]:    216.91
	FillingsUpdate:  mu: -0.171756670  nElectrons: 354.000000
SCF: Cycle:  8   F: -698.428250242194736   dF: -1.503e-09   |Residual|: 1.141e-05   |deigs|: 1.380e-05  t[s]:    219.11
SCF: Converged (|Delta E|<1.000000e-08 for 2 iters).

Setting wave functions to eigenvectors of Hamiltonian
IonicMinimize: 	Predicted alpha/alphaT>3.000000, increasing alphaT to 3.000000e+00.

Computing DFT-D3 correction:
# coordination-number C 3.300 3.301 3.301 3.300 3.300 3.296 3.300 3.301 3.469 3.300 3.300 3.300 3.300 3.300 3.456 3.300 3.300 3.299 3.495 3.300 3.300 3.300 3.291 3.300 3.307 3.292 3.300 3.300 3.542 3.301 3.300 3.503 3.300 3.301 3.300 3.300 3.308 3.296 3.300 3.300 3.483 3.300 3.301 3.300 3.300 3.300 3.300 3.300 3.301 3.532 3.291 3.300 3.300 3.499 3.300 3.300 3.300 3.450 3.301 3.300 3.496 3.300 3.300 3.292 3.300 3.300
# coordination-number N 3.418 3.481 3.407 3.504
# coordination-number Fe 6.001
# coordination-number S 2.003 2.986 2.904 2.904 2.980 2.003
# coordination-number Na 5.683 5.698
# diagonal-C6 C 24.28 24.27 24.27 24.28 24.28 24.32 24.28 24.27 22.11 24.28 24.28 24.28 24.28 24.28 22.30 24.29 24.29 24.29 21.72 24.28 24.28 24.28 24.36 24.28 24.21 24.36 24.28 24.28 21.03 24.27 24.28 21.59 24.28 24.27 24.28 24.28 24.21 24.32 24.28 24.28 21.90 24.28 24.27 24.28 24.28 24.28 24.28 24.28 24.27 21.17 24.37 24.28 24.28 21.65 24.28 24.28 24.28 22.38 24.27 24.29 21.70 24.28 24.28 24.36 24.28 24.29
# diagonal-C6 N 15.58 15.58 15.58 15.58
# diagonal-C6 Fe 109.50
# diagonal-C6 S 125.90 125.81 125.81 125.81 125.81 125.90
# diagonal-C6 Na 186.11 186.11
EvdW_6 =   -0.066215
EvdW_8 =   -0.062135

-------- Electronic minimization -----------
Will mix electronic density at each iteration.
	FillingsUpdate:  mu: -0.171756670  nElectrons: 354.000000
	FillingsUpdate:  mu: -0.171725880  nElectrons: 354.000000
SCF: Cycle:  0   F: -698.428244693047645   dF: +1.572e-05   |Residual|: 1.949e-03   |deigs|: 1.277e-06  t[s]:    225.19
	FillingsUpdate:  mu: -0.172036104  nElectrons: 354.000000
SCF: Cycle:  1   F: -698.426958757678449   dF: +1.286e-03   |Residual|: 1.992e-02   |deigs|: 1.680e-04  t[s]:    227.50
	FillingsUpdate:  mu: -0.171753510  nElectrons: 354.000000
SCF: Cycle:  2   F: -698.428262414543838   dF: -1.304e-03   |Residual|: 2.895e-04   |deigs|: 1.526e-04  t[s]:    229.80
	FillingsUpdate:  mu: -0.171754555  nElectrons: 354.000000
SCF: Cycle:  3   F: -698.428262859547544   dF: -4.450e-07   |Residual|: 1.055e-04   |deigs|: 1.477e-05  t[s]:    232.11
	FillingsUpdate:  mu: -0.171755713  nElectrons: 354.000000
SCF: Cycle:  4   F: -698.428262902598817   dF: -4.305e-08   |Residual|: 1.256e-04   |deigs|: 1.660e-05  t[s]:    234.39
	FillingsUpdate:  mu: -0.171758325  nElectrons: 354.000000
SCF: Cycle:  5   F: -698.428262953301669   dF: -5.070e-08   |Residual|: 8.455e-05   |deigs|: 2.054e-05  t[s]:    236.68
	FillingsUpdate:  mu: -0.171762102  nElectrons: 354.000000
SCF: Cycle:  6   F: -698.428263009955117   dF: -5.665e-08   |Residual|: 2.666e-05   |deigs|: 2.446e-05  t[s]:    238.99
	FillingsUpdate:  mu: -0.171764922  nElectrons: 354.000000
SCF: Cycle:  7   F: -698.428263029911022   dF: -1.996e-08   |Residual|: 1.540e-05   |deigs|: 2.965e-05  t[s]:    241.30
	FillingsUpdate:  mu: -0.171767082  nElectrons: 354.000000
SCF: Cycle:  8   F: -698.428263035348778   dF: -5.438e-09   |Residual|: 2.155e-05   |deigs|: 1.704e-05  t[s]:    243.60
	FillingsUpdate:  mu: -0.171769497  nElectrons: 354.000000
SCF: Cycle:  9   F: -698.428263041697164   dF: -6.348e-09   |Residual|: 1.101e-05   |deigs|: 7.734e-06  t[s]:    246.55
SCF: Converged (|Delta E|<1.000000e-08 for 2 iters).

Setting wave functions to eigenvectors of Hamiltonian
IonicMinimize: 	Predicted alpha/alphaT>3.000000, increasing alphaT to 9.000000e+00.

Computing DFT-D3 correction:
# coordination-number C 3.300 3.301 3.301 3.300 3.300 3.296 3.300 3.301 3.468 3.300 3.300 3.300 3.300 3.300 3.455 3.300 3.300 3.299 3.495 3.300 3.300 3.300 3.291 3.300 3.307 3.292 3.300 3.300 3.539 3.301 3.300 3.503 3.300 3.301 3.300 3.300 3.308 3.296 3.300 3.300 3.482 3.300 3.301 3.300 3.300 3.300 3.300 3.300 3.301 3.529 3.291 3.300 3.300 3.499 3.300 3.300 3.300 3.449 3.301 3.300 3.496 3.300 3.300 3.292 3.300 3.299
# coordination-number N 3.415 3.477 3.404 3.499
# coordination-number Fe 5.992
# coordination-number S 2.004 2.987 2.902 2.902 2.982 2.004
# coordination-number Na 5.666 5.680
# diagonal-C6 C 24.28 24.27 24.27 24.28 24.28 24.32 24.28 24.27 22.13 24.28 24.28 24.28 24.28 24.28 22.32 24.29 24.29 24.29 21.72 24.28 24.28 24.28 24.36 24.28 24.21 24.36 24.28 24.28 21.07 24.27 24.28 21.60 24.28 24.27 24.28 24.28 24.21 24.32 24.28 24.28 21.92 24.28 24.27 24.28 24.28 24.28 24.28 24.28 24.27 21.21 24.37 24.28 24.28 21.66 24.28 24.28 24.28 22.40 24.27 24.29 21.70 24.28 24.28 24.36 24.28 24.29
# diagonal-C6 N 15.58 15.58 15.59 15.58
# diagonal-C6 Fe 109.50
# diagonal-C6 S 125.90 125.81 125.81 125.81 125.81 125.90
# diagonal-C6 Na 186.11 186.11
EvdW_6 =   -0.066229
EvdW_8 =   -0.062167

-------- Electronic minimization -----------
Will mix electronic density at each iteration.
	FillingsUpdate:  mu: -0.171769497  nElectrons: 354.000000
	FillingsUpdate:  mu: -0.171641532  nElectrons: 354.000000
SCF: Cycle:  0   F: -698.428062153394535   dF: +1.981e-04   |Residual|: 6.859e-03   |deigs|: 3.825e-06  t[s]:    253.12
	FillingsUpdate:  mu: -0.172724041  nElectrons: 354.000000
SCF: Cycle:  1   F: -698.412045092917197   dF: +1.602e-02   |Residual|: 7.033e-02   |deigs|: 5.897e-04  t[s]:    256.11
	FillingsUpdate:  mu: -0.171741852  nElectrons: 354.000000
SCF: Cycle:  2   F: -698.428277831854302   dF: -1.623e-02   |Residual|: 9.842e-04   |deigs|: 5.355e-04  t[s]:    259.10
	FillingsUpdate:  mu: -0.171749414  nElectrons: 354.000000
SCF: Cycle:  3   F: -698.428281681103840   dF: -3.849e-06   |Residual|: 4.830e-04   |deigs|: 4.917e-05  t[s]:    261.41
	FillingsUpdate:  mu: -0.171739090  nElectrons: 354.000000
SCF: Cycle:  4   F: -698.428280213769199   dF: +1.467e-06   |Residual|: 8.408e-04   |deigs|: 4.978e-05  t[s]:    263.70
	FillingsUpdate:  mu: -0.171760042  nElectrons: 354.000000
SCF: Cycle:  5   F: -698.428283257624571   dF: -3.044e-06   |Residual|: 1.185e-04   |deigs|: 6.407e-05  t[s]:    266.00
	FillingsUpdate:  mu: -0.171766603  nElectrons: 354.000000
SCF: Cycle:  6   F: -698.428283478980802   dF: -2.214e-07   |Residual|: 1.687e-04   |deigs|: 6.221e-05  t[s]:    268.29
	FillingsUpdate:  mu: -0.171776143  nElectrons: 354.000000
SCF: Cycle:  7   F: -698.428283760450427   dF: -2.815e-07   |Residual|: 5.026e-05   |deigs|: 2.670e-05  t[s]:    270.60
	FillingsUpdate:  mu: -0.171784246  nElectrons: 354.000000
SCF: Cycle:  8   F: -698.428283849881836   dF: -8.943e-08   |Residual|: 3.870e-05   |deigs|: 2.056e-05  t[s]:    272.92
	FillingsUpdate:  mu: -0.171789981  nElectrons: 354.000000
SCF: Cycle:  9   F: -698.428283870935275   dF: -2.105e-08   |Residual|: 8.427e-05   |deigs|: 2.815e-05  t[s]:    275.86
	FillingsUpdate:  mu: -0.171800112  nElectrons: 354.000000
SCF: Cycle: 10   F: -698.428283946805323   dF: -7.587e-08   |Residual|: 3.233e-05   |deigs|: 4.664e-05  t[s]:    278.77
	FillingsUpdate:  mu: -0.171806194  nElectrons: 354.000000
SCF: Cycle: 11   F: -698.428283964614025   dF: -1.781e-08   |Residual|: 3.125e-05   |deigs|: 4.040e-05  t[s]:    281.73
	FillingsUpdate:  mu: -0.171813591  nElectrons: 354.000000
SCF: Cycle: 12   F: -698.428283981863387   dF: -1.725e-08   |Residual|: 2.521e-05   |deigs|: 4.927e-05  t[s]:    284.76
	FillingsUpdate:  mu: -0.171819474  nElectrons: 354.000000
SCF: Cycle: 13   F: -698.428283988909243   dF: -7.046e-09   |Residual|: 1.460e-05   |deigs|: 4.577e-05  t[s]:    287.69
	FillingsUpdate:  mu: -0.171822174  nElectrons: 354.000000
SCF: Cycle: 14   F: -698.428283990099544   dF: -1.190e-09   |Residual|: 1.165e-05   |deigs|: 2.336e-05  t[s]:    290.62
SCF: Converged (|Delta E|<1.000000e-08 for 2 iters).

Setting wave functions to eigenvectors of Hamiltonian

Computing DFT-D3 correction:
# coordination-number C 3.300 3.301 3.301 3.300 3.300 3.296 3.300 3.301 3.467 3.300 3.300 3.300 3.300 3.300 3.454 3.300 3.300 3.299 3.495 3.300 3.300 3.300 3.291 3.300 3.307 3.292 3.300 3.300 3.538 3.301 3.300 3.503 3.300 3.301 3.300 3.300 3.308 3.296 3.300 3.300 3.481 3.300 3.301 3.300 3.300 3.300 3.300 3.300 3.301 3.529 3.291 3.300 3.300 3.499 3.300 3.300 3.300 3.449 3.301 3.300 3.496 3.300 3.300 3.292 3.300 3.299
# coordination-number N 3.415 3.475 3.404 3.498
# coordination-number Fe 5.990
# coordination-number S 2.004 2.987 2.902 2.902 2.983 2.004
# coordination-number Na 5.661 5.675
# diagonal-C6 C 24.28 24.27 24.27 24.28 24.28 24.32 24.28 24.27 22.13 24.28 24.28 24.28 24.28 24.28 22.32 24.29 24.29 24.29 21.72 24.28 24.28 24.28 24.36 24.28 24.21 24.36 24.28 24.28 21.08 24.27 24.28 21.60 24.28 24.27 24.28 24.28 24.21 24.32 24.28 24.28 21.92 24.28 24.27 24.28 24.28 24.28 24.28 24.28 24.27 21.22 24.37 24.28 24.28 21.66 24.28 24.28 24.28 22.41 24.27 24.29 21.70 24.28 24.28 24.36 24.28 24.29
# diagonal-C6 N 15.58 15.58 15.59 15.58
# diagonal-C6 Fe 109.50
# diagonal-C6 S 125.90 125.81 125.81 125.81 125.81 125.90
# diagonal-C6 Na 186.11 186.11
EvdW_6 =   -0.066233
EvdW_8 =   -0.062177

-------- Electronic minimization -----------
Will mix electronic density at each iteration.
	FillingsUpdate:  mu: -0.171822174  nElectrons: 354.000000
	FillingsUpdate:  mu: -0.171800610  nElectrons: 354.000000
SCF: Cycle:  0   F: -698.428269712611268   dF: +1.351e-05   |Residual|: 1.750e-03   |deigs|: 1.660e-06  t[s]:    296.65
	FillingsUpdate:  mu: -0.172078914  nElectrons: 354.000000
SCF: Cycle:  1   F: -698.427229431727596   dF: +1.040e-03   |Residual|: 1.792e-02   |deigs|: 1.511e-04  t[s]:    298.96
	FillingsUpdate:  mu: -0.171824371  nElectrons: 354.000000
SCF: Cycle:  2   F: -698.428284580528157   dF: -1.055e-03   |Residual|: 2.530e-04   |deigs|: 1.373e-04  t[s]:    301.24
	FillingsUpdate:  mu: -0.171825465  nElectrons: 354.000000
SCF: Cycle:  3   F: -698.428284993404986   dF: -4.129e-07   |Residual|: 9.639e-05   |deigs|: 1.366e-05  t[s]:    303.56
	FillingsUpdate:  mu: -0.171826851  nElectrons: 354.000000
SCF: Cycle:  4   F: -698.428285057373841   dF: -6.397e-08   |Residual|: 1.068e-04   |deigs|: 1.566e-05  t[s]:    305.87
	FillingsUpdate:  mu: -0.171828964  nElectrons: 354.000000
SCF: Cycle:  5   F: -698.428285090904978   dF: -3.353e-08   |Residual|: 9.074e-05   |deigs|: 2.008e-05  t[s]:    308.17
	FillingsUpdate:  mu: -0.171832770  nElectrons: 354.000000
SCF: Cycle:  6   F: -698.428285153409774   dF: -6.250e-08   |Residual|: 2.858e-05   |deigs|: 2.380e-05  t[s]:    310.48
	FillingsUpdate:  mu: -0.171835372  nElectrons: 354.000000
SCF: Cycle:  7   F: -698.428285173496874   dF: -2.009e-08   |Residual|: 1.802e-05   |deigs|: 2.806e-05  t[s]:    312.79
	FillingsUpdate:  mu: -0.171837122  nElectrons: 354.000000
SCF: Cycle:  8   F: -698.428285177849148   dF: -4.352e-09   |Residual|: 2.601e-05   |deigs|: 1.584e-05  t[s]:    315.10
	FillingsUpdate:  mu: -0.171839455  nElectrons: 354.000000
SCF: Cycle:  9   F: -698.428285185297455   dF: -7.448e-09   |Residual|: 1.008e-05   |deigs|: 7.613e-06  t[s]:    318.03
SCF: Converged (|Delta E|<1.000000e-08 for 2 iters).

Setting wave functions to eigenvectors of Hamiltonian

Computing DFT-D3 correction:
# coordination-number C 3.300 3.301 3.301 3.300 3.300 3.296 3.300 3.301 3.467 3.300 3.300 3.300 3.300 3.300 3.454 3.300 3.300 3.299 3.495 3.300 3.300 3.300 3.291 3.300 3.307 3.292 3.300 3.300 3.538 3.301 3.300 3.503 3.300 3.301 3.300 3.300 3.308 3.296 3.300 3.300 3.481 3.300 3.301 3.300 3.300 3.300 3.300 3.300 3.301 3.529 3.291 3.300 3.300 3.499 3.300 3.300 3.300 3.449 3.301 3.300 3.496 3.300 3.300 3.292 3.300 3.299
# coordination-number N 3.415 3.475 3.404 3.498
# coordination-number Fe 5.990
# coordination-number S 2.004 2.987 2.902 2.902 2.983 2.004
# coordination-number Na 5.661 5.675
# diagonal-C6 C 24.28 24.27 24.27 24.28 24.28 24.32 24.28 24.27 22.13 24.28 24.28 24.28 24.28 24.28 22.32 24.29 24.29 24.29 21.72 24.28 24.28 24.28 24.36 24.28 24.21 24.36 24.28 24.28 21.08 24.27 24.28 21.60 24.28 24.27 24.28 24.28 24.21 24.32 24.28 24.28 21.92 24.28 24.27 24.28 24.28 24.28 24.28 24.28 24.27 21.22 24.37 24.28 24.28 21.66 24.28 24.28 24.28 22.41 24.27 24.29 21.70 24.28 24.28 24.36 24.28 24.29
# diagonal-C6 N 15.58 15.58 15.59 15.58
# diagonal-C6 Fe 109.50
# diagonal-C6 S 125.90 125.81 125.81 125.81 125.81 125.90
# diagonal-C6 Na 186.11 186.11
EvdW_6 =   -0.066233
EvdW_8 =   -0.062177

# Ionic positions in cartesian coordinates:
ion C   0.000000000000000   0.000000000000000   1.000007321400000 0
ion C  -2.333835447300000   4.042302545699999   1.000007321400000 0
ion C  11.669120544600000  20.211531625799999   1.000007321400000 0
ion C   4.667689791900001   0.000000000000000   1.000007321400000 0
ion C  23.338297781100000   0.000000000000000   1.000007321400000 0
ion C   2.333816549999999   4.042302545699999   1.000007321400000 0
ion C -11.669158339200003  20.211531625799999   1.000007321400000 0
ion C  -4.667670894600000   8.084623988700001   1.000007321400000 0
ion C   9.335303994599997  16.169229080099999   1.000007321400000 0
ion C   9.335322891900001   0.000000000000000   1.000007321400000 0
ion C  18.670626886499999   0.000000000000000   1.000007321400000 0
ion C  -9.335322891900001  16.169229080099999   1.000007321400000 0
ion C  -7.001487444600000  12.126907637100000   1.000007321400000 0
ion C  14.002993786499999   0.000000000000000   1.000007321400000 0
ion C   0.000000000000000   8.084623988700001   1.000007321400000 0
ion C   7.001487444599997  20.211531625799999   1.000007321400000 0
ion C  -7.001487444600003  20.211531625799999   1.000007321400000 0
ion C  -2.333816549999999  12.126907637100000   1.000007321400000 0
ion C   4.667670894600002  16.169229080099999   1.000007321400000 0
ion C  -2.333816550000000  20.211531625799999   1.000007321400000 0
ion C   2.333816550000000  20.211531625799999   1.000007321400000 0
ion C  -4.667651997299997  16.169229080099999   1.000007321400000 0
ion C   7.001487444600000   4.042302545699999   1.000007321400000 0
ion C  21.004424539199999   4.042302545699999   1.000007321400000 0
ion C  14.002955991899999  16.169229080099999   1.000007321400000 0
ion C   0.000000000000000  16.169229080099999   1.000007321400000 0
ion C  11.669120544600000   4.042302545699999   1.000007321400000 0
ion C  18.670607989199997   8.084623988700001   1.000007321400000 0
ion C  11.669120544599998  12.126907637100000   1.000007321400000 0
ion C  16.336791439199999  12.126907637100000   1.000007321400000 0
ion C  16.336791439199999   4.042302545699999   1.000007321400000 0
ion C   9.335303994599997   8.084623988700001   1.000007321400000 0
ion C  14.002955991899999   8.084623988700001   1.000007321400000 0
ion C   0.000000000000000   2.694868363800000   1.000007321400000 0
ion C  11.669120544600000  22.906399989600001   1.000007321400000 0
ion C -11.669120544600000  22.906399989600001   1.000007321400000 0
ion C  -2.333816550000000   6.737170909500000   1.000007321400000 0
ion C   9.335303994599995  18.864097443900000   1.000007321400000 0
ion C  -7.001487444600000  22.906399989600001   1.000007321400000 0
ion C   7.001487444600000  22.906399989600001   1.000007321400000 0
ion C   2.333816550000000   6.737170909500000   1.000007321400000 0
ion C  -9.335303994599998  18.864097443900000   1.000007321400000 0
ion C  -4.667670894599998  10.779473455200000   1.000007321400000 0
ion C  -2.333816550000000  22.906399989600001   1.000007321400000 0
ion C   2.333816550000000  22.906399989600001   1.000007321400000 0
ion C  -7.001487444600003  14.821794898200000   1.000007321400000 0
ion C   4.667670894600000   2.694868363800000   1.000007321400000 0
ion C  23.338259986499999   2.694868363800000   1.000007321400000 0
ion C  14.002974889199999  18.864097443900000   1.000007321400000 0
ion C   0.000000000000000  10.779473455200000   1.000007321400000 0
ion C   4.667670894600001  18.864097443900000   1.000007321400000 0
ion C  -4.667633100000002  18.864097443900000   1.000007321400000 0
ion C  -2.333816550000002  14.821794898200000   1.000007321400000 0
ion C   2.333816549999996  14.821794898200000   1.000007321400000 0
ion C  -0.000000000000004  18.864097443900000   1.000007321400000 0
ion C   9.335303994599998   2.694868363800000   1.000007321400000 0
ion C  21.004424539199999   6.737170909500000   1.000007321400000 0
ion C  11.669120544600000  14.821794898200000   1.000007321400000 0
ion C  16.336791439199999  14.821794898200000   1.000007321400000 0
ion C  18.670607989199997   2.694868363800000   1.000007321400000 0
ion C   7.001487444600001   6.737170909500000   1.000007321400000 0
ion C  14.002955991899999   2.694868363800000   1.000007321400000 0
ion C  18.670607989200004  10.779473455200000   1.000007321400000 0
ion C  11.669120544599998   6.737170909500000   1.000007321400000 0
ion C  16.336791439199999   6.737170909500000   1.000007321400000 0
ion C  14.002955991899999  10.779473455200000   1.000007321400000 0
ion N   4.667670894599999   8.084623988700001   1.000007321400000 0
ion N   2.333816549999999  12.126907637100000   1.000007321400000 0
ion N   7.001487444599997  14.821794898200000   1.000007321400000 0
ion N   9.335303994599997  10.779473455200000   1.000007321400000 0
ion Fe   5.837111407799997  11.454314935499999   1.000007321400000 0
ion S   0.971249030251463  10.277170879278819  10.978130610682694 1
ion S   3.683880172033491  12.875088839261814  11.115064141345538 1
ion S   4.132411582007880  14.629792967770166   7.754504713047959 1
ion S   7.574125762280987   8.151105701800345   7.641053053926822 1
ion S   8.073841683743062   9.808038672158739  11.041358540760871 1
ion S  10.772053923387297  12.422030175956582  10.936809340647008 1
ion Na   2.694966090055671   9.795501910073796   6.050493615345724 1
ion Na   8.980429581083678  13.034729907456315   6.046591907565372 1

# Forces in Cartesian coordinates:
force C   0.004367360026683  -0.000182503822556   0.000048067316116 0
force C   0.001399531021548  -0.001148154242759  -0.000045791532809 0
force C   0.003730033127100  -0.001666136785650   0.000061165992122 0
force C   0.001402967240689   0.002909779546158   0.000049849295508 0
force C   0.002579786239299  -0.000361366486895   0.000019227010487 0
force C   0.005172237274088   0.001109432933349   0.000142518252497 0
force C   0.001117731758458  -0.000674400756283   0.000018351990055 0
force C  -0.000276617694299   0.001765193403076  -0.000039001094981 0
force C  -0.032510139163443  -0.010828019017300  -0.001385337311372 0
force C  -0.001035288134892   0.000602235958933   0.000036289788331 0
force C  -0.000614048555182  -0.000170983868873   0.000023578211882 0
force C  -0.000003475125019   0.001259960446918   0.000024877155280 0
force C   0.002013262618324   0.003876040991112   0.000054814200614 0
force C  -0.001142688498060  -0.000583447531007   0.000029610678562 0
force C   0.010457012119872   0.005930674369282   0.000311251759982 0
force C   0.002976861562031   0.002971350946662   0.000064934887492 0
force C   0.001543210317946   0.000868611796402   0.000016522278524 0
force C   0.003442647872116   0.003967332485724   0.000188506272585 0
force C   0.026617814874360   0.011786042893085   0.000102683819465 0
force C  -0.000009763567017  -0.001145230552782   0.000038077421720 0
force C  -0.003438838193648   0.000627736210249   0.000089743836049 0
force C   0.003198411926914  -0.000228181819765   0.000057979775276 0
force C   0.005281966492554   0.007139797709012  -0.000042370517469 0
force C   0.001688138573068   0.000987994241572   0.000025690757603 0
force C  -0.000123092261715  -0.000132825624931   0.000405112089587 0
force C   0.008974025715139   0.000841968065387  -0.000126050679654 0
force C  -0.001167305149385  -0.003181487701707   0.000091405538492 0
force C   0.000951514638948   0.002458999163576   0.000030829055594 0
force C  -0.025381777088501  -0.022742330302368  -0.001611436130299 0
force C   0.000389744477225   0.004016222195837   0.000067791249490 0
force C  -0.000496306566143  -0.000374002479175   0.000025314558259 0
force C   0.023882710894403   0.017194512309507  -0.000255991605077 0
force C   0.003935747836899   0.001041072469898   0.000095874025163 0
force C  -0.003715195052299   0.001661070870680   0.000063279552868 0
force C  -0.004336996949776   0.000176505429132   0.000046232273941 0
force C  -0.002608799610541   0.000372316456779   0.000020026447643 0
force C   0.000090268196390   0.000115318163089   0.000408501640787 0
force C  -0.005175930364665  -0.001174640937117   0.000133287287208 0
force C   0.000618285714566   0.000175897375564   0.000025628772652 0
force C  -0.001420738511897  -0.002903970330751   0.000046615266379 0
force C   0.032599644686063   0.010852060076239  -0.001451340237153 0
force C  -0.001692097389817  -0.000990848542920   0.000025344199027 0
force C  -0.000397318902070  -0.003995182083097   0.000065244871608 0
force C   0.001134244468393   0.000595755560887   0.000029105747703 0
force C   0.001038636910308  -0.000592854857444   0.000034365129702 0
force C  -0.000943727832120  -0.002475960304857   0.000029707280106 0
force C  -0.002965454077643  -0.002955665428007   0.000065589548344 0
force C  -0.001096838033674   0.000682138469467   0.000019446343104 0
force C  -0.001416166634500   0.001153420832555  -0.000044107814899 0
force C   0.025568496344920   0.022895998083070  -0.001585993514784 0
force C  -0.005263098119940  -0.007184905083775  -0.000023464427644 0
force C   0.000470106130158   0.000370893360349   0.000024314866719 0
force C  -0.003949722079125  -0.001093685799830   0.000092686154254 0
force C  -0.023837758349860  -0.017421681617047  -0.000140631014102 0
force C   0.001170870089106   0.003201959430793   0.000081811951787 0
force C   0.003433812859980  -0.000621235176048   0.000100435898453 0
force C   0.000021181830495  -0.001251742439695   0.000024202057423 0
force C  -0.010501258081917  -0.005928578388236   0.000306076819658 0
force C   0.000272784738362  -0.001785295011085  -0.000037986347345 0
force C  -0.001540321929560  -0.000877723274411   0.000016317477672 0
force C  -0.026675813866785  -0.011783884277299   0.000038169348739 0
force C   0.000006524531172   0.001157972698980   0.000040188763425 0
force C  -0.002004657625504  -0.003862117612460   0.000054799063767 0
force C  -0.008974419141405  -0.000813838652743  -0.000174065083564 0
force C  -0.003222631039930   0.000228523777845   0.000064590002885 0
force C  -0.003461613291668  -0.003963215613354   0.000195092293512 0
force N   0.026531206820430  -0.025559505681135   0.001230898294374 0
force N  -0.008770414576906   0.036058635440469   0.000949500865693 0
force N  -0.026342206688503   0.025708662533998   0.001280802495965 0
force N   0.009049292779025  -0.036030654242445   0.000911029346699 0
force Fe  -0.000093589133517   0.000107256251786   0.000252965586101 0
force S   0.001035422281619   0.001022485204692   0.000200453326696 1
force S  -0.000772185950228   0.000149616306307  -0.001940738659586 1
force S  -0.000335620099418  -0.000334939643934   0.000652861436259 1
force S   0.000337634589942   0.000187709605245   0.000585090987894 1
force S   0.000555508722759   0.000049805290180  -0.001749376034661 1
force S  -0.000868841133042  -0.001043707647869   0.000133920585632 1
force Na  -0.000107459095138  -0.000521276141124   0.000898949092704 1
force Na   0.000164805184797   0.000563587549334   0.000977423268548 1

# Energy components:
   Eewald =    -1925.8050169001012364
       EH =    -1381.8627542089182043
     Eloc =     2537.4517455143418374
      Enl =      -55.2245553277679448
     EvdW =       -0.1284092353798356
      Exc =     -184.4804467478399488
 Exc_core =       13.9690387605644997
       KE =      297.7460882754076579
-------------------------------------
     Etot =     -698.3343098696934703
       TS =        0.0939753156039432
-------------------------------------
        F =     -698.4282851852974545

IonicMinimize: Iter:   1  F: -698.428285185297455  |grad|_K:  7.987e-04  alpha:  1.073e+01  linmin: -1.852e-04  t[s]:    321.22

#--- Lowdin population analysis ---
# oxidation-state C +0.047 +0.036 +0.040 +0.040 +0.042 +0.026 +0.041 +0.037 +0.122 +0.045 +0.042 +0.041 +0.048 +0.045 -0.016 +0.050 +0.047 +0.026 +0.130 +0.045 +0.041 +0.040 +0.038 +0.049 +0.048 +0.040 +0.041 +0.043 +0.119 +0.041 +0.042 +0.133 +0.051 +0.040 +0.047 +0.042 +0.048 +0.026 +0.042 +0.040 +0.121 +0.049 +0.041 +0.045 +0.045 +0.043 +0.050 +0.041 +0.036 +0.120 +0.038 +0.042 +0.051 +0.133 +0.041 +0.041 +0.041 -0.016 +0.037 +0.047 +0.130 +0.045 +0.048 +0.040 +0.040 +0.026
# oxidation-state N -0.153 -0.153 -0.152 -0.153
# oxidation-state Fe +0.048
# oxidation-state S -0.305 +0.406 -0.399 -0.398 +0.406 -0.305
# oxidation-state Na +0.710 +0.710


Computing DFT-D3 correction:
# coordination-number C 3.300 3.301 3.301 3.300 3.300 3.296 3.300 3.301 3.460 3.300 3.300 3.300 3.300 3.300 3.448 3.300 3.300 3.298 3.494 3.300 3.300 3.300 3.291 3.300 3.307 3.291 3.300 3.300 3.524 3.301 3.300 3.502 3.300 3.301 3.300 3.300 3.307 3.296 3.300 3.300 3.474 3.300 3.301 3.300 3.300 3.300 3.300 3.300 3.301 3.516 3.291 3.300 3.300 3.498 3.300 3.300 3.300 3.442 3.301 3.300 3.496 3.300 3.300 3.292 3.300 3.299
# coordination-number N 3.403 3.455 3.391 3.474
# coordination-number Fe 5.946
# coordination-number S 2.010 3.001 2.900 2.897 2.999 2.010
# coordination-number Na 5.588 5.596
# diagonal-C6 C 24.28 24.27 24.27 24.28 24.28 24.32 24.28 24.27 22.23 24.28 24.28 24.28 24.28 24.28 22.42 24.29 24.29 24.30 21.73 24.28 24.28 24.28 24.36 24.28 24.21 24.36 24.28 24.28 21.29 24.27 24.28 21.62 24.28 24.27 24.28 24.28 24.21 24.32 24.28 24.28 22.02 24.28 24.27 24.28 24.28 24.28 24.28 24.28 24.27 21.41 24.37 24.28 24.28 21.67 24.28 24.28 24.28 22.51 24.27 24.29 21.71 24.28 24.28 24.36 24.28 24.29
# diagonal-C6 N 15.59 15.58 15.59 15.58
# diagonal-C6 Fe 109.50
# diagonal-C6 S 125.89 125.81 125.81 125.81 125.81 125.89
# diagonal-C6 Na 186.11 186.11
EvdW_6 =   -0.066291
EvdW_8 =   -0.062286

-------- Electronic minimization -----------
Will mix electronic density at each iteration.
	FillingsUpdate:  mu: -0.171839455  nElectrons: 354.000000
	FillingsUpdate:  mu: -0.171206683  nElectrons: 354.000000
SCF: Cycle:  0   F: -698.376086123767209   dF: -6.627e-03   |Residual|: 1.491e-01   |deigs|: 7.375e-04  t[s]:    328.11
	FillingsUpdate:  mu: -0.180518386  nElectrons: 354.000000
SCF: Cycle:  1   F: -696.999679065077316   dF: +1.376e+00   |Residual|: 7.110e-01   |deigs|: 8.737e-03  t[s]:    331.58
	FillingsUpdate:  mu: -0.173507419  nElectrons: 354.000000
SCF: Cycle:  2   F: -698.424125847802316   dF: -1.424e+00   |Residual|: 5.836e-02   |deigs|: 7.798e-03  t[s]:    335.03
	FillingsUpdate:  mu: -0.171283746  nElectrons: 354.000000
SCF: Cycle:  3   F: -698.376777035672717   dF: +4.735e-02   |Residual|: 1.223e-01   |deigs|: 1.206e-03  t[s]:    338.48
	FillingsUpdate:  mu: -0.173878745  nElectrons: 354.000000
SCF: Cycle:  4   F: -698.419101443161821   dF: -4.232e-02   |Residual|: 4.963e-02   |deigs|: 1.323e-03  t[s]:    341.99
	FillingsUpdate:  mu: -0.173246016  nElectrons: 354.000000
SCF: Cycle:  5   F: -698.428230422229149   dF: -9.129e-03   |Residual|: 6.638e-03   |deigs|: 3.778e-04  t[s]:    344.31
	FillingsUpdate:  mu: -0.173268441  nElectrons: 354.000000
SCF: Cycle:  6   F: -698.428182659895697   dF: +4.776e-05   |Residual|: 7.717e-03   |deigs|: 2.732e-04  t[s]:    346.63
	FillingsUpdate:  mu: -0.173098038  nElectrons: 354.000000
SCF: Cycle:  7   F: -698.428344195839486   dF: -1.615e-04   |Residual|: 3.402e-03   |deigs|: 2.162e-04  t[s]:    348.95
	FillingsUpdate:  mu: -0.173087034  nElectrons: 354.000000
SCF: Cycle:  8   F: -698.428382719718456   dF: -3.852e-05   |Residual|: 1.732e-03   |deigs|: 2.689e-04  t[s]:    351.28
	FillingsUpdate:  mu: -0.173045202  nElectrons: 354.000000
SCF: Cycle:  9   F: -698.428396543351255   dF: -1.382e-05   |Residual|: 8.022e-04   |deigs|: 2.478e-04  t[s]:    354.97
	FillingsUpdate:  mu: -0.172957817  nElectrons: 354.000000
SCF: Cycle: 10   F: -698.428400189692866   dF: -3.646e-06   |Residual|: 4.087e-04   |deigs|: 2.057e-04  t[s]:    357.93
	FillingsUpdate:  mu: -0.172852372  nElectrons: 354.000000
SCF: Cycle: 11   F: -698.428398247943278   dF: +1.942e-06   |Residual|: 1.059e-03   |deigs|: 1.519e-04  t[s]:    360.88
	FillingsUpdate:  mu: -0.172675591  nElectrons: 354.000000
[...]
	FillingsUpdate:  mu: -0.170956762  nElectrons: 354.000000
SCF: Cycle:  2   F: -698.428865018748297   dF: -5.979e-04   |Residual|: 4.061e-03   |deigs|: 1.357e-04  t[s]:   1700.28
	FillingsUpdate:  mu: -0.171013728  nElectrons: 354.000000
SCF: Cycle:  3   F: -698.428920114566949   dF: -5.510e-05   |Residual|: 3.339e-04   |deigs|: 4.563e-05  t[s]:   1702.60
	FillingsUpdate:  mu: -0.171011086  nElectrons: 354.000000
SCF: Cycle:  4   F: -698.428920695848888   dF: -5.813e-07   |Residual|: 1.855e-04   |deigs|: 3.250e-05  t[s]:   1704.91
	FillingsUpdate:  mu: -0.171006387  nElectrons: 354.000000
SCF: Cycle:  5   F: -698.428920931835819   dF: -2.360e-07   |Residual|: 1.086e-04   |deigs|: 5.099e-05  t[s]:   1707.21
	FillingsUpdate:  mu: -0.171006087  nElectrons: 354.000000
SCF: Cycle:  6   F: -698.428921009444252   dF: -7.761e-08   |Residual|: 1.342e-04   |deigs|: 4.540e-05  t[s]:   1709.50
	FillingsUpdate:  mu: -0.170997393  nElectrons: 354.000000
SCF: Cycle:  7   F: -698.428921187991591   dF: -1.785e-07   |Residual|: 8.298e-05   |deigs|: 7.177e-05  t[s]:   1711.82
	FillingsUpdate:  mu: -0.170994043  nElectrons: 354.000000
SCF: Cycle:  8   F: -698.428921235150256   dF: -4.716e-08   |Residual|: 2.851e-05   |deigs|: 3.892e-05  t[s]:   1714.13
	FillingsUpdate:  mu: -0.170988858  nElectrons: 354.000000
SCF: Cycle:  9   F: -698.428921247756875   dF: -1.261e-08   |Residual|: 5.673e-05   |deigs|: 3.401e-05  t[s]:   1717.08
	FillingsUpdate:  mu: -0.170981200  nElectrons: 354.000000
SCF: Cycle: 10   F: -698.428921277984273   dF: -3.023e-08   |Residual|: 1.804e-05   |deigs|: 2.096e-05  t[s]:   1720.03
	FillingsUpdate:  mu: -0.170974468  nElectrons: 354.000000
SCF: Cycle: 11   F: -698.428921288313745   dF: -1.033e-08   |Residual|: 1.520e-05   |deigs|: 2.669e-05  t[s]:   1722.99
	FillingsUpdate:  mu: -0.170967559  nElectrons: 354.000000
SCF: Cycle: 12   F: -698.428921293162034   dF: -4.848e-09   |Residual|: 1.163e-05   |deigs|: 4.797e-05  t[s]:   1725.95
	FillingsUpdate:  mu: -0.170961283  nElectrons: 354.000000
SCF: Cycle: 13   F: -698.428921294715565   dF: -1.554e-09   |Residual|: 9.855e-06   |deigs|: 5.934e-05  t[s]:   1728.88
SCF: Converged (|Delta E|<1.000000e-08 for 2 iters).

Setting wave functions to eigenvectors of Hamiltonian

Computing DFT-D3 correction:
# coordination-number C 3.300 3.301 3.301 3.300 3.300 3.298 3.300 3.301 3.471 3.300 3.300 3.300 3.300 3.300 3.452 3.300 3.300 3.297 3.494 3.300 3.300 3.300 3.292 3.300 3.308 3.291 3.300 3.300 3.477 3.301 3.300 3.496 3.300 3.301 3.300 3.300 3.308 3.297 3.300 3.300 3.492 3.300 3.301 3.300 3.300 3.300 3.300 3.300 3.301 3.471 3.291 3.300 3.300 3.493 3.300 3.300 3.300 3.443 3.301 3.300 3.496 3.300 3.300 3.291 3.300 3.297
# coordination-number N 3.382 3.359 3.365 3.372
# coordination-number Fe 5.721
# coordination-number S 2.001 2.977 2.921 2.921 2.974 2.001
# coordination-number Na 5.180 5.156
# diagonal-C6 C 24.28 24.27 24.27 24.28 24.28 24.30 24.28 24.27 22.07 24.28 24.28 24.28 24.28 24.28 22.36 24.28 24.29 24.31 21.72 24.28 24.28 24.28 24.36 24.28 24.20 24.37 24.28 24.28 21.98 24.27 24.28 21.70 24.28 24.27 24.28 24.28 24.20 24.31 24.28 24.28 21.76 24.28 24.27 24.28 24.28 24.28 24.28 24.28 24.27 22.07 24.37 24.28 24.28 21.74 24.28 24.28 24.28 22.49 24.27 24.29 21.70 24.28 24.28 24.36 24.28 24.31
# diagonal-C6 N 15.59 15.59 15.59 15.59
# diagonal-C6 Fe 109.50
# diagonal-C6 S 125.90 125.81 125.81 125.81 125.81 125.90
# diagonal-C6 Na 186.11 186.11
EvdW_6 =   -0.066559
EvdW_8 =   -0.063150

-------- Electronic minimization -----------
Will mix electronic density at each iteration.
	FillingsUpdate:  mu: -0.170961283  nElectrons: 354.000000
	FillingsUpdate:  mu: -0.170935047  nElectrons: 354.000000
SCF: Cycle:  0   F: -698.428906261100792   dF: +3.218e-06   |Residual|: 2.318e-03   |deigs|: 3.762e-06  t[s]:   1735.55
	FillingsUpdate:  mu: -0.170771468  nElectrons: 354.000000
SCF: Cycle:  1   F: -698.428604675913334   dF: +3.016e-04   |Residual|: 9.916e-03   |deigs|: 9.047e-05  t[s]:   1737.86
	FillingsUpdate:  mu: -0.170958354  nElectrons: 354.000000
SCF: Cycle:  2   F: -698.428892438078947   dF: -2.878e-04   |Residual|: 3.335e-03   |deigs|: 9.894e-05  t[s]:   1740.15
	FillingsUpdate:  mu: -0.170911639  nElectrons: 354.000000
SCF: Cycle:  3   F: -698.428929692183033   dF: -3.725e-05   |Residual|: 2.544e-04   |deigs|: 4.062e-05  t[s]:   1742.46
	FillingsUpdate:  mu: -0.170913505  nElectrons: 354.000000
SCF: Cycle:  4   F: -698.428930019201289   dF: -3.270e-07   |Residual|: 1.388e-04   |deigs|: 3.291e-05  t[s]:   1744.75
	FillingsUpdate:  mu: -0.170916980  nElectrons: 354.000000
SCF: Cycle:  5   F: -698.428930152706471   dF: -1.335e-07   |Residual|: 7.642e-05   |deigs|: 4.712e-05  t[s]:   1747.06
	FillingsUpdate:  mu: -0.170917834  nElectrons: 354.000000
SCF: Cycle:  6   F: -698.428930208872316   dF: -5.617e-08   |Residual|: 8.488e-05   |deigs|: 3.751e-05  t[s]:   1749.37
	FillingsUpdate:  mu: -0.170923669  nElectrons: 354.000000
SCF: Cycle:  7   F: -698.428930299046101   dF: -9.017e-08   |Residual|: 4.088e-05   |deigs|: 4.015e-05  t[s]:   1751.67
	FillingsUpdate:  mu: -0.170926961  nElectrons: 354.000000
SCF: Cycle:  8   F: -698.428930324385419   dF: -2.534e-08   |Residual|: 2.413e-05   |deigs|: 1.607e-05  t[s]:   1753.99
	FillingsUpdate:  mu: -0.170931292  nElectrons: 354.000000
SCF: Cycle:  9   F: -698.428930335610062   dF: -1.122e-08   |Residual|: 4.204e-05   |deigs|: 1.030e-05  t[s]:   1756.97
	FillingsUpdate:  mu: -0.170937387  nElectrons: 354.000000
SCF: Cycle: 10   F: -698.428930355608827   dF: -2.000e-08   |Residual|: 1.384e-05   |deigs|: 1.748e-05  t[s]:   1759.94
	FillingsUpdate:  mu: -0.170942686  nElectrons: 354.000000
SCF: Cycle: 11   F: -698.428930363018708   dF: -7.410e-09   |Residual|: 1.171e-05   |deigs|: 2.604e-05  t[s]:   1762.89
	FillingsUpdate:  mu: -0.170948300  nElectrons: 354.000000
SCF: Cycle: 12   F: -698.428930366293343   dF: -3.275e-09   |Residual|: 9.353e-06   |deigs|: 3.416e-05  t[s]:   1765.86
SCF: Converged (|Delta E|<1.000000e-08 for 2 iters).

Setting wave functions to eigenvectors of Hamiltonian

Computing DFT-D3 correction:
# coordination-number C 3.300 3.301 3.301 3.300 3.300 3.298 3.300 3.301 3.471 3.300 3.300 3.300 3.300 3.300 3.452 3.300 3.300 3.297 3.494 3.300 3.300 3.300 3.292 3.300 3.308 3.291 3.300 3.300 3.477 3.301 3.300 3.496 3.300 3.301 3.300 3.300 3.308 3.297 3.300 3.300 3.492 3.300 3.301 3.300 3.300 3.300 3.300 3.300 3.301 3.471 3.291 3.300 3.300 3.493 3.300 3.300 3.300 3.443 3.301 3.300 3.496 3.300 3.300 3.291 3.300 3.297
# coordination-number N 3.382 3.359 3.365 3.372
# coordination-number Fe 5.721
# coordination-number S 2.001 2.977 2.921 2.921 2.974 2.001
# coordination-number Na 5.180 5.156
# diagonal-C6 C 24.28 24.27 24.27 24.28 24.28 24.30 24.28 24.27 22.07 24.28 24.28 24.28 24.28 24.28 22.36 24.28 24.29 24.31 21.72 24.28 24.28 24.28 24.36 24.28 24.20 24.37 24.28 24.28 21.98 24.27 24.28 21.70 24.28 24.27 24.28 24.28 24.20 24.31 24.28 24.28 21.76 24.28 24.27 24.28 24.28 24.28 24.28 24.28 24.27 22.07 24.37 24.28 24.28 21.74 24.28 24.28 24.28 22.49 24.27 24.29 21.70 24.28 24.28 24.36 24.28 24.31
# diagonal-C6 N 15.59 15.59 15.59 15.59
# diagonal-C6 Fe 109.50
# diagonal-C6 S 125.90 125.81 125.81 125.81 125.81 125.90
# diagonal-C6 Na 186.11 186.11
EvdW_6 =   -0.066559
EvdW_8 =   -0.063150

# Ionic positions in cartesian coordinates:
ion C   0.000000000000000   0.000000000000000   1.000007321400000 0
ion C  -2.333835447300000   4.042302545699999   1.000007321400000 0
ion C  11.669120544600000  20.211531625799999   1.000007321400000 0
ion C   4.667689791900001   0.000000000000000   1.000007321400000 0
ion C  23.338297781100000   0.000000000000000   1.000007321400000 0
ion C   2.333816549999999   4.042302545699999   1.000007321400000 0
ion C -11.669158339200003  20.211531625799999   1.000007321400000 0
ion C  -4.667670894600000   8.084623988700001   1.000007321400000 0
ion C   9.335303994599997  16.169229080099999   1.000007321400000 0
ion C   9.335322891900001   0.000000000000000   1.000007321400000 0
ion C  18.670626886499999   0.000000000000000   1.000007321400000 0
ion C  -9.335322891900001  16.169229080099999   1.000007321400000 0
ion C  -7.001487444600000  12.126907637100000   1.000007321400000 0
ion C  14.002993786499999   0.000000000000000   1.000007321400000 0
ion C   0.000000000000000   8.084623988700001   1.000007321400000 0
ion C   7.001487444599997  20.211531625799999   1.000007321400000 0
ion C  -7.001487444600003  20.211531625799999   1.000007321400000 0
ion C  -2.333816549999999  12.126907637100000   1.000007321400000 0
ion C   4.667670894600002  16.169229080099999   1.000007321400000 0
ion C  -2.333816550000000  20.211531625799999   1.000007321400000 0
ion C   2.333816550000000  20.211531625799999   1.000007321400000 0
ion C  -4.667651997299997  16.169229080099999   1.000007321400000 0
ion C   7.001487444600000   4.042302545699999   1.000007321400000 0
ion C  21.004424539199999   4.042302545699999   1.000007321400000 0
ion C  14.002955991899999  16.169229080099999   1.000007321400000 0
ion C   0.000000000000000  16.169229080099999   1.000007321400000 0
ion C  11.669120544600000   4.042302545699999   1.000007321400000 0
ion C  18.670607989199997   8.084623988700001   1.000007321400000 0
ion C  11.669120544599998  12.126907637100000   1.000007321400000 0
ion C  16.336791439199999  12.126907637100000   1.000007321400000 0
ion C  16.336791439199999   4.042302545699999   1.000007321400000 0
ion C   9.335303994599997   8.084623988700001   1.000007321400000 0
ion C  14.002955991899999   8.084623988700001   1.000007321400000 0
ion C   0.000000000000000   2.694868363800000   1.000007321400000 0
ion C  11.669120544600000  22.906399989600001   1.000007321400000 0
ion C -11.669120544600000  22.906399989600001   1.000007321400000 0
ion C  -2.333816550000000   6.737170909500000   1.000007321400000 0
ion C   9.335303994599995  18.864097443900000   1.000007321400000 0
ion C  -7.001487444600000  22.906399989600001   1.000007321400000 0
ion C   7.001487444600000  22.906399989600001   1.000007321400000 0
ion C   2.333816550000000   6.737170909500000   1.000007321400000 0
ion C  -9.335303994599998  18.864097443900000   1.000007321400000 0
ion C  -4.667670894599998  10.779473455200000   1.000007321400000 0
ion C  -2.333816550000000  22.906399989600001   1.000007321400000 0
ion C   2.333816550000000  22.906399989600001   1.000007321400000 0
ion C  -7.001487444600003  14.821794898200000   1.000007321400000 0
ion C   4.667670894600000   2.694868363800000   1.000007321400000 0
ion C  23.338259986499999   2.694868363800000   1.000007321400000 0
ion C  14.002974889199999  18.864097443900000   1.000007321400000 0
ion C   0.000000000000000  10.779473455200000   1.000007321400000 0
ion C   4.667670894600001  18.864097443900000   1.000007321400000 0
ion C  -4.667633100000002  18.864097443900000   1.000007321400000 0
ion C  -2.333816550000002  14.821794898200000   1.000007321400000 0
ion C   2.333816549999996  14.821794898200000   1.000007321400000 0
ion C  -0.000000000000004  18.864097443900000   1.000007321400000 0
ion C   9.335303994599998   2.694868363800000   1.000007321400000 0
ion C  21.004424539199999   6.737170909500000   1.000007321400000 0
ion C  11.669120544600000  14.821794898200000   1.000007321400000 0
ion C  16.336791439199999  14.821794898200000   1.000007321400000 0
ion C  18.670607989199997   2.694868363800000   1.000007321400000 0
ion C   7.001487444600001   6.737170909500000   1.000007321400000 0
ion C  14.002955991899999   2.694868363800000   1.000007321400000 0
ion C  18.670607989200004  10.779473455200000   1.000007321400000 0
ion C  11.669120544599998   6.737170909500000   1.000007321400000 0
ion C  16.336791439199999   6.737170909500000   1.000007321400000 0
ion C  14.002955991899999  10.779473455200000   1.000007321400000 0
ion N   4.667670894599999   8.084623988700001   1.000007321400000 0
ion N   2.333816549999999  12.126907637100000   1.000007321400000 0
ion N   7.001487444599997  14.821794898200000   1.000007321400000 0
ion N   9.335303994599997  10.779473455200000   1.000007321400000 0
ion Fe   5.837111407799997  11.454314935499999   1.000007321400000 0
ion S   0.904987445781488  10.485144284811522  11.043054520394014 1
ion S   3.690914365696183  12.999434276650115  10.907979003806505 1
ion S   4.040110136875706  14.528389664050025   7.434154051522444 1
ion S   7.651886394445115   8.262197209042444   7.370668439613014 1
ion S   8.052556796246533   9.726680529774494  10.864544321692282 1
ion S  10.853621563813418  12.225462548302275  11.007979936410377 1
ion Na   2.619906222866354   9.522985665778107   6.180722518003759 1
ion Na   9.065356891760946  13.295340431763087   6.192757320657378 1

# Forces in Cartesian coordinates:
force C   0.004347591845770  -0.000205004623729   0.000034391870946 0
force C   0.001323865969248  -0.001196836132064  -0.000072434544243 0
force C   0.003739229679766  -0.001613835403520   0.000038246469072 0
force C   0.001402060766498   0.002895872044890   0.000032646833254 0
force C   0.002554996763846  -0.000341558002199  -0.000000205330109 0
force C   0.005187363533836   0.000969499409261   0.000173149823466 0
force C   0.001086803692571  -0.000652974345499   0.000007287547798 0
force C  -0.000357248199273   0.001786910448731  -0.000051733615541 0
force C  -0.032888317471928  -0.011081940405348  -0.001315003692243 0
force C  -0.001042147994745   0.000639355598776   0.000021387993883 0
force C  -0.000621947424497  -0.000158559646937   0.000008094503439 0
force C  -0.000039503210200   0.001282159369681   0.000007830307404 0
force C   0.001988792731247   0.003843178408137   0.000038844845061 0
force C  -0.001168744531053  -0.000578382769442   0.000010086156968 0
force C   0.010329927852603   0.006035826234870   0.000457391926935 0
force C   0.002887664060204   0.002954124996768   0.000037066222794 0
force C   0.001496110534838   0.000868508129494  -0.000001684865129 0
force C   0.003467066150168   0.004006763206599   0.000240913676280 0
force C   0.027020417490032   0.011805137380076   0.000035722336720 0
force C   0.000013524218698  -0.001135616692082   0.000023912338551 0
force C  -0.003412187049391   0.000654972641758   0.000086437310543 0
force C   0.003135384396056  -0.000172538809431   0.000035166156135 0
force C   0.005282645258515   0.007085963056363  -0.000108562363063 0
force C   0.001616958498287   0.000996997781462   0.000006069216010 0
force C  -0.000131633101508  -0.000131730610554   0.000377602790683 0
force C   0.008823190757302   0.000855759616615  -0.000163476269799 0
force C  -0.001129436913414  -0.003107671767968   0.000077106482665 0
force C   0.000890421244975   0.002455241423375   0.000014311489550 0
force C  -0.026397210859028  -0.023424033767067  -0.001329256431711 0
force C   0.000375174320364   0.003964836750017   0.000036981339827 0
force C  -0.000519483834485  -0.000306056312433   0.000010806870730 0
force C   0.024102950190329   0.018298987085728  -0.000274815093429 0
force C   0.003734956057909   0.001087880499112   0.000091764375457 0
force C  -0.003726937842495   0.001606764058276   0.000040569943839 0
force C  -0.004316239408656   0.000193901451116   0.000032316004400 0
force C  -0.002589969231649   0.000348588771413   0.000000512468261 0
force C   0.000094628374537   0.000111248246093   0.000381554137238 0
force C  -0.005201192765006  -0.001048913207278   0.000165908240609 0
force C   0.000629747666483   0.000165287245049   0.000009756788682 0
force C  -0.001418085062528  -0.002885298631586   0.000029216017030 0
force C   0.032926946914904   0.011081156075903  -0.001405528814047 0
force C  -0.001619962887651  -0.001000442744865   0.000005636495666 0
force C  -0.000380118916318  -0.003940928963676   0.000034358268942 0
force C   0.001162621152830   0.000588394249840   0.000009562203533 0
force C   0.001043153720013  -0.000633566330860   0.000019848074349 0
force C  -0.000878629933285  -0.002469163186741   0.000013368680713 0
force C  -0.002871426527100  -0.002957074896780   0.000035072655973 0
force C  -0.001069348897348   0.000660109444148   0.000008685423581 0
force C  -0.001343754620330   0.001206758486303  -0.000069173546429 0
force C   0.026587812509700   0.023600145753682  -0.001320206753657 0
force C  -0.005254768746684  -0.007132018265435  -0.000083572277178 0
force C   0.000491076290868   0.000305164457757   0.000009930876207 0
force C  -0.003739678656438  -0.001148564370292   0.000088921097867 0
force C  -0.024073028439164  -0.018532097851631  -0.000149046011581 0
force C   0.001139549941937   0.003129688504769   0.000068959079504 0
force C   0.003403898965420  -0.000650536258861   0.000095293257735 0
force C   0.000058437992733  -0.001272949069596   0.000006882582237 0
force C  -0.010386719637546  -0.006022132891603   0.000462959930398 0
force C   0.000351855578555  -0.001805579420039  -0.000051454110067 0
force C  -0.001491248380868  -0.000882754527390  -0.000001847239101 0
force C  -0.027028854376831  -0.011821066874643  -0.000059831109704 0
force C  -0.000014232239906   0.001148270495817   0.000025566825362 0
force C  -0.001977735870810  -0.003832764085933   0.000039344135874 0
force C  -0.008820281043374  -0.000836996094034  -0.000212435619024 0
force C  -0.003163063784471   0.000169856633903   0.000041937032242 0
force C  -0.003481227868564  -0.004000864861560   0.000246017936439 0
force N   0.026457290363387  -0.025900765548391   0.000721901136237 0
force N  -0.009608811786344   0.036264744993994  -0.000149457690691 0
force N  -0.026250469161747   0.026090832910867   0.000735208723339 0
force N   0.009852248341516  -0.036225988152167  -0.000119187417851 0
force Fe  -0.000066142713302   0.000134117959698   0.002217734386317 0
force S  -0.000014229422633  -0.000019027912419  -0.000086441998409 1
force S   0.000089357508496   0.000201639213053   0.000006551059354 1
force S   0.000107654751313  -0.000068285659881  -0.000026156299566 1
force S   0.000068722912197  -0.000061050802676  -0.000020318736505 1
force S  -0.000081127558047   0.000071157656635   0.000020014120057 1
force S  -0.000147315229652  -0.000035231081248  -0.000104268048630 1
force Na   0.000002304143955   0.000042787422679  -0.000069645236950 1
force Na  -0.000007139174865  -0.000039905595968  -0.000110164168060 1

# Energy components:
   Eewald =    -1919.5489188498127078
       EH =    -1375.4056628167231793
     Eloc =     2524.7262437517920262
      Enl =      -55.2130336581211907
     EvdW =       -0.1297093501715337
      Exc =     -184.4831562111164089
 Exc_core =       13.9690388460051409
       KE =      297.7511622898167616
-------------------------------------
     Etot =     -698.3340359983311600
       TS =        0.0948943679621455
-------------------------------------
        F =     -698.4289303662933435

IonicMinimize: Iter:  12  F: -698.428930366293343  |grad|_K:  7.875e-05  alpha:  4.223e+00  linmin:  2.004e-04  t[s]:   1769.00
IonicMinimize: Converged (|grad|_K<1.000000e-04).

#--- Lowdin population analysis ---
# oxidation-state C +0.047 +0.035 +0.039 +0.039 +0.042 +0.024 +0.040 +0.036 +0.120 +0.044 +0.041 +0.041 +0.048 +0.045 -0.018 +0.050 +0.046 +0.027 +0.129 +0.045 +0.041 +0.040 +0.038 +0.049 +0.047 +0.040 +0.041 +0.043 +0.122 +0.040 +0.042 +0.134 +0.052 +0.039 +0.047 +0.042 +0.047 +0.024 +0.041 +0.039 +0.119 +0.049 +0.040 +0.045 +0.044 +0.043 +0.050 +0.040 +0.035 +0.123 +0.038 +0.042 +0.052 +0.134 +0.041 +0.041 +0.041 -0.017 +0.036 +0.047 +0.129 +0.045 +0.048 +0.041 +0.040 +0.027
# oxidation-state N -0.152 -0.148 -0.151 -0.148
# oxidation-state Fe +0.063
# oxidation-state S -0.312 +0.395 -0.392 -0.391 +0.396 -0.313
# oxidation-state Na +0.716 +0.716


Dumping 'Na2S6@FeN4-vdw.fillings' ... done
Dumping 'Na2S6@FeN4-vdw.wfns' ... done
Dumping 'Na2S6@FeN4-vdw.ionpos' ... done
Dumping 'Na2S6@FeN4-vdw.eigenvals' ... done
End date and time: Wed Jan 15 18:00:03 2025  (Duration: 0-0:29:32.87)
Done!
