
*************** JDFTx 1.7.0  ***************

Start date and time: Wed Jan 15 17:30:30 2025
Executable jdftx_gpu with command-line: -i /home/akim2/JDFTx/Na2S2@FeN4-vdw/Na2S2@FeN4-vdw.in -o /home/akim2/JDFTx/Na2S2@FeN4-vdw/Na2S2@FeN4-vdw.out
Running on hosts (process indices):  exp-8-57 (0)
Divided in process groups (process indices):  0 (0)
gpuInit: Found compatible cuda device 0 'Tesla V100-SXM2-32GB'
gpuInit: Selected device 0
Resource initialization completed at t[s]:      0.68
Run totals: 1 processes, 1 threads, 1 GPUs


Input parsed successfully to the following command list (including defaults):

basis kpoint-dependent
coords-type Cartesian
core-overlap-check vector
coulomb-interaction Slab 001
coulomb-truncation-embed 0 0 2
davidson-band-ratio 1.1
dump End State
dump-name Na2S2@FeN4-vdw.$VAR
elec-cutoff 20 100
elec-eigen-algo Davidson
elec-ex-corr gga-PBE
elec-smearing Fermi 0.01
electronic-minimize  \
	dirUpdateScheme      FletcherReeves \
	linminMethod         DirUpdateRecommended \
	nIterations          100 \
	history              15 \
	knormThreshold       0 \
	energyDiffThreshold  1e-08 \
	nEnergyDiff          2 \
	alphaTstart          1 \
	alphaTmin            1e-10 \
	updateTestStepSize   yes \
	alphaTreduceFactor   0.1 \
	alphaTincreaseFactor 3 \
	nAlphaAdjustMax      3 \
	wolfeEnergy          0.0001 \
	wolfeGradient        0.9 \
	fdTest               no
electronic-scf  \
	nIterations	50 \
	energyDiffThreshold	1e-08 \
	residualThreshold	1e-07 \
	mixFraction	0.5 \
	qMetric	0.8 \
	history	10 \
	nEigSteps	2 \
	eigDiffThreshold	1e-08 \
	mixedVariable	Density \
	qKerker	0.8 \
	qKappa	-1 \
	verbose	no \
	mixFractionMag	1.5
exchange-regularization WignerSeitzTruncated
fluid None
fluid-ex-corr lda-TF lda-PZ
fluid-gummel-loop 10 1.000000e-05
fluid-minimize  \
	dirUpdateScheme      PolakRibiere \
	linminMethod         DirUpdateRecommended \
	nIterations          100 \
	history              15 \
	knormThreshold       0 \
	energyDiffThreshold  0 \
	nEnergyDiff          2 \
	alphaTstart          1 \
	alphaTmin            1e-10 \
	updateTestStepSize   yes \
	alphaTreduceFactor   0.1 \
	alphaTincreaseFactor 3 \
	nAlphaAdjustMax      3 \
	wolfeEnergy          0.0001 \
	wolfeGradient        0.9 \
	fdTest               no
fluid-solvent H2O 55.338 ScalarEOS \
	epsBulk 78.4 \
	pMol 0.92466 \
	epsInf 1.77 \
	Pvap 1.06736e-10 \
	sigmaBulk 4.62e-05 \
	Rvdw 2.61727 \
	Res 1.42 \
	tauNuc 343133 \
	poleEl 15 7 1
forces-output-coords Positions
ion C   0.000000000000000   0.000000000000000   1.000001652210000 0
ion C  -2.333831667840000   4.042310104620000   1.000001652210000 0
ion C  11.669128103520006  20.211535405260001   1.000001652210000 0
ion C   4.667680343250000   0.000000000000000   1.000001652210000 0
ion C  23.338288332449999   0.000000000000000   1.000001652210000 0
ion C   2.333822219190000   4.042310104620000   1.000001652210000 0
ion C -11.669150780279997  20.211535405260001   1.000001652210000 0
ion C  -4.667665225410000   8.084622098970000   1.000001652210000 0
ion C   9.335305884329996  16.169223410910007   1.000001652210000 0
ion C   9.335322891900001   0.000000000000000   1.000001652210000 0
ion C  18.670626886499999   0.000000000000000   1.000001652210000 0
ion C  -9.335317222710001  16.169223410910007   1.000001652210000 0
ion C  -7.001485554870001  12.126913306290001   1.000001652210000 0
ion C  14.002984337850000   0.000000000000000   1.000001652210000 0
ion C   0.000000000000000   8.084622098970000   1.000001652210000 0
ion C   7.001485554870008  20.211535405260001   1.000001652210000 0
ion C  -7.001481775409996  20.211535405260001   1.000001652210000 0
ion C  -2.333822219190000  12.126913306290001   1.000001652210000 0
ion C   4.667663335679999  16.169223410910007   1.000001652210000 0
ion C  -2.333820329459996  20.211535405260001   1.000001652210000 0
ion C   2.333824108920002  20.211535405260001   1.000001652210000 0
ion C  -4.667659556220003  16.169223410910007   1.000001652210000 0
ion C   7.001483665139999   4.042310104620000   1.000001652210000 0
ion C  21.004430208390001   4.042310104620000   1.000001652210000 0
ion C  14.002948432980000  16.169223410910007   1.000001652210000 0
ion C   0.000001889729996  16.169223410910007   1.000001652210000 0
ion C  11.669126213789999   4.042310104620000   1.000001652210000 0
ion C  18.670609878930001   8.084622098970000   1.000001652210000 0
ion C  11.669126213789998  12.126913306290001   1.000001652210000 0
ion C  16.336787659739997  12.126913306290001   1.000001652210000 0
ion C  16.336789549470002   4.042310104620000   1.000001652210000 0
ion C   9.335303994600004   8.084622098970000   1.000001652210000 0
ion C  14.002948432980002   8.084622098970000   1.000001652210000 0
ion C   0.000000000000000   2.694874032990001   1.000001652210000 0
ion C  11.669128103519999  22.906390540950007   1.000001652210000 0
ion C -11.669124324059998  22.906390540950007   1.000001652210000 0
ion C  -2.333822219190000   6.737165240310002   1.000001652210000 0
ion C   9.335305884330001  18.864097443900004   1.000001652210000 0
ion C  -7.001481775409997  22.906390540950007   1.000001652210000 0
ion C   7.001485554870005  22.906390540950007   1.000001652210000 0
ion C   2.333822219190001   6.737165240310002   1.000001652210000 0
ion C  -9.335302104869998  18.864097443900004   1.000001652210000 0
ion C  -4.667661445950000  10.779477234660003   1.000001652210000 0
ion C  -2.333820329460000  22.906390540950007   1.000001652210000 0
ion C   2.333824108920002  22.906390540950007   1.000001652210000 0
ion C  -7.001483665140000  14.821787339280004   1.000001652210000 0
ion C   4.667661445950001   2.694874032990001   1.000001652210000 0
ion C  23.338269435150004   2.694874032990001   1.000001652210000 0
ion C  14.002967330280004  18.864097443900004   1.000001652210000 0
ion C   0.000000000000000  10.779477234660003   1.000001652210000 0
ion C   4.667663335679999  18.864097443900004   1.000001652210000 0
ion C  -4.667640658919998  18.864097443900004   1.000001652210000 0
ion C  -2.333822219190001  14.821787339280004   1.000001652210000 0
ion C   2.333824108919998  14.821787339280004   1.000001652210000 0
ion C   0.000001889729999  18.864097443900004   1.000001652210000 0
ion C   9.335303994599997   2.694874032990001   1.000001652210000 0
ion C  21.004430208390001   6.737165240310002   1.000001652210000 0
ion C  11.669126213790001  14.821787339280004   1.000001652210000 0
ion C  16.336789549469998  14.821787339280004   1.000001652210000 0
ion C  18.670609878930005   2.694874032990001   1.000001652210000 0
ion C   7.001483665139999   6.737165240310002   1.000001652210000 0
ion C  14.002946543250001   2.694874032990001   1.000001652210000 0
ion C  18.670607989200008  10.779477234660003   1.000001652210000 0
ion C  11.669126213789998   6.737165240310002   1.000001652210000 0
ion C  16.336787659740004   6.737165240310002   1.000001652210000 0
ion C  14.002946543250001  10.779477234660003   1.000001652210000 0
ion N   4.667661445950002   8.084622098970000   1.000001652210000 0
ion N   2.333822219190002  12.126913306290001   1.000001652210000 0
ion N   7.001485554869999  14.821787339280004   1.000001652210000 0
ion N   9.335305884330001  10.779477234660003   1.000001652210000 0
ion Fe   5.837109518070000  11.454309266310002   1.000001652210000 0
ion S   7.957604673169125   9.423868455096347   7.495348778892335 1
ion S   5.308434964707287  11.504392524866082   5.410570763127736 1
ion Na   9.967039672232293  13.622734525507779   5.646456644863498 1
ion Na   4.547646257979583   6.275969280048052   5.672060951751368 1
ion-species GBRV/$ID_pbe.uspp
ion-width 0
ionic-minimize  \
	dirUpdateScheme      FletcherReeves \
	linminMethod         DirUpdateRecommended \
	nIterations          200 \
	history              15 \
	knormThreshold       0.0001 \
	energyDiffThreshold  1e-06 \
	nEnergyDiff          2 \
	alphaTstart          1 \
	alphaTmin            1e-10 \
	updateTestStepSize   yes \
	alphaTreduceFactor   0.1 \
	alphaTincreaseFactor 3 \
	nAlphaAdjustMax      3 \
	wolfeEnergy          0.0001 \
	wolfeGradient        0.9 \
	fdTest               no
kpoint   0.000000000000   0.000000000000   0.000000000000  1.00000000000000
kpoint-folding 1 1 1 
latt-move-scale 1 1 1
latt-scale 1 1 1 
lattice Triclinic 28.0058 28.0058 32.1253 90 90 120
lattice-minimize  \
	dirUpdateScheme      L-BFGS \
	linminMethod         DirUpdateRecommended \
	nIterations          0 \
	history              15 \
	knormThreshold       0 \
	energyDiffThreshold  1e-06 \
	nEnergyDiff          2 \
	alphaTstart          1 \
	alphaTmin            1e-10 \
	updateTestStepSize   yes \
	alphaTreduceFactor   0.1 \
	alphaTincreaseFactor 3 \
	nAlphaAdjustMax      3 \
	wolfeEnergy          0.0001 \
	wolfeGradient        0.9 \
	fdTest               no
lcao-params -1 1e-06 0.01
pcm-variant GLSSA13
spintype no-spin
subspace-rotation-factor 1 yes
symmetries automatic
symmetry-threshold 0.0001
van-der-waals D3



---------- Setting up symmetries ----------

Found 24 point-group symmetries of the bravais lattice
Found 1 space-group symmetries with basis
Applied RMS atom displacement 0 bohrs to make symmetries exact.

---------- Initializing the Grid ----------
R = 
[      28.0058     -14.0029            0  ]
[            0      24.2537            0  ]
[            0            0      32.1253  ]
unit cell volume = 21821
G =
[   0.224353    0.12953         -0  ]
[          0   0.259061          0  ]
[          0         -0   0.195584  ]
Minimum fftbox size, Smin = [  128  128  148  ]
Chosen fftbox size, S = [  128  128  150  ]

---------- Initializing tighter grid for wavefunction operations ----------
R = 
[      28.0058     -14.0029            0  ]
[            0      24.2537            0  ]
[            0            0      32.1253  ]
unit cell volume = 21821
G =
[   0.224353    0.12953         -0  ]
[          0   0.259061          0  ]
[          0         -0   0.195584  ]
Minimum fftbox size, Smin = [  116  116  132  ]
Chosen fftbox size, S = [  120  120  140  ]

---------- Exchange Correlation functional ----------
Initalized PBE GGA exchange.
Initalized PBE GGA correlation.

---------- Setting up pseudopotentials ----------
Width of ionic core gaussian charges (only for fluid interactions / plotting) set to 0

Reading pseudopotential file '/home/akim2/jdftx_install/build/pseudopotentials/GBRV/c_pbe.uspp':
  Title: C.  Created by USPP 7.3.6 on 3-2-2014
  Reference state energy: -5.406344.  4 valence electrons in orbitals:
    |200>  occupation: 2  eigenvalue: -0.504890
    |210>  occupation: 2  eigenvalue: -0.194356
  lMax: 1  lLocal: 2  QijEcut: 5
  4 projectors sampled on a log grid with 503 points:
    l: 0  eig: -0.504890  rCut: 1.3
    l: 0  eig: 0.000000  rCut: 1.3
    l: 1  eig: -0.194357  rCut: 1.3
    l: 1  eig: 0.000000  rCut: 1.3
  Partial core density with radius 1.1
  Transforming core density to a uniform radial grid of dG=0.02 with 1618 points.
  Transforming local potential to a uniform radial grid of dG=0.02 with 1618 points.
  Transforming nonlocal projectors to a uniform radial grid of dG=0.02 with 432 points.
  Transforming density augmentations to a uniform radial grid of dG=0.02 with 1618 points.
  Transforming atomic orbitals to a uniform radial grid of dG=0.02 with 432 points.
  Core radius for overlap checks: 1.30 bohrs.

Reading pseudopotential file '/home/akim2/jdftx_install/build/pseudopotentials/GBRV/n_pbe.uspp':
  Title: N.  Created by USPP 7.3.6 on 3-2-2014
  Reference state energy: -9.763716.  5 valence electrons in orbitals:
    |200>  occupation: 2  eigenvalue: -0.681964
    |210>  occupation: 3  eigenvalue: -0.260726
  lMax: 1  lLocal: 2  QijEcut: 6
  4 projectors sampled on a log grid with 491 points:
    l: 0  eig: -0.681964  rCut: 1.15
    l: 0  eig: 0.000000  rCut: 1.15
    l: 1  eig: -0.260729  rCut: 1.2
    l: 1  eig: 0.500000  rCut: 1.2
  Partial core density with radius 0.8
  Transforming core density to a uniform radial grid of dG=0.02 with 1618 points.
  Transforming local potential to a uniform radial grid of dG=0.02 with 1618 points.
  Transforming nonlocal projectors to a uniform radial grid of dG=0.02 with 432 points.
  Transforming density augmentations to a uniform radial grid of dG=0.02 with 1618 points.
  Transforming atomic orbitals to a uniform radial grid of dG=0.02 with 432 points.
  Core radius for overlap checks: 1.20 bohrs.

Reading pseudopotential file '/home/akim2/jdftx_install/build/pseudopotentials/GBRV/fe_pbe.uspp':
  Title: Fe.  Created by USPP 7.3.6 on 15-6-15
  Reference state energy: -124.316937.  16 valence electrons in orbitals:
    |300>  occupation: 2  eigenvalue: -4.008817
    |310>  occupation: 6  eigenvalue: -2.753096
    |320>  occupation: 5  eigenvalue: -0.791264
    |400>  occupation: 2  eigenvalue: -0.516384
    |410>  occupation: 0  eigenvalue: -0.312222
  lMax: 2  lLocal: 3  QijEcut: 6
  6 projectors sampled on a log grid with 607 points:
    l: 0  eig: -4.008819  rCut: 1.55
    l: 0  eig: -0.516386  rCut: 1.55
    l: 1  eig: -2.753096  rCut: 1.55
    l: 1  eig: -0.312226  rCut: 1.55
    l: 2  eig: -0.791264  rCut: 1.65
    l: 2  eig: -0.450000  rCut: 1.65
  Partial core density with radius 0.65
  Transforming core density to a uniform radial grid of dG=0.02 with 1618 points.
  Transforming local potential to a uniform radial grid of dG=0.02 with 1618 points.
  Transforming nonlocal projectors to a uniform radial grid of dG=0.02 with 432 points.
  Transforming density augmentations to a uniform radial grid of dG=0.02 with 1618 points.
  Transforming atomic orbitals to a uniform radial grid of dG=0.02 with 432 points.
  Core radius for overlap checks: 1.65 bohrs.

Reading pseudopotential file '/home/akim2/jdftx_install/build/pseudopotentials/GBRV/s_pbe.uspp':
  Title: S.  Created by USPP 7.3.6 on 1-4-15
  Reference state energy: -11.898476.  6 valence electrons in orbitals:
    |300>  occupation: 2  eigenvalue: -0.634167
    |310>  occupation: 4  eigenvalue: -0.257568
  lMax: 2  lLocal: 3  QijEcut: 6
  6 projectors sampled on a log grid with 635 points:
    l: 0  eig: -0.634161  rCut: 1.5
    l: 0  eig: 1.500000  rCut: 1.5
    l: 1  eig: -0.257567  rCut: 1.5
    l: 1  eig: 1.500000  rCut: 1.5
    l: 2  eig: -1.000000  rCut: 1.5
    l: 2  eig: 1.500000  rCut: 1.5
  Partial core density with radius 1.15
  Transforming core density to a uniform radial grid of dG=0.02 with 1618 points.
  Transforming local potential to a uniform radial grid of dG=0.02 with 1618 points.
  Transforming nonlocal projectors to a uniform radial grid of dG=0.02 with 432 points.
  Transforming density augmentations to a uniform radial grid of dG=0.02 with 1618 points.
  Transforming atomic orbitals to a uniform radial grid of dG=0.02 with 432 points.
  Core radius for overlap checks: 1.50 bohrs.

Reading pseudopotential file '/home/akim2/jdftx_install/build/pseudopotentials/GBRV/na_pbe.uspp':
  Title: Na.  Created by USPP 7.3.6 on 23-9-15
  Reference state energy: -47.625620.  9 valence electrons in orbitals:
    |200>  occupation: 2  eigenvalue: -2.085638
    |210>  occupation: 6  eigenvalue: -1.053708
    |300>  occupation: 1  eigenvalue: -0.100838
  lMax: 2  lLocal: 0  QijEcut: 6
  5 projectors sampled on a log grid with 657 points:
    l: 0  eig: -2.085640  rCut: 1.37
    l: 0  eig: -0.100839  rCut: 1.37
    l: 1  eig: -1.053708  rCut: 1.47
    l: 1  eig: 0.500000  rCut: 1.47
    l: 2  eig: 0.750000  rCut: 2
  Transforming local potential to a uniform radial grid of dG=0.02 with 1618 points.
  Transforming nonlocal projectors to a uniform radial grid of dG=0.02 with 432 points.
  Transforming density augmentations to a uniform radial grid of dG=0.02 with 1618 points.
  Transforming atomic orbitals to a uniform radial grid of dG=0.02 with 432 points.
  Core radius for overlap checks: 2.00 bohrs.

Initialized 5 species with 75 total atoms.

Folded 1 k-points by 1x1x1 to 1 k-points.

---------- Setting up k-points, bands, fillings ----------
No reducable k-points. 
Computing the number of bands and number of electrons
Calculating initial fillings.
nElectrons: 330.000000   nBands: 311   nStates: 1

----- Setting up reduced wavefunction bases (one per k-point) -----
average nbasis = 93173.000 , ideal nbasis = 93220.781

---------- Setting up coulomb interaction ----------
Setting up double-sized grid for truncated Coulomb potentials:
R = 
[      28.0058     -14.0029            0  ]
[            0      24.2537            0  ]
[            0            0      64.2506  ]
unit cell volume = 43641.9
G =
[   0.224353    0.12953         -0  ]
[          0   0.259061          0  ]
[          0         -0  0.0977919  ]
Chosen fftbox size, S = [  128  128  300  ]
Integer grid location selected as the embedding center:
   Grid: [  0  0  9  ]
   Lattice: [  0  0  0.0622563  ]
   Cartesian: [  0  0  2  ]
Constructing Wigner-Seitz cell: 8 faces (6 quadrilaterals, 2 hexagons)
Range-separation parameter for embedded mesh potentials due to point charges: 0.590105 bohrs.
Initialized slab truncation along lattice direction 001

Initializing DFT-D3 calculator:
	Parameters set for gga-PBE functional
	s6:  1.000  s_r6:  1.217
	s8:  0.722  s_r8:  1.000
	Per-atom parameters loaded for:
	 C:  sqrtQ[a0]:  3.105  Rcov[a0]:  1.417  CN: [ 0.00 0.99 2.00 3.00 3.98 ]
	 N:  sqrtQ[a0]:  2.712  Rcov[a0]:  1.342  CN: [ 0.00 0.99 2.01 2.99 ]
	Fe:  sqrtQ[a0]:  5.584  Rcov[a0]:  1.965  CN: [ 0.00 1.65 9.14 ]
	 S:  sqrtQ[a0]:  4.041  Rcov[a0]:  1.928  CN: [ 0.00 0.99 1.99 ]
	Na:  sqrtQ[a0]:  6.586  Rcov[a0]:  2.646  CN: [ 0.00 0.97 ]

---------- Setting up 2D ewald sum ----------
Optimum gaussian width for ewald sums = 15.547689 bohr.
Real space sums over 289 unit cells with max indices [  8  8  0  ]
Reciprocal space sums over 81 terms with max indices [  4  4  0  ]

Computing DFT-D3 correction:
# coordination-number C 3.301 3.302 3.304 3.307 3.300 3.639 3.300 3.300 3.836 3.301 3.300 3.300 3.300 3.300 3.311 3.300 3.300 3.288 3.492 3.300 3.300 3.300 3.583 3.300 3.347 3.288 3.302 3.300 3.959 3.305 3.300 3.527 3.302 3.312 3.300 3.301 3.303 3.312 3.301 3.300 3.945 3.300 3.300 3.300 3.300 3.300 3.516 3.300 3.305 3.284 3.290 3.300 3.298 3.484 3.300 3.310 3.300 4.007 3.305 3.300 4.071 3.300 3.300 3.295 3.300 3.326
# coordination-number N 3.904 3.204 3.454 3.548
# coordination-number Fe 6.310
# coordination-number S 2.966 3.951
# coordination-number Na 5.041 5.015
# diagonal-C6 C 24.27 24.26 24.25 24.22 24.28 19.84 24.28 24.28 18.62 24.27 24.29 24.28 24.28 24.29 24.17 24.28 24.28 24.40 21.76 24.29 24.28 24.29 20.49 24.29 23.78 24.39 24.26 24.28 18.37 24.23 24.28 21.24 24.26 24.16 24.28 24.27 24.25 24.17 24.27 24.28 18.39 24.28 24.28 24.28 24.29 24.29 21.41 24.28 24.24 24.43 24.37 24.29 24.30 21.88 24.28 24.18 24.29 18.32 24.23 24.29 18.28 24.28 24.28 24.33 24.28 24.02
# diagonal-C6 N 15.58 15.60 15.58 15.58
# diagonal-C6 Fe 109.50
# diagonal-C6 S 125.81 125.81
# diagonal-C6 Na 186.11 186.11
EvdW_6 =   -0.060704
EvdW_8 =   -0.055778

---------- Allocating electronic variables ----------
Initializing wave functions:  linear combination of atomic orbitals
C pseudo-atom occupations:   s ( 2 )  p ( 2 )
N pseudo-atom occupations:   s ( 2 )  p ( 3 )
Fe pseudo-atom occupations:   s ( 2 0 )  p ( 6 0 )  d ( 8 )
S pseudo-atom occupations:   s ( 2 )  p ( 4 )
Na pseudo-atom occupations:   s ( 2 1 )  p ( 6 )
	FillingsUpdate:  mu: -0.268359793  nElectrons: 330.000000
LCAOMinimize: Iter:   0  F: -636.6032534141344286  |grad|_K:  2.618e-02  alpha:  1.000e+00
	FillingsUpdate:  mu: -0.321947616  nElectrons: 330.000000
LCAOMinimize: Iter:   1  F: -642.0754611333920820  |grad|_K:  1.574e-02  alpha:  1.566e-01  linmin: -1.777e-01  cgtest:  7.110e-01  t[s]:     10.30
LCAOMinimize: Encountered beta<0, resetting CG.
	FillingsUpdate:  mu: -0.180435654  nElectrons: 330.000000
LCAOMinimize: Iter:   2  F: -651.2282388015210017  |grad|_K:  2.797e-02  alpha:  8.338e-02  linmin:  3.469e-01  cgtest: -1.354e-01  t[s]:     11.71
LCAOMinimize: 	Bad step direction: g.d > 0.
LCAOMinimize: 	Undoing step.
LCAOMinimize: 	Step failed: resetting search direction.
	FillingsUpdate:  mu: -0.180435654  nElectrons: 330.000000
LCAOMinimize: Iter:   3  F: -651.2282388015210017  |grad|_K:  2.797e-02  alpha:  0.000e+00
	FillingsUpdate:  mu: -0.228277307  nElectrons: 330.000000
LCAOMinimize: Iter:   4  F: -652.5361074441397022  |grad|_K:  6.916e-03  alpha:  2.464e-02  linmin: -1.696e-01  cgtest:  4.834e-01  t[s]:     14.17
LCAOMinimize: Encountered beta<0, resetting CG.
LCAOMinimize: 	Predicted alpha/alphaT>3.000000, increasing alphaT to 7.391511e-02.
	FillingsUpdate:  mu: -0.284850028  nElectrons: 330.000000
LCAOMinimize: Iter:   5  F: -652.9279550631995335  |grad|_K:  6.895e-03  alpha:  1.628e-01  linmin: -9.967e-03  cgtest: -5.944e-02  t[s]:     16.05
	FillingsUpdate:  mu: -0.227876053  nElectrons: 330.000000
LCAOMinimize: Iter:   6  F: -652.9843598161908176  |grad|_K:  3.308e-03  alpha:  3.425e-02  linmin:  9.271e-02  cgtest: -5.875e-01  t[s]:     17.48
	FillingsUpdate:  mu: -0.226092517  nElectrons: 330.000000
LCAOMinimize: Iter:   7  F: -652.9873923583641044  |grad|_K:  3.402e-03  alpha:  2.032e-02  linmin: -1.507e-05  cgtest:  9.944e-01  t[s]:     18.96
	FillingsUpdate:  mu: -0.275373646  nElectrons: 330.000000
LCAOMinimize: Iter:   8  F: -653.0046393771087878  |grad|_K:  1.618e-03  alpha:  3.066e-02  linmin:  1.546e-03  cgtest:  2.886e-02  t[s]:     20.41
LCAOMinimize: 	Predicted alpha/alphaT>3.000000, increasing alphaT to 9.197775e-02.
	FillingsUpdate:  mu: -0.252630585  nElectrons: 330.000000
LCAOMinimize: Iter:   9  F: -653.0173932772053149  |grad|_K:  8.109e-04  alpha:  1.002e-01  linmin: -1.830e-03  cgtest: -2.388e-01  t[s]:     22.29
	FillingsUpdate:  mu: -0.265654619  nElectrons: 330.000000
LCAOMinimize: Iter:  10  F: -653.0194834019179098  |grad|_K:  7.851e-04  alpha:  6.427e-02  linmin: -1.151e-04  cgtest: -4.475e-02  t[s]:     23.70
	FillingsUpdate:  mu: -0.257038942  nElectrons: 330.000000
LCAOMinimize: Iter:  11  F: -653.0226591285028235  |grad|_K:  4.495e-04  alpha:  1.066e-01  linmin:  3.482e-03  cgtest: -3.365e-02  t[s]:     25.13
	FillingsUpdate:  mu: -0.266366921  nElectrons: 330.000000
LCAOMinimize: Iter:  12  F: -653.0235596174925377  |grad|_K:  4.995e-04  alpha:  9.346e-02  linmin: -3.240e-05  cgtest:  3.599e-02  t[s]:     26.57
	FillingsUpdate:  mu: -0.260035754  nElectrons: 330.000000
LCAOMinimize: Iter:  13  F: -653.0242548907458513  |grad|_K:  3.283e-04  alpha:  5.663e-02  linmin: -3.078e-04  cgtest:  4.749e-03  t[s]:     28.05
	FillingsUpdate:  mu: -0.265013867  nElectrons: 330.000000
LCAOMinimize: Iter:  14  F: -653.0248578083879920  |grad|_K:  2.304e-04  alpha:  1.140e-01  linmin: -1.229e-03  cgtest:  2.599e-02  t[s]:     29.49
	FillingsUpdate:  mu: -0.261143065  nElectrons: 330.000000
LCAOMinimize: Iter:  15  F: -653.0249739481023425  |grad|_K:  1.548e-04  alpha:  4.455e-02  linmin:  7.208e-05  cgtest: -2.142e-02  t[s]:     30.93
	FillingsUpdate:  mu: -0.262665552  nElectrons: 330.000000
LCAOMinimize: Iter:  16  F: -653.0250806307921039  |grad|_K:  9.579e-05  alpha:  9.099e-02  linmin: -2.099e-03  cgtest:  2.540e-02  t[s]:     32.39
	FillingsUpdate:  mu: -0.260765241  nElectrons: 330.000000
LCAOMinimize: Iter:  17  F: -653.0251253062571095  |grad|_K:  1.020e-04  alpha:  9.902e-02  linmin:  3.493e-05  cgtest: -1.137e-02  t[s]:     33.84
	FillingsUpdate:  mu: -0.262243596  nElectrons: 330.000000
LCAOMinimize: Iter:  18  F: -653.0251469761894896  |grad|_K:  3.273e-05  alpha:  4.274e-02  linmin: -3.147e-04  cgtest:  1.910e-02  t[s]:     35.29
	FillingsUpdate:  mu: -0.261885588  nElectrons: 330.000000
LCAOMinimize: Iter:  19  F: -653.0251530205715653  |grad|_K:  3.106e-05  alpha:  1.161e-01  linmin:  7.526e-04  cgtest: -3.743e-03  t[s]:     36.76
	FillingsUpdate:  mu: -0.262473837  nElectrons: 330.000000
LCAOMinimize: Iter:  20  F: -653.0251554095183337  |grad|_K:  2.525e-05  alpha:  5.105e-02  linmin: -3.514e-05  cgtest:  7.420e-03  t[s]:     38.21
	FillingsUpdate:  mu: -0.262165238  nElectrons: 330.000000
LCAOMinimize: Iter:  21  F: -653.0251597348272981  |grad|_K:  1.412e-05  alpha:  1.393e-01  linmin: -5.334e-06  cgtest: -1.390e-02  t[s]:     39.65
	FillingsUpdate:  mu: -0.262404646  nElectrons: 330.000000
LCAOMinimize: Iter:  22  F: -653.0251602996484053  |grad|_K:  1.308e-05  alpha:  5.824e-02  linmin:  8.368e-05  cgtest: -1.077e-03  t[s]:     41.08
	FillingsUpdate:  mu: -0.262194595  nElectrons: 330.000000
LCAOMinimize: Iter:  23  F: -653.0251609447996088  |grad|_K:  8.033e-06  alpha:  7.749e-02  linmin: -1.491e-06  cgtest: -4.831e-04  t[s]:     42.54
LCAOMinimize: Converged (|Delta F|<1.000000e-06 for 2 iters).


---- Citations for features of the code used in this run ----

   Software package:
      R. Sundararaman, K. Letchworth-Weaver, K.A. Schwarz, D. Gunceler, Y. Ozhabes and T.A. Arias, 'JDFTx: software for joint density-functional theory', SoftwareX 6, 278 (2017)

   gga-PBE exchange-correlation functional:
      J.P. Perdew, K. Burke and M. Ernzerhof, Phys. Rev. Lett. 77, 3865 (1996)

   Pseudopotentials:
      KF Garrity, JW Bennett, KM Rabe and D Vanderbilt, Comput. Mater. Sci. 81, 446 (2014)

   Truncated Coulomb potentials:
      R. Sundararaman and T.A. Arias, Phys. Rev. B 87, 165122 (2013)

   DFT-D3 dispersion correction:
      S. Grimme, J. Antony, S. Ehrlich and H. Krieg, J. Chem. Phys. 132, 154104 (2010)

This list may not be complete. Please suggest additional citations or
report any other bugs at https://github.com/shankar1729/jdftx/issues

Initialization completed successfully at t[s]:     42.70


Computing DFT-D3 correction:
# coordination-number C 3.301 3.302 3.304 3.307 3.300 3.639 3.300 3.300 3.836 3.301 3.300 3.300 3.300 3.300 3.311 3.300 3.300 3.288 3.492 3.300 3.300 3.300 3.583 3.300 3.347 3.288 3.302 3.300 3.959 3.305 3.300 3.527 3.302 3.312 3.300 3.301 3.303 3.312 3.301 3.300 3.945 3.300 3.300 3.300 3.300 3.300 3.516 3.300 3.305 3.284 3.290 3.300 3.298 3.484 3.300 3.310 3.300 4.007 3.305 3.300 4.071 3.300 3.300 3.295 3.300 3.326
# coordination-number N 3.904 3.204 3.454 3.548
# coordination-number Fe 6.310
# coordination-number S 2.966 3.951
# coordination-number Na 5.041 5.015
# diagonal-C6 C 24.27 24.26 24.25 24.22 24.28 19.84 24.28 24.28 18.62 24.27 24.29 24.28 24.28 24.29 24.17 24.28 24.28 24.40 21.76 24.29 24.28 24.29 20.49 24.29 23.78 24.39 24.26 24.28 18.37 24.23 24.28 21.24 24.26 24.16 24.28 24.27 24.25 24.17 24.27 24.28 18.39 24.28 24.28 24.28 24.29 24.29 21.41 24.28 24.24 24.43 24.37 24.29 24.30 21.88 24.28 24.18 24.29 18.32 24.23 24.29 18.28 24.28 24.28 24.33 24.28 24.02
# diagonal-C6 N 15.58 15.60 15.58 15.58
# diagonal-C6 Fe 109.50
# diagonal-C6 S 125.81 125.81
# diagonal-C6 Na 186.11 186.11
EvdW_6 =   -0.060704
EvdW_8 =   -0.055778

-------- Electronic minimization -----------
Will mix electronic density at each iteration.
	FillingsUpdate:  mu: -0.262194595  nElectrons: 330.000000
	FillingsUpdate:  mu: -0.274417355  nElectrons: 330.000000
SCF: Cycle:  0   F: -656.466134845524607   dF: -3.441e+00   |Residual|: 9.636e-01   |deigs|: 1.170e-01  t[s]:     48.43
	FillingsUpdate:  mu: -0.259722901  nElectrons: 330.000000
SCF: Cycle:  1   F: -655.317485567787003   dF: +1.149e+00   |Residual|: 8.244e-01   |deigs|: 3.265e-02  t[s]:     51.32
	FillingsUpdate:  mu: -0.201439191  nElectrons: 330.000000
SCF: Cycle:  2   F: -647.305469306478244   dF: +8.012e+00   |Residual|: 1.871e+00   |deigs|: 3.361e-02  t[s]:     54.27
	FillingsUpdate:  mu: -0.222717855  nElectrons: 330.000000
SCF: Cycle:  3   F: -656.744669992718400   dF: -9.439e+00   |Residual|: 3.615e-01   |deigs|: 3.047e-02  t[s]:     57.20
	FillingsUpdate:  mu: -0.211993213  nElectrons: 330.000000
SCF: Cycle:  4   F: -657.214807898106415   dF: -4.701e-01   |Residual|: 1.667e-01   |deigs|: 8.428e-03  t[s]:     60.17
	FillingsUpdate:  mu: -0.208754956  nElectrons: 330.000000
SCF: Cycle:  5   F: -657.201287037805287   dF: +1.352e-02   |Residual|: 1.281e-01   |deigs|: 3.520e-03  t[s]:     63.12
	FillingsUpdate:  mu: -0.195087578  nElectrons: 330.000000
SCF: Cycle:  6   F: -657.254683684812449   dF: -5.340e-02   |Residual|: 1.237e-01   |deigs|: 9.999e-03  t[s]:     66.10
	FillingsUpdate:  mu: -0.192942040  nElectrons: 330.000000
SCF: Cycle:  7   F: -657.262073983825644   dF: -7.390e-03   |Residual|: 9.453e-02   |deigs|: 3.904e-03  t[s]:     69.06
	FillingsUpdate:  mu: -0.187664768  nElectrons: 330.000000
SCF: Cycle:  8   F: -657.279197658746284   dF: -1.712e-02   |Residual|: 4.220e-02   |deigs|: 4.002e-03  t[s]:     72.01
	FillingsUpdate:  mu: -0.183360605  nElectrons: 330.000000
SCF: Cycle:  9   F: -657.281894835443268   dF: -2.697e-03   |Residual|: 1.495e-02   |deigs|: 3.797e-03  t[s]:     74.57
	FillingsUpdate:  mu: -0.177092505  nElectrons: 330.000000
SCF: Cycle: 10   F: -657.283420843501290   dF: -1.526e-03   |Residual|: 1.406e-02   |deigs|: 6.190e-03  t[s]:     77.31
	FillingsUpdate:  mu: -0.172310838  nElectrons: 330.000000
SCF: Cycle: 11   F: -657.283144472649610   dF: +2.764e-04   |Residual|: 1.737e-02   |deigs|: 4.772e-03  t[s]:     79.94
	FillingsUpdate:  mu: -0.168296837  nElectrons: 330.000000
SCF: Cycle: 12   F: -657.282516082673283   dF: +6.284e-04   |Residual|: 2.741e-02   |deigs|: 4.530e-03  t[s]:     82.52
	FillingsUpdate:  mu: -0.163915674  nElectrons: 330.000000
SCF: Cycle: 13   F: -657.284684491501821   dF: -2.168e-03   |Residual|: 8.642e-03   |deigs|: 3.768e-03  t[s]:     85.14
	FillingsUpdate:  mu: -0.159227540  nElectrons: 330.000000
SCF: Cycle: 14   F: -657.284594790589836   dF: +8.970e-05   |Residual|: 9.204e-03   |deigs|: 4.341e-03  t[s]:     87.73
	FillingsUpdate:  mu: -0.155197128  nElectrons: 330.000000
SCF: Cycle: 15   F: -657.284596705501258   dF: -1.915e-06   |Residual|: 8.169e-03   |deigs|: 3.972e-03  t[s]:     90.36
	FillingsUpdate:  mu: -0.151465788  nElectrons: 330.000000
SCF: Cycle: 16   F: -657.284738629164508   dF: -1.419e-04   |Residual|: 3.584e-03   |deigs|: 3.539e-03  t[s]:     92.96
	FillingsUpdate:  mu: -0.147831409  nElectrons: 330.000000
SCF: Cycle: 17   F: -657.284802452968620   dF: -6.382e-05   |Residual|: 3.062e-03   |deigs|: 3.526e-03  t[s]:     95.54
	FillingsUpdate:  mu: -0.145986405  nElectrons: 330.000000
SCF: Cycle: 18   F: -657.284855084228411   dF: -5.263e-05   |Residual|: 1.882e-03   |deigs|: 2.356e-03  t[s]:     98.10
	FillingsUpdate:  mu: -0.144910099  nElectrons: 330.000000
SCF: Cycle: 19   F: -657.284881107817000   dF: -2.602e-05   |Residual|: 1.462e-03   |deigs|: 1.489e-03  t[s]:    100.65
	FillingsUpdate:  mu: -0.144109801  nElectrons: 330.000000
SCF: Cycle: 20   F: -657.284898746992098   dF: -1.764e-05   |Residual|: 1.046e-03   |deigs|: 7.987e-04  t[s]:    103.21
	FillingsUpdate:  mu: -0.143484544  nElectrons: 330.000000
SCF: Cycle: 21   F: -657.284906567246139   dF: -7.820e-06   |Residual|: 7.392e-04   |deigs|: 6.567e-04  t[s]:    105.74
	FillingsUpdate:  mu: -0.143273304  nElectrons: 330.000000
SCF: Cycle: 22   F: -657.284908560620920   dF: -1.993e-06   |Residual|: 4.096e-04   |deigs|: 4.719e-04  t[s]:    108.30
	FillingsUpdate:  mu: -0.143180510  nElectrons: 330.000000
SCF: Cycle: 23   F: -657.284907698782604   dF: +8.618e-07   |Residual|: 8.486e-04   |deigs|: 4.623e-04  t[s]:    110.90
	FillingsUpdate:  mu: -0.143147312  nElectrons: 330.000000
SCF: Cycle: 24   F: -657.284909682647708   dF: -1.984e-06   |Residual|: 4.336e-04   |deigs|: 3.263e-04  t[s]:    113.49
	FillingsUpdate:  mu: -0.143146638  nElectrons: 330.000000
SCF: Cycle: 25   F: -657.284910384153704   dF: -7.015e-07   |Residual|: 1.470e-04   |deigs|: 1.358e-04  t[s]:    116.04
	FillingsUpdate:  mu: -0.143180546  nElectrons: 330.000000
SCF: Cycle: 26   F: -657.284910617304718   dF: -2.332e-07   |Residual|: 1.581e-04   |deigs|: 2.237e-04  t[s]:    118.61
	FillingsUpdate:  mu: -0.143209220  nElectrons: 330.000000
SCF: Cycle: 27   F: -657.284910691642381   dF: -7.434e-08   |Residual|: 1.235e-04   |deigs|: 1.177e-04  t[s]:    121.17
	FillingsUpdate:  mu: -0.143223484  nElectrons: 330.000000
SCF: Cycle: 28   F: -657.284910772183025   dF: -8.054e-08   |Residual|: 3.875e-05   |deigs|: 1.163e-04  t[s]:    123.70
	FillingsUpdate:  mu: -0.143222144  nElectrons: 330.000000
SCF: Cycle: 29   F: -657.284910798299734   dF: -2.612e-08   |Residual|: 3.581e-05   |deigs|: 7.470e-05  t[s]:    126.26
	FillingsUpdate:  mu: -0.143212444  nElectrons: 330.000000
SCF: Cycle: 30   F: -657.284910808811560   dF: -1.051e-08   |Residual|: 4.295e-05   |deigs|: 1.468e-04  t[s]:    128.80
	FillingsUpdate:  mu: -0.143207604  nElectrons: 330.000000
SCF: Cycle: 31   F: -657.284910817950163   dF: -9.139e-09   |Residual|: 2.152e-05   |deigs|: 1.333e-04  t[s]:    131.36
	FillingsUpdate:  mu: -0.143206184  nElectrons: 330.000000
SCF: Cycle: 32   F: -657.284910820203322   dF: -2.253e-09   |Residual|: 1.457e-05   |deigs|: 4.707e-05  t[s]:    133.92
SCF: Converged (|Delta E|<1.000000e-08 for 2 iters).

Setting wave functions to eigenvectors of Hamiltonian

Computing DFT-D3 correction:
# coordination-number C 3.301 3.302 3.304 3.307 3.300 3.639 3.300 3.300 3.836 3.301 3.300 3.300 3.300 3.300 3.311 3.300 3.300 3.288 3.492 3.300 3.300 3.300 3.583 3.300 3.347 3.288 3.302 3.300 3.959 3.305 3.300 3.527 3.302 3.312 3.300 3.301 3.303 3.312 3.301 3.300 3.945 3.300 3.300 3.300 3.300 3.300 3.516 3.300 3.305 3.284 3.290 3.300 3.298 3.484 3.300 3.310 3.300 4.007 3.305 3.300 4.071 3.300 3.300 3.295 3.300 3.326
# coordination-number N 3.904 3.204 3.454 3.548
# coordination-number Fe 6.310
# coordination-number S 2.966 3.951
# coordination-number Na 5.041 5.015
# diagonal-C6 C 24.27 24.26 24.25 24.22 24.28 19.84 24.28 24.28 18.62 24.27 24.29 24.28 24.28 24.29 24.17 24.28 24.28 24.40 21.76 24.29 24.28 24.29 20.49 24.29 23.78 24.39 24.26 24.28 18.37 24.23 24.28 21.24 24.26 24.16 24.28 24.27 24.25 24.17 24.27 24.28 18.39 24.28 24.28 24.28 24.29 24.29 21.41 24.28 24.24 24.43 24.37 24.29 24.30 21.88 24.28 24.18 24.29 18.32 24.23 24.29 18.28 24.28 24.28 24.33 24.28 24.02
# diagonal-C6 N 15.58 15.60 15.58 15.58
# diagonal-C6 Fe 109.50
# diagonal-C6 S 125.81 125.81
# diagonal-C6 Na 186.11 186.11
EvdW_6 =   -0.060704
EvdW_8 =   -0.055778

# Ionic positions in cartesian coordinates:
ion C   0.000000000000000   0.000000000000000   1.000001652210000 0
ion C  -2.333831667840000   4.042310104620000   1.000001652210000 0
ion C  11.669128103520006  20.211535405260001   1.000001652210000 0
ion C   4.667680343250000   0.000000000000000   1.000001652210000 0
ion C  23.338288332449999   0.000000000000000   1.000001652210000 0
ion C   2.333822219190000   4.042310104620000   1.000001652210000 0
ion C -11.669150780279997  20.211535405260001   1.000001652210000 0
ion C  -4.667665225410000   8.084622098970000   1.000001652210000 0
ion C   9.335305884329996  16.169223410910007   1.000001652210000 0
ion C   9.335322891900001   0.000000000000000   1.000001652210000 0
ion C  18.670626886499999   0.000000000000000   1.000001652210000 0
ion C  -9.335317222710001  16.169223410910007   1.000001652210000 0
ion C  -7.001485554870001  12.126913306290001   1.000001652210000 0
ion C  14.002984337850000   0.000000000000000   1.000001652210000 0
ion C   0.000000000000000   8.084622098970000   1.000001652210000 0
ion C   7.001485554870008  20.211535405260001   1.000001652210000 0
ion C  -7.001481775409996  20.211535405260001   1.000001652210000 0
ion C  -2.333822219190000  12.126913306290001   1.000001652210000 0
ion C   4.667663335679999  16.169223410910007   1.000001652210000 0
ion C  -2.333820329459996  20.211535405260001   1.000001652210000 0
ion C   2.333824108920002  20.211535405260001   1.000001652210000 0
ion C  -4.667659556220003  16.169223410910007   1.000001652210000 0
ion C   7.001483665139999   4.042310104620000   1.000001652210000 0
ion C  21.004430208390001   4.042310104620000   1.000001652210000 0
ion C  14.002948432980000  16.169223410910007   1.000001652210000 0
ion C   0.000001889729996  16.169223410910007   1.000001652210000 0
ion C  11.669126213789999   4.042310104620000   1.000001652210000 0
ion C  18.670609878930001   8.084622098970000   1.000001652210000 0
ion C  11.669126213789998  12.126913306290001   1.000001652210000 0
ion C  16.336787659739997  12.126913306290001   1.000001652210000 0
ion C  16.336789549470002   4.042310104620000   1.000001652210000 0
ion C   9.335303994600004   8.084622098970000   1.000001652210000 0
ion C  14.002948432980002   8.084622098970000   1.000001652210000 0
ion C   0.000000000000000   2.694874032990001   1.000001652210000 0
ion C  11.669128103519999  22.906390540950007   1.000001652210000 0
ion C -11.669124324059998  22.906390540950007   1.000001652210000 0
ion C  -2.333822219190000   6.737165240310002   1.000001652210000 0
ion C   9.335305884330001  18.864097443900004   1.000001652210000 0
ion C  -7.001481775409997  22.906390540950007   1.000001652210000 0
ion C   7.001485554870005  22.906390540950007   1.000001652210000 0
ion C   2.333822219190001   6.737165240310002   1.000001652210000 0
ion C  -9.335302104869998  18.864097443900004   1.000001652210000 0
ion C  -4.667661445950000  10.779477234660003   1.000001652210000 0
ion C  -2.333820329460000  22.906390540950007   1.000001652210000 0
ion C   2.333824108920002  22.906390540950007   1.000001652210000 0
ion C  -7.001483665140000  14.821787339280004   1.000001652210000 0
ion C   4.667661445950001   2.694874032990001   1.000001652210000 0
ion C  23.338269435150004   2.694874032990001   1.000001652210000 0
ion C  14.002967330280004  18.864097443900004   1.000001652210000 0
ion C   0.000000000000000  10.779477234660003   1.000001652210000 0
ion C   4.667663335679999  18.864097443900004   1.000001652210000 0
ion C  -4.667640658919998  18.864097443900004   1.000001652210000 0
ion C  -2.333822219190001  14.821787339280004   1.000001652210000 0
ion C   2.333824108919998  14.821787339280004   1.000001652210000 0
ion C   0.000001889729999  18.864097443900004   1.000001652210000 0
ion C   9.335303994599997   2.694874032990001   1.000001652210000 0
ion C  21.004430208390001   6.737165240310002   1.000001652210000 0
ion C  11.669126213790001  14.821787339280004   1.000001652210000 0
ion C  16.336789549469998  14.821787339280004   1.000001652210000 0
ion C  18.670609878930005   2.694874032990001   1.000001652210000 0
ion C   7.001483665139999   6.737165240310002   1.000001652210000 0
ion C  14.002946543250001   2.694874032990001   1.000001652210000 0
ion C  18.670607989200008  10.779477234660003   1.000001652210000 0
ion C  11.669126213789998   6.737165240310002   1.000001652210000 0
ion C  16.336787659740004   6.737165240310002   1.000001652210000 0
ion C  14.002946543250001  10.779477234660003   1.000001652210000 0
ion N   4.667661445950002   8.084622098970000   1.000001652210000 0
ion N   2.333822219190002  12.126913306290001   1.000001652210000 0
ion N   7.001485554869999  14.821787339280004   1.000001652210000 0
ion N   9.335305884330001  10.779477234660003   1.000001652210000 0
ion Fe   5.837109518070000  11.454309266310002   1.000001652210000 0
ion S   7.957604673169125   9.423868455096347   7.495348778892335 1
ion S   5.308434964707287  11.504392524866082   5.410570763127736 1
ion Na   9.967039672232293  13.622734525507779   5.646456644863498 1
ion Na   4.547646257979583   6.275969280048052   5.672060951751368 1

# Forces in Cartesian coordinates:
force C   0.003895366162756  -0.000251401896716  -0.000026075779465 0
force C   0.000992138315748  -0.001022219312654  -0.000124308571453 0
force C   0.002942572677396  -0.001624458798726  -0.000000641279857 0
force C   0.001118643666403   0.001487392703661   0.000317544067707 0
force C   0.001745612267829  -0.000072238994669   0.000021585412470 0
force C   0.002853734408958   0.000919820730793   0.000734152340753 0
force C   0.000901954050506  -0.000050251828312   0.000086855764872 0
force C  -0.000414465280274   0.001701778636833   0.000040664636773 0
force C  -0.036303147382598  -0.011464967094643  -0.000955800722917 0
force C  -0.000971415232666  -0.000102043938444  -0.000039555804925 0
force C  -0.001042957964727  -0.000006204478123   0.000004060969759 0
force C   0.000404444372993   0.001443078870921   0.000060058718034 0
force C   0.001914772660391   0.003246989031070  -0.000003200823846 0
force C  -0.000411894187180  -0.000178508753917  -0.000003046797051 0
force C   0.010025795070264   0.007454144530641   0.000993031658032 0
force C   0.002391942425846   0.002482655190000  -0.000129079012765 0
force C   0.001490361687640   0.000526940103935   0.000007925643212 0
force C   0.004038455298907   0.003606467203919   0.000284505060108 0
force C   0.029432849514284   0.009833908210161   0.000382497637601 0
force C  -0.000405980061368  -0.000581859759820  -0.000027522361149 0
force C  -0.002624963393867   0.000274840997961   0.000022675032213 0
force C   0.001958221601752  -0.000223751463625  -0.000000607696413 0
force C   0.007560183780679   0.002960145339223  -0.000198891667984 0
force C   0.001267379912780   0.001124079263518  -0.000013244749297 0
force C   0.003026315037695   0.001423038707088   0.000273147017407 0
force C   0.006242688341923   0.002050017703648   0.000380389050654 0
force C  -0.000815095189131  -0.001225842898740   0.000021910602654 0
force C   0.000882422046737   0.002064148504825   0.000023362787430 0
force C  -0.027211373143329  -0.025588920909226  -0.002024539537934 0
force C  -0.000318521657139   0.003215610331302  -0.000009102448014 0
force C  -0.001187623127609  -0.000158887542386   0.000006286288588 0
force C   0.023544572818633   0.021850826831911   0.000857511647807 0
force C   0.002955922635366   0.000478117873229   0.000025065024999 0
force C  -0.005011437996593   0.001211181466825   0.000340384448196 0
force C  -0.004053069653491   0.000198023463473   0.000072898869699 0
force C  -0.002303661366843  -0.000450478882189  -0.000010265258094 0
force C   0.000992278434821   0.000767518286560   0.000040728871938 0
force C  -0.004713052384742   0.000084807938895   0.000564652795463 0
force C   0.001067038962296   0.000341462617675  -0.000024673774547 0
force C  -0.000622123134509  -0.002421177339503  -0.000004826940074 0
force C   0.029580092346283   0.015252717636896  -0.001292272014292 0
force C  -0.001408401060566  -0.001342117174318  -0.000014851790822 0
force C   0.000161975620162  -0.003738099605677  -0.000034950756455 0
force C   0.000630782965612  -0.000013307038686  -0.000004549643966 0
force C   0.000960181272834  -0.000131538467629  -0.000033897254368 0
force C  -0.000344531270972  -0.001701205242672   0.000015272199536 0
force C  -0.001491143284542  -0.005283684173196  -0.000303622087730 0
force C  -0.000579317324585   0.000143228562976   0.000059271778071 0
force C  -0.000956045359073   0.000822269447340  -0.000049606875403 0
force C   0.030770420027594   0.023320510254144   0.000198769648922 0
force C  -0.005378348438842  -0.005664721975416   0.000309668975378 0
force C   0.000662219599719   0.000261540559033   0.000010758767304 0
force C  -0.002568659051249  -0.001360565214226  -0.000059516781397 0
force C  -0.022888791620545  -0.022630847953414   0.000613588204711 0
force C   0.001174597556499   0.002075580518920  -0.000012063959924 0
force C   0.002947771022647  -0.000601319660363   0.000533330597227 0
force C   0.000144936305056  -0.000906131280890   0.000011948195716 0
force C  -0.010773802982157  -0.006357509512096   0.000801993530401 0
force C  -0.000214189762239  -0.001181589926322  -0.000080563306148 0
force C  -0.001002458115553  -0.001111779975840  -0.000016804038205 0
force C  -0.025352978375194  -0.006348857675367  -0.001433518202445 0
force C   0.000705950276581   0.000745588530856  -0.000014798979678 0
force C  -0.001478830834560  -0.003772321478117   0.000076753775044 0
force C  -0.007178908615834  -0.002268497481407   0.000157607453191 0
force C  -0.002729383989052   0.000201299536397  -0.000010971291894 0
force C  -0.002108511299119  -0.003844040107736   0.000575693753023 0
force N   0.026846791537865  -0.031573396375815  -0.013488771519803 0
force N  -0.018360275750279   0.040560532552652  -0.012534756935409 0
force N  -0.026317497073586   0.032908852069364  -0.011539022278104 0
force N   0.013549386914488  -0.040119472814194  -0.009535807781901 0
force Fe  -0.001948534456021  -0.002440271369064   0.044079984402753 0
force S   0.000195763378850  -0.000124096547202  -0.000878513801076 1
force S  -0.000305551435132   0.000077843369870  -0.000458659008637 1
force Na   0.000612473799408   0.000439195003388   0.000411513415559 1
force Na  -0.000219554127831   0.000513714292947   0.001037158776076 1

# Energy components:
   Eewald =    -1197.4678722957530681
       EH =     -679.8643878747149074
     Eloc =     1160.6243824125776882
      Enl =      -62.2450811469202705
     EvdW =       -0.1164819866350661
      Exc =     -167.8564588454018178
 Exc_core =        6.8981127230924235
       KE =      282.8143542431055266
-------------------------------------
     Etot =     -657.2134327706496606
       TS =        0.0714780495537100
-------------------------------------
        F =     -657.2849108202033221

IonicMinimize: Iter:   0  F: -657.284910820203322  |grad|_K:  5.213e-04  alpha:  1.000e+00

#--- Lowdin population analysis ---
# oxidation-state C +0.038 +0.029 +0.029 +0.027 +0.035 -0.016 +0.032 +0.031 +0.095 +0.036 +0.037 +0.034 +0.042 +0.039 -0.003 +0.042 +0.040 +0.026 +0.123 +0.039 +0.033 +0.034 +0.002 +0.044 +0.032 +0.035 +0.033 +0.036 +0.093 +0.030 +0.037 +0.127 +0.043 +0.025 +0.039 +0.031 +0.044 +0.013 +0.034 +0.033 +0.091 +0.044 +0.036 +0.038 +0.038 +0.036 +0.010 +0.034 +0.025 +0.143 +0.032 +0.037 +0.047 +0.124 +0.034 +0.029 +0.036 -0.051 +0.026 +0.042 +0.087 +0.039 +0.041 +0.037 +0.036 +0.016
# oxidation-state N -0.157 -0.122 -0.144 -0.145
# oxidation-state Fe -0.009
# oxidation-state S -0.522 -0.098
# oxidation-state Na +0.846 +0.846


Computing DFT-D3 correction:
# coordination-number C 3.301 3.302 3.304 3.307 3.300 3.639 3.300 3.300 3.836 3.301 3.300 3.300 3.300 3.300 3.311 3.300 3.300 3.288 3.492 3.300 3.300 3.300 3.582 3.300 3.348 3.288 3.302 3.300 3.959 3.305 3.300 3.527 3.302 3.312 3.300 3.301 3.303 3.312 3.301 3.300 3.944 3.300 3.300 3.300 3.300 3.300 3.515 3.300 3.305 3.284 3.290 3.300 3.298 3.484 3.300 3.310 3.300 4.007 3.305 3.300 4.070 3.300 3.300 3.295 3.300 3.326
# coordination-number N 3.903 3.204 3.453 3.548
# coordination-number Fe 6.310
# coordination-number S 2.967 3.951
# coordination-number Na 5.039 5.011
# diagonal-C6 C 24.27 24.26 24.25 24.22 24.28 19.85 24.28 24.28 18.62 24.27 24.29 24.28 24.28 24.29 24.17 24.28 24.28 24.40 21.76 24.29 24.28 24.29 20.49 24.29 23.78 24.39 24.26 24.28 18.37 24.23 24.28 21.24 24.26 24.16 24.28 24.27 24.25 24.17 24.27 24.28 18.39 24.28 24.28 24.28 24.29 24.29 21.42 24.28 24.24 24.43 24.37 24.29 24.30 21.88 24.28 24.18 24.29 18.32 24.23 24.29 18.28 24.28 24.28 24.33 24.28 24.02
# diagonal-C6 N 15.58 15.60 15.58 15.58
# diagonal-C6 Fe 109.50
# diagonal-C6 S 125.81 125.81
# diagonal-C6 Na 186.11 186.11
EvdW_6 =   -0.060705
EvdW_8 =   -0.055780

-------- Electronic minimization -----------
Will mix electronic density at each iteration.
	FillingsUpdate:  mu: -0.143206184  nElectrons: 330.000000
	FillingsUpdate:  mu: -0.143175169  nElectrons: 330.000000
SCF: Cycle:  0   F: -657.284913424889282   dF: +5.107e-07   |Residual|: 3.903e-04   |deigs|: 3.208e-06  t[s]:    141.80
	FillingsUpdate:  mu: -0.143228048  nElectrons: 330.000000
SCF: Cycle:  1   F: -657.284885584375729   dF: +2.784e-05   |Residual|: 3.071e-03   |deigs|: 3.338e-05  t[s]:    143.77
	FillingsUpdate:  mu: -0.143181823  nElectrons: 330.000000
SCF: Cycle:  2   F: -657.284914020327392   dF: -2.844e-05   |Residual|: 6.340e-05   |deigs|: 2.971e-05  t[s]:    145.73
	FillingsUpdate:  mu: -0.143183163  nElectrons: 330.000000
SCF: Cycle:  3   F: -657.284914039116757   dF: -1.879e-08   |Residual|: 2.453e-05   |deigs|: 3.580e-06  t[s]:    147.62
	FillingsUpdate:  mu: -0.143183602  nElectrons: 330.000000
SCF: Cycle:  4   F: -657.284914041552383   dF: -2.436e-09   |Residual|: 1.566e-05   |deigs|: 4.208e-06  t[s]:    149.59
	FillingsUpdate:  mu: -0.143183886  nElectrons: 330.000000
SCF: Cycle:  5   F: -657.284914040964395   dF: +5.880e-10   |Residual|: 1.964e-05   |deigs|: 5.518e-06  t[s]:    152.16
	FillingsUpdate:  mu: -0.143184697  nElectrons: 330.000000
SCF: Cycle:  6   F: -657.284914042461196   dF: -1.497e-09   |Residual|: 4.931e-06   |deigs|: 6.064e-06  t[s]:    154.67
	FillingsUpdate:  mu: -0.143185220  nElectrons: 330.000000
SCF: Cycle:  7   F: -657.284914042601031   dF: -1.398e-10   |Residual|: 2.456e-06   |deigs|: 7.252e-06  t[s]:    157.04
SCF: Converged (|Delta E|<1.000000e-08 for 2 iters).

Setting wave functions to eigenvectors of Hamiltonian
IonicMinimize: 	Predicted alpha/alphaT>3.000000, increasing alphaT to 3.000000e+00.

Computing DFT-D3 correction:
# coordination-number C 3.301 3.302 3.304 3.307 3.300 3.637 3.300 3.300 3.836 3.301 3.300 3.300 3.300 3.300 3.311 3.300 3.300 3.288 3.492 3.300 3.300 3.300 3.581 3.300 3.348 3.288 3.302 3.300 3.959 3.305 3.300 3.527 3.302 3.312 3.300 3.301 3.303 3.312 3.301 3.300 3.943 3.300 3.300 3.300 3.300 3.300 3.514 3.300 3.305 3.284 3.290 3.300 3.298 3.484 3.300 3.310 3.300 4.007 3.305 3.300 4.069 3.300 3.300 3.295 3.300 3.326
# coordination-number N 3.902 3.204 3.453 3.547
# coordination-number Fe 6.309
# coordination-number S 2.967 3.951
# coordination-number Na 5.036 5.004
# diagonal-C6 C 24.27 24.26 24.25 24.22 24.28 19.86 24.28 24.28 18.62 24.27 24.29 24.28 24.28 24.29 24.17 24.28 24.28 24.40 21.76 24.29 24.28 24.29 20.51 24.29 23.78 24.39 24.26 24.28 18.37 24.23 24.28 21.24 24.26 24.16 24.28 24.27 24.25 24.17 24.27 24.28 18.39 24.28 24.28 24.28 24.29 24.29 21.43 24.28 24.24 24.43 24.37 24.29 24.30 21.88 24.28 24.18 24.29 18.32 24.23 24.29 18.28 24.28 24.28 24.33 24.28 24.02
# diagonal-C6 N 15.58 15.60 15.58 15.58
# diagonal-C6 Fe 109.50
# diagonal-C6 S 125.81 125.81
# diagonal-C6 Na 186.11 186.11
EvdW_6 =   -0.060708
EvdW_8 =   -0.055784

-------- Electronic minimization -----------
Will mix electronic density at each iteration.
	FillingsUpdate:  mu: -0.143185220  nElectrons: 330.000000
	FillingsUpdate:  mu: -0.143154504  nElectrons: 330.000000
SCF: Cycle:  0   F: -657.284919873865306   dF: -3.114e-08   |Residual|: 2.715e-04   |deigs|: 1.762e-06  t[s]:    179.29
	FillingsUpdate:  mu: -0.143165874  nElectrons: 330.000000
SCF: Cycle:  1   F: -657.284919505773018   dF: +3.681e-07   |Residual|: 5.213e-04   |deigs|: 8.518e-06  t[s]:    181.76
	FillingsUpdate:  mu: -0.143147606  nElectrons: 330.000000
SCF: Cycle:  2   F: -657.284918473637276   dF: +1.032e-06   |Residual|: 7.403e-04   |deigs|: 1.192e-05  t[s]:    183.69
	FillingsUpdate:  mu: -0.143159597  nElectrons: 330.000000
SCF: Cycle:  3   F: -657.284920252883921   dF: -1.779e-06   |Residual|: 4.484e-05   |deigs|: 9.256e-06  t[s]:    185.59
	FillingsUpdate:  mu: -0.143160299  nElectrons: 330.000000
SCF: Cycle:  4   F: -657.284920260206150   dF: -7.322e-09   |Residual|: 2.642e-05   |deigs|: 7.552e-06  t[s]:    187.53
	FillingsUpdate:  mu: -0.143161191  nElectrons: 330.000000
SCF: Cycle:  5   F: -657.284920262225910   dF: -2.020e-09   |Residual|: 1.392e-05   |deigs|: 9.741e-06  t[s]:    190.05
SCF: Converged (|Delta E|<1.000000e-08 for 2 iters).

Setting wave functions to eigenvectors of Hamiltonian
IonicMinimize: 	Predicted alpha/alphaT>3.000000, increasing alphaT to 9.000000e+00.

Computing DFT-D3 correction:
# coordination-number C 3.301 3.302 3.304 3.307 3.300 3.634 3.300 3.300 3.835 3.301 3.300 3.300 3.300 3.300 3.311 3.300 3.300 3.288 3.492 3.300 3.300 3.300 3.577 3.300 3.348 3.288 3.302 3.300 3.957 3.305 3.300 3.527 3.302 3.312 3.300 3.301 3.303 3.312 3.301 3.300 3.939 3.300 3.300 3.300 3.300 3.300 3.511 3.300 3.305 3.284 3.290 3.300 3.298 3.484 3.300 3.310 3.300 4.006 3.305 3.300 4.065 3.300 3.300 3.295 3.300 3.326
# coordination-number N 3.899 3.204 3.451 3.544
# coordination-number Fe 6.307
# coordination-number S 2.967 3.952
# coordination-number Na 5.025 4.983
# diagonal-C6 C 24.27 24.26 24.25 24.22 24.28 19.90 24.28 24.28 18.63 24.27 24.29 24.28 24.28 24.29 24.18 24.28 24.28 24.40 21.76 24.29 24.28 24.29 20.56 24.29 23.77 24.39 24.26 24.28 18.37 24.23 24.28 21.25 24.26 24.16 24.28 24.27 24.25 24.17 24.27 24.28 18.40 24.28 24.28 24.28 24.29 24.29 21.47 24.28 24.24 24.43 24.37 24.29 24.30 21.88 24.28 24.18 24.29 18.32 24.23 24.29 18.28 24.28 24.28 24.33 24.28 24.02
# diagonal-C6 N 15.58 15.60 15.58 15.58
# diagonal-C6 Fe 109.50
# diagonal-C6 S 125.81 125.81
# diagonal-C6 Na 186.11 186.11
EvdW_6 =   -0.060716
EvdW_8 =   -0.055795

-------- Electronic minimization -----------
Will mix electronic density at each iteration.
	FillingsUpdate:  mu: -0.143161191  nElectrons: 330.000000
	FillingsUpdate:  mu: -0.143071078  nElectrons: 330.000000
SCF: Cycle:  0   F: -657.284934433739522   dF: -1.039e-06   |Residual|: 8.009e-04   |deigs|: 1.628e-06  t[s]:    195.29
	FillingsUpdate:  mu: -0.143062537  nElectrons: 330.000000
SCF: Cycle:  1   F: -657.284933211019734   dF: +1.223e-06   |Residual|: 1.060e-03   |deigs|: 1.840e-05  t[s]:    197.28
	FillingsUpdate:  mu: -0.143116177  nElectrons: 330.000000
SCF: Cycle:  2   F: -657.284918261242751   dF: +1.495e-05   |Residual|: 2.545e-03   |deigs|: 3.456e-05  t[s]:    199.23
	FillingsUpdate:  mu: -0.143080158  nElectrons: 330.000000
SCF: Cycle:  3   F: -657.284937057472575   dF: -1.880e-05   |Residual|: 1.364e-04   |deigs|: 2.854e-05  t[s]:    201.19
	FillingsUpdate:  mu: -0.143083192  nElectrons: 330.000000
SCF: Cycle:  4   F: -657.284937138141913   dF: -8.067e-08   |Residual|: 7.287e-05   |deigs|: 2.288e-05  t[s]:    203.09
	FillingsUpdate:  mu: -0.143086041  nElectrons: 330.000000
SCF: Cycle:  5   F: -657.284937156499723   dF: -1.836e-08   |Residual|: 3.430e-05   |deigs|: 2.942e-05  t[s]:    205.65
	FillingsUpdate:  mu: -0.143088606  nElectrons: 330.000000
SCF: Cycle:  6   F: -657.284937160094728   dF: -3.595e-09   |Residual|: 3.712e-05   |deigs|: 3.386e-05  t[s]:    208.16
	FillingsUpdate:  mu: -0.143092664  nElectrons: 330.000000
SCF: Cycle:  7   F: -657.284937166591476   dF: -6.497e-09   |Residual|: 2.725e-05   |deigs|: 3.413e-05  t[s]:    210.72
SCF: Converged (|Delta E|<1.000000e-08 for 2 iters).

Setting wave functions to eigenvectors of Hamiltonian
IonicMinimize: 	Predicted alpha/alphaT>3.000000, increasing alphaT to 2.700000e+01.

Computing DFT-D3 correction:
# coordination-number C 3.301 3.302 3.304 3.306 3.300 3.613 3.300 3.300 3.829 3.301 3.300 3.300 3.300 3.300 3.310 3.300 3.300 3.288 3.492 3.300 3.300 3.300 3.556 3.300 3.348 3.288 3.302 3.300 3.950 3.305 3.300 3.525 3.302 3.312 3.300 3.301 3.303 3.312 3.301 3.300 3.919 3.300 3.300 3.300 3.300 3.300 3.495 3.300 3.305 3.284 3.290 3.300 3.298 3.484 3.300 3.309 3.300 4.005 3.306 3.300 4.039 3.300 3.300 3.294 3.300 3.326
# coordination-number N 3.881 3.207 3.441 3.530
# coordination-number Fe 6.297
# coordination-number S 2.970 3.956
# coordination-number Na 4.965 4.859
# diagonal-C6 C 24.27 24.26 24.25 24.22 24.28 20.12 24.28 24.28 18.65 24.27 24.29 24.28 24.28 24.29 24.19 24.28 24.28 24.40 21.76 24.29 24.28 24.29 20.83 24.29 23.77 24.39 24.26 24.28 18.38 24.23 24.28 21.27 24.26 24.17 24.28 24.27 24.25 24.17 24.27 24.28 18.43 24.28 24.28 24.28 24.29 24.29 21.71 24.28 24.24 24.43 24.37 24.29 24.30 21.87 24.28 24.19 24.29 18.32 24.23 24.29 18.29 24.28 24.28 24.33 24.28 24.02
# diagonal-C6 N 15.58 15.60 15.58 15.58
# diagonal-C6 Fe 109.50
# diagonal-C6 S 125.81 125.81
# diagonal-C6 Na 186.11 186.11
EvdW_6 =   -0.060763
EvdW_8 =   -0.055862

-------- Electronic minimization -----------
Will mix electronic density at each iteration.
	FillingsUpdate:  mu: -0.143092664  nElectrons: 330.000000
	FillingsUpdate:  mu: -0.143629970  nElectrons: 330.000000
SCF: Cycle:  0   F: -657.273553651471275   dF: -4.137e-02   |Residual|: 1.099e-01   |deigs|: 6.672e-04  t[s]:    216.94
	FillingsUpdate:  mu: -0.137288730  nElectrons: 330.000000
SCF: Cycle:  1   F: -656.906822580213429   dF: +3.667e-01   |Residual|: 3.507e-01   |deigs|: 3.377e-03  t[s]:    219.88
	FillingsUpdate:  mu: -0.144405922  nElectrons: 330.000000
SCF: Cycle:  2   F: -657.258421425377719   dF: -3.516e-01   |Residual|: 1.010e-01   |deigs|: 3.813e-03  t[s]:    222.76
	FillingsUpdate:  mu: -0.143391472  nElectrons: 330.000000
SCF: Cycle:  3   F: -657.283856874291928   dF: -2.544e-02   |Residual|: 2.122e-02   |deigs|: 7.842e-04  t[s]:    225.72
	FillingsUpdate:  mu: -0.143183358  nElectrons: 330.000000
SCF: Cycle:  4   F: -657.284896850464293   dF: -1.040e-03   |Residual|: 6.749e-03   |deigs|: 1.809e-04  t[s]:    228.26
	FillingsUpdate:  mu: -0.143087770  nElectrons: 330.000000
SCF: Cycle:  5   F: -657.284929191348965   dF: -3.234e-05   |Residual|: 3.906e-03   |deigs|: 1.729e-04  t[s]:    230.86
	FillingsUpdate:  mu: -0.143140031  nElectrons: 330.000000
SCF: Cycle:  6   F: -657.284971248967167   dF: -4.206e-05   |Residual|: 1.243e-03   |deigs|: 1.092e-04  t[s]:    233.45
	FillingsUpdate:  mu: -0.143152380  nElectrons: 330.000000
SCF: Cycle:  7   F: -657.284976847364192   dF: -5.598e-06   |Residual|: 8.171e-04   |deigs|: 1.626e-04  t[s]:    235.97
	FillingsUpdate:  mu: -0.143135762  nElectrons: 330.000000
SCF: Cycle:  8   F: -657.284980369899586   dF: -3.523e-06   |Residual|: 4.979e-04   |deigs|: 1.806e-04  t[s]:    238.52
	FillingsUpdate:  mu: -0.143120436  nElectrons: 330.000000
SCF: Cycle:  9   F: -657.284981883474643   dF: -1.514e-06   |Residual|: 3.588e-04   |deigs|: 1.451e-04  t[s]:    241.07
	FillingsUpdate:  mu: -0.143096333  nElectrons: 330.000000
SCF: Cycle: 10   F: -657.284982848170671   dF: -9.647e-07   |Residual|: 2.720e-04   |deigs|: 1.408e-04  t[s]:    243.64
	FillingsUpdate:  mu: -0.143057835  nElectrons: 330.000000
SCF: Cycle: 11   F: -657.284983233839512   dF: -3.857e-07   |Residual|: 1.850e-04   |deigs|: 1.004e-04  t[s]:    246.14
	FillingsUpdate:  mu: -0.143029187  nElectrons: 330.000000
SCF: Cycle: 12   F: -657.284983467889106   dF: -2.340e-07   |Residual|: 1.259e-04   |deigs|: 8.122e-05  t[s]:    248.67
	FillingsUpdate:  mu: -0.142985627  nElectrons: 330.000000
SCF: Cycle: 13   F: -657.284983568362236   dF: -1.005e-07   |Residual|: 1.267e-04   |deigs|: 1.691e-04  t[s]:    251.25
	FillingsUpdate:  mu: -0.142944302  nElectrons: 330.000000
SCF: Cycle: 14   F: -657.284983719176125   dF: -1.508e-07   |Residual|: 8.111e-05   |deigs|: 2.495e-04  t[s]:    253.80
	FillingsUpdate:  mu: -0.142923810  nElectrons: 330.000000
SCF: Cycle: 15   F: -657.284983792032790   dF: -7.286e-08   |Residual|: 6.079e-05   |deigs|: 1.163e-04  t[s]:    256.37
	FillingsUpdate:  mu: -0.142896134  nElectrons: 330.000000
SCF: Cycle: 16   F: -657.284983837051641   dF: -4.502e-08   |Residual|: 6.562e-05   |deigs|: 1.400e-04  t[s]:    258.93
	FillingsUpdate:  mu: -0.142883451  nElectrons: 330.000000
SCF: Cycle: 17   F: -657.284983856296549   dF: -1.924e-08   |Residual|: 3.849e-05   |deigs|: 6.402e-05  t[s]:    261.51
	FillingsUpdate:  mu: -0.142871879  nElectrons: 330.000000
SCF: Cycle: 18   F: -657.284983864610467   dF: -8.314e-09   |Residual|: 2.581e-05   |deigs|: 5.685e-05  t[s]:    264.07
	FillingsUpdate:  mu: -0.142859434  nElectrons: 330.000000
SCF: Cycle: 19   F: -657.284983866931384   dF: -2.321e-09   |Residual|: 2.261e-05   |deigs|: 6.478e-05  t[s]:    266.59
SCF: Converged (|Delta E|<1.000000e-08 for 2 iters).

Setting wave functions to eigenvectors of Hamiltonian

Computing DFT-D3 correction:
# coordination-number C 3.301 3.302 3.304 3.306 3.300 3.613 3.300 3.300 3.829 3.301 3.300 3.300 3.300 3.300 3.310 3.300 3.300 3.288 3.492 3.300 3.300 3.300 3.556 3.300 3.348 3.288 3.302 3.300 3.950 3.305 3.300 3.525 3.302 3.312 3.300 3.301 3.303 3.312 3.301 3.300 3.919 3.300 3.300 3.300 3.300 3.300 3.495 3.300 3.305 3.284 3.290 3.300 3.298 3.484 3.300 3.309 3.300 4.005 3.306 3.300 4.039 3.300 3.300 3.294 3.300 3.326
# coordination-number N 3.881 3.207 3.441 3.530
# coordination-number Fe 6.297
# coordination-number S 2.970 3.956
# coordination-number Na 4.965 4.859
# diagonal-C6 C 24.27 24.26 24.25 24.22 24.28 20.12 24.28 24.28 18.65 24.27 24.29 24.28 24.28 24.29 24.19 24.28 24.28 24.40 21.76 24.29 24.28 24.29 20.83 24.29 23.77 24.39 24.26 24.28 18.38 24.23 24.28 21.27 24.26 24.17 24.28 24.27 24.25 24.17 24.27 24.28 18.43 24.28 24.28 24.28 24.29 24.29 21.71 24.28 24.24 24.43 24.37 24.29 24.30 21.87 24.28 24.19 24.29 18.32 24.23 24.29 18.29 24.28 24.28 24.33 24.28 24.02
# diagonal-C6 N 15.58 15.60 15.58 15.58
# diagonal-C6 Fe 109.50
# diagonal-C6 S 125.81 125.81
# diagonal-C6 Na 186.11 186.11
EvdW_6 =   -0.060763
EvdW_8 =   -0.055862

# Ionic positions in cartesian coordinates:
ion C   0.000000000000000   0.000000000000000   1.000001652210000 0
ion C  -2.333831667840000   4.042310104620000   1.000001652210000 0
ion C  11.669128103520006  20.211535405260001   1.000001652210000 0
ion C   4.667680343250000   0.000000000000000   1.000001652210000 0
ion C  23.338288332449999   0.000000000000000   1.000001652210000 0
ion C   2.333822219190000   4.042310104620000   1.000001652210000 0
ion C -11.669150780279997  20.211535405260001   1.000001652210000 0
ion C  -4.667665225410000   8.084622098970000   1.000001652210000 0
ion C   9.335305884329996  16.169223410910007   1.000001652210000 0
ion C   9.335322891900001   0.000000000000000   1.000001652210000 0
ion C  18.670626886499999   0.000000000000000   1.000001652210000 0
ion C  -9.335317222710001  16.169223410910007   1.000001652210000 0
ion C  -7.001485554870001  12.126913306290001   1.000001652210000 0
ion C  14.002984337850000   0.000000000000000   1.000001652210000 0
ion C   0.000000000000000   8.084622098970000   1.000001652210000 0
ion C   7.001485554870008  20.211535405260001   1.000001652210000 0
ion C  -7.001481775409996  20.211535405260001   1.000001652210000 0
ion C  -2.333822219190000  12.126913306290001   1.000001652210000 0
ion C   4.667663335679999  16.169223410910007   1.000001652210000 0
ion C  -2.333820329459996  20.211535405260001   1.000001652210000 0
ion C   2.333824108920002  20.211535405260001   1.000001652210000 0
ion C  -4.667659556220003  16.169223410910007   1.000001652210000 0
ion C   7.001483665139999   4.042310104620000   1.000001652210000 0
ion C  21.004430208390001   4.042310104620000   1.000001652210000 0
ion C  14.002948432980000  16.169223410910007   1.000001652210000 0
ion C   0.000001889729996  16.169223410910007   1.000001652210000 0
ion C  11.669126213789999   4.042310104620000   1.000001652210000 0
ion C  18.670609878930001   8.084622098970000   1.000001652210000 0
ion C  11.669126213789998  12.126913306290001   1.000001652210000 0
ion C  16.336787659739997  12.126913306290001   1.000001652210000 0
ion C  16.336789549470002   4.042310104620000   1.000001652210000 0
ion C   9.335303994600004   8.084622098970000   1.000001652210000 0
ion C  14.002948432980002   8.084622098970000   1.000001652210000 0
ion C   0.000000000000000   2.694874032990001   1.000001652210000 0
ion C  11.669128103519999  22.906390540950007   1.000001652210000 0
ion C -11.669124324059998  22.906390540950007   1.000001652210000 0
ion C  -2.333822219190000   6.737165240310002   1.000001652210000 0
ion C   9.335305884330001  18.864097443900004   1.000001652210000 0
ion C  -7.001481775409997  22.906390540950007   1.000001652210000 0
ion C   7.001485554870005  22.906390540950007   1.000001652210000 0
ion C   2.333822219190001   6.737165240310002   1.000001652210000 0
ion C  -9.335302104869998  18.864097443900004   1.000001652210000 0
ion C  -4.667661445950000  10.779477234660003   1.000001652210000 0
ion C  -2.333820329460000  22.906390540950007   1.000001652210000 0
ion C   2.333824108920002  22.906390540950007   1.000001652210000 0
ion C  -7.001483665140000  14.821787339280004   1.000001652210000 0
ion C   4.667661445950001   2.694874032990001   1.000001652210000 0
ion C  23.338269435150004   2.694874032990001   1.000001652210000 0
ion C  14.002967330280004  18.864097443900004   1.000001652210000 0
ion C   0.000000000000000  10.779477234660003   1.000001652210000 0
ion C   4.667663335679999  18.864097443900004   1.000001652210000 0
ion C  -4.667640658919998  18.864097443900004   1.000001652210000 0
ion C  -2.333822219190001  14.821787339280004   1.000001652210000 0
ion C   2.333824108919998  14.821787339280004   1.000001652210000 0
ion C   0.000001889729999  18.864097443900004   1.000001652210000 0
ion C   9.335303994599997   2.694874032990001   1.000001652210000 0
ion C  21.004430208390001   6.737165240310002   1.000001652210000 0
ion C  11.669126213790001  14.821787339280004   1.000001652210000 0
ion C  16.336789549469998  14.821787339280004   1.000001652210000 0
ion C  18.670609878930005   2.694874032990001   1.000001652210000 0
ion C   7.001483665139999   6.737165240310002   1.000001652210000 0
ion C  14.002946543250001   2.694874032990001   1.000001652210000 0
ion C  18.670607989200008  10.779477234660003   1.000001652210000 0
ion C  11.669126213789998   6.737165240310002   1.000001652210000 0
ion C  16.336787659740004   6.737165240310002   1.000001652210000 0
ion C  14.002946543250001  10.779477234660003   1.000001652210000 0
ion N   4.667661445950002   8.084622098970000   1.000001652210000 0
ion N   2.333822219190002  12.126913306290001   1.000001652210000 0
ion N   7.001485554869999  14.821787339280004   1.000001652210000 0
ion N   9.335305884330001  10.779477234660003   1.000001652210000 0
ion Fe   5.837109518070000  11.454309266310002   1.000001652210000 0
ion S   7.966227815380798   9.418402150924507   7.456651298872818 1
ion S   5.294975790199746  11.507821432011891   5.390367383510086 1
ion Na   9.994018409033051  13.642080539022238   5.664583317611116 1
ion Na   4.537975161789012   6.298597778954629   5.717746552780171 1

# Forces in Cartesian coordinates:
force C   0.003880879816427  -0.000256184880298  -0.000036947593491 0
force C   0.000976703734159  -0.001030006975073  -0.000133088915989 0
force C   0.002930920567129  -0.001622602090934  -0.000011134444716 0
force C   0.001105574883614   0.001481308132334   0.000295894338790 0
force C   0.001747913370065  -0.000073148451222   0.000010864898788 0
force C   0.002912468777055   0.000920417801964   0.000732157071439 0
force C   0.000903608823072  -0.000049527761907   0.000076429257575 0
force C  -0.000420509767385   0.001695454559508   0.000030471507173 0
force C  -0.036375701464536  -0.011531336655737  -0.000907034880630 0
force C  -0.000957809538564  -0.000105745586313  -0.000048688701108 0
force C  -0.001045476599395  -0.000023895063970  -0.000002859279956 0
force C   0.000411661592400   0.001435581356384   0.000050836309752 0
force C   0.001913220408236   0.003247807948930  -0.000014742029463 0
force C  -0.000410786886298  -0.000176647198512  -0.000009067021251 0
force C   0.010032399156409   0.007458337835003   0.000988154687551 0
force C   0.002369444615613   0.002484969509159  -0.000139096092627 0
force C   0.001486764544881   0.000535364505268  -0.000002626039945 0
force C   0.004049037370063   0.003607491543064   0.000282074520653 0
force C   0.029471505545557   0.009792295121369   0.000349506023755 0
force C  -0.000405377749956  -0.000583718316373  -0.000034719026229 0
force C  -0.002603761409914   0.000273998112191   0.000016681207744 0
force C   0.001967408258825  -0.000222819209281  -0.000009512614148 0
force C   0.007491958196724   0.003002212648513  -0.000192614310885 0
force C   0.001264391935446   0.001115606534058  -0.000023539758347 0
force C   0.003050383861806   0.001447653524872   0.000257488518241 0
force C   0.006220178333247   0.002059689887774   0.000375174776988 0
force C  -0.000808388394533  -0.001234081315190   0.000021741252539 0
force C   0.000871735654698   0.002051588117083   0.000012732976003 0
force C  -0.027368462460627  -0.025643452279321  -0.001974554649241 0
force C  -0.000307870544291   0.003211560588604  -0.000021835325483 0
force C  -0.001182499200311  -0.000170957836956  -0.000003170532709 0
force C   0.023567606020615   0.021951168244845   0.000806968647220 0
force C   0.002927878047682   0.000470801490743   0.000023536276096 0
force C  -0.004988245630314   0.001218992007391   0.000318354134627 0
force C  -0.004050224779908   0.000205418768214   0.000061024475410 0
force C  -0.002289202997377  -0.000445719279019  -0.000019768701270 0
force C   0.000990196313071   0.000776016886748   0.000026187472915 0
force C  -0.004708801476218   0.000091934885942   0.000559430575162 0
force C   0.001067655485137   0.000333981759425  -0.000033748562680 0
force C  -0.000628382673653  -0.002424663103230  -0.000013517253228 0
force C   0.029749978076240   0.015232290993259  -0.001115286053490 0
force C  -0.001406005925531  -0.001334368656843  -0.000026711715898 0
force C   0.000172906989354  -0.003737386397109  -0.000045057853726 0
force C   0.000626117671234  -0.000015102998873  -0.000011521508371 0
force C   0.000965531061088  -0.000132174977043  -0.000040347793412 0
force C  -0.000351850523843  -0.001700063613523   0.000005644129435 0
force C  -0.001470839758187  -0.005167837536943  -0.000281703851162 0
force C  -0.000578075594326   0.000146986555534   0.000049222934154 0
force C  -0.000944840815105   0.000826909020286  -0.000057604544563 0
force C   0.030750685583322   0.023303732604072   0.000190965605242 0
force C  -0.005384989426499  -0.005638151977079   0.000305550077134 0
force C   0.000670298859966   0.000257148127878   0.000002286773030 0
force C  -0.002567551661350  -0.001348475050886  -0.000070775202715 0
force C  -0.022875803808872  -0.022583879922690   0.000586691583647 0
force C   0.001168779367832   0.002055403675472  -0.000019861049162 0
force C   0.002925886836893  -0.000577477400348   0.000518506013821 0
force C   0.000151825921293  -0.000895796438983   0.000001892050618 0
force C  -0.010796892913805  -0.006390070904412   0.000842582881289 0
force C  -0.000193488303731  -0.001183881039103  -0.000089450551379 0
force C  -0.001005950899826  -0.001097502967909  -0.000025252563570 0
force C  -0.025564789519132  -0.006378481499209  -0.001320554534671 0
force C   0.000698605058382   0.000746043011814  -0.000022578109416 0
force C  -0.001474757805303  -0.003762617759042   0.000066801588518 0
force C  -0.007198559288351  -0.002242808615142   0.000127017389440 0
force C  -0.002714592846057   0.000212573011623  -0.000021948491027 0
force C  -0.002129359975821  -0.003848958158640   0.000571689998595 0
force N   0.026952360757593  -0.031787040499656  -0.013507566910471 0
force N  -0.018536235885071   0.040622308743429  -0.012820949872098 0
force N  -0.026297779729641   0.032952960796042  -0.011703878126804 0
force N   0.013586606883737  -0.040147410410703  -0.009633030956448 0
force Fe  -0.002106552379005  -0.002240409358192   0.043911683386653 0
force S   0.000127470235412   0.001231531031086  -0.000743840261876 1
force S   0.001540736921261  -0.000313885351288   0.000399941147859 1
force Na  -0.000156267783834  -0.000125680200936   0.000206263365501 1
force Na  -0.000836081357758  -0.000064877522652   0.000167929156815 1

# Energy components:
   Eewald =    -1198.0995283155464222
       EH =     -680.3770378694971441
     Eloc =     1161.7700511522789384
      Enl =      -62.2449183603892493
     EvdW =       -0.1166245337864164
      Exc =     -167.8555562308453375
 Exc_core =        6.8981128394196762
       KE =      282.8117124635058417
-------------------------------------
     Etot =     -657.2137888548600131
       TS =        0.0711950120714038
-------------------------------------
        F =     -657.2849838669313840

IonicMinimize: Iter:   1  F: -657.284983866931384  |grad|_K:  6.790e-04  alpha:  4.405e+01  linmin: -4.131e-04  t[s]:    269.42

#--- Lowdin population analysis ---
# oxidation-state C +0.038 +0.029 +0.029 +0.027 +0.035 -0.015 +0.032 +0.031 +0.095 +0.036 +0.037 +0.034 +0.042 +0.039 -0.003 +0.042 +0.040 +0.026 +0.123 +0.039 +0.033 +0.034 +0.003 +0.044 +0.032 +0.035 +0.033 +0.036 +0.093 +0.029 +0.037 +0.127 +0.043 +0.025 +0.039 +0.031 +0.044 +0.013 +0.034 +0.033 +0.092 +0.043 +0.036 +0.038 +0.038 +0.036 +0.011 +0.034 +0.025 +0.143 +0.032 +0.037 +0.047 +0.124 +0.034 +0.029 +0.036 -0.052 +0.026 +0.042 +0.089 +0.039 +0.041 +0.037 +0.035 +0.016
# oxidation-state N -0.156 -0.122 -0.144 -0.145
# oxidation-state Fe -0.010
# oxidation-state S -0.527 -0.094
# oxidation-state Na +0.847 +0.846


Computing DFT-D3 correction:
# coordination-number C 3.301 3.302 3.304 3.306 3.300 3.580 3.300 3.300 3.811 3.301 3.300 3.300 3.300 3.300 3.309 3.300 3.300 3.288 3.491 3.300 3.300 3.300 3.511 3.300 3.349 3.288 3.302 3.300 3.930 3.305 3.300 3.522 3.302 3.311 3.300 3.301 3.303 3.311 3.301 3.300 3.884 3.300 3.300 3.300 3.300 3.300 3.465 3.300 3.305 3.283 3.290 3.300 3.298 3.484 3.300 3.308 3.300 3.994 3.306 3.300 3.974 3.300 3.300 3.294 3.300 3.325
# coordination-number N 3.837 3.205 3.420 3.501
# coordination-number Fe 6.275
# coordination-number S 2.983 3.968
# coordination-number Na 4.840 4.594
# diagonal-C6 C 24.27 24.26 24.25 24.23 24.28 20.53 24.28 24.28 18.71 24.27 24.29 24.28 24.28 24.29 24.20 24.28 24.28 24.40 21.77 24.29 24.28 24.29 21.48 24.29 23.76 24.39 24.26 24.28 18.41 24.23 24.28 21.32 24.26 24.17 24.28 24.27 24.25 24.17 24.28 24.28 18.50 24.28 24.28 24.28 24.29 24.29 22.16 24.28 24.24 24.43 24.38 24.29 24.30 21.88 24.28 24.20 24.29 18.33 24.23 24.29 18.35 24.28 24.28 24.34 24.28 24.03
# diagonal-C6 N 15.58 15.60 15.58 15.58
# diagonal-C6 Fe 109.50
# diagonal-C6 S 125.81 125.81
# diagonal-C6 Na 186.11 186.11
EvdW_6 =   -0.060870
EvdW_8 =   -0.055984

-------- Electronic minimization -----------
Will mix electronic density at each iteration.
	FillingsUpdate:  mu: -0.142859434  nElectrons: 330.000000
	FillingsUpdate:  mu: -0.144486364  nElectrons: 330.000000
SCF: Cycle:  0   F: -657.218111328215969   dF: -2.010e-01   |Residual|: 2.557e-01   |deigs|: 3.662e-03  t[s]:    275.48
	FillingsUpdate:  mu: -0.129761156  nElectrons: 330.000000
SCF: Cycle:  1   F: -655.655203573983840   dF: +1.563e+00   |Residual|: 7.261e-01   |deigs|: 7.193e-03  t[s]:    278.47
	FillingsUpdate:  mu: -0.146365249  nElectrons: 330.000000
SCF: Cycle:  2   F: -657.083501675800676   dF: -1.428e+00   |Residual|: 2.709e-01   |deigs|: 8.250e-03  t[s]:    281.46
	FillingsUpdate:  mu: -0.143885992  nElectrons: 330.000000
SCF: Cycle:  3   F: -657.267116138914730   dF: -1.836e-01   |Residual|: 8.110e-02   |deigs|: 2.384e-03  t[s]:    284.44
	FillingsUpdate:  mu: -0.143279249  nElectrons: 330.000000
SCF: Cycle:  4   F: -657.281340689665967   dF: -1.422e-02   |Residual|: 3.756e-02   |deigs|: 5.380e-04  t[s]:    287.41
	FillingsUpdate:  mu: -0.142675214  nElectrons: 330.000000
SCF: Cycle:  5   F: -657.284279534464645   dF: -2.939e-03   |Residual|: 1.042e-02   |deigs|: 6.968e-04  t[s]:    290.39
	FillingsUpdate:  mu: -0.142746894  nElectrons: 330.000000
SCF: Cycle:  6   F: -657.284534804892019   dF: -2.553e-04   |Residual|: 4.308e-03   |deigs|: 2.260e-04  t[s]:    292.96
	FillingsUpdate:  mu: -0.142721745  nElectrons: 330.000000
SCF: Cycle:  7   F: -657.284595643414150   dF: -6.084e-05   |Residual|: 2.584e-03   |deigs|: 3.234e-04  t[s]:    295.50
	FillingsUpdate:  mu: -0.142614313  nElectrons: 330.000000
SCF: Cycle:  8   F: -657.284627253612030   dF: -3.161e-05   |Residual|: 1.853e-03   |deigs|: 2.997e-04  t[s]:    298.05
	FillingsUpdate:  mu: -0.142504966  nElectrons: 330.000000
SCF: Cycle:  9   F: -657.284645378469918   dF: -1.812e-05   |Residual|: 1.292e-03   |deigs|: 3.145e-04  t[s]:    300.60
	FillingsUpdate:  mu: -0.142385642  nElectrons: 330.000000
SCF: Cycle: 10   F: -657.284651009598974   dF: -5.631e-06   |Residual|: 1.036e-03   |deigs|: 2.060e-04  t[s]:    303.17
	FillingsUpdate:  mu: -0.142265015  nElectrons: 330.000000
SCF: Cycle: 11   F: -657.284653756564694   dF: -2.747e-06   |Residual|: 7.151e-04   |deigs|: 1.353e-04  t[s]:    305.76
	FillingsUpdate:  mu: -0.142110713  nElectrons: 330.000000
SCF: Cycle: 12   F: -657.284655494076901   dF: -1.738e-06   |Residual|: 3.892e-04   |deigs|: 2.339e-04  t[s]:    308.34
	FillingsUpdate:  mu: -0.141987749  nElectrons: 330.000000
SCF: Cycle: 13   F: -657.284655985907762   dF: -4.918e-07   |Residual|: 2.922e-04   |deigs|: 2.730e-04  t[s]:    310.93
	FillingsUpdate:  mu: -0.141862258  nElectrons: 330.000000
SCF: Cycle: 14   F: -657.284656213027461   dF: -2.271e-07   |Residual|: 3.375e-04   |deigs|: 3.046e-04  t[s]:    313.53
	FillingsUpdate:  mu: -0.141778513  nElectrons: 330.000000
SCF: Cycle: 15   F: -657.284656511866956   dF: -2.988e-07   |Residual|: 3.877e-04   |deigs|: 2.322e-04  t[s]:    316.08
	FillingsUpdate:  mu: -0.141706949  nElectrons: 330.000000
SCF: Cycle: 16   F: -657.284656988073039   dF: -4.762e-07   |Residual|: 1.492e-04   |deigs|: 1.519e-04  t[s]:    318.67
	FillingsUpdate:  mu: -0.141631356  nElectrons: 330.000000
SCF: Cycle: 17   F: -657.284657180392401   dF: -1.923e-07   |Residual|: 1.204e-04   |deigs|: 1.691e-04  t[s]:    321.24
	FillingsUpdate:  mu: -0.141579297  nElectrons: 330.000000
SCF: Cycle: 18   F: -657.284657245807807   dF: -6.542e-08   |Residual|: 1.200e-04   |deigs|: 1.552e-04  t[s]:    323.81
	FillingsUpdate:  mu: -0.141512561  nElectrons: 330.000000
SCF: Cycle: 19   F: -657.284657290943528   dF: -4.514e-08   |Residual|: 1.139e-04   |deigs|: 2.837e-04  t[s]:    326.42
	FillingsUpdate:  mu: -0.141478388  nElectrons: 330.000000
SCF: Cycle: 20   F: -657.284657323579950   dF: -3.264e-08   |Residual|: 5.609e-05   |deigs|: 1.557e-04  t[s]:    328.99
	FillingsUpdate:  mu: -0.141440300  nElectrons: 330.000000
SCF: Cycle: 21   F: -657.284657335712836   dF: -1.213e-08   |Residual|: 5.176e-05   |deigs|: 1.708e-04  t[s]:    331.58
	FillingsUpdate:  mu: -0.141412794  nElectrons: 330.000000
SCF: Cycle: 22   F: -657.284657345576079   dF: -9.863e-09   |Residual|: 3.010e-05   |deigs|: 1.200e-04  t[s]:    334.15
	FillingsUpdate:  mu: -0.141384204  nElectrons: 330.000000
SCF: Cycle: 23   F: -657.284657349180861   dF: -3.605e-09   |Residual|: 4.864e-05   |deigs|: 1.338e-04  t[s]:    336.70
SCF: Converged (|Delta E|<1.000000e-08 for 2 iters).

Setting wave functions to eigenvectors of Hamiltonian

Computing DFT-D3 correction:
# coordination-number C 3.301 3.302 3.304 3.306 3.300 3.606 3.300 3.300 3.825 3.301 3.300 3.300 3.300 3.300 3.310 3.300 3.300 3.288 3.492 3.300 3.300 3.300 3.546 3.300 3.349 3.288 3.302 3.300 3.946 3.305 3.300 3.525 3.302 3.312 3.300 3.301 3.303 3.312 3.301 3.300 3.912 3.300 3.300 3.300 3.300 3.300 3.489 3.300 3.305 3.284 3.290 3.300 3.298 3.484 3.300 3.309 3.300 4.003 3.306 3.300 4.026 3.300 3.300 3.294 3.300 3.325
# coordination-number N 3.872 3.206 3.436 3.524
# coordination-number Fe 6.292
# coordination-number S 2.973 3.959
# coordination-number Na 4.939 4.803
# diagonal-C6 C 24.27 24.26 24.25 24.22 24.28 20.21 24.28 24.28 18.66 24.27 24.29 24.28 24.28 24.29 24.19 24.28 24.28 24.40 21.76 24.29 24.28 24.29 20.97 24.29 23.76 24.39 24.26 24.28 18.39 24.23 24.28 21.28 24.26 24.17 24.28 24.27 24.25 24.17 24.27 24.28 18.44 24.28 24.28 24.28 24.29 24.29 21.81 24.28 24.24 24.43 24.37 24.29 24.30 21.87 24.28 24.19 24.29 18.32 24.23 24.29 18.30 24.28 24.28 24.34 24.28 24.02
# diagonal-C6 N 15.58 15.60 15.58 15.58
# diagonal-C6 Fe 109.50
# diagonal-C6 S 125.81 125.81
# diagonal-C6 Na 186.11 186.11
EvdW_6 =   -0.060785
EvdW_8 =   -0.055887

-------- Electronic minimization -----------
Will mix electronic density at each iteration.
	FillingsUpdate:  mu: -0.141384204  nElectrons: 330.000000
	FillingsUpdate:  mu: -0.143658144  nElectrons: 330.000000
SCF: Cycle:  0   F: -657.276507307490533   dF: +7.736e-03   |Residual|: 4.713e-02   |deigs|: 4.567e-05  t[s]:    342.87
	FillingsUpdate:  mu: -0.135606833  nElectrons: 330.000000
SCF: Cycle:  1   F: -656.720651909951357   dF: +5.559e-01   |Residual|: 4.247e-01   |deigs|: 4.073e-03  t[s]:    345.81
	FillingsUpdate:  mu: -0.142927488  nElectrons: 330.000000
SCF: Cycle:  2   F: -657.284795057805468   dF: -5.641e-01   |Residual|: 6.942e-03   |deigs|: 3.675e-03  t[s]:    348.79
	FillingsUpdate:  mu: -0.142789381  nElectrons: 330.000000
[...]
# diagonal-C6 Fe 109.50
# diagonal-C6 S 125.81 125.81
# diagonal-C6 Na 186.11 186.11
EvdW_6 =   -0.060969
EvdW_8 =   -0.056263

-------- Electronic minimization -----------
Will mix electronic density at each iteration.
	FillingsUpdate:  mu: -0.141623783  nElectrons: 330.000000
	FillingsUpdate:  mu: -0.141604376  nElectrons: 330.000000
SCF: Cycle:  0   F: -657.285222421882736   dF: +5.055e-09   |Residual|: 3.324e-04   |deigs|: 1.258e-07  t[s]:   2471.61
	FillingsUpdate:  mu: -0.141571671  nElectrons: 330.000000
SCF: Cycle:  1   F: -657.285209731465784   dF: +1.269e-05   |Residual|: 2.056e-03   |deigs|: 2.218e-05  t[s]:   2474.46
	FillingsUpdate:  mu: -0.141603433  nElectrons: 330.000000
SCF: Cycle:  2   F: -657.285222768908852   dF: -1.304e-05   |Residual|: 1.056e-04   |deigs|: 2.058e-05  t[s]:   2476.30
	FillingsUpdate:  mu: -0.141603463  nElectrons: 330.000000
SCF: Cycle:  3   F: -657.285222813180098   dF: -4.427e-08   |Residual|: 3.838e-05   |deigs|: 3.981e-06  t[s]:   2478.13
	FillingsUpdate:  mu: -0.141603533  nElectrons: 330.000000
SCF: Cycle:  4   F: -657.285222818734496   dF: -5.554e-09   |Residual|: 2.770e-05   |deigs|: 4.074e-06  t[s]:   2480.00
	FillingsUpdate:  mu: -0.141604550  nElectrons: 330.000000
SCF: Cycle:  5   F: -657.285222822124524   dF: -3.390e-09   |Residual|: 1.734e-05   |deigs|: 5.567e-06  t[s]:   2482.41
SCF: Converged (|Delta E|<1.000000e-08 for 2 iters).

Setting wave functions to eigenvectors of Hamiltonian
IonicMinimize: 	Predicted alpha/alphaT>3.000000, increasing alphaT to 1.015826e+01.

Computing DFT-D3 correction:
# coordination-number C 3.301 3.303 3.303 3.304 3.300 3.603 3.300 3.300 3.640 3.300 3.300 3.300 3.300 3.300 3.347 3.299 3.300 3.288 3.488 3.300 3.300 3.300 3.400 3.300 3.347 3.288 3.301 3.300 4.008 3.307 3.300 3.518 3.304 3.314 3.300 3.301 3.306 3.302 3.300 3.300 4.013 3.300 3.300 3.300 3.300 3.300 3.408 3.300 3.304 3.288 3.289 3.300 3.298 3.483 3.300 3.304 3.300 3.954 3.307 3.300 3.806 3.300 3.300 3.295 3.300 3.346
# coordination-number N 3.851 3.200 3.323 3.552
# coordination-number Fe 6.248
# coordination-number S 2.970 3.970
# coordination-number Na 4.635 4.480
# diagonal-C6 C 24.27 24.25 24.26 24.24 24.28 20.24 24.28 24.28 19.84 24.28 24.29 24.28 24.28 24.29 23.78 24.29 24.29 24.39 21.83 24.29 24.28 24.29 23.10 24.29 23.79 24.39 24.27 24.28 18.32 24.21 24.28 21.38 24.25 24.15 24.28 24.28 24.23 24.27 24.28 24.28 18.31 24.28 24.28 24.29 24.29 24.28 22.99 24.28 24.24 24.39 24.38 24.29 24.30 21.89 24.28 24.24 24.28 18.38 24.22 24.29 18.73 24.28 24.28 24.33 24.28 23.80
# diagonal-C6 N 15.58 15.60 15.59 15.58
# diagonal-C6 Fe 109.50
# diagonal-C6 S 125.81 125.81
# diagonal-C6 Na 186.11 186.11
EvdW_6 =   -0.060971
EvdW_8 =   -0.056267

-------- Electronic minimization -----------
Will mix electronic density at each iteration.
	FillingsUpdate:  mu: -0.141604550  nElectrons: 330.000000
	FillingsUpdate:  mu: -0.141614234  nElectrons: 330.000000
SCF: Cycle:  0   F: -657.285218378499962   dF: +3.051e-06   |Residual|: 1.203e-03   |deigs|: 1.119e-07  t[s]:   2487.40
	FillingsUpdate:  mu: -0.141458300  nElectrons: 330.000000
SCF: Cycle:  1   F: -657.284948664997842   dF: +2.697e-04   |Residual|: 9.477e-03   |deigs|: 1.017e-04  t[s]:   2489.29
	FillingsUpdate:  mu: -0.141598269  nElectrons: 330.000000
SCF: Cycle:  2   F: -657.285222751581500   dF: -2.741e-04   |Residual|: 2.539e-04   |deigs|: 9.037e-05  t[s]:   2491.22
	FillingsUpdate:  mu: -0.141601266  nElectrons: 330.000000
SCF: Cycle:  3   F: -657.285222941528446   dF: -1.899e-07   |Residual|: 7.097e-05   |deigs|: 4.803e-06  t[s]:   2493.12
	FillingsUpdate:  mu: -0.141601645  nElectrons: 330.000000
SCF: Cycle:  4   F: -657.285222956987923   dF: -1.546e-08   |Residual|: 3.363e-05   |deigs|: 4.478e-06  t[s]:   2495.02
	FillingsUpdate:  mu: -0.141602351  nElectrons: 330.000000
SCF: Cycle:  5   F: -657.285222959273028   dF: -2.285e-09   |Residual|: 2.917e-05   |deigs|: 4.201e-06  t[s]:   2496.90
	FillingsUpdate:  mu: -0.141602460  nElectrons: 330.000000
SCF: Cycle:  6   F: -657.285222961813133   dF: -2.540e-09   |Residual|: 1.232e-05   |deigs|: 5.218e-06  t[s]:   2499.35
SCF: Converged (|Delta E|<1.000000e-08 for 2 iters).

Setting wave functions to eigenvectors of Hamiltonian

Computing DFT-D3 correction:
# coordination-number C 3.301 3.303 3.303 3.304 3.300 3.603 3.300 3.300 3.640 3.300 3.300 3.300 3.300 3.300 3.347 3.299 3.300 3.288 3.488 3.300 3.300 3.300 3.400 3.300 3.347 3.288 3.301 3.300 4.007 3.307 3.300 3.518 3.304 3.314 3.300 3.301 3.306 3.302 3.300 3.300 4.013 3.300 3.300 3.300 3.300 3.300 3.408 3.300 3.304 3.288 3.289 3.300 3.298 3.483 3.300 3.304 3.300 3.954 3.307 3.300 3.806 3.300 3.300 3.295 3.300 3.346
# coordination-number N 3.851 3.200 3.323 3.552
# coordination-number Fe 6.248
# coordination-number S 2.970 3.971
# coordination-number Na 4.635 4.481
# diagonal-C6 C 24.27 24.25 24.26 24.24 24.28 20.24 24.28 24.28 19.84 24.28 24.29 24.28 24.28 24.29 23.79 24.29 24.29 24.39 21.83 24.29 24.28 24.29 23.10 24.29 23.79 24.39 24.27 24.28 18.32 24.21 24.28 21.38 24.25 24.15 24.28 24.28 24.23 24.27 24.28 24.28 18.31 24.28 24.28 24.29 24.29 24.28 22.99 24.28 24.24 24.39 24.38 24.29 24.30 21.89 24.28 24.24 24.28 18.38 24.22 24.29 18.73 24.28 24.28 24.33 24.28 23.80
# diagonal-C6 N 15.58 15.60 15.59 15.58
# diagonal-C6 Fe 109.50
# diagonal-C6 S 125.81 125.81
# diagonal-C6 Na 186.11 186.11
EvdW_6 =   -0.060971
EvdW_8 =   -0.056267

-------- Electronic minimization -----------
Will mix electronic density at each iteration.
	FillingsUpdate:  mu: -0.141602460  nElectrons: 330.000000
	FillingsUpdate:  mu: -0.141611323  nElectrons: 330.000000
SCF: Cycle:  0   F: -657.285222930480927   dF: +3.376e-08   |Residual|: 9.570e-05   |deigs|: 2.446e-08  t[s]:   2504.36
	FillingsUpdate:  mu: -0.141601537  nElectrons: 330.000000
SCF: Cycle:  1   F: -657.285222142293264   dF: +7.882e-07   |Residual|: 5.343e-04   |deigs|: 6.346e-06  t[s]:   2506.25
	FillingsUpdate:  mu: -0.141610900  nElectrons: 330.000000
SCF: Cycle:  2   F: -657.285222959142970   dF: -8.168e-07   |Residual|: 9.486e-05   |deigs|: 6.090e-06  t[s]:   2508.11
	FillingsUpdate:  mu: -0.141609255  nElectrons: 330.000000
SCF: Cycle:  3   F: -657.285222993946491   dF: -3.480e-08   |Residual|: 1.406e-05   |deigs|: 1.379e-06  t[s]:   2509.98
	FillingsUpdate:  mu: -0.141609191  nElectrons: 330.000000
SCF: Cycle:  4   F: -657.285222995031972   dF: -1.085e-09   |Residual|: 7.775e-06   |deigs|: 1.017e-06  t[s]:   2511.85
	FillingsUpdate:  mu: -0.141609125  nElectrons: 330.000000
SCF: Cycle:  5   F: -657.285222995241270   dF: -2.093e-10   |Residual|: 6.423e-06   |deigs|: 1.026e-06  t[s]:   2513.69
SCF: Converged (|Delta E|<1.000000e-08 for 2 iters).

Setting wave functions to eigenvectors of Hamiltonian

Computing DFT-D3 correction:
# coordination-number C 3.301 3.303 3.303 3.304 3.300 3.603 3.300 3.300 3.640 3.300 3.300 3.300 3.300 3.300 3.347 3.299 3.300 3.288 3.488 3.300 3.300 3.300 3.400 3.300 3.347 3.288 3.301 3.300 4.007 3.307 3.300 3.518 3.304 3.314 3.300 3.301 3.306 3.302 3.300 3.300 4.013 3.300 3.300 3.300 3.300 3.300 3.408 3.300 3.304 3.288 3.289 3.300 3.298 3.483 3.300 3.304 3.300 3.954 3.307 3.300 3.806 3.300 3.300 3.295 3.300 3.346
# coordination-number N 3.851 3.200 3.323 3.552
# coordination-number Fe 6.248
# coordination-number S 2.970 3.971
# coordination-number Na 4.635 4.481
# diagonal-C6 C 24.27 24.25 24.26 24.24 24.28 20.24 24.28 24.28 19.84 24.28 24.29 24.28 24.28 24.29 23.79 24.29 24.29 24.39 21.83 24.29 24.28 24.29 23.10 24.29 23.79 24.39 24.27 24.28 18.32 24.21 24.28 21.38 24.25 24.15 24.28 24.28 24.23 24.27 24.28 24.28 18.31 24.28 24.28 24.29 24.29 24.28 22.99 24.28 24.24 24.39 24.38 24.29 24.30 21.89 24.28 24.24 24.28 18.38 24.22 24.29 18.73 24.28 24.28 24.33 24.28 23.80
# diagonal-C6 N 15.58 15.60 15.59 15.58
# diagonal-C6 Fe 109.50
# diagonal-C6 S 125.81 125.81
# diagonal-C6 Na 186.11 186.11
EvdW_6 =   -0.060971
EvdW_8 =   -0.056267

# Ionic positions in cartesian coordinates:
ion C   0.000000000000000   0.000000000000000   1.000001652210000 0
ion C  -2.333831667840000   4.042310104620000   1.000001652210000 0
ion C  11.669128103520006  20.211535405260001   1.000001652210000 0
ion C   4.667680343250000   0.000000000000000   1.000001652210000 0
ion C  23.338288332449999   0.000000000000000   1.000001652210000 0
ion C   2.333822219190000   4.042310104620000   1.000001652210000 0
ion C -11.669150780279997  20.211535405260001   1.000001652210000 0
ion C  -4.667665225410000   8.084622098970000   1.000001652210000 0
ion C   9.335305884329996  16.169223410910007   1.000001652210000 0
ion C   9.335322891900001   0.000000000000000   1.000001652210000 0
ion C  18.670626886499999   0.000000000000000   1.000001652210000 0
ion C  -9.335317222710001  16.169223410910007   1.000001652210000 0
ion C  -7.001485554870001  12.126913306290001   1.000001652210000 0
ion C  14.002984337850000   0.000000000000000   1.000001652210000 0
ion C   0.000000000000000   8.084622098970000   1.000001652210000 0
ion C   7.001485554870008  20.211535405260001   1.000001652210000 0
ion C  -7.001481775409996  20.211535405260001   1.000001652210000 0
ion C  -2.333822219190000  12.126913306290001   1.000001652210000 0
ion C   4.667663335679999  16.169223410910007   1.000001652210000 0
ion C  -2.333820329459996  20.211535405260001   1.000001652210000 0
ion C   2.333824108920002  20.211535405260001   1.000001652210000 0
ion C  -4.667659556220003  16.169223410910007   1.000001652210000 0
ion C   7.001483665139999   4.042310104620000   1.000001652210000 0
ion C  21.004430208390001   4.042310104620000   1.000001652210000 0
ion C  14.002948432980000  16.169223410910007   1.000001652210000 0
ion C   0.000001889729996  16.169223410910007   1.000001652210000 0
ion C  11.669126213789999   4.042310104620000   1.000001652210000 0
ion C  18.670609878930001   8.084622098970000   1.000001652210000 0
ion C  11.669126213789998  12.126913306290001   1.000001652210000 0
ion C  16.336787659739997  12.126913306290001   1.000001652210000 0
ion C  16.336789549470002   4.042310104620000   1.000001652210000 0
ion C   9.335303994600004   8.084622098970000   1.000001652210000 0
ion C  14.002948432980002   8.084622098970000   1.000001652210000 0
ion C   0.000000000000000   2.694874032990001   1.000001652210000 0
ion C  11.669128103519999  22.906390540950007   1.000001652210000 0
ion C -11.669124324059998  22.906390540950007   1.000001652210000 0
ion C  -2.333822219190000   6.737165240310002   1.000001652210000 0
ion C   9.335305884330001  18.864097443900004   1.000001652210000 0
ion C  -7.001481775409997  22.906390540950007   1.000001652210000 0
ion C   7.001485554870005  22.906390540950007   1.000001652210000 0
ion C   2.333822219190001   6.737165240310002   1.000001652210000 0
ion C  -9.335302104869998  18.864097443900004   1.000001652210000 0
ion C  -4.667661445950000  10.779477234660003   1.000001652210000 0
ion C  -2.333820329460000  22.906390540950007   1.000001652210000 0
ion C   2.333824108920002  22.906390540950007   1.000001652210000 0
ion C  -7.001483665140000  14.821787339280004   1.000001652210000 0
ion C   4.667661445950001   2.694874032990001   1.000001652210000 0
ion C  23.338269435150004   2.694874032990001   1.000001652210000 0
ion C  14.002967330280004  18.864097443900004   1.000001652210000 0
ion C   0.000000000000000  10.779477234660003   1.000001652210000 0
ion C   4.667663335679999  18.864097443900004   1.000001652210000 0
ion C  -4.667640658919998  18.864097443900004   1.000001652210000 0
ion C  -2.333822219190001  14.821787339280004   1.000001652210000 0
ion C   2.333824108919998  14.821787339280004   1.000001652210000 0
ion C   0.000001889729999  18.864097443900004   1.000001652210000 0
ion C   9.335303994599997   2.694874032990001   1.000001652210000 0
ion C  21.004430208390001   6.737165240310002   1.000001652210000 0
ion C  11.669126213790001  14.821787339280004   1.000001652210000 0
ion C  16.336789549469998  14.821787339280004   1.000001652210000 0
ion C  18.670609878930005   2.694874032990001   1.000001652210000 0
ion C   7.001483665139999   6.737165240310002   1.000001652210000 0
ion C  14.002946543250001   2.694874032990001   1.000001652210000 0
ion C  18.670607989200008  10.779477234660003   1.000001652210000 0
ion C  11.669126213789998   6.737165240310002   1.000001652210000 0
ion C  16.336787659740004   6.737165240310002   1.000001652210000 0
ion C  14.002946543250001  10.779477234660003   1.000001652210000 0
ion N   4.667661445950002   8.084622098970000   1.000001652210000 0
ion N   2.333822219190002  12.126913306290001   1.000001652210000 0
ion N   7.001485554869999  14.821787339280004   1.000001652210000 0
ion N   9.335305884330001  10.779477234660003   1.000001652210000 0
ion Fe   5.837109518070000  11.454309266310002   1.000001652210000 0
ion S   7.964558511032669   9.183543026998061   7.351323850816462 1
ion S   5.461020951484826  11.564906749527601   5.396026583031698 1
ion Na  10.280178252662214  13.338465968371827   5.753967769380449 1
ion Na   3.987465080896512   6.593684037438965   5.811402548231160 1

# Forces in Cartesian coordinates:
force C   0.003927781340696  -0.000362710457830   0.000001878149491 0
force C   0.000851237465518  -0.001023756166327  -0.000141693493326 0
force C   0.002920480670699  -0.001616745926496  -0.000021249376102 0
force C   0.001100059603453   0.001802266592130   0.000234422584289 0
force C   0.001697169177017  -0.000175835838460   0.000023859111497 0
force C   0.003448260618707   0.000221291123513   0.000857248743509 0
force C   0.000869319085643  -0.000084012736447   0.000083798339119 0
force C  -0.000421974515264   0.001647298858753   0.000044789298533 0
force C  -0.037272600217004  -0.012122686731510  -0.000637795888281 0
force C  -0.000975449621283   0.000008899030386  -0.000041997726993 0
force C  -0.000976121510469  -0.000094849726238   0.000008219854512 0
force C   0.000359565384968   0.001375472792367   0.000080894401319 0
force C   0.001922635285909   0.003281059646867  -0.000005029049220 0
force C  -0.000414099563186  -0.000189770319256  -0.000003614454445 0
force C   0.009731843251426   0.007796282029974   0.001097420552881 0
force C   0.002402895620800   0.002296590159065  -0.000123254052098 0
force C   0.001459699012925   0.000544900607375   0.000000001457302 0
force C   0.003917575241495   0.003638957365310   0.000308817503742 0
force C   0.030233330931732   0.009480643327741   0.000352034220833 0
force C  -0.000405076433272  -0.000604562176402  -0.000025078958924 0
force C  -0.002527432721591   0.000271409336897   0.000018781406847 0
force C   0.002010547688424  -0.000254419610823  -0.000000486451858 0
force C   0.007168624919068   0.003621765477509  -0.000137403393217 0
force C   0.001281437255500   0.001038297923624  -0.000014833093427 0
force C   0.002804778553032   0.001411784185647   0.000259562630568 0
force C   0.006383506326597   0.002058530875868   0.000398509539003 0
force C  -0.000812144236206  -0.001202668865234   0.000098219827230 0
force C   0.000915887923184   0.001995620598570   0.000023322266948 0
force C  -0.027536486620061  -0.025461433434443  -0.002218182009255 0
force C  -0.000076822771835   0.003336199256757   0.000031936031535 0
force C  -0.001153973922675  -0.000200494668978   0.000005960991585 0
force C   0.023000479484803   0.021427752859013   0.000694556936359 0
force C   0.002876284059766   0.000172908996547   0.000027932118948 0
force C  -0.004902091250209   0.001121601539136   0.000320576812343 0
force C  -0.004025407762252   0.000152963939074   0.000059351346805 0
force C  -0.002259232507337  -0.000390009044044  -0.000002530618086 0
force C   0.000495218470745   0.000518615913582   0.000083500815740 0
force C  -0.004830230755801  -0.000302411671465   0.000589008319191 0
force C   0.001065570269407   0.000436513305461  -0.000008894067575 0
force C  -0.000654040052705  -0.002316216831136  -0.000007736828797 0
force C   0.030121462588470   0.014707609142131  -0.001543386275109 0
force C  -0.001368335716483  -0.001216520458454  -0.000015763415293 0
force C   0.000153251314813  -0.003645750540672  -0.000032039651698 0
force C   0.000584856515758   0.000018878121060  -0.000004172882315 0
force C   0.000929034577866  -0.000121130419918  -0.000033154489349 0
force C  -0.000337453263322  -0.001704416743766   0.000015291607776 0
force C  -0.000890206730604  -0.004704036571463  -0.000195330999505 0
force C  -0.000686906901375   0.000174951275835   0.000080372904468 0
force C  -0.000987191246666   0.000936465809933  -0.000012706855699 0
force C   0.030858002932366   0.023804147234200   0.000182486888475 0
force C  -0.005309303272703  -0.005420973566993   0.000396084784387 0
force C   0.000673412376614   0.000314389056196   0.000012089841734 0
force C  -0.002649987283013  -0.001349186513114  -0.000066928342894 0
force C  -0.023074099121940  -0.022732943787894   0.000538404249584 0
force C   0.001125152064706   0.002081887263631  -0.000006302191065 0
force C   0.002401406491165  -0.000320189095724   0.000433879408956 0
force C   0.000089671626333  -0.000870323275546   0.000015463097578 0
force C  -0.011188267200560  -0.005845392451695   0.001354265174922 0
force C   0.000020056815048  -0.001143907399413  -0.000090346718006 0
force C  -0.001037579716797  -0.001057309067881  -0.000015536061194 0
force C  -0.025851269216308  -0.007379165544539  -0.000881454499638 0
force C   0.000574676381676   0.000795629544038  -0.000024562891891 0
force C  -0.001456315902106  -0.003776350073273   0.000083198435684 0
force C  -0.007185425315724  -0.002416156689698   0.000044316118208 0
force C  -0.002691999324132   0.000198454832041   0.000001092394989 0
force C  -0.001936836279164  -0.004122324439213   0.000615436213721 0
force N   0.027818265065019  -0.031557571345866  -0.012446123692329 0
force N  -0.018127651812296   0.040493296642565  -0.012515879795602 0
force N  -0.026220275014356   0.033902512510024  -0.012598163240837 0
force N   0.013736223909011  -0.040376116493583  -0.010545601043177 0
force Fe  -0.001118891650057  -0.001125467032735   0.044190930595112 0
force S  -0.000342229112957   0.000320036212319  -0.000314457518586 1
force S   0.000259486382955  -0.000064691133937   0.000046603104080 1
force Na   0.000043146563428  -0.000057086274796  -0.000037203147877 1
force Na   0.000053181222018   0.000127841749371   0.000029341077879 1

# Energy components:
   Eewald =    -1201.0781068269805019
       EH =     -682.9884567980968768
     Eloc =     1167.3627251981404243
      Enl =      -62.2435003995429383
     EvdW =       -0.1172374179537241
      Exc =     -167.8532774256604512
 Exc_core =        6.8981125933137681
       KE =      282.8053757206200771
-------------------------------------
     Etot =     -657.2143653561602150
       TS =        0.0708576390810741
-------------------------------------
        F =     -657.2852229952412699

IonicMinimize: Iter:  29  F: -657.285222995241270  |grad|_K:  1.868e-04  alpha:  9.228e+00  linmin:  2.153e-04  t[s]:   2516.33
IonicMinimize: Converged (|Delta F|<1.000000e-06 for 2 iters).

#--- Lowdin population analysis ---
# oxidation-state C +0.037 +0.027 +0.030 +0.028 +0.035 -0.016 +0.032 +0.030 +0.104 +0.037 +0.037 +0.033 +0.041 +0.039 -0.009 +0.043 +0.041 +0.025 +0.124 +0.039 +0.033 +0.034 +0.013 +0.044 +0.031 +0.035 +0.034 +0.035 +0.087 +0.027 +0.037 +0.129 +0.042 +0.023 +0.039 +0.032 +0.041 +0.015 +0.034 +0.033 +0.082 +0.043 +0.035 +0.038 +0.038 +0.035 +0.018 +0.033 +0.025 +0.139 +0.033 +0.037 +0.047 +0.124 +0.034 +0.031 +0.035 -0.050 +0.024 +0.042 +0.101 +0.039 +0.040 +0.037 +0.035 +0.011
# oxidation-state N -0.157 -0.123 -0.137 -0.145
# oxidation-state Fe -0.009
# oxidation-state S -0.530 -0.102
# oxidation-state Na +0.848 +0.848


Dumping 'Na2S2@FeN4-vdw.fillings' ... done
Dumping 'Na2S2@FeN4-vdw.wfns' ... done
Dumping 'Na2S2@FeN4-vdw.ionpos' ... done
Dumping 'Na2S2@FeN4-vdw.eigenvals' ... done
End date and time: Wed Jan 15 18:12:49 2025  (Duration: 0-0:42:18.98)
Done!
