
*************** JDFTx 1.7.0  ***************

Start date and time: Wed Jan 15 17:44:49 2025
Executable jdftx_gpu with command-line: -i /home/akim2/JDFTx/Na2S@FeN4-glyme-vdw/Na2S@FeN4-glyme-vdw.in -o /home/akim2/JDFTx/Na2S@FeN4-glyme-vdw/Na2S@FeN4-glyme-vdw.out
Running on hosts (process indices):  exp-3-60 (0)
Divided in process groups (process indices):  0 (0)
gpuInit: Found compatible cuda device 0 'Tesla V100-SXM2-32GB'
gpuInit: Selected device 0
Resource initialization completed at t[s]:      0.37
Run totals: 1 processes, 1 threads, 1 GPUs


Input parsed successfully to the following command list (including defaults):

basis kpoint-dependent
coords-type Cartesian
core-overlap-check vector
coulomb-interaction Slab 001
coulomb-truncation-embed 0 0 3
davidson-band-ratio 1.1
dump End State
dump-name Na2S@FeN4-glyme-vdw.$VAR
elec-cutoff 20 100
elec-eigen-algo Davidson
elec-ex-corr gga-PBE
elec-smearing Fermi 0.01
electronic-minimize  \
	dirUpdateScheme      FletcherReeves \
	linminMethod         DirUpdateRecommended \
	nIterations          100 \
	history              15 \
	knormThreshold       0 \
	energyDiffThreshold  1e-08 \
	nEnergyDiff          2 \
	alphaTstart          1 \
	alphaTmin            1e-10 \
	updateTestStepSize   yes \
	alphaTreduceFactor   0.1 \
	alphaTincreaseFactor 3 \
	nAlphaAdjustMax      3 \
	wolfeEnergy          0.0001 \
	wolfeGradient        0.9 \
	fdTest               no
electronic-scf  \
	nIterations	50 \
	energyDiffThreshold	1e-08 \
	residualThreshold	1e-07 \
	mixFraction	0.5 \
	qMetric	0.8 \
	history	10 \
	nEigSteps	2 \
	eigDiffThreshold	1e-08 \
	mixedVariable	Density \
	qKerker	0.8 \
	qKappa	-1 \
	verbose	no \
	mixFractionMag	1.5
exchange-regularization WignerSeitzTruncated
fluid LinearPCM 298.000000 1.013250
fluid-ex-corr lda-TF lda-PZ
fluid-gummel-loop 10 1.000000e-05
fluid-minimize  \
	dirUpdateScheme      PolakRibiere \
	linminMethod         DirUpdateRecommended \
	nIterations          400 \
	history              15 \
	knormThreshold       1e-11 \
	energyDiffThreshold  0 \
	nEnergyDiff          2 \
	alphaTstart          1 \
	alphaTmin            1e-10 \
	updateTestStepSize   yes \
	alphaTreduceFactor   0.1 \
	alphaTincreaseFactor 3 \
	nAlphaAdjustMax      6 \
	wolfeEnergy          0.0001 \
	wolfeGradient        0.9 \
	fdTest               no
fluid-solvent Glyme 9.62137 ScalarEOS \
	epsBulk 7.2 \
	pMol 0 \
	epsInf 1.9 \
	Pvap 0 \
	sigmaBulk 0 \
	Rvdw 0 \
	Res 0 \
	tauNuc 343133
forces-output-coords Positions
ion C  28.005857181630002   0.000000000000000   1.000001652210000 0
ion C  25.672025513790000   4.042310104620000   1.000001652210000 0
ion C  11.669128103520002  20.211535405260001   1.000001652210000 0
ion C   4.667680343250000   0.000000000000000   1.000001652210000 0
ion C  23.338288332449999   0.000000000000000   1.000001652210000 0
ion C   2.333822219190000   4.042310104620000   1.000001652210000 0
ion C  16.336708291080008  20.211535405260001   1.000001652210000 0
ion C  23.338191956219998   8.084622098970000   1.000001652210000 0
ion C   9.335305884329996  16.169223410910011   1.000001652210000 0
ion C   9.335322891900001   0.000000000000000   1.000001652210000 0
ion C  18.670626886499999   0.000000000000000   1.000001652210000 0
ion C  18.670539958920003  16.169223410910011   1.000001652210000 0
ion C  21.004371626759990  12.126913306290001   1.000001652210000 0
ion C  14.002984337850000   0.000000000000000   1.000001652210000 0
ion C   0.000000000000000   8.084622098970000   1.000001652210000 0
ion C   7.001485554870005  20.211535405260001   1.000001652210000 0
ion C  -7.001481775409994  20.211535405260001   1.000001652210000 0
ion C  -2.333822219189999  12.126913306290001   1.000001652210000 0
ion C   4.667663335679999  16.169223410910011   1.000001652210000 0
ion C  -2.333820329459996  20.211535405260001   1.000001652210000 0
ion C   2.333824108920002  20.211535405260001   1.000001652210000 0
ion C  -4.667659556220002  16.169223410910011   1.000001652210000 0
ion C   7.001483665139999   4.042310104620000   1.000001652210000 0
ion C  21.004430208389998   4.042310104620000   1.000001652210000 0
ion C  14.002948432980000  16.169223410910011   1.000001652210000 0
ion C   0.000001889729997  16.169223410910011   1.000001652210000 0
ion C  11.669126213789999   4.042310104620000   1.000001652210000 0
ion C  18.670609878929998   8.084622098970000   1.000001652210000 0
ion C  11.669126213789998  12.126913306290001   1.000001652210000 0
ion C  16.336787659739997  12.126913306290001   1.000001652210000 0
ion C  16.336789549470002   4.042310104620000   1.000001652210000 0
ion C   9.335303994600004   8.084622098970000   1.000001652210000 0
ion C  14.002948432980002   8.084622098970000   1.000001652210000 0
ion C   0.000000000000000   2.694874032990001   1.000001652210000 0
ion C  11.669128103519999  22.906390540950010   1.000001652210000 0
ion C -11.669124324059998  22.906390540950010   1.000001652210000 0
ion C  -2.333822219190000   6.737165240310004   1.000001652210000 0
ion C   9.335305884330001  18.864097443900004   1.000001652210000 0
ion C  -7.001481775409996  22.906390540950010   1.000001652210000 0
ion C   7.001485554870005  22.906390540950010   1.000001652210000 0
ion C   2.333822219189997   6.737165240310004   1.000001652210000 0
ion C  -9.335302104869998  18.864097443900004   1.000001652210000 0
ion C  -4.667661445950000  10.779477234660005   1.000001652210000 0
ion C  -2.333820329460000  22.906390540950010   1.000001652210000 0
ion C   2.333824108920002  22.906390540950010   1.000001652210000 0
ion C  -7.001483665140000  14.821787339280007   1.000001652210000 0
ion C   4.667661445950001   2.694874032990001   1.000001652210000 0
ion C  23.338269435150004   2.694874032990001   1.000001652210000 0
ion C  14.002967330279997  18.864097443900004   1.000001652210000 0
ion C   0.000000000000000  10.779477234660005   1.000001652210000 0
ion C   4.667663335679999  18.864097443900004   1.000001652210000 0
ion C  -4.667640658919996  18.864097443900004   1.000001652210000 0
ion C  -2.333822219190001  14.821787339280007   1.000001652210000 0
ion C   2.333824108919998  14.821787339280007   1.000001652210000 0
ion C   0.000001889729999  18.864097443900004   1.000001652210000 0
ion C   9.335303994599997   2.694874032990001   1.000001652210000 0
ion C  21.004430208390001   6.737165240310004   1.000001652210000 0
ion C  11.669126213790003  14.821787339280007   1.000001652210000 0
ion C  16.336789549469998  14.821787339280007   1.000001652210000 0
ion C  18.670609878930005   2.694874032990001   1.000001652210000 0
ion C   7.001483665139999   6.737165240310004   1.000001652210000 0
ion C  14.002946543250001   2.694874032990001   1.000001652210000 0
ion C  18.670607989199997  10.779477234660005   1.000001652210000 0
ion C  11.669126213789998   6.737165240310004   1.000001652210000 0
ion C  16.336787659740001   6.737165240310004   1.000001652210000 0
ion C  14.002946543250001  10.779477234660005   1.000001652210000 0
ion N   4.667661445950002   8.084622098970000   1.000001652210000 0
ion N   2.333822219190004  12.126913306290001   1.000001652210000 0
ion N   7.001485554869998  14.821787339280007   1.000001652210000 0
ion N   9.335305884330001  10.779477234660005   1.000001652210000 0
ion Fe   5.837109518069999  11.454309266310004   1.000001652210000 0
ion S  11.996321958307306  13.080363808714907   8.869696466513297 1
ion Na   8.177817050167437  12.403054816466332   5.947606613126949 1
ion Na  15.895421543116431  13.800966413369199   6.147004302818918 1
ion-species GBRV/$ID_pbe.uspp
ion-width Ecut
ionic-minimize  \
	dirUpdateScheme      FletcherReeves \
	linminMethod         DirUpdateRecommended \
	nIterations          200 \
	history              15 \
	knormThreshold       0.0001 \
	energyDiffThreshold  1e-06 \
	nEnergyDiff          2 \
	alphaTstart          1 \
	alphaTmin            1e-10 \
	updateTestStepSize   yes \
	alphaTreduceFactor   0.1 \
	alphaTincreaseFactor 3 \
	nAlphaAdjustMax      3 \
	wolfeEnergy          0.0001 \
	wolfeGradient        0.9 \
	fdTest               no
kpoint   0.000000000000   0.000000000000   0.000000000000  1.00000000000000
kpoint-folding 1 1 1 
latt-move-scale 1 1 1
latt-scale 1 1 1 
lattice Triclinic 28.0058 28.0058 32.1253 90 90 120
lattice-minimize  \
	dirUpdateScheme      L-BFGS \
	linminMethod         DirUpdateRecommended \
	nIterations          0 \
	history              15 \
	knormThreshold       0 \
	energyDiffThreshold  1e-06 \
	nEnergyDiff          2 \
	alphaTstart          1 \
	alphaTmin            1e-10 \
	updateTestStepSize   yes \
	alphaTreduceFactor   0.1 \
	alphaTincreaseFactor 3 \
	nAlphaAdjustMax      3 \
	wolfeEnergy          0.0001 \
	wolfeGradient        0.9 \
	fdTest               no
lcao-params -1 1e-06 0.01
pcm-variant GLSSA13
spintype no-spin
subspace-rotation-factor 1 yes
symmetries automatic
symmetry-threshold 0.0001
van-der-waals D3



---------- Setting up symmetries ----------

Found 24 point-group symmetries of the bravais lattice
Found 1 space-group symmetries with basis
Applied RMS atom displacement 0 bohrs to make symmetries exact.

---------- Initializing the Grid ----------
R = 
[      28.0058     -14.0029            0  ]
[            0      24.2537            0  ]
[            0            0      32.1253  ]
unit cell volume = 21821
G =
[   0.224353    0.12953         -0  ]
[          0   0.259061          0  ]
[          0         -0   0.195584  ]
Minimum fftbox size, Smin = [  128  128  148  ]
Chosen fftbox size, S = [  128  128  150  ]

---------- Initializing tighter grid for wavefunction operations ----------
R = 
[      28.0058     -14.0029            0  ]
[            0      24.2537            0  ]
[            0            0      32.1253  ]
unit cell volume = 21821
G =
[   0.224353    0.12953         -0  ]
[          0   0.259061          0  ]
[          0         -0   0.195584  ]
Minimum fftbox size, Smin = [  116  116  132  ]
Chosen fftbox size, S = [  120  120  140  ]

---------- Exchange Correlation functional ----------
Initalized PBE GGA exchange.
Initalized PBE GGA correlation.

---------- Setting up pseudopotentials ----------
Width of ionic core gaussian charges (only for fluid interactions / plotting) set to 0.397384

Reading pseudopotential file '/home/akim2/jdftx_install/build/pseudopotentials/GBRV/c_pbe.uspp':
  Title: C.  Created by USPP 7.3.6 on 3-2-2014
  Reference state energy: -5.406344.  4 valence electrons in orbitals:
    |200>  occupation: 2  eigenvalue: -0.504890
    |210>  occupation: 2  eigenvalue: -0.194356
  lMax: 1  lLocal: 2  QijEcut: 5
  4 projectors sampled on a log grid with 503 points:
    l: 0  eig: -0.504890  rCut: 1.3
    l: 0  eig: 0.000000  rCut: 1.3
    l: 1  eig: -0.194357  rCut: 1.3
    l: 1  eig: 0.000000  rCut: 1.3
  Partial core density with radius 1.1
  Transforming core density to a uniform radial grid of dG=0.02 with 1618 points.
  Transforming local potential to a uniform radial grid of dG=0.02 with 1618 points.
  Transforming nonlocal projectors to a uniform radial grid of dG=0.02 with 432 points.
  Transforming density augmentations to a uniform radial grid of dG=0.02 with 1618 points.
  Transforming atomic orbitals to a uniform radial grid of dG=0.02 with 432 points.
  Core radius for overlap checks: 1.30 bohrs.

Reading pseudopotential file '/home/akim2/jdftx_install/build/pseudopotentials/GBRV/n_pbe.uspp':
  Title: N.  Created by USPP 7.3.6 on 3-2-2014
  Reference state energy: -9.763716.  5 valence electrons in orbitals:
    |200>  occupation: 2  eigenvalue: -0.681964
    |210>  occupation: 3  eigenvalue: -0.260726
  lMax: 1  lLocal: 2  QijEcut: 6
  4 projectors sampled on a log grid with 491 points:
    l: 0  eig: -0.681964  rCut: 1.15
    l: 0  eig: 0.000000  rCut: 1.15
    l: 1  eig: -0.260729  rCut: 1.2
    l: 1  eig: 0.500000  rCut: 1.2
  Partial core density with radius 0.8
  Transforming core density to a uniform radial grid of dG=0.02 with 1618 points.
  Transforming local potential to a uniform radial grid of dG=0.02 with 1618 points.
  Transforming nonlocal projectors to a uniform radial grid of dG=0.02 with 432 points.
  Transforming density augmentations to a uniform radial grid of dG=0.02 with 1618 points.
  Transforming atomic orbitals to a uniform radial grid of dG=0.02 with 432 points.
  Core radius for overlap checks: 1.20 bohrs.

Reading pseudopotential file '/home/akim2/jdftx_install/build/pseudopotentials/GBRV/fe_pbe.uspp':
  Title: Fe.  Created by USPP 7.3.6 on 15-6-15
  Reference state energy: -124.316937.  16 valence electrons in orbitals:
    |300>  occupation: 2  eigenvalue: -4.008817
    |310>  occupation: 6  eigenvalue: -2.753096
    |320>  occupation: 5  eigenvalue: -0.791264
    |400>  occupation: 2  eigenvalue: -0.516384
    |410>  occupation: 0  eigenvalue: -0.312222
  lMax: 2  lLocal: 3  QijEcut: 6
  6 projectors sampled on a log grid with 607 points:
    l: 0  eig: -4.008819  rCut: 1.55
    l: 0  eig: -0.516386  rCut: 1.55
    l: 1  eig: -2.753096  rCut: 1.55
    l: 1  eig: -0.312226  rCut: 1.55
    l: 2  eig: -0.791264  rCut: 1.65
    l: 2  eig: -0.450000  rCut: 1.65
  Partial core density with radius 0.65
  Transforming core density to a uniform radial grid of dG=0.02 with 1618 points.
  Transforming local potential to a uniform radial grid of dG=0.02 with 1618 points.
  Transforming nonlocal projectors to a uniform radial grid of dG=0.02 with 432 points.
  Transforming density augmentations to a uniform radial grid of dG=0.02 with 1618 points.
  Transforming atomic orbitals to a uniform radial grid of dG=0.02 with 432 points.
  Core radius for overlap checks: 1.65 bohrs.

Reading pseudopotential file '/home/akim2/jdftx_install/build/pseudopotentials/GBRV/s_pbe.uspp':
  Title: S.  Created by USPP 7.3.6 on 1-4-15
  Reference state energy: -11.898476.  6 valence electrons in orbitals:
    |300>  occupation: 2  eigenvalue: -0.634167
    |310>  occupation: 4  eigenvalue: -0.257568
  lMax: 2  lLocal: 3  QijEcut: 6
  6 projectors sampled on a log grid with 635 points:
    l: 0  eig: -0.634161  rCut: 1.5
    l: 0  eig: 1.500000  rCut: 1.5
    l: 1  eig: -0.257567  rCut: 1.5
    l: 1  eig: 1.500000  rCut: 1.5
    l: 2  eig: -1.000000  rCut: 1.5
    l: 2  eig: 1.500000  rCut: 1.5
  Partial core density with radius 1.15
  Transforming core density to a uniform radial grid of dG=0.02 with 1618 points.
  Transforming local potential to a uniform radial grid of dG=0.02 with 1618 points.
  Transforming nonlocal projectors to a uniform radial grid of dG=0.02 with 432 points.
  Transforming density augmentations to a uniform radial grid of dG=0.02 with 1618 points.
  Transforming atomic orbitals to a uniform radial grid of dG=0.02 with 432 points.
  Core radius for overlap checks: 1.50 bohrs.

Reading pseudopotential file '/home/akim2/jdftx_install/build/pseudopotentials/GBRV/na_pbe.uspp':
  Title: Na.  Created by USPP 7.3.6 on 23-9-15
  Reference state energy: -47.625620.  9 valence electrons in orbitals:
    |200>  occupation: 2  eigenvalue: -2.085638
    |210>  occupation: 6  eigenvalue: -1.053708
    |300>  occupation: 1  eigenvalue: -0.100838
  lMax: 2  lLocal: 0  QijEcut: 6
  5 projectors sampled on a log grid with 657 points:
    l: 0  eig: -2.085640  rCut: 1.37
    l: 0  eig: -0.100839  rCut: 1.37
    l: 1  eig: -1.053708  rCut: 1.47
    l: 1  eig: 0.500000  rCut: 1.47
    l: 2  eig: 0.750000  rCut: 2
  Transforming local potential to a uniform radial grid of dG=0.02 with 1618 points.
  Transforming nonlocal projectors to a uniform radial grid of dG=0.02 with 432 points.
  Transforming density augmentations to a uniform radial grid of dG=0.02 with 1618 points.
  Transforming atomic orbitals to a uniform radial grid of dG=0.02 with 432 points.
  Core radius for overlap checks: 2.00 bohrs.

Initialized 5 species with 74 total atoms.

Folded 1 k-points by 1x1x1 to 1 k-points.

---------- Setting up k-points, bands, fillings ----------
No reducable k-points. 
Computing the number of bands and number of electrons
Calculating initial fillings.
nElectrons: 324.000000   nBands: 307   nStates: 1

----- Setting up reduced wavefunction bases (one per k-point) -----
average nbasis = 93173.000 , ideal nbasis = 93220.781

---------- Setting up coulomb interaction ----------
Fluid mode embedding: using embedded box, but periodic Coulomb kernel.
(Fluid response is responsible for (approximate) separation between periodic images.)
Setting up double-sized grid for truncated Coulomb potentials:
R = 
[      28.0058     -14.0029            0  ]
[            0      24.2537            0  ]
[            0            0      64.2506  ]
unit cell volume = 43641.9
G =
[   0.224353    0.12953         -0  ]
[          0   0.259061          0  ]
[          0         -0  0.0977919  ]
Chosen fftbox size, S = [  128  128  300  ]
Integer grid location selected as the embedding center:
   Grid: [  0  0  14  ]
   Lattice: [  0  0  0.0933843  ]
   Cartesian: [  0  0  3  ]
Constructing Wigner-Seitz cell: 8 faces (6 quadrilaterals, 2 hexagons)
Range-separation parameter for embedded mesh potentials due to point charges: 0.590105 bohrs.

Initializing DFT-D3 calculator:
	Parameters set for gga-PBE functional
	s6:  1.000  s_r6:  1.217
	s8:  0.722  s_r8:  1.000
	Per-atom parameters loaded for:
	 C:  sqrtQ[a0]:  3.105  Rcov[a0]:  1.417  CN: [ 0.00 0.99 2.00 3.00 3.98 ]
	 N:  sqrtQ[a0]:  2.712  Rcov[a0]:  1.342  CN: [ 0.00 0.99 2.01 2.99 ]
	Fe:  sqrtQ[a0]:  5.584  Rcov[a0]:  1.965  CN: [ 0.00 1.65 9.14 ]
	 S:  sqrtQ[a0]:  4.041  Rcov[a0]:  1.928  CN: [ 0.00 0.99 1.99 ]
	Na:  sqrtQ[a0]:  6.586  Rcov[a0]:  2.646  CN: [ 0.00 0.97 ]

---------- Setting up ewald sum ----------
Optimum gaussian width for ewald sums = 6.854977 bohr.
Real space sum over 567 unit cells with max indices [  4  4  3  ]
Reciprocal space sum over 9537 terms with max indices [  8  8  16  ]

Computing DFT-D3 correction:
# coordination-number C 3.300 3.300 3.301 3.300 3.300 3.287 3.304 3.300 3.368 3.300 3.300 3.394 3.312 3.300 3.271 3.299 3.300 3.287 3.494 3.300 3.300 3.301 3.288 3.300 3.487 3.288 3.300 3.304 3.462 3.791 3.300 3.521 3.306 3.300 3.300 3.300 3.299 3.292 3.300 3.300 3.275 3.308 3.300 3.300 3.300 3.315 3.298 3.300 3.312 3.275 3.290 3.300 3.298 3.477 3.300 3.300 3.300 3.375 3.913 3.300 3.482 3.300 3.355 3.292 3.302 3.398
# coordination-number N 3.158 3.155 3.439 3.637
# coordination-number Fe 5.845
# coordination-number S 1.978
# coordination-number Na 3.220 2.854
# diagonal-C6 C 24.28 24.29 24.27 24.29 24.29 24.40 24.25 24.28 23.53 24.29 24.29 23.19 24.16 24.29 24.54 24.29 24.28 24.40 21.74 24.29 24.28 24.28 24.39 24.29 21.84 24.39 24.28 24.24 22.21 18.79 24.28 21.33 24.22 24.29 24.28 24.28 24.29 24.36 24.29 24.29 24.51 24.21 24.28 24.29 24.29 24.14 24.30 24.29 24.16 24.51 24.38 24.28 24.30 21.98 24.29 24.28 24.28 23.44 18.44 24.29 21.91 24.28 23.68 24.36 24.26 23.13
# diagonal-C6 N 15.60 15.60 15.58 15.58
# diagonal-C6 Fe 109.50
# diagonal-C6 S 125.92
# diagonal-C6 Na 186.11 186.11
EvdW_6 =   -0.058088
EvdW_8 =   -0.051205

---------- Allocating electronic variables ----------
Initializing wave functions:  linear combination of atomic orbitals
C pseudo-atom occupations:   s ( 2 )  p ( 2 )
N pseudo-atom occupations:   s ( 2 )  p ( 3 )
Fe pseudo-atom occupations:   s ( 2 0 )  p ( 6 0 )  d ( 8 )
S pseudo-atom occupations:   s ( 2 )  p ( 4 )
Na pseudo-atom occupations:   s ( 2 1 )  p ( 6 )
	FillingsUpdate:  mu: -0.240524657  nElectrons: 324.000000
LCAOMinimize: Iter:   0  F: -625.7325283113287924  |grad|_K:  2.432e-02  alpha:  1.000e+00
	FillingsUpdate:  mu: -0.226265501  nElectrons: 324.000000
LCAOMinimize: Iter:   1  F: -630.6311460160237630  |grad|_K:  1.471e-02  alpha:  1.383e-01  linmin: -9.756e-02  cgtest:  8.971e-01  t[s]:      9.31
LCAOMinimize: Encountered beta<0, resetting CG.
	FillingsUpdate:  mu: -0.073862152  nElectrons: 324.000000
LCAOMinimize: Iter:   2  F: -641.1438925922544740  |grad|_K:  2.708e-02  alpha:  8.762e-02  linmin:  2.224e-01  cgtest:  2.076e-01  t[s]:     10.72
LCAOMinimize: 	Bad step direction: g.d > 0.
LCAOMinimize: 	Undoing step.
LCAOMinimize: 	Step failed: resetting search direction.
	FillingsUpdate:  mu: -0.073862152  nElectrons: 324.000000
LCAOMinimize: Iter:   3  F: -641.1438925922544740  |grad|_K:  2.708e-02  alpha:  0.000e+00
	FillingsUpdate:  mu: -0.220102382  nElectrons: 324.000000
LCAOMinimize: Iter:   4  F: -641.6119810158671726  |grad|_K:  2.897e-02  alpha:  3.780e-02  linmin:  1.319e-01  cgtest: -5.869e-01  t[s]:     13.10
LCAOMinimize: 	Wrong curvature in test step, increasing alphaT to 1.133986e-01.
	FillingsUpdate:  mu: -0.236737409  nElectrons: 324.000000
LCAOMinimize: Iter:   5  F: -642.2229387769756386  |grad|_K:  6.511e-03  alpha: -1.181e-01  linmin: -8.218e-02  cgtest:  1.734e+00  t[s]:     14.44
LCAOMinimize: Encountered beta<0, resetting CG.
LCAOMinimize: 	Step increased F by 8.026847e-01, reducing alpha to 1.081560e-02.
	FillingsUpdate:  mu: -0.234946409  nElectrons: 324.000000
LCAOMinimize: Iter:   6  F: -642.2657720917987945  |grad|_K:  5.950e-03  alpha:  1.082e-02  linmin: -3.732e-01  cgtest:  8.182e-01  t[s]:     16.81
LCAOMinimize: 	Wrong curvature in test step, increasing alphaT to 3.244681e-02.
	FillingsUpdate:  mu: -0.231697690  nElectrons: 324.000000
LCAOMinimize: Iter:   7  F: -642.3107323760633562  |grad|_K:  6.406e-03  alpha: -4.424e-02  linmin: -4.629e-01  cgtest:  8.000e-01  t[s]:     18.14
LCAOMinimize: 	Step increased F by 3.188647e+00, reducing alpha to 1.259704e-02.
	FillingsUpdate:  mu: -0.219246980  nElectrons: 324.000000
LCAOMinimize: Iter:   8  F: -642.3917668042663536  |grad|_K:  7.207e-03  alpha:  1.260e-02  linmin: -4.477e-01  cgtest:  7.500e-01  t[s]:     20.50
LCAOMinimize: 	Wrong curvature in test step, increasing alphaT to 3.779112e-02.
	FillingsUpdate:  mu: -0.197787780  nElectrons: 324.000000
LCAOMinimize: Iter:   9  F: -642.5058698467424847  |grad|_K:  6.916e-03  alpha: -5.469e-02  linmin: -3.755e-01  cgtest:  7.916e-01  t[s]:     21.84
LCAOMinimize: 	Step increased F by 5.394460e-01, reducing alpha to 9.709300e-03.
	FillingsUpdate:  mu: -0.188894511  nElectrons: 324.000000
LCAOMinimize: Iter:  10  F: -642.5630013482467575  |grad|_K:  6.045e-03  alpha:  9.709e-03  linmin: -2.627e-01  cgtest:  9.388e-01  t[s]:     24.19
LCAOMinimize: Encountered beta<0, resetting CG.
LCAOMinimize: 	Predicted alpha/alphaT>3.000000, increasing alphaT to 2.912790e-02.
	FillingsUpdate:  mu: -0.156012706  nElectrons: 324.000000
LCAOMinimize: Iter:  11  F: -642.6327556648440122  |grad|_K:  6.883e-03  alpha:  8.547e-02  linmin:  1.312e-01  cgtest: -4.251e-01  t[s]:     25.98
LCAOMinimize: 	Bad step direction: g.d > 0.
LCAOMinimize: 	Undoing step.
LCAOMinimize: 	Step failed: resetting search direction.
	FillingsUpdate:  mu: -0.156012706  nElectrons: 324.000000
LCAOMinimize: Iter:  12  F: -642.6327556648440122  |grad|_K:  6.883e-03  alpha:  0.000e+00
	FillingsUpdate:  mu: -0.230013538  nElectrons: 324.000000
LCAOMinimize: Iter:  13  F: -642.6790671331197018  |grad|_K:  3.925e-03  alpha:  2.539e-02  linmin:  1.055e-01  cgtest: -2.849e-01  t[s]:     28.32
	FillingsUpdate:  mu: -0.202601899  nElectrons: 324.000000
LCAOMinimize: Iter:  14  F: -642.6997590875361084  |grad|_K:  2.019e-03  alpha:  3.786e-02  linmin:  8.849e-04  cgtest:  5.858e-01  t[s]:     29.71
LCAOMinimize: Encountered beta<0, resetting CG.
	FillingsUpdate:  mu: -0.194067814  nElectrons: 324.000000
LCAOMinimize: Iter:  15  F: -642.7051381179879854  |grad|_K:  1.406e-03  alpha:  2.758e-02  linmin:  1.567e-03  cgtest: -5.044e-03  t[s]:     31.11
	FillingsUpdate:  mu: -0.222577001  nElectrons: 324.000000
LCAOMinimize: Iter:  16  F: -642.7122801152501097  |grad|_K:  1.065e-03  alpha:  7.588e-02  linmin: -2.077e-03  cgtest:  6.256e-02  t[s]:     32.50
	FillingsUpdate:  mu: -0.217101007  nElectrons: 324.000000
LCAOMinimize: Iter:  17  F: -642.7185525017268901  |grad|_K:  8.076e-04  alpha:  1.162e-01  linmin:  3.317e-03  cgtest:  5.843e-03  t[s]:     33.88
	FillingsUpdate:  mu: -0.210601986  nElectrons: 324.000000
LCAOMinimize: Iter:  18  F: -642.7192089413814529  |grad|_K:  4.106e-04  alpha:  2.199e-02  linmin:  5.103e-03  cgtest:  1.874e-02  t[s]:     35.27
LCAOMinimize: 	Predicted alpha/alphaT>3.000000, increasing alphaT to 6.597355e-02.
LCAOMinimize: 	Predicted alpha/alphaT>3.000000, increasing alphaT to 1.979206e-01.
	FillingsUpdate:  mu: -0.216998742  nElectrons: 324.000000
LCAOMinimize: Iter:  19  F: -642.7209091601725959  |grad|_K:  3.910e-04  alpha:  2.159e-01  linmin:  1.006e-03  cgtest: -2.539e-02  t[s]:     37.46
	FillingsUpdate:  mu: -0.216717719  nElectrons: 324.000000
LCAOMinimize: Iter:  20  F: -642.7213747111889006  |grad|_K:  3.775e-04  alpha:  6.641e-02  linmin:  1.719e-03  cgtest: -5.753e-03  t[s]:     38.84
	FillingsUpdate:  mu: -0.211989768  nElectrons: 324.000000
LCAOMinimize: Iter:  21  F: -642.7215402864001135  |grad|_K:  1.631e-04  alpha:  2.490e-02  linmin: -4.452e-04  cgtest:  5.631e-02  t[s]:     40.22
LCAOMinimize: 	Predicted alpha/alphaT>3.000000, increasing alphaT to 7.470511e-02.
LCAOMinimize: 	Predicted alpha/alphaT>3.000000, increasing alphaT to 2.241153e-01.
	FillingsUpdate:  mu: -0.213933036  nElectrons: 324.000000
LCAOMinimize: Iter:  22  F: -642.7218310221187494  |grad|_K:  1.513e-04  alpha:  2.301e-01  linmin:  4.252e-05  cgtest: -3.266e-02  t[s]:     42.40
	FillingsUpdate:  mu: -0.215220386  nElectrons: 324.000000
LCAOMinimize: Iter:  23  F: -642.7218600864019891  |grad|_K:  9.895e-05  alpha:  2.679e-02  linmin:  5.074e-05  cgtest:  3.397e-03  t[s]:     43.77
	FillingsUpdate:  mu: -0.213544397  nElectrons: 324.000000
LCAOMinimize: Iter:  24  F: -642.7218819942095251  |grad|_K:  3.487e-05  alpha:  4.719e-02  linmin: -1.335e-04  cgtest: -7.900e-03  t[s]:     45.17
LCAOMinimize: 	Predicted alpha/alphaT>3.000000, increasing alphaT to 1.415578e-01.
	FillingsUpdate:  mu: -0.213317001  nElectrons: 324.000000
LCAOMinimize: Iter:  25  F: -642.7218943087162870  |grad|_K:  6.484e-05  alpha:  2.133e-01  linmin: -1.313e-04  cgtest: -2.818e-03  t[s]:     46.95
	FillingsUpdate:  mu: -0.214005790  nElectrons: 324.000000
LCAOMinimize: Iter:  26  F: -642.7218989072599697  |grad|_K:  1.801e-05  alpha:  2.245e-02  linmin: -4.553e-03  cgtest:  8.442e-02  t[s]:     48.34
LCAOMinimize: 	Predicted alpha/alphaT>3.000000, increasing alphaT to 6.735176e-02.
	FillingsUpdate:  mu: -0.213740647  nElectrons: 324.000000
LCAOMinimize: Iter:  27  F: -642.7219000810495118  |grad|_K:  1.083e-05  alpha:  7.506e-02  linmin: -7.053e-05  cgtest: -3.152e-02  t[s]:     50.14
	FillingsUpdate:  mu: -0.213553570  nElectrons: 324.000000
LCAOMinimize: Iter:  28  F: -642.7219005863047414  |grad|_K:  2.034e-05  alpha:  9.084e-02  linmin: -7.467e-06  cgtest:  4.029e-03  t[s]:     51.52
	FillingsUpdate:  mu: -0.213863047  nElectrons: 324.000000
LCAOMinimize: Iter:  29  F: -642.7219018561136181  |grad|_K:  5.245e-06  alpha:  6.469e-02  linmin:  7.146e-06  cgtest:  2.154e-03  t[s]:     52.90
	FillingsUpdate:  mu: -0.213835656  nElectrons: 324.000000
LCAOMinimize: Iter:  30  F: -642.7219020203490345  |grad|_K:  7.135e-06  alpha:  1.258e-01  linmin: -5.685e-05  cgtest:  5.099e-04  t[s]:     54.30
LCAOMinimize: None of the convergence criteria satisfied after 30 iterations.
----- createFluidSolver() ----- (Fluid-side solver setup)
   Initializing fluid molecule 'Glyme'
     Net charge: 0   dipole magnitude: 0
     Initializing spherical shell mfKernel with radius 0 Bohr
     deltaS corrections:

Correction to mu due to finite nuclear width = -0.00736616
   Cavity determined by nc: 8.36e-05 and sigma: 0.6
   Effective cavity tension: -8.03e-06 Eh/bohr^2 to account for cavitation and dispersion.


---- Citations for features of the code used in this run ----

   Software package:
      R. Sundararaman, K. Letchworth-Weaver, K.A. Schwarz, D. Gunceler, Y. Ozhabes and T.A. Arias, 'JDFTx: software for joint density-functional theory', SoftwareX 6, 278 (2017)

   gga-PBE exchange-correlation functional:
      J.P. Perdew, K. Burke and M. Ernzerhof, Phys. Rev. Lett. 77, 3865 (1996)

   Pseudopotentials:
      KF Garrity, JW Bennett, KM Rabe and D Vanderbilt, Comput. Mater. Sci. 81, 446 (2014)

   Truncated Coulomb potentials:
      R. Sundararaman and T.A. Arias, Phys. Rev. B 87, 165122 (2013)

   DFT-D3 dispersion correction:
      S. Grimme, J. Antony, S. Ehrlich and H. Krieg, J. Chem. Phys. 132, 154104 (2010)

   Linear/nonlinear dielectric/ionic fluid model with effective cavity tension:
      D. Gunceler, K. Letchworth-Weaver, R. Sundararaman, K.A. Schwarz and T.A. Arias, Modelling Simul. Mater. Sci. Eng. 21, 074005 (2013)

This list may not be complete. Please suggest additional citations or
report any other bugs at https://github.com/shankar1729/jdftx/issues

Initialization completed successfully at t[s]:     54.46


Computing DFT-D3 correction:
# coordination-number C 3.300 3.300 3.301 3.300 3.300 3.287 3.304 3.300 3.368 3.300 3.300 3.394 3.312 3.300 3.271 3.299 3.300 3.287 3.494 3.300 3.300 3.301 3.288 3.300 3.487 3.288 3.300 3.304 3.462 3.791 3.300 3.521 3.306 3.300 3.300 3.300 3.299 3.292 3.300 3.300 3.275 3.308 3.300 3.300 3.300 3.315 3.298 3.300 3.312 3.275 3.290 3.300 3.298 3.477 3.300 3.300 3.300 3.375 3.913 3.300 3.482 3.300 3.355 3.292 3.302 3.398
# coordination-number N 3.158 3.155 3.439 3.637
# coordination-number Fe 5.845
# coordination-number S 1.978
# coordination-number Na 3.220 2.854
# diagonal-C6 C 24.28 24.29 24.27 24.29 24.29 24.40 24.25 24.28 23.53 24.29 24.29 23.19 24.16 24.29 24.54 24.29 24.28 24.40 21.74 24.29 24.28 24.28 24.39 24.29 21.84 24.39 24.28 24.24 22.21 18.79 24.28 21.33 24.22 24.29 24.28 24.28 24.29 24.36 24.29 24.29 24.51 24.21 24.28 24.29 24.29 24.14 24.30 24.29 24.16 24.51 24.38 24.28 24.30 21.98 24.29 24.28 24.28 23.44 18.44 24.29 21.91 24.28 23.68 24.36 24.26 23.13
# diagonal-C6 N 15.60 15.60 15.58 15.58
# diagonal-C6 Fe 109.50
# diagonal-C6 S 125.92
# diagonal-C6 Na 186.11 186.11
EvdW_6 =   -0.058088
EvdW_8 =   -0.051205
Fluid solver invoked on fresh (random / LCAO) wavefunctions
Running a vacuum solve first:

-------- Initial electronic minimization -----------
Will mix electronic density at each iteration.
	FillingsUpdate:  mu: -0.213835656  nElectrons: 324.000000
	FillingsUpdate:  mu: -0.225573683  nElectrons: 324.000000
SCF: Cycle:  0   F: -646.004938577641383   dF: -3.283e+00   |Residual|: 9.504e-01   |deigs|: 1.158e-01  t[s]:     60.10
	FillingsUpdate:  mu: -0.213616099  nElectrons: 324.000000
SCF: Cycle:  1   F: -645.668904025480174   dF: +3.360e-01   |Residual|: 6.572e-01   |deigs|: 3.314e-02  t[s]:     62.93
	FillingsUpdate:  mu: -0.147835476  nElectrons: 324.000000
SCF: Cycle:  2   F: -635.158355865191879   dF: +1.051e+01   |Residual|: 1.946e+00   |deigs|: 3.417e-02  t[s]:     65.75
	FillingsUpdate:  mu: -0.175627831  nElectrons: 324.000000
SCF: Cycle:  3   F: -646.303414639822563   dF: -1.115e+01   |Residual|: 3.270e-01   |deigs|: 2.751e-02  t[s]:     68.56
	FillingsUpdate:  mu: -0.165255565  nElectrons: 324.000000
SCF: Cycle:  4   F: -646.790669187377262   dF: -4.873e-01   |Residual|: 2.243e-01   |deigs|: 1.262e-02  t[s]:     71.37
	FillingsUpdate:  mu: -0.165483036  nElectrons: 324.000000
SCF: Cycle:  5   F: -646.867704957053547   dF: -7.704e-02   |Residual|: 1.253e-01   |deigs|: 1.661e-03  t[s]:     74.21
	FillingsUpdate:  mu: -0.154783802  nElectrons: 324.000000
SCF: Cycle:  6   F: -646.873435876248777   dF: -5.731e-03   |Residual|: 1.143e-01   |deigs|: 7.311e-03  t[s]:     77.02
	FillingsUpdate:  mu: -0.151187425  nElectrons: 324.000000
SCF: Cycle:  7   F: -646.924844105131115   dF: -5.141e-02   |Residual|: 7.979e-02   |deigs|: 6.237e-03  t[s]:     79.81
	FillingsUpdate:  mu: -0.144135571  nElectrons: 324.000000
SCF: Cycle:  8   F: -646.945764850955129   dF: -2.092e-02   |Residual|: 3.085e-02   |deigs|: 4.799e-03  t[s]:     82.64
	FillingsUpdate:  mu: -0.139384677  nElectrons: 324.000000
SCF: Cycle:  9   F: -646.949289842679264   dF: -3.525e-03   |Residual|: 2.334e-02   |deigs|: 3.981e-03  t[s]:     85.25
	FillingsUpdate:  mu: -0.134980660  nElectrons: 324.000000
SCF: Cycle: 10   F: -646.942384515463118   dF: +6.905e-03   |Residual|: 4.891e-02   |deigs|: 4.952e-03  t[s]:     87.91
	FillingsUpdate:  mu: -0.133623716  nElectrons: 324.000000
SCF: Cycle: 11   F: -646.939788007489142   dF: +2.597e-03   |Residual|: 5.693e-02   |deigs|: 2.086e-03  t[s]:     90.76
	FillingsUpdate:  mu: -0.131094817  nElectrons: 324.000000
SCF: Cycle: 12   F: -646.951296103355730   dF: -1.151e-02   |Residual|: 9.314e-03   |deigs|: 2.375e-03  t[s]:     93.23
	FillingsUpdate:  mu: -0.127535867  nElectrons: 324.000000
SCF: Cycle: 13   F: -646.947221072676484   dF: +4.075e-03   |Residual|: 2.321e-02   |deigs|: 2.894e-03  t[s]:     95.68
	FillingsUpdate:  mu: -0.125785357  nElectrons: 324.000000
SCF: Cycle: 14   F: -646.951703329582074   dF: -4.482e-03   |Residual|: 9.064e-03   |deigs|: 1.855e-03  t[s]:     98.14
	FillingsUpdate:  mu: -0.122657784  nElectrons: 324.000000
SCF: Cycle: 15   F: -646.951702014952048   dF: +1.315e-06   |Residual|: 4.712e-03   |deigs|: 3.001e-03  t[s]:    100.52
	FillingsUpdate:  mu: -0.120403475  nElectrons: 324.000000
SCF: Cycle: 16   F: -646.951833541657152   dF: -1.315e-04   |Residual|: 7.012e-03   |deigs|: 2.305e-03  t[s]:    102.99
	FillingsUpdate:  mu: -0.117507880  nElectrons: 324.000000
SCF: Cycle: 17   F: -646.951958662394873   dF: -1.251e-04   |Residual|: 4.103e-03   |deigs|: 2.811e-03  t[s]:    105.40
	FillingsUpdate:  mu: -0.116081536  nElectrons: 324.000000
SCF: Cycle: 18   F: -646.952004057608860   dF: -4.540e-05   |Residual|: 1.843e-03   |deigs|: 1.687e-03  t[s]:    107.81
	FillingsUpdate:  mu: -0.115074610  nElectrons: 324.000000
SCF: Cycle: 19   F: -646.952006798867274   dF: -2.741e-06   |Residual|: 1.430e-03   |deigs|: 1.728e-03  t[s]:    110.21
	FillingsUpdate:  mu: -0.114797611  nElectrons: 324.000000
SCF: Cycle: 20   F: -646.952013502578325   dF: -6.704e-06   |Residual|: 1.073e-03   |deigs|: 4.065e-04  t[s]:    112.64
	FillingsUpdate:  mu: -0.114748804  nElectrons: 324.000000
SCF: Cycle: 21   F: -646.952018192130026   dF: -4.690e-06   |Residual|: 6.833e-04   |deigs|: 4.462e-04  t[s]:    115.08
	FillingsUpdate:  mu: -0.114751043  nElectrons: 324.000000
SCF: Cycle: 22   F: -646.952019914348170   dF: -1.722e-06   |Residual|: 4.093e-04   |deigs|: 3.534e-04  t[s]:    117.48
	FillingsUpdate:  mu: -0.114692425  nElectrons: 324.000000
SCF: Cycle: 23   F: -646.952020167467595   dF: -2.531e-07   |Residual|: 3.875e-04   |deigs|: 4.343e-04  t[s]:    119.91
	FillingsUpdate:  mu: -0.114662534  nElectrons: 324.000000
SCF: Cycle: 24   F: -646.952020677845098   dF: -5.104e-07   |Residual|: 2.028e-04   |deigs|: 2.887e-04  t[s]:    122.35
	FillingsUpdate:  mu: -0.114606631  nElectrons: 324.000000
SCF: Cycle: 25   F: -646.952020853606200   dF: -1.758e-07   |Residual|: 1.071e-04   |deigs|: 3.769e-04  t[s]:    124.77
	FillingsUpdate:  mu: -0.114575839  nElectrons: 324.000000
SCF: Cycle: 26   F: -646.952020921862868   dF: -6.826e-08   |Residual|: 8.462e-05   |deigs|: 1.703e-04  t[s]:    127.18
	FillingsUpdate:  mu: -0.114559972  nElectrons: 324.000000
SCF: Cycle: 27   F: -646.952021013632248   dF: -9.177e-08   |Residual|: 5.448e-05   |deigs|: 1.923e-04  t[s]:    129.59
	FillingsUpdate:  mu: -0.114562914  nElectrons: 324.000000
SCF: Cycle: 28   F: -646.952021034991958   dF: -2.136e-08   |Residual|: 4.622e-05   |deigs|: 1.209e-04  t[s]:    132.00
	FillingsUpdate:  mu: -0.114569271  nElectrons: 324.000000
SCF: Cycle: 29   F: -646.952021053982321   dF: -1.899e-08   |Residual|: 3.152e-05   |deigs|: 8.488e-05  t[s]:    134.42
	FillingsUpdate:  mu: -0.114569210  nElectrons: 324.000000
SCF: Cycle: 30   F: -646.952021064036217   dF: -1.005e-08   |Residual|: 2.165e-05   |deigs|: 5.180e-05  t[s]:    136.82
	FillingsUpdate:  mu: -0.114565353  nElectrons: 324.000000
SCF: Cycle: 31   F: -646.952021070269438   dF: -6.233e-09   |Residual|: 1.615e-05   |deigs|: 5.817e-05  t[s]:    139.25
	FillingsUpdate:  mu: -0.114561863  nElectrons: 324.000000
SCF: Cycle: 32   F: -646.952021076699566   dF: -6.430e-09   |Residual|: 1.102e-05   |deigs|: 7.415e-05  t[s]:    141.68
SCF: Converged (|Delta E|<1.000000e-08 for 2 iters).

Setting wave functions to eigenvectors of Hamiltonian
Vacuum energy after initial minimize, F = -646.952021076699566


-------- Electronic minimization -----------
Will mix electronic density at each iteration.
	FillingsUpdate:  mu: -0.114561863  nElectrons: 324.000000
	Linear fluid (dielectric constant: 7.2) occupying 0.824035 of unit cell:	Completed after 13 iterations at t[s]:    142.39
	FillingsUpdate:  mu: -0.116917978  nElectrons: 324.000000
	Linear fluid (dielectric constant: 7.2) occupying 0.824938 of unit cell:	Completed after 10 iterations at t[s]:    145.79
SCF: Cycle:  0   F: -646.953611014241233   dF: +2.675e-02   |Residual|: 6.974e-02   |deigs|: 3.028e-03  t[s]:    145.94
	Linear fluid (dielectric constant: 7.2) occupying 0.824863 of unit cell:	Completed after 10 iterations at t[s]:    146.12
	FillingsUpdate:  mu: -0.119313562  nElectrons: 324.000000
	Linear fluid (dielectric constant: 7.2) occupying 0.826138 of unit cell:	Completed after 13 iterations at t[s]:    149.13
SCF: Cycle:  1   F: -646.120106765571222   dF: +8.335e-01   |Residual|: 5.159e-01   |deigs|: 4.991e-03  t[s]:    149.28
	Linear fluid (dielectric constant: 7.2) occupying 0.824556 of unit cell:	Completed after 12 iterations at t[s]:    149.49
	FillingsUpdate:  mu: -0.114795398  nElectrons: 324.000000
	Linear fluid (dielectric constant: 7.2) occupying 0.825126 of unit cell:	Completed after 10 iterations at t[s]:    152.46
SCF: Cycle:  2   F: -646.976648152173766   dF: -8.565e-01   |Residual|: 5.506e-02   |deigs|: 5.353e-03  t[s]:    152.60
	Linear fluid (dielectric constant: 7.2) occupying 0.824535 of unit cell:	Completed after 10 iterations at t[s]:    152.78
	FillingsUpdate:  mu: -0.116738567  nElectrons: 324.000000
	Linear fluid (dielectric constant: 7.2) occupying 0.825379 of unit cell:	Completed after 10 iterations at t[s]:    155.58
SCF: Cycle:  3   F: -646.985146404538227   dF: -8.498e-03   |Residual|: 2.045e-02   |deigs|: 8.886e-04  t[s]:    155.72
	Linear fluid (dielectric constant: 7.2) occupying 0.824714 of unit cell:	Completed after 9 iterations at t[s]:    155.89
	FillingsUpdate:  mu: -0.115746329  nElectrons: 324.000000
	Linear fluid (dielectric constant: 7.2) occupying 0.825468 of unit cell:	Completed after 10 iterations at t[s]:    158.49
SCF: Cycle:  4   F: -646.985624951805448   dF: -4.785e-04   |Residual|: 2.151e-02   |deigs|: 5.126e-04  t[s]:    158.64
	Linear fluid (dielectric constant: 7.2) occupying 0.824870 of unit cell:	Completed after 9 iterations at t[s]:    158.80
	FillingsUpdate:  mu: -0.115584016  nElectrons: 324.000000
	Linear fluid (dielectric constant: 7.2) occupying 0.825828 of unit cell:	Completed after 10 iterations at t[s]:    161.78
SCF: Cycle:  5   F: -646.987622578545825   dF: -1.998e-03   |Residual|: 4.907e-03   |deigs|: 5.779e-04  t[s]:    161.93
	Linear fluid (dielectric constant: 7.2) occupying 0.824951 of unit cell:	Completed after 9 iterations at t[s]:    162.09
	FillingsUpdate:  mu: -0.115258910  nElectrons: 324.000000
	Linear fluid (dielectric constant: 7.2) occupying 0.825872 of unit cell:	Completed after 10 iterations at t[s]:    165.06
SCF: Cycle:  6   F: -646.987956748186207   dF: -3.342e-04   |Residual|: 6.126e-03   |deigs|: 3.588e-04  t[s]:    165.20
	Linear fluid (dielectric constant: 7.2) occupying 0.825091 of unit cell:	Completed after 9 iterations at t[s]:    165.39
	FillingsUpdate:  mu: -0.114726457  nElectrons: 324.000000
	Linear fluid (dielectric constant: 7.2) occupying 0.826118 of unit cell:	Completed after 10 iterations at t[s]:    168.38
SCF: Cycle:  7   F: -646.988326686240725   dF: -3.699e-04   |Residual|: 5.218e-03   |deigs|: 7.163e-04  t[s]:    168.52
	Linear fluid (dielectric constant: 7.2) occupying 0.825233 of unit cell:	Completed after 8 iterations at t[s]:    168.69
	FillingsUpdate:  mu: -0.114307612  nElectrons: 324.000000
	Linear fluid (dielectric constant: 7.2) occupying 0.826079 of unit cell:	Completed after 9 iterations at t[s]:    171.66
SCF: Cycle:  8   F: -646.988708721342732   dF: -3.820e-04   |Residual|: 6.456e-03   |deigs|: 5.053e-04  t[s]:    171.81
	Linear fluid (dielectric constant: 7.2) occupying 0.825300 of unit cell:	Completed after 8 iterations at t[s]:    171.97
	FillingsUpdate:  mu: -0.113918229  nElectrons: 324.000000
	Linear fluid (dielectric constant: 7.2) occupying 0.826027 of unit cell:	Completed after 8 iterations at t[s]:    174.90
SCF: Cycle:  9   F: -646.989317055405991   dF: -6.083e-04   |Residual|: 2.700e-03   |deigs|: 6.588e-04  t[s]:    175.04
	Linear fluid (dielectric constant: 7.2) occupying 0.825210 of unit cell:	Completed after 8 iterations at t[s]:    175.21
	FillingsUpdate:  mu: -0.113776725  nElectrons: 324.000000
	Linear fluid (dielectric constant: 7.2) occupying 0.826117 of unit cell:	Completed after 8 iterations at t[s]:    178.13
SCF: Cycle: 10   F: -646.989391071146542   dF: -7.402e-05   |Residual|: 2.539e-03   |deigs|: 5.144e-04  t[s]:    178.28
	Linear fluid (dielectric constant: 7.2) occupying 0.825211 of unit cell:	Completed after 7 iterations at t[s]:    178.44
	FillingsUpdate:  mu: -0.113706627  nElectrons: 324.000000
	Linear fluid (dielectric constant: 7.2) occupying 0.826089 of unit cell:	Completed after 8 iterations at t[s]:    181.38
SCF: Cycle: 11   F: -646.989511906192433   dF: -1.208e-04   |Residual|: 7.855e-04   |deigs|: 3.306e-04  t[s]:    181.52
	Linear fluid (dielectric constant: 7.2) occupying 0.825477 of unit cell:	Completed after 7 iterations at t[s]:    181.69
	FillingsUpdate:  mu: -0.113528767  nElectrons: 324.000000
	Linear fluid (dielectric constant: 7.2) occupying 0.825864 of unit cell:	Completed after 7 iterations at t[s]:    184.62
SCF: Cycle: 12   F: -646.989470937268266   dF: +4.097e-05   |Residual|: 2.111e-03   |deigs|: 7.111e-04  t[s]:    184.76
	Linear fluid (dielectric constant: 7.2) occupying 0.825442 of unit cell:	Completed after 7 iterations at t[s]:    184.92
	FillingsUpdate:  mu: -0.113551483  nElectrons: 324.000000
	Linear fluid (dielectric constant: 7.2) occupying 0.826086 of unit cell:	Completed after 7 iterations at t[s]:    187.48
SCF: Cycle: 13   F: -646.989529044575875   dF: -5.811e-05   |Residual|: 6.847e-04   |deigs|: 6.500e-04  t[s]:    187.62
	Linear fluid (dielectric constant: 7.2) occupying 0.825792 of unit cell:	Completed after 7 iterations at t[s]:    187.78
	FillingsUpdate:  mu: -0.113540272  nElectrons: 324.000000
	Linear fluid (dielectric constant: 7.2) occupying 0.825920 of unit cell:	Completed after 6 iterations at t[s]:    190.34
SCF: Cycle: 14   F: -646.989580336836980   dF: -5.129e-05   |Residual|: 1.063e-03   |deigs|: 7.392e-04  t[s]:    190.48
	Linear fluid (dielectric constant: 7.2) occupying 0.825909 of unit cell:	Completed after 6 iterations at t[s]:    190.63
	FillingsUpdate:  mu: -0.113528064  nElectrons: 324.000000
	Linear fluid (dielectric constant: 7.2) occupying 0.825993 of unit cell:	Completed after 6 iterations at t[s]:    193.21
SCF: Cycle: 15   F: -646.989622049296145   dF: -4.171e-05   |Residual|: 4.419e-04   |deigs|: 2.659e-04  t[s]:    193.35
	Linear fluid (dielectric constant: 7.2) occupying 0.825995 of unit cell:	Completed after 6 iterations at t[s]:    193.49
	FillingsUpdate:  mu: -0.113584702  nElectrons: 324.000000
	Linear fluid (dielectric constant: 7.2) occupying 0.825916 of unit cell:	Completed after 6 iterations at t[s]:    196.08
SCF: Cycle: 16   F: -646.989579059244306   dF: +4.299e-05   |Residual|: 7.588e-04   |deigs|: 3.342e-04  t[s]:    196.22
	Linear fluid (dielectric constant: 7.2) occupying 0.826014 of unit cell:	Completed after 6 iterations at t[s]:    196.36
	FillingsUpdate:  mu: -0.113559582  nElectrons: 324.000000
	Linear fluid (dielectric constant: 7.2) occupying 0.826012 of unit cell:	Completed after 6 iterations at t[s]:    198.94
SCF: Cycle: 17   F: -646.989616799736609   dF: -3.774e-05   |Residual|: 4.743e-04   |deigs|: 3.496e-04  t[s]:    199.08
	Linear fluid (dielectric constant: 7.2) occupying 0.825986 of unit cell:	Completed after 6 iterations at t[s]:    199.23
	FillingsUpdate:  mu: -0.113550859  nElectrons: 324.000000
	Linear fluid (dielectric constant: 7.2) occupying 0.825949 of unit cell:	Completed after 6 iterations at t[s]:    212.62
SCF: Cycle: 18   F: -646.989620826421515   dF: -4.027e-06   |Residual|: 4.349e-04   |deigs|: 1.595e-04  t[s]:    212.76
	Linear fluid (dielectric constant: 7.2) occupying 0.825958 of unit cell:	Completed after 5 iterations at t[s]:    212.90
	FillingsUpdate:  mu: -0.113601251  nElectrons: 324.000000
	Linear fluid (dielectric constant: 7.2) occupying 0.826005 of unit cell:	Completed after 5 iterations at t[s]:    216.81
SCF: Cycle: 19   F: -646.989634241158569   dF: -1.341e-05   |Residual|: 4.906e-04   |deigs|: 3.376e-04  t[s]:    216.94
	Linear fluid (dielectric constant: 7.2) occupying 0.825949 of unit cell:	Completed after 5 iterations at t[s]:    217.08
	FillingsUpdate:  mu: -0.113622382  nElectrons: 324.000000
	Linear fluid (dielectric constant: 7.2) occupying 0.826017 of unit cell:	Completed after 5 iterations at t[s]:    219.65
SCF: Cycle: 20   F: -646.989627252572632   dF: +6.989e-06   |Residual|: 4.137e-04   |deigs|: 3.827e-04  t[s]:    219.79
	Linear fluid (dielectric constant: 7.2) occupying 0.825948 of unit cell:	Completed after 5 iterations at t[s]:    219.92
	FillingsUpdate:  mu: -0.113654941  nElectrons: 324.000000
	Linear fluid (dielectric constant: 7.2) occupying 0.825965 of unit cell:	Completed after 4 iterations at t[s]:    222.45
SCF: Cycle: 21   F: -646.989637875779522   dF: -1.062e-05   |Residual|: 1.774e-04   |deigs|: 2.463e-04  t[s]:    222.58
	Linear fluid (dielectric constant: 7.2) occupying 0.825953 of unit cell:	Completed after 5 iterations at t[s]:    222.71
	FillingsUpdate:  mu: -0.113668295  nElectrons: 324.000000
	Linear fluid (dielectric constant: 7.2) occupying 0.825992 of unit cell:	Completed after 5 iterations at t[s]:    225.21
SCF: Cycle: 22   F: -646.989640790728458   dF: -2.915e-06   |Residual|: 2.280e-04   |deigs|: 7.947e-05  t[s]:    225.34
	Linear fluid (dielectric constant: 7.2) occupying 0.825966 of unit cell:	Completed after 2 iterations at t[s]:    225.45
	FillingsUpdate:  mu: -0.113658536  nElectrons: 324.000000
	Linear fluid (dielectric constant: 7.2) occupying 0.825957 of unit cell:	Completed after 3 iterations at t[s]:    227.96
SCF: Cycle: 23   F: -646.989637441898140   dF: +3.349e-06   |Residual|: 1.334e-04   |deigs|: 1.211e-04  t[s]:    228.09
	Linear fluid (dielectric constant: 7.2) occupying 0.825976 of unit cell:	Completed after 3 iterations at t[s]:    228.21
	FillingsUpdate:  mu: -0.113660265  nElectrons: 324.000000
	Linear fluid (dielectric constant: 7.2) occupying 0.825962 of unit cell:	Completed after 3 iterations at t[s]:    230.71
SCF: Cycle: 24   F: -646.989639246507750   dF: -1.805e-06   |Residual|: 1.905e-04   |deigs|: 8.356e-05  t[s]:    230.84
	Linear fluid (dielectric constant: 7.2) occupying 0.825969 of unit cell:	Completed after 2 iterations at t[s]:    230.94
	FillingsUpdate:  mu: -0.113662424  nElectrons: 324.000000
	Linear fluid (dielectric constant: 7.2) occupying 0.825964 of unit cell:	Completed after 2 iterations at t[s]:    233.38
SCF: Cycle: 25   F: -646.989642018102472   dF: -2.772e-06   |Residual|: 8.411e-05   |deigs|: 4.924e-05  t[s]:    233.51
	Linear fluid (dielectric constant: 7.2) occupying 0.825975 of unit cell:	Completed after 3 iterations at t[s]:    233.62
	FillingsUpdate:  mu: -0.113666932  nElectrons: 324.000000
	Linear fluid (dielectric constant: 7.2) occupying 0.825970 of unit cell:	Completed after 3 iterations at t[s]:    236.10
SCF: Cycle: 26   F: -646.989644091214359   dF: -2.073e-06   |Residual|: 1.998e-04   |deigs|: 9.327e-05  t[s]:    236.22
	Linear fluid (dielectric constant: 7.2) occupying 0.825980 of unit cell:	Completed after 2 iterations at t[s]:    236.33
	FillingsUpdate:  mu: -0.113659259  nElectrons: 324.000000
	Linear fluid (dielectric constant: 7.2) occupying 0.825967 of unit cell:	Completed after 2 iterations at t[s]:    238.80
SCF: Cycle: 27   F: -646.989643757598287   dF: +3.336e-07   |Residual|: 1.055e-04   |deigs|: 6.093e-05  t[s]:    238.92
	Linear fluid (dielectric constant: 7.2) occupying 0.825974 of unit cell:	Completed after 2 iterations at t[s]:    239.03
	FillingsUpdate:  mu: -0.113666709  nElectrons: 324.000000
	Linear fluid (dielectric constant: 7.2) occupying 0.825972 of unit cell:	Completed after 2 iterations at t[s]:    241.52
SCF: Cycle: 28   F: -646.989643859691000   dF: -1.021e-07   |Residual|: 6.943e-05   |deigs|: 5.438e-05  t[s]:    241.65
	Linear fluid (dielectric constant: 7.2) occupying 0.825970 of unit cell:	Completed after 1 iterations at t[s]:    241.74
	FillingsUpdate:  mu: -0.113675514  nElectrons: 324.000000
	Linear fluid (dielectric constant: 7.2) occupying 0.825975 of unit cell:	Completed after 2 iterations at t[s]:    244.23
SCF: Cycle: 29   F: -646.989643901129284   dF: -4.144e-08   |Residual|: 3.696e-04   |deigs|: 5.522e-05  t[s]:    244.36
	Linear fluid (dielectric constant: 7.2) occupying 0.825969 of unit cell:	Completed after 2 iterations at t[s]:    244.46
	FillingsUpdate:  mu: -0.113666582  nElectrons: 324.000000
	Linear fluid (dielectric constant: 7.2) occupying 0.825978 of unit cell:	Completed after 2 iterations at t[s]:    246.96
SCF: Cycle: 30   F: -646.989644099105135   dF: -1.980e-07   |Residual|: 1.657e-04   |deigs|: 4.879e-05  t[s]:    247.08
	Linear fluid (dielectric constant: 7.2) occupying 0.825966 of unit cell:	Completed after 2 iterations at t[s]:    247.19
	FillingsUpdate:  mu: -0.113670653  nElectrons: 324.000000
	Linear fluid (dielectric constant: 7.2) occupying 0.825975 of unit cell:	Completed after 1 iterations at t[s]:    249.63
SCF: Cycle: 31   F: -646.989644073097679   dF: +2.601e-08   |Residual|: 9.963e-05   |deigs|: 1.972e-05  t[s]:    249.75
	Linear fluid (dielectric constant: 7.2) occupying 0.825962 of unit cell:	Completed after 1 iterations at t[s]:    249.85
	FillingsUpdate:  mu: -0.113677387  nElectrons: 324.000000
	Linear fluid (dielectric constant: 7.2) occupying 0.825973 of unit cell:	Completed after 2 iterations at t[s]:    252.31
SCF: Cycle: 32   F: -646.989643792970128   dF: +2.801e-07   |Residual|: 1.640e-04   |deigs|: 3.648e-05  t[s]:    252.43
	Linear fluid (dielectric constant: 7.2) occupying 0.825963 of unit cell:	Completed after 1 iterations at t[s]:    252.53
	FillingsUpdate:  mu: -0.113672541  nElectrons: 324.000000
	Linear fluid (dielectric constant: 7.2) occupying 0.825979 of unit cell:	Completed after 2 iterations at t[s]:    255.01
SCF: Cycle: 33   F: -646.989643645304454   dF: +1.477e-07   |Residual|: 2.535e-04   |deigs|: 6.170e-05  t[s]:    255.13
	Linear fluid (dielectric constant: 7.2) occupying 0.825964 of unit cell:	Completed after 2 iterations at t[s]:    255.24
	FillingsUpdate:  mu: -0.113673703  nElectrons: 324.000000
	Linear fluid (dielectric constant: 7.2) occupying 0.825973 of unit cell:	Completed after 1 iterations at t[s]:    257.73
SCF: Cycle: 34   F: -646.989644286273119   dF: -6.410e-07   |Residual|: 5.415e-05   |deigs|: 4.700e-05  t[s]:    257.85
	Linear fluid (dielectric constant: 7.2) occupying 0.825967 of unit cell:	Completed after 1 iterations at t[s]:    257.95
	FillingsUpdate:  mu: -0.113676961  nElectrons: 324.000000
	Linear fluid (dielectric constant: 7.2) occupying 0.825974 of unit cell:	Completed after 1 iterations at t[s]:    260.34
SCF: Cycle: 35   F: -646.989644241344990   dF: +4.493e-08   |Residual|: 1.327e-04   |deigs|: 4.194e-05  t[s]:    260.45
	Linear fluid (dielectric constant: 7.2) occupying 0.825970 of unit cell:	Completed after 1 iterations at t[s]:    260.55
	FillingsUpdate:  mu: -0.113675575  nElectrons: 324.000000
	Linear fluid (dielectric constant: 7.2) occupying 0.825973 of unit cell:	Completed after 1 iterations at t[s]:    262.98
SCF: Cycle: 36   F: -646.989644234461025   dF: +6.884e-09   |Residual|: 1.088e-04   |deigs|: 2.446e-05  t[s]:    263.10
	Linear fluid (dielectric constant: 7.2) occupying 0.825973 of unit cell:	Completed after 1 iterations at t[s]:    263.20
	FillingsUpdate:  mu: -0.113676992  nElectrons: 324.000000
	Linear fluid (dielectric constant: 7.2) occupying 0.825974 of unit cell:	Completed after 0 iterations at t[s]:    265.65
SCF: Cycle: 37   F: -646.989644290346860   dF: -5.589e-08   |Residual|: 3.998e-05   |deigs|: 2.904e-05  t[s]:    265.77
	Linear fluid (dielectric constant: 7.2) occupying 0.825974 of unit cell:	Completed after 0 iterations at t[s]:    265.86
	FillingsUpdate:  mu: -0.113666787  nElectrons: 324.000000
	Linear fluid (dielectric constant: 7.2) occupying 0.825974 of unit cell:	Completed after 2 iterations at t[s]:    268.30
SCF: Cycle: 38   F: -646.989642652750604   dF: +1.638e-06   |Residual|: 6.669e-04   |deigs|: 2.038e-05  t[s]:    268.42
	Linear fluid (dielectric constant: 7.2) occupying 0.825974 of unit cell:	Completed after 2 iterations at t[s]:    268.53
	FillingsUpdate:  mu: -0.113676416  nElectrons: 324.000000
	Linear fluid (dielectric constant: 7.2) occupying 0.825976 of unit cell:	Completed after 1 iterations at t[s]:    270.41
SCF: Cycle: 39   F: -646.989644225113238   dF: -1.572e-06   |Residual|: 6.557e-05   |deigs|: 1.068e-05  t[s]:    270.53
	Linear fluid (dielectric constant: 7.2) occupying 0.825974 of unit cell:	Completed after 1 iterations at t[s]:    270.63
	FillingsUpdate:  mu: -0.113677481  nElectrons: 324.000000
	Linear fluid (dielectric constant: 7.2) occupying 0.825975 of unit cell:	Completed after 1 iterations at t[s]:    272.42
SCF: Cycle: 40   F: -646.989644260717455   dF: -3.560e-08   |Residual|: 3.506e-05   |deigs|: 1.298e-05  t[s]:    272.54
	Linear fluid (dielectric constant: 7.2) occupying 0.825974 of unit cell:	Completed after 1 iterations at t[s]:    272.63
	FillingsUpdate:  mu: -0.113678694  nElectrons: 324.000000
	Linear fluid (dielectric constant: 7.2) occupying 0.825975 of unit cell:	Completed after 1 iterations at t[s]:    275.06
SCF: Cycle: 41   F: -646.989644279011372   dF: -1.829e-08   |Residual|: 8.777e-05   |deigs|: 8.347e-06  t[s]:    275.18
	Linear fluid (dielectric constant: 7.2) occupying 0.825973 of unit cell:	Completed after 1 iterations at t[s]:    275.28
	FillingsUpdate:  mu: -0.113678926  nElectrons: 324.000000
	Linear fluid (dielectric constant: 7.2) occupying 0.825975 of unit cell:	Completed after 1 iterations at t[s]:    277.59
SCF: Cycle: 42   F: -646.989644279677350   dF: -6.660e-10   |Residual|: 3.122e-05   |deigs|: 2.357e-05  t[s]:    277.71
	Linear fluid (dielectric constant: 7.2) occupying 0.825973 of unit cell:	Completed after 0 iterations at t[s]:    277.80
	FillingsUpdate:  mu: -0.113671939  nElectrons: 324.000000
	Linear fluid (dielectric constant: 7.2) occupying 0.825975 of unit cell:	Completed after 1 iterations at t[s]:    280.28
SCF: Cycle: 43   F: -646.989644135334970   dF: +1.443e-07   |Residual|: 2.156e-04   |deigs|: 1.777e-05  t[s]:    280.40
	Linear fluid (dielectric constant: 7.2) occupying 0.825973 of unit cell:	Completed after 1 iterations at t[s]:    280.50
	FillingsUpdate:  mu: -0.113679003  nElectrons: 324.000000
	Linear fluid (dielectric constant: 7.2) occupying 0.825975 of unit cell:	Completed after 1 iterations at t[s]:    282.95
SCF: Cycle: 44   F: -646.989644256826068   dF: -1.215e-07   |Residual|: 1.084e-04   |deigs|: 6.331e-06  t[s]:    283.07
	Linear fluid (dielectric constant: 7.2) occupying 0.825973 of unit cell:	Completed after 1 iterations at t[s]:    283.17
	FillingsUpdate:  mu: -0.113680086  nElectrons: 324.000000
	Linear fluid (dielectric constant: 7.2) occupying 0.825975 of unit cell:	Completed after 1 iterations at t[s]:    285.55
SCF: Cycle: 45   F: -646.989644256469091   dF: +3.570e-10   |Residual|: 7.818e-05   |deigs|: 7.103e-06  t[s]:    285.67
	Linear fluid (dielectric constant: 7.2) occupying 0.825972 of unit cell:	Completed after 1 iterations at t[s]:    285.76
	FillingsUpdate:  mu: -0.113681160  nElectrons: 324.000000
	Linear fluid (dielectric constant: 7.2) occupying 0.825975 of unit cell:	Completed after 1 iterations at t[s]:    288.04
SCF: Cycle: 46   F: -646.989644248272953   dF: +8.196e-09   |Residual|: 8.762e-05   |deigs|: 8.177e-06  t[s]:    288.16
	Linear fluid (dielectric constant: 7.2) occupying 0.825972 of unit cell:	Completed after 1 iterations at t[s]:    288.25
	FillingsUpdate:  mu: -0.113680920  nElectrons: 324.000000
	Linear fluid (dielectric constant: 7.2) occupying 0.825975 of unit cell:	Completed after 1 iterations at t[s]:    290.53
SCF: Cycle: 47   F: -646.989644261240983   dF: -1.297e-08   |Residual|: 1.124e-04   |deigs|: 7.695e-06  t[s]:    290.65
	Linear fluid (dielectric constant: 7.2) occupying 0.825972 of unit cell:	Completed after 1 iterations at t[s]:    290.75
	FillingsUpdate:  mu: -0.113681385  nElectrons: 324.000000
	Linear fluid (dielectric constant: 7.2) occupying 0.825975 of unit cell:	Completed after 1 iterations at t[s]:    293.00
SCF: Cycle: 48   F: -646.989644267360632   dF: -6.120e-09   |Residual|: 1.015e-04   |deigs|: 2.807e-06  t[s]:    293.12
	Linear fluid (dielectric constant: 7.2) occupying 0.825973 of unit cell:	Completed after 1 iterations at t[s]:    293.21
	FillingsUpdate:  mu: -0.113680944  nElectrons: 324.000000
	Linear fluid (dielectric constant: 7.2) occupying 0.825975 of unit cell:	Completed after 1 iterations at t[s]:    295.47
SCF: Cycle: 49   F: -646.989644268538200   dF: -1.178e-09   |Residual|: 8.854e-05   |deigs|: 6.986e-06  t[s]:    295.59
SCF: Converged (|Delta E|<1.000000e-08 for 2 iters).

Setting wave functions to eigenvectors of Hamiltonian
Single-point solvation energy estimate, DeltaF = -0.037623191838634

Computing DFT-D3 correction:
# coordination-number C 3.300 3.300 3.301 3.300 3.300 3.287 3.304 3.300 3.368 3.300 3.300 3.394 3.312 3.300 3.271 3.299 3.300 3.287 3.494 3.300 3.300 3.301 3.288 3.300 3.487 3.288 3.300 3.304 3.462 3.791 3.300 3.521 3.306 3.300 3.300 3.300 3.299 3.292 3.300 3.300 3.275 3.308 3.300 3.300 3.300 3.315 3.298 3.300 3.312 3.275 3.290 3.300 3.298 3.477 3.300 3.300 3.300 3.375 3.913 3.300 3.482 3.300 3.355 3.292 3.302 3.398
# coordination-number N 3.158 3.155 3.439 3.637
# coordination-number Fe 5.845
# coordination-number S 1.978
# coordination-number Na 3.220 2.854
# diagonal-C6 C 24.28 24.29 24.27 24.29 24.29 24.40 24.25 24.28 23.53 24.29 24.29 23.19 24.16 24.29 24.54 24.29 24.28 24.40 21.74 24.29 24.28 24.28 24.39 24.29 21.84 24.39 24.28 24.24 22.21 18.79 24.28 21.33 24.22 24.29 24.28 24.28 24.29 24.36 24.29 24.29 24.51 24.21 24.28 24.29 24.29 24.14 24.30 24.29 24.16 24.51 24.38 24.28 24.30 21.98 24.29 24.28 24.28 23.44 18.44 24.29 21.91 24.28 23.68 24.36 24.26 23.13
# diagonal-C6 N 15.60 15.60 15.58 15.58
# diagonal-C6 Fe 109.50
# diagonal-C6 S 125.92
# diagonal-C6 Na 186.11 186.11
EvdW_6 =   -0.058088
EvdW_8 =   -0.051205

# Ionic positions in cartesian coordinates:
ion C  28.005857181630002   0.000000000000000   1.000001652210000 0
ion C  25.672025513790000   4.042310104620000   1.000001652210000 0
ion C  11.669128103520002  20.211535405260001   1.000001652210000 0
ion C   4.667680343250000   0.000000000000000   1.000001652210000 0
ion C  23.338288332449999   0.000000000000000   1.000001652210000 0
ion C   2.333822219190000   4.042310104620000   1.000001652210000 0
ion C  16.336708291080008  20.211535405260001   1.000001652210000 0
ion C  23.338191956219998   8.084622098970000   1.000001652210000 0
ion C   9.335305884329996  16.169223410910011   1.000001652210000 0
ion C   9.335322891900001   0.000000000000000   1.000001652210000 0
ion C  18.670626886499999   0.000000000000000   1.000001652210000 0
ion C  18.670539958920003  16.169223410910011   1.000001652210000 0
ion C  21.004371626759990  12.126913306290001   1.000001652210000 0
ion C  14.002984337850000   0.000000000000000   1.000001652210000 0
ion C   0.000000000000000   8.084622098970000   1.000001652210000 0
ion C   7.001485554870005  20.211535405260001   1.000001652210000 0
ion C  -7.001481775409994  20.211535405260001   1.000001652210000 0
ion C  -2.333822219189999  12.126913306290001   1.000001652210000 0
ion C   4.667663335679999  16.169223410910011   1.000001652210000 0
ion C  -2.333820329459996  20.211535405260001   1.000001652210000 0
ion C   2.333824108920002  20.211535405260001   1.000001652210000 0
ion C  -4.667659556220002  16.169223410910011   1.000001652210000 0
ion C   7.001483665139999   4.042310104620000   1.000001652210000 0
ion C  21.004430208389998   4.042310104620000   1.000001652210000 0
ion C  14.002948432980000  16.169223410910011   1.000001652210000 0
ion C   0.000001889729997  16.169223410910011   1.000001652210000 0
ion C  11.669126213789999   4.042310104620000   1.000001652210000 0
ion C  18.670609878929998   8.084622098970000   1.000001652210000 0
ion C  11.669126213789998  12.126913306290001   1.000001652210000 0
ion C  16.336787659739997  12.126913306290001   1.000001652210000 0
ion C  16.336789549470002   4.042310104620000   1.000001652210000 0
ion C   9.335303994600004   8.084622098970000   1.000001652210000 0
ion C  14.002948432980002   8.084622098970000   1.000001652210000 0
ion C   0.000000000000000   2.694874032990001   1.000001652210000 0
ion C  11.669128103519999  22.906390540950010   1.000001652210000 0
ion C -11.669124324059998  22.906390540950010   1.000001652210000 0
ion C  -2.333822219190000   6.737165240310004   1.000001652210000 0
ion C   9.335305884330001  18.864097443900004   1.000001652210000 0
ion C  -7.001481775409996  22.906390540950010   1.000001652210000 0
ion C   7.001485554870005  22.906390540950010   1.000001652210000 0
ion C   2.333822219189997   6.737165240310004   1.000001652210000 0
ion C  -9.335302104869998  18.864097443900004   1.000001652210000 0
ion C  -4.667661445950000  10.779477234660005   1.000001652210000 0
ion C  -2.333820329460000  22.906390540950010   1.000001652210000 0
ion C   2.333824108920002  22.906390540950010   1.000001652210000 0
ion C  -7.001483665140000  14.821787339280007   1.000001652210000 0
ion C   4.667661445950001   2.694874032990001   1.000001652210000 0
ion C  23.338269435150004   2.694874032990001   1.000001652210000 0
ion C  14.002967330279997  18.864097443900004   1.000001652210000 0
ion C   0.000000000000000  10.779477234660005   1.000001652210000 0
ion C   4.667663335679999  18.864097443900004   1.000001652210000 0
ion C  -4.667640658919996  18.864097443900004   1.000001652210000 0
ion C  -2.333822219190001  14.821787339280007   1.000001652210000 0
ion C   2.333824108919998  14.821787339280007   1.000001652210000 0
ion C   0.000001889729999  18.864097443900004   1.000001652210000 0
ion C   9.335303994599997   2.694874032990001   1.000001652210000 0
ion C  21.004430208390001   6.737165240310004   1.000001652210000 0
ion C  11.669126213790003  14.821787339280007   1.000001652210000 0
ion C  16.336789549469998  14.821787339280007   1.000001652210000 0
ion C  18.670609878930005   2.694874032990001   1.000001652210000 0
ion C   7.001483665139999   6.737165240310004   1.000001652210000 0
ion C  14.002946543250001   2.694874032990001   1.000001652210000 0
ion C  18.670607989199997  10.779477234660005   1.000001652210000 0
ion C  11.669126213789998   6.737165240310004   1.000001652210000 0
ion C  16.336787659740001   6.737165240310004   1.000001652210000 0
ion C  14.002946543250001  10.779477234660005   1.000001652210000 0
ion N   4.667661445950002   8.084622098970000   1.000001652210000 0
ion N   2.333822219190004  12.126913306290001   1.000001652210000 0
ion N   7.001485554869998  14.821787339280007   1.000001652210000 0
ion N   9.335305884330001  10.779477234660005   1.000001652210000 0
ion Fe   5.837109518069999  11.454309266310004   1.000001652210000 0
ion S  11.996321958307306  13.080363808714907   8.869696466513297 1
ion Na   8.177817050167437  12.403054816466332   5.947606613126949 1
ion Na  15.895421543116431  13.800966413369199   6.147004302818918 1

# Forces in Cartesian coordinates:
force C   0.004059358596837   0.000048099666132  -0.000322979140001 0
force C   0.001326423699029  -0.001238576643201  -0.000326586045257 0
force C   0.003244422807853  -0.001786419223987  -0.000473529189772 0
force C   0.001536061029393   0.002742396803155  -0.000311488432781 0
force C   0.002417926690745  -0.000507701815415  -0.000316867621156 0
force C   0.005107002513498   0.002097408525444  -0.000385101551416 0
force C   0.001085098518113  -0.000444199683368  -0.000435495666248 0
force C  -0.000492896333489   0.001692977398213  -0.000303540783139 0
force C  -0.030943086260074  -0.011010997231832  -0.001397677294582 0
force C  -0.000669721213152   0.000329648415708  -0.000320431705465 0
force C  -0.000747951799469   0.000074142255760  -0.000320788399845 0
force C   0.002270851905673   0.002536399926561  -0.001085529116514 0
force C   0.002667556540000   0.003261351614952  -0.000582263432173 0
force C  -0.000703819466821  -0.000530765865666  -0.000312825157199 0
force C   0.011117155984632   0.006341467474669  -0.000250375918775 0
force C   0.003353632621873   0.003203882726283  -0.000318767424319 0
force C   0.002074495803994   0.000959003993957  -0.000308300327740 0
force C   0.004659700751004   0.003510998112343  -0.000314832790607 0
force C   0.026513910401076   0.012829572274468  -0.000954437703220 0
force C   0.000016348999019  -0.000936878191918  -0.000334173372556 0
force C  -0.003457762727979   0.000657075593780  -0.000328085844070 0
force C   0.003155064143096  -0.000053878961353  -0.000255699463214 0
force C   0.005523066837913   0.006306516153084  -0.000298653678008 0
force C   0.001853929222420   0.000845847746127  -0.000314369838922 0
force C  -0.003121613103714   0.001165528763283  -0.000921718934182 0
force C   0.008443660656718   0.001328002426767  -0.000308541762482 0
force C  -0.000904839055801  -0.003292838104499  -0.000343775981316 0
force C   0.001091935722290   0.002312792205324  -0.000370992652153 0
force C  -0.025424488531084  -0.021360252935756  -0.002219605945316 0
force C   0.000230574188789   0.001325119170306  -0.000893605911223 0
force C  -0.000427679016013  -0.000611746462649  -0.000294578903048 0
force C   0.024155235142963   0.014903291049715  -0.001354735831538 0
force C   0.004813909518644   0.000490557793804  -0.000372425147358 0
force C  -0.003467074130057   0.001839101805682  -0.000321055863148 0
force C  -0.004125039044137   0.000006236796285  -0.000331077728153 0
force C  -0.002505576283072   0.000436490808921  -0.000263787937716 0
force C   0.002117401889582   0.001125931278781  -0.000306926338360 0
force C  -0.004934737752248  -0.002131321132632  -0.000691014071926 0
force C   0.000306385268306   0.000288052175298  -0.000324666820914 0
force C  -0.001116694418255  -0.003135948728820  -0.000271983236876 0
force C   0.033127190316137   0.013964196048347  -0.000362349375114 0
force C  -0.002097011477601  -0.000589251022278  -0.000403756023855 0
force C  -0.000263667542721  -0.004097083643650  -0.000191702573941 0
force C   0.000620736066647   0.000504964806566  -0.000320293393910 0
force C   0.000887113854621  -0.000414289505860  -0.000322478478927 0
force C  -0.000413487599062  -0.002061984105449  -0.000620355671662 0
force C  -0.003241230039030  -0.002513177752556  -0.000324350914149 0
force C  -0.000860894329792   0.000879811527905  -0.000315020045611 0
force C  -0.001513860795887   0.001334247098711  -0.000586915792728 0
force C   0.028743378737989   0.021879765069574  -0.000340353685635 0
force C  -0.005254143723175  -0.007739532037404  -0.000472438639917 0
force C   0.000271159820524   0.000424246559246  -0.000306464208403 0
force C  -0.003804903604147  -0.001670685077946  -0.000316997691850 0
force C  -0.023672226700335  -0.020196073021627  -0.000487083156313 0
force C   0.001132763449925   0.003148052027082  -0.000314943936228 0
force C   0.002974171336249  -0.000451201287229  -0.000291975387346 0
force C   0.000379293376668  -0.000918438596095  -0.000317899366336 0
force C  -0.012351947516021  -0.006486134431824  -0.000919330437359 0
force C   0.000208550248296   0.000067097832348  -0.001031336262010 0
force C  -0.001630004010790  -0.001028881688650  -0.000333497950815 0
force C  -0.028806349251482  -0.010126129697007  -0.000610507611953 0
force C  -0.000001156265711   0.001235743295197  -0.000317554357345 0
force C  -0.000433828210848  -0.005058968727850  -0.000985442713931 0
force C  -0.009408747260697  -0.000682416229360  -0.000712115609983 0
force C  -0.003927726460414   0.000397700354354  -0.000403901042370 0
force C  -0.006108228019894  -0.004312642848122  -0.000850029047365 0
force N   0.026256803356976  -0.025954855718710  -0.000241873909000 0
force N  -0.009447714908705   0.035774372164225  -0.000103573303220 0
force N  -0.025981234397621   0.024848164251423   0.001229337794614 0
force N   0.009034639630241  -0.034283863355439   0.001844237850588 0
force Fe  -0.003352831704080  -0.001552833611157  -0.020033454957700 0
force S  -0.001589557614729  -0.000372992959084   0.003134927969143 1
force Na  -0.004212971835836  -0.000378473555641   0.002886553014805 1
force Na   0.005817373750666   0.001087747396799   0.002973681859795 1

# Energy components:
   A_diel =       -0.0489696643386272
   Eewald =     4053.8525705445022140
       EH =     4573.5578286023437613
     Eloc =    -9330.5090199647620466
      Enl =      -64.0461540370735065
     EvdW =       -0.1092932368575831
      Exc =     -163.5350845756716467
 Exc_core =        5.1303974300831765
       KE =      278.8145511318496688
-------------------------------------
     Etot =     -646.8931737699247151
       TS =        0.0964704986134330
-------------------------------------
        F =     -646.9896442685381999

IonicMinimize: Iter:   0  F: -646.989644268538200  |grad|_K:  3.029e-03  alpha:  1.000e+00

#--- Lowdin population analysis ---
# oxidation-state C +0.043 +0.034 +0.037 +0.035 +0.037 +0.025 +0.034 +0.033 +0.134 +0.038 +0.036 +0.021 +0.036 +0.039 +0.010 +0.045 +0.040 +0.025 +0.124 +0.037 +0.033 +0.032 +0.032 +0.044 +0.030 +0.031 +0.035 +0.034 +0.130 -0.003 +0.036 +0.122 +0.045 +0.037 +0.043 +0.036 +0.049 +0.026 +0.036 +0.035 +0.149 +0.040 +0.036 +0.039 +0.038 +0.030 +0.047 +0.037 +0.030 +0.148 +0.032 +0.036 +0.046 +0.128 +0.034 +0.035 +0.036 -0.002 -0.014 +0.042 +0.127 +0.039 +0.032 +0.033 +0.034 +0.013
# oxidation-state N -0.136 -0.135 -0.155 -0.161
# oxidation-state Fe +0.048
# oxidation-state S -0.957
# oxidation-state Na +0.803 +0.855


Computing DFT-D3 correction:
# coordination-number C 3.300 3.300 3.301 3.300 3.300 3.287 3.304 3.300 3.368 3.300 3.300 3.394 3.312 3.300 3.271 3.299 3.300 3.287 3.494 3.300 3.300 3.301 3.288 3.300 3.485 3.288 3.300 3.304 3.460 3.789 3.300 3.521 3.306 3.300 3.300 3.300 3.299 3.292 3.300 3.300 3.275 3.308 3.300 3.300 3.300 3.315 3.298 3.300 3.312 3.275 3.290 3.300 3.298 3.477 3.300 3.300 3.300 3.374 3.912 3.300 3.482 3.300 3.355 3.292 3.302 3.397
# coordination-number N 3.158 3.155 3.438 3.634
# coordination-number Fe 5.844
# coordination-number S 1.977
# coordination-number Na 3.210 2.844
# diagonal-C6 C 24.28 24.29 24.27 24.29 24.29 24.40 24.25 24.28 23.53 24.29 24.29 23.19 24.16 24.29 24.54 24.29 24.28 24.40 21.74 24.29 24.28 24.28 24.39 24.29 21.86 24.39 24.28 24.24 22.24 18.80 24.28 21.33 24.22 24.29 24.28 24.28 24.29 24.36 24.29 24.29 24.51 24.21 24.28 24.29 24.29 24.13 24.30 24.29 24.16 24.51 24.38 24.28 24.30 21.98 24.29 24.28 24.28 23.45 18.44 24.29 21.91 24.28 23.68 24.36 24.26 23.14
# diagonal-C6 N 15.60 15.60 15.58 15.58
# diagonal-C6 Fe 109.50
# diagonal-C6 S 125.92
# diagonal-C6 Na 186.11 186.11
EvdW_6 =   -0.058090
EvdW_8 =   -0.051213

-------- Electronic minimization -----------
Will mix electronic density at each iteration.
	FillingsUpdate:  mu: -0.113680944  nElectrons: 324.000000
	Linear fluid (dielectric constant: 7.2) occupying 0.825962 of unit cell:	Completed after 5 iterations at t[s]:    301.19
	FillingsUpdate:  mu: -0.113567354  nElectrons: 324.000000
	Linear fluid (dielectric constant: 7.2) occupying 0.825966 of unit cell:	Completed after 5 iterations at t[s]:    304.09
SCF: Cycle:  0   F: -646.989689020334140   dF: +3.591e-05   |Residual|: 3.121e-03   |deigs|: 7.486e-07  t[s]:    304.23
	Linear fluid (dielectric constant: 7.2) occupying 0.825971 of unit cell:	Completed after 5 iterations at t[s]:    304.36
	FillingsUpdate:  mu: -0.114079178  nElectrons: 324.000000
	Linear fluid (dielectric constant: 7.2) occupying 0.826013 of unit cell:	Completed after 8 iterations at t[s]:    306.88
SCF: Cycle:  1   F: -646.986333900630029   dF: +3.355e-03   |Residual|: 3.236e-02   |deigs|: 2.882e-04  t[s]:    307.02
	Linear fluid (dielectric constant: 7.2) occupying 0.825960 of unit cell:	Completed after 8 iterations at t[s]:    307.18
	FillingsUpdate:  mu: -0.113660697  nElectrons: 324.000000
	Linear fluid (dielectric constant: 7.2) occupying 0.825965 of unit cell:	Completed after 4 iterations at t[s]:    309.14
SCF: Cycle:  2   F: -646.989720211586018   dF: -3.386e-03   |Residual|: 8.192e-04   |deigs|: 2.560e-04  t[s]:    309.27
	Linear fluid (dielectric constant: 7.2) occupying 0.825966 of unit cell:	Completed after 4 iterations at t[s]:    309.39
	FillingsUpdate:  mu: -0.113638619  nElectrons: 324.000000
	Linear fluid (dielectric constant: 7.2) occupying 0.825964 of unit cell:	Completed after 3 iterations at t[s]:    311.35
SCF: Cycle:  3   F: -646.989725206784215   dF: -4.995e-06   |Residual|: 2.710e-04   |deigs|: 1.641e-05  t[s]:    311.47
	Linear fluid (dielectric constant: 7.2) occupying 0.825966 of unit cell:	Completed after 3 iterations at t[s]:    311.58
	FillingsUpdate:  mu: -0.113643714  nElectrons: 324.000000
	Linear fluid (dielectric constant: 7.2) occupying 0.825966 of unit cell:	Completed after 2 iterations at t[s]:    313.50
SCF: Cycle:  4   F: -646.989725071892508   dF: +1.349e-07   |Residual|: 2.649e-04   |deigs|: 1.105e-05  t[s]:    313.63
	Linear fluid (dielectric constant: 7.2) occupying 0.825966 of unit cell:	Completed after 2 iterations at t[s]:    313.73
	FillingsUpdate:  mu: -0.113641208  nElectrons: 324.000000
	Linear fluid (dielectric constant: 7.2) occupying 0.825961 of unit cell:	Completed after 2 iterations at t[s]:    316.17
SCF: Cycle:  5   F: -646.989725421708386   dF: -3.498e-07   |Residual|: 3.189e-04   |deigs|: 1.377e-05  t[s]:    316.30
	Linear fluid (dielectric constant: 7.2) occupying 0.825965 of unit cell:	Completed after 2 iterations at t[s]:    316.40
	FillingsUpdate:  mu: -0.113646641  nElectrons: 324.000000
	Linear fluid (dielectric constant: 7.2) occupying 0.825968 of unit cell:	Completed after 2 iterations at t[s]:    318.87
SCF: Cycle:  6   F: -646.989725081225401   dF: +3.405e-07   |Residual|: 1.239e-04   |deigs|: 1.925e-05  t[s]:    319.00
	Linear fluid (dielectric constant: 7.2) occupying 0.825964 of unit cell:	Completed after 2 iterations at t[s]:    319.10
	FillingsUpdate:  mu: -0.113647623  nElectrons: 324.000000
	Linear fluid (dielectric constant: 7.2) occupying 0.825960 of unit cell:	Completed after 1 iterations at t[s]:    321.58
SCF: Cycle:  7   F: -646.989725730173063   dF: -6.489e-07   |Residual|: 3.872e-05   |deigs|: 2.373e-05  t[s]:    321.70
	Linear fluid (dielectric constant: 7.2) occupying 0.825962 of unit cell:	Completed after 1 iterations at t[s]:    321.79
	FillingsUpdate:  mu: -0.113645792  nElectrons: 324.000000
	Linear fluid (dielectric constant: 7.2) occupying 0.825965 of unit cell:	Completed after 1 iterations at t[s]:    324.22
SCF: Cycle:  8   F: -646.989725407606102   dF: +3.226e-07   |Residual|: 1.936e-04   |deigs|: 1.610e-05  t[s]:    324.34
	Linear fluid (dielectric constant: 7.2) occupying 0.825961 of unit cell:	Completed after 1 iterations at t[s]:    324.43
	FillingsUpdate:  mu: -0.113648542  nElectrons: 324.000000
	Linear fluid (dielectric constant: 7.2) occupying 0.825964 of unit cell:	Completed after 2 iterations at t[s]:    326.88
SCF: Cycle:  9   F: -646.989725441479209   dF: -3.387e-08   |Residual|: 2.455e-04   |deigs|: 8.799e-06  t[s]:    327.00
	Linear fluid (dielectric constant: 7.2) occupying 0.825960 of unit cell:	Completed after 2 iterations at t[s]:    327.11
	FillingsUpdate:  mu: -0.113649526  nElectrons: 324.000000
	Linear fluid (dielectric constant: 7.2) occupying 0.825964 of unit cell:	Completed after 1 iterations at t[s]:    329.55
SCF: Cycle: 10   F: -646.989725644912369   dF: -2.034e-07   |Residual|: 6.387e-05   |deigs|: 5.205e-06  t[s]:    329.67
	Linear fluid (dielectric constant: 7.2) occupying 0.825960 of unit cell:	Completed after 1 iterations at t[s]:    329.77
	FillingsUpdate:  mu: -0.113646563  nElectrons: 324.000000
	Linear fluid (dielectric constant: 7.2) occupying 0.825962 of unit cell:	Completed after 1 iterations at t[s]:    332.20
SCF: Cycle: 11   F: -646.989725733662681   dF: -8.875e-08   |Residual|: 1.138e-04   |deigs|: 7.264e-06  t[s]:    332.32
	Linear fluid (dielectric constant: 7.2) occupying 0.825960 of unit cell:	Completed after 1 iterations at t[s]:    332.41
	FillingsUpdate:  mu: -0.113650666  nElectrons: 324.000000
	Linear fluid (dielectric constant: 7.2) occupying 0.825963 of unit cell:	Completed after 1 iterations at t[s]:    334.83
SCF: Cycle: 12   F: -646.989725695876359   dF: +3.779e-08   |Residual|: 1.323e-04   |deigs|: 6.241e-06  t[s]:    334.94
	Linear fluid (dielectric constant: 7.2) occupying 0.825960 of unit cell:	Completed after 1 iterations at t[s]:    335.04
	FillingsUpdate:  mu: -0.113648291  nElectrons: 324.000000
	Linear fluid (dielectric constant: 7.2) occupying 0.825964 of unit cell:	Completed after 0 iterations at t[s]:    337.42
SCF: Cycle: 13   F: -646.989725698388384   dF: -2.512e-09   |Residual|: 2.637e-05   |deigs|: 4.942e-06  t[s]:    337.53
	Linear fluid (dielectric constant: 7.2) occupying 0.825961 of unit cell:	Completed after 0 iterations at t[s]:    337.62
	FillingsUpdate:  mu: -0.113651545  nElectrons: 324.000000
	Linear fluid (dielectric constant: 7.2) occupying 0.825963 of unit cell:	Completed after 2 iterations at t[s]:    340.09
SCF: Cycle: 14   F: -646.989725244861802   dF: +4.535e-07   |Residual|: 3.712e-04   |deigs|: 6.517e-06  t[s]:    340.21
	Linear fluid (dielectric constant: 7.2) occupying 0.825961 of unit cell:	Completed after 2 iterations at t[s]:    340.32
	FillingsUpdate:  mu: -0.113646757  nElectrons: 324.000000
	Linear fluid (dielectric constant: 7.2) occupying 0.825963 of unit cell:	Completed after 1 iterations at t[s]:    342.20
SCF: Cycle: 15   F: -646.989725733326054   dF: -4.885e-07   |Residual|: 9.260e-05   |deigs|: 5.402e-06  t[s]:    342.32
	Linear fluid (dielectric constant: 7.2) occupying 0.825962 of unit cell:	Completed after 1 iterations at t[s]:    342.42
	FillingsUpdate:  mu: -0.113647069  nElectrons: 324.000000
	Linear fluid (dielectric constant: 7.2) occupying 0.825963 of unit cell:	Completed after 1 iterations at t[s]:    344.19
SCF: Cycle: 16   F: -646.989725773166697   dF: -3.984e-08   |Residual|: 2.003e-05   |deigs|: 2.370e-06  t[s]:    344.31
	Linear fluid (dielectric constant: 7.2) occupying 0.825962 of unit cell:	Completed after 0 iterations at t[s]:    344.40
	FillingsUpdate:  mu: -0.113650760  nElectrons: 324.000000
	Linear fluid (dielectric constant: 7.2) occupying 0.825963 of unit cell:	Completed after 1 iterations at t[s]:    346.32
SCF: Cycle: 17   F: -646.989725724382538   dF: +4.878e-08   |Residual|: 9.404e-05   |deigs|: 2.535e-06  t[s]:    346.44
	Linear fluid (dielectric constant: 7.2) occupying 0.825962 of unit cell:	Completed after 1 iterations at t[s]:    346.54
	FillingsUpdate:  mu: -0.113645062  nElectrons: 324.000000
	Linear fluid (dielectric constant: 7.2) occupying 0.825963 of unit cell:	Completed after 1 iterations at t[s]:    348.95
SCF: Cycle: 18   F: -646.989725742897804   dF: -1.852e-08   |Residual|: 9.429e-05   |deigs|: 4.534e-06  t[s]:    349.07
[...]
	Linear fluid (dielectric constant: 7.2) occupying 0.825243 of unit cell:	Completed after 0 iterations at t[s]:   3096.93
	FillingsUpdate:  mu: -0.104465948  nElectrons: 324.000000
	SubspaceRotationAdjust: set factor to 0.158
ElecMinimize: Iter:  25  F: -646.996582351941584  |grad|_K:  2.950e-08  alpha:  1.717e-01  linmin: -1.682e-04  t[s]:   3097.76
	Linear fluid (dielectric constant: 7.2) occupying 0.825243 of unit cell:	Completed after 0 iterations at t[s]:   3098.41
	Linear fluid (dielectric constant: 7.2) occupying 0.825243 of unit cell:	Completed after 0 iterations at t[s]:   3099.06
	FillingsUpdate:  mu: -0.104465974  nElectrons: 324.000000
	SubspaceRotationAdjust: set factor to 0.2
ElecMinimize: Iter:  26  F: -646.996582354058660  |grad|_K:  2.340e-08  alpha:  1.144e-01  linmin: -2.656e-03  t[s]:   3099.88
ElecMinimize: Converged (|Delta F|<1.000000e-08 for 2 iters).
Setting wave functions to eigenvectors of Hamiltonian

Computing DFT-D3 correction:
# coordination-number C 3.300 3.300 3.300 3.300 3.300 3.287 3.301 3.300 3.307 3.300 3.300 3.311 3.303 3.300 3.271 3.299 3.300 3.287 3.490 3.300 3.300 3.300 3.288 3.300 3.308 3.288 3.300 3.301 3.309 3.315 3.300 3.491 3.300 3.299 3.300 3.300 3.299 3.290 3.300 3.300 3.275 3.302 3.300 3.300 3.300 3.304 3.298 3.300 3.302 3.275 3.289 3.300 3.298 3.478 3.300 3.300 3.300 3.290 3.323 3.300 3.478 3.300 3.305 3.290 3.300 3.294
# coordination-number N 3.156 3.156 3.281 3.282
# coordination-number Fe 5.690
# coordination-number S 1.965
# coordination-number Na 2.117 1.084
# diagonal-C6 C 24.29 24.29 24.28 24.29 24.29 24.40 24.27 24.28 24.22 24.29 24.29 24.17 24.25 24.29 24.54 24.30 24.28 24.40 21.79 24.29 24.28 24.28 24.39 24.29 24.20 24.39 24.28 24.28 24.19 24.13 24.29 21.78 24.29 24.29 24.28 24.28 24.29 24.38 24.29 24.29 24.51 24.26 24.28 24.29 24.29 24.24 24.30 24.29 24.26 24.51 24.38 24.28 24.30 21.97 24.29 24.29 24.28 24.37 24.05 24.29 21.96 24.29 24.23 24.38 24.28 24.34
# diagonal-C6 N 15.60 15.60 15.59 15.59
# diagonal-C6 Fe 109.50
# diagonal-C6 S 125.93
# diagonal-C6 Na 186.11 192.24
EvdW_6 =   -0.059288
EvdW_8 =   -0.050461

-------- Electronic minimization -----------
	Linear fluid (dielectric constant: 7.2) occupying 0.825251 of unit cell:	Completed after 5 iterations at t[s]:   3102.64
	FillingsUpdate:  mu: -0.104236932  nElectrons: 324.000000
ElecMinimize: Iter:   0  F: -646.996581352189764  |grad|_K:  4.840e-07  alpha:  1.000e+00
	Linear fluid (dielectric constant: 7.2) occupying 0.825244 of unit cell:	Completed after 5 iterations at t[s]:   3104.22
	Linear fluid (dielectric constant: 7.2) occupying 0.825250 of unit cell:	Completed after 4 iterations at t[s]:   3104.92
	FillingsUpdate:  mu: -0.104520194  nElectrons: 324.000000
	SubspaceRotationAdjust: set factor to 0.124
ElecMinimize: Iter:   1  F: -646.996582364951678  |grad|_K:  2.962e-07  alpha:  1.411e-01  linmin:  3.767e-04  t[s]:   3105.78
	Linear fluid (dielectric constant: 7.2) occupying 0.825250 of unit cell:	Completed after 1 iterations at t[s]:   3106.41
ElecMinimize: 	Predicted alpha/alphaT>3.000000, increasing alphaT to 4.232822e-01.
	Linear fluid (dielectric constant: 7.2) occupying 0.825249 of unit cell:	Completed after 1 iterations at t[s]:   3107.09
	Linear fluid (dielectric constant: 7.2) occupying 0.825249 of unit cell:	Completed after 0 iterations at t[s]:   3107.73
	FillingsUpdate:  mu: -0.104454469  nElectrons: 324.000000
	SubspaceRotationAdjust: set factor to 0.113
ElecMinimize: Iter:   2  F: -646.996583495227583  |grad|_K:  1.452e-07  alpha:  4.591e-01  linmin:  5.693e-03  t[s]:   3108.56
	Linear fluid (dielectric constant: 7.2) occupying 0.825249 of unit cell:	Completed after 2 iterations at t[s]:   3109.20
	Linear fluid (dielectric constant: 7.2) occupying 0.825249 of unit cell:	Completed after 1 iterations at t[s]:   3116.36
	FillingsUpdate:  mu: -0.104472531  nElectrons: 324.000000
	SubspaceRotationAdjust: set factor to 0.117
ElecMinimize: Iter:   3  F: -646.996583615639679  |grad|_K:  7.146e-08  alpha:  2.840e-01  linmin: -1.649e-02  t[s]:   3117.23
	Linear fluid (dielectric constant: 7.2) occupying 0.825249 of unit cell:	Completed after 1 iterations at t[s]:   3117.86
	Linear fluid (dielectric constant: 7.2) occupying 0.825249 of unit cell:	Completed after 0 iterations at t[s]:   3118.49
	FillingsUpdate:  mu: -0.104453841  nElectrons: 324.000000
	SubspaceRotationAdjust: set factor to 0.128
ElecMinimize: Iter:   4  F: -646.996583650620551  |grad|_K:  3.976e-08  alpha:  2.150e-01  linmin: -2.362e-02  t[s]:   3119.29
	Linear fluid (dielectric constant: 7.2) occupying 0.825249 of unit cell:	Completed after 0 iterations at t[s]:   3127.40
ElecMinimize: 	Predicted alpha/alphaT>3.000000, increasing alphaT to 6.449248e-01.
	Linear fluid (dielectric constant: 7.2) occupying 0.825249 of unit cell:	Completed after 1 iterations at t[s]:   3128.08
	Linear fluid (dielectric constant: 7.2) occupying 0.825249 of unit cell:	Completed after 0 iterations at t[s]:   3128.73
	FillingsUpdate:  mu: -0.104448850  nElectrons: 324.000000
	SubspaceRotationAdjust: set factor to 0.134
ElecMinimize: Iter:   5  F: -646.996583691343403  |grad|_K:  4.164e-08  alpha:  5.957e-01  linmin:  6.401e-03  t[s]:   3129.55
	Linear fluid (dielectric constant: 7.2) occupying 0.825250 of unit cell:	Completed after 0 iterations at t[s]:   3132.33
	Linear fluid (dielectric constant: 7.2) occupying 0.825250 of unit cell:	Completed after 0 iterations at t[s]:   3133.01
	FillingsUpdate:  mu: -0.104446362  nElectrons: 324.000000
	SubspaceRotationAdjust: set factor to 0.146
ElecMinimize: Iter:   6  F: -646.996583701730401  |grad|_K:  4.256e-08  alpha:  3.412e-01  linmin:  1.612e-03  t[s]:   3133.84
	Linear fluid (dielectric constant: 7.2) occupying 0.825250 of unit cell:	Completed after 0 iterations at t[s]:   3134.47
	Linear fluid (dielectric constant: 7.2) occupying 0.825250 of unit cell:	Completed after 0 iterations at t[s]:   3135.11
	FillingsUpdate:  mu: -0.104447322  nElectrons: 324.000000
	SubspaceRotationAdjust: set factor to 0.173
ElecMinimize: Iter:   7  F: -646.996583710165737  |grad|_K:  3.119e-08  alpha:  2.236e-01  linmin: -1.165e-03  t[s]:   3135.93
	Linear fluid (dielectric constant: 7.2) occupying 0.825250 of unit cell:	Completed after 0 iterations at t[s]:   3136.55
	Linear fluid (dielectric constant: 7.2) occupying 0.825250 of unit cell:	Completed after 0 iterations at t[s]:   3137.19
	FillingsUpdate:  mu: -0.104447117  nElectrons: 324.000000
	SubspaceRotationAdjust: set factor to 0.214
ElecMinimize: Iter:   8  F: -646.996583715649876  |grad|_K:  2.580e-08  alpha:  1.905e-01  linmin: -4.159e-03  t[s]:   3138.01
ElecMinimize: Converged (|Delta F|<1.000000e-08 for 2 iters).
Setting wave functions to eigenvectors of Hamiltonian

Computing DFT-D3 correction:
# coordination-number C 3.300 3.300 3.300 3.300 3.300 3.287 3.301 3.300 3.307 3.300 3.300 3.311 3.303 3.300 3.271 3.299 3.300 3.287 3.490 3.300 3.300 3.300 3.288 3.300 3.308 3.288 3.300 3.301 3.309 3.315 3.300 3.491 3.300 3.299 3.300 3.300 3.299 3.290 3.300 3.300 3.275 3.302 3.300 3.300 3.300 3.304 3.298 3.300 3.302 3.275 3.289 3.300 3.298 3.478 3.300 3.300 3.300 3.290 3.323 3.300 3.478 3.300 3.305 3.290 3.300 3.294
# coordination-number N 3.156 3.156 3.281 3.282
# coordination-number Fe 5.690
# coordination-number S 1.965
# coordination-number Na 2.117 1.084
# diagonal-C6 C 24.29 24.29 24.28 24.29 24.29 24.40 24.27 24.28 24.22 24.29 24.29 24.17 24.25 24.29 24.54 24.30 24.28 24.40 21.79 24.29 24.28 24.28 24.39 24.29 24.20 24.39 24.28 24.28 24.19 24.13 24.29 21.78 24.29 24.29 24.28 24.28 24.29 24.38 24.29 24.29 24.51 24.26 24.28 24.29 24.29 24.24 24.30 24.29 24.26 24.51 24.38 24.28 24.30 21.97 24.29 24.29 24.28 24.37 24.05 24.29 21.96 24.29 24.23 24.38 24.28 24.34
# diagonal-C6 N 15.60 15.60 15.59 15.59
# diagonal-C6 Fe 109.50
# diagonal-C6 S 125.93
# diagonal-C6 Na 186.11 192.24
EvdW_6 =   -0.059288
EvdW_8 =   -0.050461

# Ionic positions in cartesian coordinates:
ion C  28.005857181630002   0.000000000000000   1.000001652210000 0
ion C  25.672025513790000   4.042310104620000   1.000001652210000 0
ion C  11.669128103520006  20.211535405260001   1.000001652210000 0
ion C   4.667680343250000   0.000000000000000   1.000001652210000 0
ion C  23.338288332449999   0.000000000000000   1.000001652210000 0
ion C   2.333822219190000   4.042310104620000   1.000001652210000 0
ion C  16.336708291080008  20.211535405260001   1.000001652210000 0
ion C  23.338191956219998   8.084622098970000   1.000001652210000 0
ion C   9.335305884329998  16.169223410910011   1.000001652210000 0
ion C   9.335322891900001   0.000000000000000   1.000001652210000 0
ion C  18.670626886499999   0.000000000000000   1.000001652210000 0
ion C  18.670539958920003  16.169223410910011   1.000001652210000 0
ion C  21.004371626759990  12.126913306290001   1.000001652210000 0
ion C  14.002984337850000   0.000000000000000   1.000001652210000 0
ion C   0.000000000000000   8.084622098970000   1.000001652210000 0
ion C   7.001485554870008  20.211535405260001   1.000001652210000 0
ion C  -7.001481775409993  20.211535405260001   1.000001652210000 0
ion C  -2.333822219189998  12.126913306290001   1.000001652210000 0
ion C   4.667663335679999  16.169223410910011   1.000001652210000 0
ion C  -2.333820329459995  20.211535405260001   1.000001652210000 0
ion C   2.333824108920002  20.211535405260001   1.000001652210000 0
ion C  -4.667659556220001  16.169223410910011   1.000001652210000 0
ion C   7.001483665139999   4.042310104620000   1.000001652210000 0
ion C  21.004430208389998   4.042310104620000   1.000001652210000 0
ion C  14.002948432980002  16.169223410910011   1.000001652210000 0
ion C   0.000001889729997  16.169223410910011   1.000001652210000 0
ion C  11.669126213789999   4.042310104620000   1.000001652210000 0
ion C  18.670609878929998   8.084622098970000   1.000001652210000 0
ion C  11.669126213789998  12.126913306290001   1.000001652210000 0
ion C  16.336787659739997  12.126913306290001   1.000001652210000 0
ion C  16.336789549470002   4.042310104620000   1.000001652210000 0
ion C   9.335303994600004   8.084622098970000   1.000001652210000 0
ion C  14.002948432980002   8.084622098970000   1.000001652210000 0
ion C   0.000000000000000   2.694874032990001   1.000001652210000 0
ion C  11.669128103520000  22.906390540950014   1.000001652210000 0
ion C -11.669124324059998  22.906390540950014   1.000001652210000 0
ion C  -2.333822219190000   6.737165240310005   1.000001652210000 0
ion C   9.335305884330001  18.864097443900004   1.000001652210000 0
ion C  -7.001481775409996  22.906390540950014   1.000001652210000 0
ion C   7.001485554870007  22.906390540950014   1.000001652210000 0
ion C   2.333822219189997   6.737165240310005   1.000001652210000 0
ion C  -9.335302104869996  18.864097443900004   1.000001652210000 0
ion C  -4.667661445950000  10.779477234660007   1.000001652210000 0
ion C  -2.333820329460000  22.906390540950014   1.000001652210000 0
ion C   2.333824108920000  22.906390540950014   1.000001652210000 0
ion C  -7.001483665140000  14.821787339280009   1.000001652210000 0
ion C   4.667661445950001   2.694874032990001   1.000001652210000 0
ion C  23.338269435150007   2.694874032990001   1.000001652210000 0
ion C  14.002967330279997  18.864097443900004   1.000001652210000 0
ion C   0.000000000000000  10.779477234660007   1.000001652210000 0
ion C   4.667663335679999  18.864097443900004   1.000001652210000 0
ion C  -4.667640658919995  18.864097443900004   1.000001652210000 0
ion C  -2.333822219190001  14.821787339280009   1.000001652210000 0
ion C   2.333824108919996  14.821787339280009   1.000001652210000 0
ion C   0.000001889729999  18.864097443900004   1.000001652210000 0
ion C   9.335303994599997   2.694874032990001   1.000001652210000 0
ion C  21.004430208390001   6.737165240310005   1.000001652210000 0
ion C  11.669126213790005  14.821787339280009   1.000001652210000 0
ion C  16.336789549469998  14.821787339280009   1.000001652210000 0
ion C  18.670609878930009   2.694874032990001   1.000001652210000 0
ion C   7.001483665139999   6.737165240310005   1.000001652210000 0
ion C  14.002946543250001   2.694874032990001   1.000001652210000 0
ion C  18.670607989199997  10.779477234660007   1.000001652210000 0
ion C  11.669126213789998   6.737165240310005   1.000001652210000 0
ion C  16.336787659740001   6.737165240310005   1.000001652210000 0
ion C  14.002946543250001  10.779477234660007   1.000001652210000 0
ion N   4.667661445950002   8.084622098970000   1.000001652210000 0
ion N   2.333822219190005  12.126913306290001   1.000001652210000 0
ion N   7.001485554869996  14.821787339280009   1.000001652210000 0
ion N   9.335305884329999  10.779477234660007   1.000001652210000 0
ion Fe   5.837109518069998  11.454309266310005   1.000001652210000 0
ion S  12.107369617304283  13.082942601694553   8.282113571001988 1
ion Na   7.551145144670334  12.441649154914874   6.506443136658794 1
ion Na  16.937095631987692  14.170137187806747   8.022770294663877 1

# Forces in Cartesian coordinates:
force C   0.004052103910531   0.000122190541331  -0.000317712552486 0
force C   0.001344080542139  -0.001074418748361  -0.000320941261184 0
force C   0.003519655084888  -0.001866631932822  -0.000447912956546 0
force C   0.001241730891053   0.003038615902487  -0.000303222416584 0
force C   0.002548697060923  -0.000240915280774  -0.000306740782145 0
force C   0.005028553980673   0.002210352145300  -0.000378790771784 0
force C   0.000786215765486  -0.000661678136204  -0.000328764688561 0
force C  -0.000198798268023   0.001581417760680  -0.000292307113684 0
force C  -0.030270248049978  -0.012525065438631  -0.000887379888550 0
force C  -0.000778903394690   0.000475285126118  -0.000318456374485 0
force C  -0.000573600918201   0.000060565391669  -0.000315701620160 0
force C   0.000053592597280   0.001319232906078  -0.000663995349885 0
force C   0.002269553819965   0.003455972729196  -0.000464611241070 0
force C  -0.000689535588105  -0.000312023228211  -0.000312830135852 0
force C   0.011325399553194   0.006507162809193  -0.000219148792603 0
force C   0.003398888494974   0.003171707325905  -0.000313461495119 0
force C   0.001810202767142   0.001161818236656  -0.000309929224350 0
force C   0.004526232530778   0.003147362264396  -0.000311869152692 0
force C   0.027009396743196   0.012252636099327  -0.001011762488537 0
force C  -0.000019306904619  -0.000910027133944  -0.000332312819663 0
force C  -0.003316139027511   0.000722409794636  -0.000309246031936 0
force C   0.003458454185631  -0.000254810474219  -0.000274920504544 0
force C   0.005326081929158   0.007088236982126  -0.000321468398075 0
force C   0.001973111215170   0.001089339723276  -0.000308721949784 0
force C  -0.002734394515844  -0.000926351173043  -0.000182056214186 0
force C   0.008757963215106   0.001222058571153  -0.000307867600262 0
force C  -0.001065929973437  -0.003204318142023  -0.000341300007192 0
force C   0.000870029099990   0.002138915601559  -0.000296185652333 0
force C  -0.026618437239981  -0.021190098434884  -0.000328363412861 0
force C  -0.000365013017518   0.003280784177929   0.000022126210356 0
force C  -0.000217333545027  -0.000416236959901  -0.000312862429615 0
force C   0.024515957034465   0.017979023213202  -0.000824696337119 0
force C   0.004138587652815   0.001954838525289  -0.000415936820297 0
force C  -0.003465959039407   0.001708629585955  -0.000314727029299 0
force C  -0.004186646269764  -0.000189306463387  -0.000335988769193 0
force C  -0.002410263778164   0.000416061157137  -0.000283951101665 0
force C   0.001787952561617   0.001007709732125  -0.000313407249497 0
force C  -0.004945498559281  -0.002572449209302  -0.000665021743562 0
force C   0.000583373650405   0.000008305296150  -0.000309288724115 0
force C  -0.001377440329938  -0.003172876445581  -0.000262163719345 0
force C   0.033023609061216   0.013841268809799  -0.000393855402456 0
force C  -0.001973569981546  -0.000796092351372  -0.000365604413190 0
force C  -0.000101773164265  -0.003934000695239  -0.000213751152692 0
force C   0.000682012396244   0.000423325804736  -0.000321016445138 0
force C   0.000863256625305  -0.000449436437786  -0.000318559958746 0
force C  -0.000720526471448  -0.002345703974425  -0.000512241628920 0
force C  -0.003200288217241  -0.002806010037754  -0.000321411545347 0
force C  -0.000939284727574   0.000635412800777  -0.000310270972347 0
force C  -0.001645415000553   0.000582404194119  -0.000587716180713 0
force C   0.028435990226340   0.021632184566547  -0.000364455219043 0
force C  -0.005276088519713  -0.007386901339433  -0.000438568997246 0
force C   0.000396483005707   0.000510432740610  -0.000294789533101 0
force C  -0.004064104074652  -0.001311219466397  -0.000305061053848 0
force C  -0.023803626942041  -0.019396169044014  -0.000581782079903 0
force C   0.001073230475405   0.003158241405438  -0.000304036308748 0
force C   0.003356104250332  -0.000612261230325  -0.000277785622446 0
force C   0.000073624374562  -0.001185809671174  -0.000310893606265 0
force C  -0.011294420947610  -0.006576622135598  -0.000431492507299 0
force C  -0.000471061263474  -0.001643881892896   0.000232852556275 0
force C  -0.001868558261953  -0.001049547999603  -0.000330530614980 0
force C  -0.028773729198848  -0.011053508583174  -0.000634470325161 0
force C  -0.000039579050370   0.000977831391403  -0.000318609974672 0
force C  -0.002325472672401  -0.003725017101258  -0.000678073573569 0
force C  -0.008923604886367  -0.000602050187720  -0.000576446318725 0
force C  -0.003500110525478   0.000407709896828  -0.000366773808134 0
force C  -0.005212131020524  -0.003398819368409  -0.000393451003805 0
force N   0.026109625765094  -0.025909337003754  -0.000233878459252 0
force N  -0.009161251966477   0.035479540399046  -0.000028339060868 0
force N  -0.025928008048104   0.024975849493694   0.001240857102885 0
force N   0.009745272000754  -0.034925419440930   0.000788551487169 0
force Fe  -0.001249230741831  -0.001672995871744  -0.016902030713398 0
force S   0.000124662577851   0.000017674693333  -0.000012322993152 1
force Na  -0.000114470865226   0.000035666892485  -0.000140980941366 1
force Na   0.000088038554429  -0.000043741837192   0.000148095183250 1

# Energy components:
   A_diel =       -0.0708650675154365
   Eewald =     4009.3536316852378150
       EH =     4534.4330291705991840
     Eloc =    -9246.8092854821115907
      Enl =      -64.0809021281773710
     EvdW =       -0.1097496587770298
      Exc =     -163.5191803380128874
 Exc_core =        5.1303973210990650
       KE =      278.7721349165581728
-------------------------------------
     Etot =     -646.9007895811007529
       TS =        0.0957941345490671
-------------------------------------
        F =     -646.9965837156498765

IonicMinimize: Iter:  26  F: -646.996583715649876  |grad|_K:  9.537e-05  alpha:  1.751e+01  linmin: -6.231e-04  t[s]:   3140.67
IonicMinimize: Converged (|grad|_K<1.000000e-04).

#--- Lowdin population analysis ---
# oxidation-state C +0.039 +0.030 +0.035 +0.031 +0.033 +0.022 +0.031 +0.028 +0.142 +0.034 +0.033 +0.024 +0.034 +0.035 +0.006 +0.042 +0.036 +0.020 +0.120 +0.034 +0.030 +0.028 +0.028 +0.040 +0.049 +0.027 +0.031 +0.032 +0.153 +0.029 +0.033 +0.124 +0.047 +0.034 +0.040 +0.033 +0.045 +0.023 +0.032 +0.031 +0.144 +0.036 +0.031 +0.035 +0.034 +0.027 +0.043 +0.033 +0.031 +0.144 +0.028 +0.030 +0.041 +0.123 +0.030 +0.031 +0.032 +0.016 +0.020 +0.038 +0.125 +0.035 +0.034 +0.031 +0.032 +0.031
# oxidation-state N -0.139 -0.139 -0.149 -0.144
# oxidation-state Fe +0.043
# oxidation-state S -0.978
# oxidation-state Na +0.820 +0.891


Dumping 'Na2S@FeN4-glyme-vdw.fillings' ... done
Dumping 'Na2S@FeN4-glyme-vdw.wfns' ... done
Dumping 'Na2S@FeN4-glyme-vdw.fluidState' ... done
Dumping 'Na2S@FeN4-glyme-vdw.ionpos' ... done
Dumping 'Na2S@FeN4-glyme-vdw.eigenvals' ... done
End date and time: Thu Jan 16 15:59:57 2025  (Duration: 0-0:52:22.34)
Done!
