
*************** JDFTx 1.7.0  ***************

Start date and time: Wed Jan 15 17:44:50 2025
Executable jdftx_gpu with command-line: -i /home/akim2/JDFTx/Na2S6@FeN4-glyme-vdw/Na2S6@FeN4-glyme-vdw.in -o /home/akim2/JDFTx/Na2S6@FeN4-glyme-vdw/Na2S6@FeN4-glyme-vdw.out
Running on hosts (process indices):  exp-12-58 (0)
Divided in process groups (process indices):  0 (0)
gpuInit: Found compatible cuda device 0 'Tesla V100-SXM2-32GB'
gpuInit: Selected device 0
Resource initialization completed at t[s]:      0.58
Run totals: 1 processes, 1 threads, 1 GPUs


Input parsed successfully to the following command list (including defaults):

basis kpoint-dependent
coords-type Cartesian
core-overlap-check vector
coulomb-interaction Slab 001
coulomb-truncation-embed 0 0 5
davidson-band-ratio 1.1
dump End State
dump-name Na2S6@FeN4-glyme-vdw.$VAR
elec-cutoff 20 100
elec-eigen-algo Davidson
elec-ex-corr gga-PBE
elec-smearing Fermi 0.01
electronic-minimize  \
	dirUpdateScheme      FletcherReeves \
	linminMethod         DirUpdateRecommended \
	nIterations          100 \
	history              15 \
	knormThreshold       0 \
	energyDiffThreshold  1e-08 \
	nEnergyDiff          2 \
	alphaTstart          1 \
	alphaTmin            1e-10 \
	updateTestStepSize   yes \
	alphaTreduceFactor   0.1 \
	alphaTincreaseFactor 3 \
	nAlphaAdjustMax      3 \
	wolfeEnergy          0.0001 \
	wolfeGradient        0.9 \
	fdTest               no
electronic-scf  \
	nIterations	50 \
	energyDiffThreshold	1e-08 \
	residualThreshold	1e-07 \
	mixFraction	0.5 \
	qMetric	0.8 \
	history	10 \
	nEigSteps	2 \
	eigDiffThreshold	1e-08 \
	mixedVariable	Density \
	qKerker	0.8 \
	qKappa	-1 \
	verbose	no \
	mixFractionMag	1.5
exchange-regularization WignerSeitzTruncated
fluid LinearPCM 298.000000 1.013250
fluid-ex-corr lda-TF lda-PZ
fluid-gummel-loop 10 1.000000e-05
fluid-minimize  \
	dirUpdateScheme      PolakRibiere \
	linminMethod         DirUpdateRecommended \
	nIterations          400 \
	history              15 \
	knormThreshold       1e-11 \
	energyDiffThreshold  0 \
	nEnergyDiff          2 \
	alphaTstart          1 \
	alphaTmin            1e-10 \
	updateTestStepSize   yes \
	alphaTreduceFactor   0.1 \
	alphaTincreaseFactor 3 \
	nAlphaAdjustMax      6 \
	wolfeEnergy          0.0001 \
	wolfeGradient        0.9 \
	fdTest               no
fluid-solvent Glyme 9.62137 ScalarEOS \
	epsBulk 7.2 \
	pMol 0 \
	epsInf 1.9 \
	Pvap 0 \
	sigmaBulk 0 \
	Rvdw 0 \
	Res 0 \
	tauNuc 343133
forces-output-coords Positions
ion C   0.000000000000000   0.000000000000000   1.000007321400000 0
ion C  -2.333835447300000   4.042302545699999   1.000007321400000 0
ion C  11.669120544600000  20.211531625799999   1.000007321400000 0
ion C   4.667689791900001   0.000000000000000   1.000007321400000 0
ion C  23.338297781100000   0.000000000000000   1.000007321400000 0
ion C   2.333816549999999   4.042302545699999   1.000007321400000 0
ion C -11.669158339200003  20.211531625799999   1.000007321400000 0
ion C  -4.667670894600000   8.084623988700001   1.000007321400000 0
ion C   9.335303994599997  16.169229080099999   1.000007321400000 0
ion C   9.335322891900001   0.000000000000000   1.000007321400000 0
ion C  18.670626886499999   0.000000000000000   1.000007321400000 0
ion C  -9.335322891900001  16.169229080099999   1.000007321400000 0
ion C  -7.001487444600000  12.126907637100000   1.000007321400000 0
ion C  14.002993786499999   0.000000000000000   1.000007321400000 0
ion C   0.000000000000000   8.084623988700001   1.000007321400000 0
ion C   7.001487444599997  20.211531625799999   1.000007321400000 0
ion C  -7.001487444600003  20.211531625799999   1.000007321400000 0
ion C  -2.333816549999999  12.126907637100000   1.000007321400000 0
ion C   4.667670894600002  16.169229080099999   1.000007321400000 0
ion C  -2.333816550000000  20.211531625799999   1.000007321400000 0
ion C   2.333816550000000  20.211531625799999   1.000007321400000 0
ion C  -4.667651997299997  16.169229080099999   1.000007321400000 0
ion C   7.001487444600000   4.042302545699999   1.000007321400000 0
ion C  21.004424539199999   4.042302545699999   1.000007321400000 0
ion C  14.002955991899999  16.169229080099999   1.000007321400000 0
ion C   0.000000000000000  16.169229080099999   1.000007321400000 0
ion C  11.669120544600000   4.042302545699999   1.000007321400000 0
ion C  18.670607989199997   8.084623988700001   1.000007321400000 0
ion C  11.669120544599998  12.126907637100000   1.000007321400000 0
ion C  16.336791439199999  12.126907637100000   1.000007321400000 0
ion C  16.336791439199999   4.042302545699999   1.000007321400000 0
ion C   9.335303994599997   8.084623988700001   1.000007321400000 0
ion C  14.002955991899999   8.084623988700001   1.000007321400000 0
ion C   0.000000000000000   2.694868363800000   1.000007321400000 0
ion C  11.669120544600000  22.906399989600001   1.000007321400000 0
ion C -11.669120544600000  22.906399989600001   1.000007321400000 0
ion C  -2.333816550000000   6.737170909500000   1.000007321400000 0
ion C   9.335303994599995  18.864097443900000   1.000007321400000 0
ion C  -7.001487444600000  22.906399989600001   1.000007321400000 0
ion C   7.001487444600000  22.906399989600001   1.000007321400000 0
ion C   2.333816550000000   6.737170909500000   1.000007321400000 0
ion C  -9.335303994599998  18.864097443900000   1.000007321400000 0
ion C  -4.667670894599998  10.779473455200000   1.000007321400000 0
ion C  -2.333816550000000  22.906399989600001   1.000007321400000 0
ion C   2.333816550000000  22.906399989600001   1.000007321400000 0
ion C  -7.001487444600003  14.821794898200000   1.000007321400000 0
ion C   4.667670894600000   2.694868363800000   1.000007321400000 0
ion C  23.338259986499999   2.694868363800000   1.000007321400000 0
ion C  14.002974889199999  18.864097443900000   1.000007321400000 0
ion C   0.000000000000000  10.779473455200000   1.000007321400000 0
ion C   4.667670894600001  18.864097443900000   1.000007321400000 0
ion C  -4.667633100000002  18.864097443900000   1.000007321400000 0
ion C  -2.333816550000002  14.821794898200000   1.000007321400000 0
ion C   2.333816549999996  14.821794898200000   1.000007321400000 0
ion C  -0.000000000000004  18.864097443900000   1.000007321400000 0
ion C   9.335303994599998   2.694868363800000   1.000007321400000 0
ion C  21.004424539199999   6.737170909500000   1.000007321400000 0
ion C  11.669120544600000  14.821794898200000   1.000007321400000 0
ion C  16.336791439199999  14.821794898200000   1.000007321400000 0
ion C  18.670607989199997   2.694868363800000   1.000007321400000 0
ion C   7.001487444600001   6.737170909500000   1.000007321400000 0
ion C  14.002955991899999   2.694868363800000   1.000007321400000 0
ion C  18.670607989200004  10.779473455200000   1.000007321400000 0
ion C  11.669120544599998   6.737170909500000   1.000007321400000 0
ion C  16.336791439199999   6.737170909500000   1.000007321400000 0
ion C  14.002955991899999  10.779473455200000   1.000007321400000 0
ion N   4.667670894599999   8.084623988700001   1.000007321400000 0
ion N   2.333816549999999  12.126907637100000   1.000007321400000 0
ion N   7.001487444599997  14.821794898200000   1.000007321400000 0
ion N   9.335303994599997  10.779473455200000   1.000007321400000 0
ion Fe   5.837111407799997  11.454314935499999   1.000007321400000 0
ion S   0.972514686328656  10.280029133119969  10.978440437176102 1
ion S   3.681247965627498  12.869330513075642  11.114906222772364 1
ion S   4.133043418746228  14.621883535381638   7.767910980955014 1
ion S   7.572771482429999   8.159403449824440   7.652828678714473 1
ion S   8.078401124558020   9.811647685871222  11.042511241251466 1
ion S  10.770125004560008  12.420687714590761  10.937725384969188 1
ion Na   2.697100092660198   9.801905612606184   6.039595816369336 1
ion Na   8.977703302300373  13.027807243984991   6.034508422101376 1
ion-species GBRV/$ID_pbe.uspp
ion-width Ecut
ionic-minimize  \
	dirUpdateScheme      FletcherReeves \
	linminMethod         DirUpdateRecommended \
	nIterations          200 \
	history              15 \
	knormThreshold       0.0001 \
	energyDiffThreshold  1e-06 \
	nEnergyDiff          2 \
	alphaTstart          1 \
	alphaTmin            1e-10 \
	updateTestStepSize   yes \
	alphaTreduceFactor   0.1 \
	alphaTincreaseFactor 3 \
	nAlphaAdjustMax      3 \
	wolfeEnergy          0.0001 \
	wolfeGradient        0.9 \
	fdTest               no
kpoint   0.000000000000   0.000000000000   0.000000000000  1.00000000000000
kpoint-folding 1 1 1 
latt-move-scale 1 1 1
latt-scale 1 1 1 
lattice Triclinic 28.0058 28.0058 37.7946 90 90 120
lattice-minimize  \
	dirUpdateScheme      L-BFGS \
	linminMethod         DirUpdateRecommended \
	nIterations          0 \
	history              15 \
	knormThreshold       0 \
	energyDiffThreshold  1e-06 \
	nEnergyDiff          2 \
	alphaTstart          1 \
	alphaTmin            1e-10 \
	updateTestStepSize   yes \
	alphaTreduceFactor   0.1 \
	alphaTincreaseFactor 3 \
	nAlphaAdjustMax      3 \
	wolfeEnergy          0.0001 \
	wolfeGradient        0.9 \
	fdTest               no
lcao-params -1 1e-06 0.01
pcm-variant GLSSA13
spintype no-spin
subspace-rotation-factor 1 yes
symmetries automatic
symmetry-threshold 0.0001
van-der-waals D3



---------- Setting up symmetries ----------

Found 24 point-group symmetries of the bravais lattice
Found 1 space-group symmetries with basis
Applied RMS atom displacement 0 bohrs to make symmetries exact.

---------- Initializing the Grid ----------
R = 
[      28.0058     -14.0029            0  ]
[            0      24.2537            0  ]
[            0            0      37.7946  ]
unit cell volume = 25671.8
G =
[   0.224353    0.12953         -0  ]
[          0   0.259061          0  ]
[          0         -0   0.166246  ]
Minimum fftbox size, Smin = [  128  128  172  ]
Chosen fftbox size, S = [  128  128  180  ]

---------- Initializing tighter grid for wavefunction operations ----------
R = 
[      28.0058     -14.0029            0  ]
[            0      24.2537            0  ]
[            0            0      37.7946  ]
unit cell volume = 25671.8
G =
[   0.224353    0.12953         -0  ]
[          0   0.259061          0  ]
[          0         -0   0.166246  ]
Minimum fftbox size, Smin = [  116  116  156  ]
Chosen fftbox size, S = [  120  120  160  ]

---------- Exchange Correlation functional ----------
Initalized PBE GGA exchange.
Initalized PBE GGA correlation.

---------- Setting up pseudopotentials ----------
Width of ionic core gaussian charges (only for fluid interactions / plotting) set to 0.397384

Reading pseudopotential file '/home/akim2/jdftx_install/build/pseudopotentials/GBRV/c_pbe.uspp':
  Title: C.  Created by USPP 7.3.6 on 3-2-2014
  Reference state energy: -5.406344.  4 valence electrons in orbitals:
    |200>  occupation: 2  eigenvalue: -0.504890
    |210>  occupation: 2  eigenvalue: -0.194356
  lMax: 1  lLocal: 2  QijEcut: 5
  4 projectors sampled on a log grid with 503 points:
    l: 0  eig: -0.504890  rCut: 1.3
    l: 0  eig: 0.000000  rCut: 1.3
    l: 1  eig: -0.194357  rCut: 1.3
    l: 1  eig: 0.000000  rCut: 1.3
  Partial core density with radius 1.1
  Transforming core density to a uniform radial grid of dG=0.02 with 1625 points.
  Transforming local potential to a uniform radial grid of dG=0.02 with 1625 points.
  Transforming nonlocal projectors to a uniform radial grid of dG=0.02 with 432 points.
  Transforming density augmentations to a uniform radial grid of dG=0.02 with 1625 points.
  Transforming atomic orbitals to a uniform radial grid of dG=0.02 with 432 points.
  Core radius for overlap checks: 1.30 bohrs.

Reading pseudopotential file '/home/akim2/jdftx_install/build/pseudopotentials/GBRV/n_pbe.uspp':
  Title: N.  Created by USPP 7.3.6 on 3-2-2014
  Reference state energy: -9.763716.  5 valence electrons in orbitals:
    |200>  occupation: 2  eigenvalue: -0.681964
    |210>  occupation: 3  eigenvalue: -0.260726
  lMax: 1  lLocal: 2  QijEcut: 6
  4 projectors sampled on a log grid with 491 points:
    l: 0  eig: -0.681964  rCut: 1.15
    l: 0  eig: 0.000000  rCut: 1.15
    l: 1  eig: -0.260729  rCut: 1.2
    l: 1  eig: 0.500000  rCut: 1.2
  Partial core density with radius 0.8
  Transforming core density to a uniform radial grid of dG=0.02 with 1625 points.
  Transforming local potential to a uniform radial grid of dG=0.02 with 1625 points.
  Transforming nonlocal projectors to a uniform radial grid of dG=0.02 with 432 points.
  Transforming density augmentations to a uniform radial grid of dG=0.02 with 1625 points.
  Transforming atomic orbitals to a uniform radial grid of dG=0.02 with 432 points.
  Core radius for overlap checks: 1.20 bohrs.

Reading pseudopotential file '/home/akim2/jdftx_install/build/pseudopotentials/GBRV/fe_pbe.uspp':
  Title: Fe.  Created by USPP 7.3.6 on 15-6-15
  Reference state energy: -124.316937.  16 valence electrons in orbitals:
    |300>  occupation: 2  eigenvalue: -4.008817
    |310>  occupation: 6  eigenvalue: -2.753096
    |320>  occupation: 5  eigenvalue: -0.791264
    |400>  occupation: 2  eigenvalue: -0.516384
    |410>  occupation: 0  eigenvalue: -0.312222
  lMax: 2  lLocal: 3  QijEcut: 6
  6 projectors sampled on a log grid with 607 points:
    l: 0  eig: -4.008819  rCut: 1.55
    l: 0  eig: -0.516386  rCut: 1.55
    l: 1  eig: -2.753096  rCut: 1.55
    l: 1  eig: -0.312226  rCut: 1.55
    l: 2  eig: -0.791264  rCut: 1.65
    l: 2  eig: -0.450000  rCut: 1.65
  Partial core density with radius 0.65
  Transforming core density to a uniform radial grid of dG=0.02 with 1625 points.
  Transforming local potential to a uniform radial grid of dG=0.02 with 1625 points.
  Transforming nonlocal projectors to a uniform radial grid of dG=0.02 with 432 points.
  Transforming density augmentations to a uniform radial grid of dG=0.02 with 1625 points.
  Transforming atomic orbitals to a uniform radial grid of dG=0.02 with 432 points.
  Core radius for overlap checks: 1.65 bohrs.

Reading pseudopotential file '/home/akim2/jdftx_install/build/pseudopotentials/GBRV/s_pbe.uspp':
  Title: S.  Created by USPP 7.3.6 on 1-4-15
  Reference state energy: -11.898476.  6 valence electrons in orbitals:
    |300>  occupation: 2  eigenvalue: -0.634167
    |310>  occupation: 4  eigenvalue: -0.257568
  lMax: 2  lLocal: 3  QijEcut: 6
  6 projectors sampled on a log grid with 635 points:
    l: 0  eig: -0.634161  rCut: 1.5
    l: 0  eig: 1.500000  rCut: 1.5
    l: 1  eig: -0.257567  rCut: 1.5
    l: 1  eig: 1.500000  rCut: 1.5
    l: 2  eig: -1.000000  rCut: 1.5
    l: 2  eig: 1.500000  rCut: 1.5
  Partial core density with radius 1.15
  Transforming core density to a uniform radial grid of dG=0.02 with 1625 points.
  Transforming local potential to a uniform radial grid of dG=0.02 with 1625 points.
  Transforming nonlocal projectors to a uniform radial grid of dG=0.02 with 432 points.
  Transforming density augmentations to a uniform radial grid of dG=0.02 with 1625 points.
  Transforming atomic orbitals to a uniform radial grid of dG=0.02 with 432 points.
  Core radius for overlap checks: 1.50 bohrs.

Reading pseudopotential file '/home/akim2/jdftx_install/build/pseudopotentials/GBRV/na_pbe.uspp':
  Title: Na.  Created by USPP 7.3.6 on 23-9-15
  Reference state energy: -47.625620.  9 valence electrons in orbitals:
    |200>  occupation: 2  eigenvalue: -2.085638
    |210>  occupation: 6  eigenvalue: -1.053708
    |300>  occupation: 1  eigenvalue: -0.100838
  lMax: 2  lLocal: 0  QijEcut: 6
  5 projectors sampled on a log grid with 657 points:
    l: 0  eig: -2.085640  rCut: 1.37
    l: 0  eig: -0.100839  rCut: 1.37
    l: 1  eig: -1.053708  rCut: 1.47
    l: 1  eig: 0.500000  rCut: 1.47
    l: 2  eig: 0.750000  rCut: 2
  Transforming local potential to a uniform radial grid of dG=0.02 with 1625 points.
  Transforming nonlocal projectors to a uniform radial grid of dG=0.02 with 432 points.
  Transforming density augmentations to a uniform radial grid of dG=0.02 with 1625 points.
  Transforming atomic orbitals to a uniform radial grid of dG=0.02 with 432 points.
  Core radius for overlap checks: 2.00 bohrs.

Initialized 5 species with 79 total atoms.

Folded 1 k-points by 1x1x1 to 1 k-points.

---------- Setting up k-points, bands, fillings ----------
No reducable k-points. 
Computing the number of bands and number of electrons
Calculating initial fillings.
nElectrons: 354.000000   nBands: 327   nStates: 1

----- Setting up reduced wavefunction bases (one per k-point) -----
average nbasis = 109673.000 , ideal nbasis = 109671.883

---------- Setting up coulomb interaction ----------
Fluid mode embedding: using embedded box, but periodic Coulomb kernel.
(Fluid response is responsible for (approximate) separation between periodic images.)
Setting up double-sized grid for truncated Coulomb potentials:
R = 
[      28.0058     -14.0029            0  ]
[            0      24.2537            0  ]
[            0            0      75.5892  ]
unit cell volume = 51343.6
G =
[   0.224353    0.12953         -0  ]
[          0   0.259061          0  ]
[          0         -0  0.0831228  ]
Chosen fftbox size, S = [  128  128  360  ]
Integer grid location selected as the embedding center:
   Grid: [  0  0  24  ]
   Lattice: [  0  0  0.132294  ]
   Cartesian: [  0  0  5  ]
Constructing Wigner-Seitz cell: 8 faces (6 quadrilaterals, 2 hexagons)
Range-separation parameter for embedded mesh potentials due to point charges: 0.590105 bohrs.

Initializing DFT-D3 calculator:
	Parameters set for gga-PBE functional
	s6:  1.000  s_r6:  1.217
	s8:  0.722  s_r8:  1.000
	Per-atom parameters loaded for:
	 C:  sqrtQ[a0]:  3.105  Rcov[a0]:  1.417  CN: [ 0.00 0.99 2.00 3.00 3.98 ]
	 N:  sqrtQ[a0]:  2.712  Rcov[a0]:  1.342  CN: [ 0.00 0.99 2.01 2.99 ]
	Fe:  sqrtQ[a0]:  5.584  Rcov[a0]:  1.965  CN: [ 0.00 1.65 9.14 ]
	 S:  sqrtQ[a0]:  4.041  Rcov[a0]:  1.928  CN: [ 0.00 0.99 1.99 ]
	Na:  sqrtQ[a0]:  6.586  Rcov[a0]:  2.646  CN: [ 0.00 0.97 ]

---------- Setting up ewald sum ----------
Optimum gaussian width for ewald sums = 7.158153 bohr.
Real space sum over 405 unit cells with max indices [  4  4  2  ]
Reciprocal space sum over 7875 terms with max indices [  7  7  17  ]

Computing DFT-D3 correction:
# coordination-number C 3.300 3.301 3.301 3.300 3.300 3.296 3.300 3.301 3.470 3.300 3.300 3.300 3.300 3.300 3.457 3.300 3.300 3.299 3.495 3.300 3.300 3.300 3.291 3.300 3.307 3.292 3.300 3.300 3.543 3.301 3.300 3.503 3.300 3.301 3.300 3.300 3.308 3.296 3.300 3.300 3.484 3.300 3.301 3.300 3.300 3.300 3.300 3.300 3.301 3.533 3.291 3.300 3.300 3.499 3.300 3.300 3.300 3.451 3.301 3.300 3.496 3.300 3.300 3.292 3.300 3.300
# coordination-number N 3.419 3.483 3.408 3.506
# coordination-number Fe 6.006
# coordination-number S 2.003 2.986 2.904 2.905 2.979 2.003
# coordination-number Na 5.692 5.708
# diagonal-C6 C 24.28 24.27 24.27 24.28 24.28 24.32 24.28 24.27 22.10 24.28 24.28 24.28 24.28 24.28 22.29 24.29 24.29 24.29 21.72 24.28 24.28 24.28 24.36 24.28 24.21 24.36 24.28 24.28 21.01 24.27 24.28 21.59 24.28 24.27 24.28 24.28 24.21 24.32 24.28 24.28 21.89 24.28 24.27 24.28 24.28 24.28 24.28 24.28 24.27 21.15 24.37 24.28 24.28 21.65 24.28 24.28 24.28 22.37 24.27 24.29 21.70 24.28 24.28 24.36 24.28 24.29
# diagonal-C6 N 15.58 15.58 15.58 15.58
# diagonal-C6 Fe 109.50
# diagonal-C6 S 125.90 125.81 125.81 125.81 125.81 125.90
# diagonal-C6 Na 186.11 186.11
EvdW_6 =   -0.066209
EvdW_8 =   -0.062118

---------- Allocating electronic variables ----------
Initializing wave functions:  linear combination of atomic orbitals
C pseudo-atom occupations:   s ( 2 )  p ( 2 )
N pseudo-atom occupations:   s ( 2 )  p ( 3 )
Fe pseudo-atom occupations:   s ( 2 0 )  p ( 6 0 )  d ( 8 )
S pseudo-atom occupations:   s ( 2 )  p ( 4 )
Na pseudo-atom occupations:   s ( 2 1 )  p ( 6 )
	FillingsUpdate:  mu: -0.215657525  nElectrons: 354.000000
LCAOMinimize: Iter:   0  F: -676.8611150701730139  |grad|_K:  2.372e-02  alpha:  1.000e+00
	FillingsUpdate:  mu: -0.251411830  nElectrons: 354.000000
LCAOMinimize: Iter:   1  F: -681.5418062697151527  |grad|_K:  1.317e-02  alpha:  1.295e-01  linmin: -1.662e-01  cgtest:  9.849e-01  t[s]:     10.77
LCAOMinimize: Encountered beta<0, resetting CG.
LCAOMinimize: 	Wrong curvature in test step, increasing alphaT to 3.884237e-01.
	FillingsUpdate:  mu: +0.017084848  nElectrons: 354.000000
LCAOMinimize: Iter:   2  F: -685.7912150913329015  |grad|_K:  6.004e-02  alpha: -8.543e-02  linmin:  2.302e-01  cgtest: -1.619e-01  t[s]:     12.35
LCAOMinimize: 	Bad step direction: g.d > 0.
LCAOMinimize: 	Undoing step.
LCAOMinimize: 	Step failed: resetting search direction.
	FillingsUpdate:  mu: +0.017084848  nElectrons: 354.000000
LCAOMinimize: Iter:   3  F: -685.7912150913329015  |grad|_K:  6.004e-02  alpha:  0.000e+00
LCAOMinimize: 	Step increased F by 2.445974e+01, reducing alpha to 2.887234e-02.
	FillingsUpdate:  mu: -0.133628859  nElectrons: 354.000000
LCAOMinimize: Iter:   4  F: -691.5458346962487894  |grad|_K:  2.738e-02  alpha:  2.887e-02  linmin: -3.364e-01  cgtest:  1.091e+00  t[s]:     16.27
LCAOMinimize: Encountered beta<0, resetting CG.
LCAOMinimize: 	Step increased F by 6.746839e+00, reducing alpha to 7.973025e-03.
	FillingsUpdate:  mu: -0.156904385  nElectrons: 354.000000
LCAOMinimize: Iter:   5  F: -692.2754811739948764  |grad|_K:  2.719e-02  alpha:  7.973e-03  linmin: -3.583e-01  cgtest:  8.044e-01  t[s]:     19.07
LCAOMinimize: 	Predicted alpha/alphaT>3.000000, increasing alphaT to 2.391908e-02.
	FillingsUpdate:  mu: -0.220050520  nElectrons: 354.000000
LCAOMinimize: Iter:   6  F: -693.4519870851601127  |grad|_K:  1.045e-02  alpha:  2.160e-02  linmin:  3.158e-01  cgtest: -5.605e-01  t[s]:     21.20
LCAOMinimize: 	Bad step direction: g.d > 0.
LCAOMinimize: 	Undoing step.
LCAOMinimize: 	Step failed: resetting search direction.
	FillingsUpdate:  mu: -0.220050520  nElectrons: 354.000000
LCAOMinimize: Iter:   7  F: -693.4519870851601127  |grad|_K:  1.045e-02  alpha:  0.000e+00
	FillingsUpdate:  mu: -0.188338750  nElectrons: 354.000000
LCAOMinimize: Iter:   8  F: -693.5783998059235955  |grad|_K:  4.497e-03  alpha:  2.152e-02  linmin: -1.029e-02  cgtest:  1.036e-02  t[s]:     24.00
LCAOMinimize: 	Predicted alpha/alphaT>3.000000, increasing alphaT to 6.454792e-02.
	FillingsUpdate:  mu: -0.222178073  nElectrons: 354.000000
LCAOMinimize: Iter:   9  F: -693.7702342351121843  |grad|_K:  1.509e-03  alpha:  1.888e-01  linmin:  9.107e-02  cgtest: -2.155e-01  t[s]:     26.12
	FillingsUpdate:  mu: -0.240743175  nElectrons: 354.000000
LCAOMinimize: Iter:  10  F: -693.7764963034569519  |grad|_K:  1.855e-03  alpha:  6.670e-02  linmin: -1.383e-03  cgtest:  2.200e-01  t[s]:     27.76
	FillingsUpdate:  mu: -0.220238051  nElectrons: 354.000000
LCAOMinimize: Iter:  11  F: -693.7860852284172779  |grad|_K:  1.085e-03  alpha:  5.052e-02  linmin:  3.121e-03  cgtest: -3.046e-01  t[s]:     29.40
	FillingsUpdate:  mu: -0.235784325  nElectrons: 354.000000
LCAOMinimize: Iter:  12  F: -693.7898736408850482  |grad|_K:  7.874e-04  alpha:  6.102e-02  linmin:  2.066e-03  cgtest:  5.108e-02  t[s]:     31.04
	FillingsUpdate:  mu: -0.220577782  nElectrons: 354.000000
LCAOMinimize: Iter:  13  F: -693.7923888261159391  |grad|_K:  7.037e-04  alpha:  7.635e-02  linmin:  1.632e-04  cgtest:  1.239e-02  t[s]:     32.67
	FillingsUpdate:  mu: -0.231212664  nElectrons: 354.000000
LCAOMinimize: Iter:  14  F: -693.7933823586027984  |grad|_K:  4.265e-04  alpha:  3.768e-02  linmin:  1.048e-03  cgtest: -8.695e-03  t[s]:     34.31
	FillingsUpdate:  mu: -0.223322577  nElectrons: 354.000000
LCAOMinimize: Iter:  15  F: -693.7942992403413882  |grad|_K:  4.290e-04  alpha:  9.469e-02  linmin:  1.472e-03  cgtest: -4.338e-02  t[s]:     35.96
	FillingsUpdate:  mu: -0.230589767  nElectrons: 354.000000
LCAOMinimize: Iter:  16  F: -693.7947656469938238  |grad|_K:  3.381e-04  alpha:  4.785e-02  linmin:  2.615e-04  cgtest:  5.051e-03  t[s]:     37.60
	FillingsUpdate:  mu: -0.226668076  nElectrons: 354.000000
LCAOMinimize: Iter:  17  F: -693.7951639330348144  |grad|_K:  2.215e-04  alpha:  6.512e-02  linmin:  1.680e-03  cgtest: -1.787e-02  t[s]:     39.24
	FillingsUpdate:  mu: -0.230550563  nElectrons: 354.000000
LCAOMinimize: Iter:  18  F: -693.7952857284443553  |grad|_K:  1.796e-04  alpha:  4.663e-02  linmin:  1.933e-05  cgtest:  1.243e-02  t[s]:     40.88
	FillingsUpdate:  mu: -0.227994415  nElectrons: 354.000000
LCAOMinimize: Iter:  19  F: -693.7953930462578001  |grad|_K:  1.284e-04  alpha:  6.196e-02  linmin:  7.598e-04  cgtest: -1.172e-02  t[s]:     42.52
	FillingsUpdate:  mu: -0.229940156  nElectrons: 354.000000
LCAOMinimize: Iter:  20  F: -693.7954417988415798  |grad|_K:  1.026e-04  alpha:  5.527e-02  linmin: -1.641e-04  cgtest:  7.012e-03  t[s]:     44.15
	FillingsUpdate:  mu: -0.228354070  nElectrons: 354.000000
LCAOMinimize: Iter:  21  F: -693.7954661556098017  |grad|_K:  5.502e-05  alpha:  4.300e-02  linmin: -8.728e-06  cgtest: -1.569e-02  t[s]:     45.79
	FillingsUpdate:  mu: -0.229105544  nElectrons: 354.000000
LCAOMinimize: Iter:  22  F: -693.7954754074102084  |grad|_K:  4.512e-05  alpha:  5.681e-02  linmin: -7.507e-05  cgtest:  7.900e-05  t[s]:     47.43
	FillingsUpdate:  mu: -0.228320806  nElectrons: 354.000000
LCAOMinimize: Iter:  23  F: -693.7954812740763373  |grad|_K:  3.730e-05  alpha:  5.354e-02  linmin: -4.498e-06  cgtest: -1.132e-03  t[s]:     49.07
	FillingsUpdate:  mu: -0.228912303  nElectrons: 354.000000
LCAOMinimize: Iter:  24  F: -693.7954864257363852  |grad|_K:  2.913e-05  alpha:  6.885e-02  linmin:  8.341e-05  cgtest: -5.512e-04  t[s]:     50.70
	FillingsUpdate:  mu: -0.228519473  nElectrons: 354.000000
LCAOMinimize: Iter:  25  F: -693.7954883406243880  |grad|_K:  1.832e-05  alpha:  4.197e-02  linmin: -1.565e-05  cgtest:  2.200e-03  t[s]:     52.38
	FillingsUpdate:  mu: -0.228824955  nElectrons: 354.000000
LCAOMinimize: Iter:  26  F: -693.7954892861431517  |grad|_K:  1.262e-05  alpha:  5.238e-02  linmin: -1.080e-05  cgtest:  3.216e-04  t[s]:     54.02
	FillingsUpdate:  mu: -0.228624348  nElectrons: 354.000000
LCAOMinimize: Iter:  27  F: -693.7954898422105998  |grad|_K:  1.349e-05  alpha:  6.496e-02  linmin:  1.055e-05  cgtest:  4.587e-05  t[s]:     55.68
LCAOMinimize: Converged (|Delta F|<1.000000e-06 for 2 iters).
----- createFluidSolver() ----- (Fluid-side solver setup)
   Initializing fluid molecule 'Glyme'
     Net charge: 0   dipole magnitude: 0
     Initializing spherical shell mfKernel with radius 0 Bohr
     deltaS corrections:

Correction to mu due to finite nuclear width = -0.00684095
   Cavity determined by nc: 8.36e-05 and sigma: 0.6
   Effective cavity tension: -8.03e-06 Eh/bohr^2 to account for cavitation and dispersion.


---- Citations for features of the code used in this run ----

   Software package:
      R. Sundararaman, K. Letchworth-Weaver, K.A. Schwarz, D. Gunceler, Y. Ozhabes and T.A. Arias, 'JDFTx: software for joint density-functional theory', SoftwareX 6, 278 (2017)

   gga-PBE exchange-correlation functional:
      J.P. Perdew, K. Burke and M. Ernzerhof, Phys. Rev. Lett. 77, 3865 (1996)

   Pseudopotentials:
      KF Garrity, JW Bennett, KM Rabe and D Vanderbilt, Comput. Mater. Sci. 81, 446 (2014)

   Truncated Coulomb potentials:
      R. Sundararaman and T.A. Arias, Phys. Rev. B 87, 165122 (2013)

   DFT-D3 dispersion correction:
      S. Grimme, J. Antony, S. Ehrlich and H. Krieg, J. Chem. Phys. 132, 154104 (2010)

   Linear/nonlinear dielectric/ionic fluid model with effective cavity tension:
      D. Gunceler, K. Letchworth-Weaver, R. Sundararaman, K.A. Schwarz and T.A. Arias, Modelling Simul. Mater. Sci. Eng. 21, 074005 (2013)

This list may not be complete. Please suggest additional citations or
report any other bugs at https://github.com/shankar1729/jdftx/issues

Initialization completed successfully at t[s]:     55.89


Computing DFT-D3 correction:
# coordination-number C 3.300 3.301 3.301 3.300 3.300 3.296 3.300 3.301 3.470 3.300 3.300 3.300 3.300 3.300 3.457 3.300 3.300 3.299 3.495 3.300 3.300 3.300 3.291 3.300 3.307 3.292 3.300 3.300 3.543 3.301 3.300 3.503 3.300 3.301 3.300 3.300 3.308 3.296 3.300 3.300 3.484 3.300 3.301 3.300 3.300 3.300 3.300 3.300 3.301 3.533 3.291 3.300 3.300 3.499 3.300 3.300 3.300 3.451 3.301 3.300 3.496 3.300 3.300 3.292 3.300 3.300
# coordination-number N 3.419 3.483 3.408 3.506
# coordination-number Fe 6.006
# coordination-number S 2.003 2.986 2.904 2.905 2.979 2.003
# coordination-number Na 5.692 5.708
# diagonal-C6 C 24.28 24.27 24.27 24.28 24.28 24.32 24.28 24.27 22.10 24.28 24.28 24.28 24.28 24.28 22.29 24.29 24.29 24.29 21.72 24.28 24.28 24.28 24.36 24.28 24.21 24.36 24.28 24.28 21.01 24.27 24.28 21.59 24.28 24.27 24.28 24.28 24.21 24.32 24.28 24.28 21.89 24.28 24.27 24.28 24.28 24.28 24.28 24.28 24.27 21.15 24.37 24.28 24.28 21.65 24.28 24.28 24.28 22.37 24.27 24.29 21.70 24.28 24.28 24.36 24.28 24.29
# diagonal-C6 N 15.58 15.58 15.58 15.58
# diagonal-C6 Fe 109.50
# diagonal-C6 S 125.90 125.81 125.81 125.81 125.81 125.90
# diagonal-C6 Na 186.11 186.11
EvdW_6 =   -0.066209
EvdW_8 =   -0.062118
Fluid solver invoked on fresh (random / LCAO) wavefunctions
Running a vacuum solve first:

-------- Initial electronic minimization -----------
Will mix electronic density at each iteration.
	FillingsUpdate:  mu: -0.228624348  nElectrons: 354.000000
	FillingsUpdate:  mu: -0.241840965  nElectrons: 354.000000
SCF: Cycle:  0   F: -697.392473011054449   dF: -3.597e+00   |Residual|: 1.000e+00   |deigs|: 1.191e-01  t[s]:     62.56
	FillingsUpdate:  mu: -0.225450009  nElectrons: 354.000000
SCF: Cycle:  1   F: -696.659110738632990   dF: +7.334e-01   |Residual|: 7.769e-01   |deigs|: 3.170e-02  t[s]:     66.04
	FillingsUpdate:  mu: -0.173985498  nElectrons: 354.000000
SCF: Cycle:  2   F: -686.343044199938163   dF: +1.032e+01   |Residual|: 1.985e+00   |deigs|: 3.495e-02  t[s]:     69.52
	FillingsUpdate:  mu: -0.191741105  nElectrons: 354.000000
SCF: Cycle:  3   F: -698.051023992256660   dF: -1.171e+01   |Residual|: 2.434e-01   |deigs|: 3.004e-02  t[s]:     73.03
	FillingsUpdate:  mu: -0.179817880  nElectrons: 354.000000
SCF: Cycle:  4   F: -698.340162515470183   dF: -2.891e-01   |Residual|: 2.051e-01   |deigs|: 7.475e-03  t[s]:     76.52
	FillingsUpdate:  mu: -0.181557126  nElectrons: 354.000000
SCF: Cycle:  5   F: -697.891123486328979   dF: +4.490e-01   |Residual|: 3.802e-01   |deigs|: 5.404e-03  t[s]:     80.00
	FillingsUpdate:  mu: -0.171838259  nElectrons: 354.000000
SCF: Cycle:  6   F: -698.369130837716853   dF: -4.780e-01   |Residual|: 1.232e-01   |deigs|: 6.556e-03  t[s]:     83.48
	FillingsUpdate:  mu: -0.165265280  nElectrons: 354.000000
SCF: Cycle:  7   F: -698.356821969038720   dF: +1.231e-02   |Residual|: 1.486e-01   |deigs|: 6.283e-03  t[s]:     86.97
	FillingsUpdate:  mu: -0.158011607  nElectrons: 354.000000
SCF: Cycle:  8   F: -698.400733101298670   dF: -4.391e-02   |Residual|: 8.754e-02   |deigs|: 4.326e-03  t[s]:     90.46
	FillingsUpdate:  mu: -0.157514369  nElectrons: 354.000000
SCF: Cycle:  9   F: -698.319766706298424   dF: +8.097e-02   |Residual|: 1.776e-01   |deigs|: 4.110e-03  t[s]:     93.93
	FillingsUpdate:  mu: -0.152151971  nElectrons: 354.000000
SCF: Cycle: 10   F: -698.426842756305746   dF: -1.071e-01   |Residual|: 1.821e-02   |deigs|: 3.318e-03  t[s]:     97.42
	FillingsUpdate:  mu: -0.149363613  nElectrons: 354.000000
SCF: Cycle: 11   F: -698.420675930930656   dF: +6.167e-03   |Residual|: 4.553e-02   |deigs|: 3.920e-03  t[s]:    100.62
	FillingsUpdate:  mu: -0.145869736  nElectrons: 354.000000
SCF: Cycle: 12   F: -698.427789008795799   dF: -7.113e-03   |Residual|: 9.617e-03   |deigs|: 2.784e-03  t[s]:    103.62
	FillingsUpdate:  mu: -0.143348206  nElectrons: 354.000000
SCF: Cycle: 13   F: -698.427740452813055   dF: +4.856e-05   |Residual|: 1.128e-02   |deigs|: 2.574e-03  t[s]:    106.65
	FillingsUpdate:  mu: -0.141209497  nElectrons: 354.000000
SCF: Cycle: 14   F: -698.427069336831096   dF: +6.711e-04   |Residual|: 1.711e-02   |deigs|: 1.989e-03  t[s]:    109.62
	FillingsUpdate:  mu: -0.137580120  nElectrons: 354.000000
SCF: Cycle: 15   F: -698.428079699398381   dF: -1.010e-03   |Residual|: 1.007e-02   |deigs|: 3.051e-03  t[s]:    112.61
	FillingsUpdate:  mu: -0.135843312  nElectrons: 354.000000
SCF: Cycle: 16   F: -698.428317770800049   dF: -2.381e-04   |Residual|: 6.188e-03   |deigs|: 1.829e-03  t[s]:    115.57
	FillingsUpdate:  mu: -0.133406795  nElectrons: 354.000000
SCF: Cycle: 17   F: -698.428498495128565   dF: -1.807e-04   |Residual|: 3.185e-03   |deigs|: 2.522e-03  t[s]:    118.53
	FillingsUpdate:  mu: -0.131348045  nElectrons: 354.000000
SCF: Cycle: 18   F: -698.428531472509576   dF: -3.298e-05   |Residual|: 4.687e-03   |deigs|: 2.721e-03  t[s]:    121.49
	FillingsUpdate:  mu: -0.129526186  nElectrons: 354.000000
SCF: Cycle: 19   F: -698.428589758709222   dF: -5.829e-05   |Residual|: 2.889e-03   |deigs|: 2.121e-03  t[s]:    124.46
	FillingsUpdate:  mu: -0.128334850  nElectrons: 354.000000
SCF: Cycle: 20   F: -698.428615910712551   dF: -2.615e-05   |Residual|: 1.526e-03   |deigs|: 1.045e-03  t[s]:    127.43
	FillingsUpdate:  mu: -0.127757927  nElectrons: 354.000000
SCF: Cycle: 21   F: -698.428624136636586   dF: -8.226e-06   |Residual|: 1.276e-03   |deigs|: 5.926e-04  t[s]:    130.39
	FillingsUpdate:  mu: -0.127167747  nElectrons: 354.000000
SCF: Cycle: 22   F: -698.428634874959016   dF: -1.074e-05   |Residual|: 9.406e-04   |deigs|: 1.020e-03  t[s]:    133.37
	FillingsUpdate:  mu: -0.127013402  nElectrons: 354.000000
SCF: Cycle: 23   F: -698.428639800917949   dF: -4.926e-06   |Residual|: 6.045e-04   |deigs|: 5.149e-04  t[s]:    136.36
	FillingsUpdate:  mu: -0.126888318  nElectrons: 354.000000
SCF: Cycle: 24   F: -698.428641098118987   dF: -1.297e-06   |Residual|: 5.052e-04   |deigs|: 4.498e-04  t[s]:    139.32
	FillingsUpdate:  mu: -0.126866042  nElectrons: 354.000000
SCF: Cycle: 25   F: -698.428642666961082   dF: -1.569e-06   |Residual|: 2.406e-04   |deigs|: 3.094e-04  t[s]:    142.30
	FillingsUpdate:  mu: -0.126895140  nElectrons: 354.000000
SCF: Cycle: 26   F: -698.428642251094175   dF: +4.159e-07   |Residual|: 4.737e-04   |deigs|: 1.983e-04  t[s]:    145.27
	FillingsUpdate:  mu: -0.126946942  nElectrons: 354.000000
SCF: Cycle: 27   F: -698.428643177343133   dF: -9.262e-07   |Residual|: 1.905e-04   |deigs|: 1.048e-04  t[s]:    148.23
	FillingsUpdate:  mu: -0.127018265  nElectrons: 354.000000
SCF: Cycle: 28   F: -698.428643450961431   dF: -2.736e-07   |Residual|: 1.118e-04   |deigs|: 3.800e-04  t[s]:    151.21
	FillingsUpdate:  mu: -0.127051144  nElectrons: 354.000000
SCF: Cycle: 29   F: -698.428643588426667   dF: -1.375e-07   |Residual|: 8.032e-05   |deigs|: 1.631e-04  t[s]:    154.18
	FillingsUpdate:  mu: -0.127050603  nElectrons: 354.000000
SCF: Cycle: 30   F: -698.428643696202357   dF: -1.078e-07   |Residual|: 7.742e-05   |deigs|: 1.725e-04  t[s]:    157.13
	FillingsUpdate:  mu: -0.127024726  nElectrons: 354.000000
SCF: Cycle: 31   F: -698.428643729826490   dF: -3.362e-08   |Residual|: 8.338e-05   |deigs|: 1.316e-04  t[s]:    160.11
	FillingsUpdate:  mu: -0.127003686  nElectrons: 354.000000
SCF: Cycle: 32   F: -698.428643780863354   dF: -5.104e-08   |Residual|: 4.023e-05   |deigs|: 2.090e-04  t[s]:    163.07
	FillingsUpdate:  mu: -0.126993505  nElectrons: 354.000000
SCF: Cycle: 33   F: -698.428643798394205   dF: -1.753e-08   |Residual|: 2.868e-05   |deigs|: 2.156e-04  t[s]:    166.04
	FillingsUpdate:  mu: -0.126995238  nElectrons: 354.000000
SCF: Cycle: 34   F: -698.428643806586592   dF: -8.192e-09   |Residual|: 2.713e-05   |deigs|: 9.115e-05  t[s]:    169.00
	FillingsUpdate:  mu: -0.127001858  nElectrons: 354.000000
SCF: Cycle: 35   F: -698.428643814362999   dF: -7.776e-09   |Residual|: 1.515e-05   |deigs|: 4.155e-05  t[s]:    171.98
SCF: Converged (|Delta E|<1.000000e-08 for 2 iters).

Setting wave functions to eigenvectors of Hamiltonian
Vacuum energy after initial minimize, F = -698.428643814362999


-------- Electronic minimization -----------
Will mix electronic density at each iteration.
	FillingsUpdate:  mu: -0.127001858  nElectrons: 354.000000
	Linear fluid (dielectric constant: 7.2) occupying 0.826761 of unit cell:	Completed after 14 iterations at t[s]:    172.83
	FillingsUpdate:  mu: -0.128045074  nElectrons: 354.000000
	Linear fluid (dielectric constant: 7.2) occupying 0.826418 of unit cell:	Completed after 11 iterations at t[s]:    176.75
SCF: Cycle:  0   F: -698.433030557398752   dF: +1.601e-02   |Residual|: 4.272e-02   |deigs|: 1.044e-03  t[s]:    176.93
	Linear fluid (dielectric constant: 7.2) occupying 0.827374 of unit cell:	Completed after 11 iterations at t[s]:    177.16
	FillingsUpdate:  mu: -0.131808850  nElectrons: 354.000000
	Linear fluid (dielectric constant: 7.2) occupying 0.826756 of unit cell:	Completed after 10 iterations at t[s]:    180.83
SCF: Cycle:  1   F: -698.233414068612319   dF: +1.996e-01   |Residual|: 2.621e-01   |deigs|: 2.824e-03  t[s]:    181.00
	Linear fluid (dielectric constant: 7.2) occupying 0.827303 of unit cell:	Completed after 10 iterations at t[s]:    181.21
	FillingsUpdate:  mu: -0.127304629  nElectrons: 354.000000
	Linear fluid (dielectric constant: 7.2) occupying 0.826559 of unit cell:	Completed after 10 iterations at t[s]:    184.89
SCF: Cycle:  2   F: -698.436914531340562   dF: -2.035e-01   |Residual|: 6.126e-02   |deigs|: 2.624e-03  t[s]:    185.06
	Linear fluid (dielectric constant: 7.2) occupying 0.827524 of unit cell:	Completed after 10 iterations at t[s]:    185.28
	FillingsUpdate:  mu: -0.128376383  nElectrons: 354.000000
	Linear fluid (dielectric constant: 7.2) occupying 0.826533 of unit cell:	Completed after 9 iterations at t[s]:    188.41
SCF: Cycle:  3   F: -698.449711979120025   dF: -1.280e-02   |Residual|: 9.811e-03   |deigs|: 1.304e-03  t[s]:    188.58
	Linear fluid (dielectric constant: 7.2) occupying 0.827418 of unit cell:	Completed after 9 iterations at t[s]:    188.78
	FillingsUpdate:  mu: -0.128099538  nElectrons: 354.000000
	Linear fluid (dielectric constant: 7.2) occupying 0.826960 of unit cell:	Completed after 9 iterations at t[s]:    192.01
SCF: Cycle:  4   F: -698.449685044000375   dF: +2.694e-05   |Residual|: 1.636e-02   |deigs|: 1.476e-03  t[s]:    192.18
	Linear fluid (dielectric constant: 7.2) occupying 0.827133 of unit cell:	Completed after 9 iterations at t[s]:    192.38
	FillingsUpdate:  mu: -0.128351543  nElectrons: 354.000000
	Linear fluid (dielectric constant: 7.2) occupying 0.827054 of unit cell:	Completed after 8 iterations at t[s]:    195.60
SCF: Cycle:  5   F: -698.450941849390347   dF: -1.257e-03   |Residual|: 3.182e-03   |deigs|: 8.422e-04  t[s]:    195.77
	Linear fluid (dielectric constant: 7.2) occupying 0.826771 of unit cell:	Completed after 8 iterations at t[s]:    195.96
	FillingsUpdate:  mu: -0.132475962  nElectrons: 354.000000
	Linear fluid (dielectric constant: 7.2) occupying 0.818981 of unit cell:	Completed after 13 iterations at t[s]:    211.59
SCF: Cycle:  6   F: -697.725000640844087   dF: +7.259e-01   |Residual|: 2.379e-01   |deigs|: 2.638e-03  t[s]:    211.76
	Linear fluid (dielectric constant: 7.2) occupying 0.826729 of unit cell:	Completed after 14 iterations at t[s]:    212.04
	FillingsUpdate:  mu: -0.128354911  nElectrons: 354.000000
	Linear fluid (dielectric constant: 7.2) occupying 0.827085 of unit cell:	Completed after 8 iterations at t[s]:    216.12
SCF: Cycle:  7   F: -698.451102396088913   dF: -7.261e-01   |Residual|: 2.600e-03   |deigs|: 2.527e-03  t[s]:    216.28
	Linear fluid (dielectric constant: 7.2) occupying 0.826444 of unit cell:	Completed after 7 iterations at t[s]:    216.46
	FillingsUpdate:  mu: -0.128224188  nElectrons: 354.000000
	Linear fluid (dielectric constant: 7.2) occupying 0.827063 of unit cell:	Completed after 8 iterations at t[s]:    219.64
SCF: Cycle:  8   F: -698.451123356907146   dF: -2.096e-05   |Residual|: 4.134e-03   |deigs|: 3.509e-04  t[s]:    219.81
	Linear fluid (dielectric constant: 7.2) occupying 0.826255 of unit cell:	Completed after 8 iterations at t[s]:    220.00
	FillingsUpdate:  mu: -0.128180216  nElectrons: 354.000000
	Linear fluid (dielectric constant: 7.2) occupying 0.826989 of unit cell:	Completed after 8 iterations at t[s]:    223.58
SCF: Cycle:  9   F: -698.451251674460650   dF: -1.283e-04   |Residual|: 2.440e-03   |deigs|: 2.794e-04  t[s]:    223.74
	Linear fluid (dielectric constant: 7.2) occupying 0.825969 of unit cell:	Completed after 8 iterations at t[s]:    223.94
	FillingsUpdate:  mu: -0.128205705  nElectrons: 354.000000
	Linear fluid (dielectric constant: 7.2) occupying 0.826931 of unit cell:	Completed after 7 iterations at t[s]:    227.52
SCF: Cycle: 10   F: -698.451345740981196   dF: -9.407e-05   |Residual|: 1.953e-03   |deigs|: 3.559e-04  t[s]:    227.68
	Linear fluid (dielectric constant: 7.2) occupying 0.825747 of unit cell:	Completed after 7 iterations at t[s]:    227.87
	FillingsUpdate:  mu: -0.128225532  nElectrons: 354.000000
	Linear fluid (dielectric constant: 7.2) occupying 0.826940 of unit cell:	Completed after 7 iterations at t[s]:    231.46
SCF: Cycle: 11   F: -698.451353655077128   dF: -7.914e-06   |Residual|: 1.703e-03   |deigs|: 3.704e-04  t[s]:    231.62
	Linear fluid (dielectric constant: 7.2) occupying 0.825568 of unit cell:	Completed after 7 iterations at t[s]:    231.80
	FillingsUpdate:  mu: -0.128335609  nElectrons: 354.000000
	Linear fluid (dielectric constant: 7.2) occupying 0.826963 of unit cell:	Completed after 7 iterations at t[s]:    235.38
SCF: Cycle: 12   F: -698.451363004064433   dF: -9.349e-06   |Residual|: 1.255e-03   |deigs|: 4.156e-04  t[s]:    235.55
	Linear fluid (dielectric constant: 7.2) occupying 0.826035 of unit cell:	Completed after 6 iterations at t[s]:    235.73
	FillingsUpdate:  mu: -0.128435806  nElectrons: 354.000000
	Linear fluid (dielectric constant: 7.2) occupying 0.826929 of unit cell:	Completed after 6 iterations at t[s]:    238.81
SCF: Cycle: 13   F: -698.451387930732608   dF: -2.493e-05   |Residual|: 1.113e-03   |deigs|: 3.171e-04  t[s]:    238.98
	Linear fluid (dielectric constant: 7.2) occupying 0.826384 of unit cell:	Completed after 6 iterations at t[s]:    239.15
	FillingsUpdate:  mu: -0.128491795  nElectrons: 354.000000
	Linear fluid (dielectric constant: 7.2) occupying 0.826926 of unit cell:	Completed after 5 iterations at t[s]:    242.25
SCF: Cycle: 14   F: -698.451404918355934   dF: -1.699e-05   |Residual|: 7.119e-04   |deigs|: 4.159e-04  t[s]:    242.41
	Linear fluid (dielectric constant: 7.2) occupying 0.826560 of unit cell:	Completed after 4 iterations at t[s]:    242.56
	FillingsUpdate:  mu: -0.128534671  nElectrons: 354.000000
	Linear fluid (dielectric constant: 7.2) occupying 0.826929 of unit cell:	Completed after 4 iterations at t[s]:    245.64
SCF: Cycle: 15   F: -698.451418197710268   dF: -1.328e-05   |Residual|: 9.228e-04   |deigs|: 3.043e-04  t[s]:    245.80
	Linear fluid (dielectric constant: 7.2) occupying 0.826678 of unit cell:	Completed after 4 iterations at t[s]:    245.94
	FillingsUpdate:  mu: -0.128554275  nElectrons: 354.000000
	Linear fluid (dielectric constant: 7.2) occupying 0.826939 of unit cell:	Completed after 4 iterations at t[s]:    248.99
SCF: Cycle: 16   F: -698.451435288865810   dF: -1.709e-05   |Residual|: 9.867e-04   |deigs|: 1.885e-04  t[s]:    249.14
	Linear fluid (dielectric constant: 7.2) occupying 0.826747 of unit cell:	Completed after 4 iterations at t[s]:    249.29
	FillingsUpdate:  mu: -0.128543023  nElectrons: 354.000000
	Linear fluid (dielectric constant: 7.2) occupying 0.826776 of unit cell:	Completed after 5 iterations at t[s]:    252.42
SCF: Cycle: 17   F: -698.451478488260932   dF: -4.320e-05   |Residual|: 1.497e-03   |deigs|: 1.335e-03  t[s]:    252.59
	Linear fluid (dielectric constant: 7.2) occupying 0.826746 of unit cell:	Completed after 5 iterations at t[s]:    252.74
	FillingsUpdate:  mu: -0.128553144  nElectrons: 354.000000
	Linear fluid (dielectric constant: 7.2) occupying 0.826779 of unit cell:	Completed after 5 iterations at t[s]:    255.89
SCF: Cycle: 18   F: -698.451488550925887   dF: -1.006e-05   |Residual|: 8.260e-04   |deigs|: 2.271e-04  t[s]:    256.06
	Linear fluid (dielectric constant: 7.2) occupying 0.826725 of unit cell:	Completed after 5 iterations at t[s]:    256.21
	FillingsUpdate:  mu: -0.128558572  nElectrons: 354.000000
	Linear fluid (dielectric constant: 7.2) occupying 0.826899 of unit cell:	Completed after 4 iterations at t[s]:    259.34
SCF: Cycle: 19   F: -698.451515081045386   dF: -2.653e-05   |Residual|: 4.420e-04   |deigs|: 1.058e-03  t[s]:    259.50
	Linear fluid (dielectric constant: 7.2) occupying 0.826737 of unit cell:	Completed after 4 iterations at t[s]:    259.65
	FillingsUpdate:  mu: -0.128571676  nElectrons: 354.000000
	Linear fluid (dielectric constant: 7.2) occupying 0.826767 of unit cell:	Completed after 5 iterations at t[s]:    262.78
SCF: Cycle: 20   F: -698.451465067622394   dF: +5.001e-05   |Residual|: 6.805e-04   |deigs|: 1.020e-03  t[s]:    262.94
	Linear fluid (dielectric constant: 7.2) occupying 0.826746 of unit cell:	Completed after 5 iterations at t[s]:    263.11
	FillingsUpdate:  mu: -0.128575086  nElectrons: 354.000000
	Linear fluid (dielectric constant: 7.2) occupying 0.826909 of unit cell:	Completed after 4 iterations at t[s]:    266.22
SCF: Cycle: 21   F: -698.451521578791130   dF: -5.651e-05   |Residual|: 5.167e-04   |deigs|: 2.668e-04  t[s]:    266.38
	Linear fluid (dielectric constant: 7.2) occupying 0.826774 of unit cell:	Completed after 4 iterations at t[s]:    266.53
	FillingsUpdate:  mu: -0.131011115  nElectrons: 354.000000
	Linear fluid (dielectric constant: 7.2) occupying 0.820069 of unit cell:	Completed after 12 iterations at t[s]:    269.74
SCF: Cycle: 22   F: -698.103094186407361   dF: +3.484e-01   |Residual|: 1.340e-01   |deigs|: 2.012e-03  t[s]:    269.91
	Linear fluid (dielectric constant: 7.2) occupying 0.826789 of unit cell:	Completed after 13 iterations at t[s]:    270.18
	FillingsUpdate:  mu: -0.130984728  nElectrons: 354.000000
	Linear fluid (dielectric constant: 7.2) occupying 0.820126 of unit cell:	Completed after 12 iterations at t[s]:    273.36
SCF: Cycle: 23   F: -698.109010327801002   dF: -5.916e-03   |Residual|: 1.323e-01   |deigs|: 1.267e-04  t[s]:    273.52
	Linear fluid (dielectric constant: 7.2) occupying 0.826782 of unit cell:	Completed after 13 iterations at t[s]:    273.79
	FillingsUpdate:  mu: -0.133370098  nElectrons: 354.000000
	Linear fluid (dielectric constant: 7.2) occupying 0.818675 of unit cell:	Completed after 13 iterations at t[s]:    276.96
SCF: Cycle: 24   F: -697.514721944156804   dF: +5.943e-01   |Residual|: 2.786e-01   |deigs|: 5.934e-04  t[s]:    277.12
	Linear fluid (dielectric constant: 7.2) occupying 0.826767 of unit cell:	Completed after 14 iterations at t[s]:    277.40
	FillingsUpdate:  mu: -0.128688396  nElectrons: 354.000000
	Linear fluid (dielectric constant: 7.2) occupying 0.825408 of unit cell:	Completed after 8 iterations at t[s]:    280.51
SCF: Cycle: 25   F: -698.441433402880762   dF: -9.267e-01   |Residual|: 5.053e-03   |deigs|: 1.478e-03  t[s]:    280.67
	Linear fluid (dielectric constant: 7.2) occupying 0.826749 of unit cell:	Completed after 8 iterations at t[s]:    280.87
	FillingsUpdate:  mu: -0.128696380  nElectrons: 354.000000
	Linear fluid (dielectric constant: 7.2) occupying 0.825324 of unit cell:	Completed after 8 iterations at t[s]:    284.06
SCF: Cycle: 26   F: -698.440241145658774   dF: +1.192e-03   |Residual|: 5.510e-03   |deigs|: 1.337e-04  t[s]:    284.23
	Linear fluid (dielectric constant: 7.2) occupying 0.826732 of unit cell:	Completed after 8 iterations at t[s]:    284.42
	FillingsUpdate:  mu: -0.128587921  nElectrons: 354.000000
	Linear fluid (dielectric constant: 7.2) occupying 0.826897 of unit cell:	Completed after 4 iterations at t[s]:    287.53
SCF: Cycle: 27   F: -698.451532861422720   dF: -1.129e-02   |Residual|: 4.305e-04   |deigs|: 1.164e-03  t[s]:    287.69
	Linear fluid (dielectric constant: 7.2) occupying 0.826722 of unit cell:	Completed after 4 iterations at t[s]:    287.84
	FillingsUpdate:  mu: -0.128592127  nElectrons: 354.000000
	Linear fluid (dielectric constant: 7.2) occupying 0.826934 of unit cell:	Completed after 3 iterations at t[s]:    290.95
SCF: Cycle: 28   F: -698.451482841093025   dF: +5.002e-05   |Residual|: 5.504e-04   |deigs|: 1.236e-03  t[s]:    291.10
	Linear fluid (dielectric constant: 7.2) occupying 0.826712 of unit cell:	Completed after 3 iterations at t[s]:    291.25
	FillingsUpdate:  mu: -0.128587114  nElectrons: 354.000000
	Linear fluid (dielectric constant: 7.2) occupying 0.826924 of unit cell:	Completed after 4 iterations at t[s]:    294.30
SCF: Cycle: 29   F: -698.451498515571075   dF: -1.567e-05   |Residual|: 7.155e-04   |deigs|: 2.099e-04  t[s]:    294.45
	Linear fluid (dielectric constant: 7.2) occupying 0.826724 of unit cell:	Completed after 4 iterations at t[s]:    294.60
	FillingsUpdate:  mu: -0.128579594  nElectrons: 354.000000
	Linear fluid (dielectric constant: 7.2) occupying 0.826920 of unit cell:	Completed after 4 iterations at t[s]:    297.64
SCF: Cycle: 30   F: -698.451502485671654   dF: -3.970e-06   |Residual|: 3.303e-04   |deigs|: 3.178e-04  t[s]:    297.80
	Linear fluid (dielectric constant: 7.2) occupying 0.826721 of unit cell:	Completed after 4 iterations at t[s]:    297.96
	FillingsUpdate:  mu: -0.128582740  nElectrons: 354.000000
	Linear fluid (dielectric constant: 7.2) occupying 0.826905 of unit cell:	Completed after 4 iterations at t[s]:    301.05
SCF: Cycle: 31   F: -698.451507038359864   dF: -4.553e-06   |Residual|: 2.760e-04   |deigs|: 1.958e-04  t[s]:    301.20
	Linear fluid (dielectric constant: 7.2) occupying 0.826732 of unit cell:	Completed after 4 iterations at t[s]:    301.36
	FillingsUpdate:  mu: -0.128588149  nElectrons: 354.000000
	Linear fluid (dielectric constant: 7.2) occupying 0.826920 of unit cell:	Completed after 4 iterations at t[s]:    304.41
SCF: Cycle: 32   F: -698.451492362605904   dF: +1.468e-05   |Residual|: 3.700e-04   |deigs|: 1.959e-04  t[s]:    304.57
	Linear fluid (dielectric constant: 7.2) occupying 0.826747 of unit cell:	Completed after 4 iterations at t[s]:    304.72
	FillingsUpdate:  mu: -0.128583774  nElectrons: 354.000000
	Linear fluid (dielectric constant: 7.2) occupying 0.826924 of unit cell:	Completed after 4 iterations at t[s]:    307.69
SCF: Cycle: 33   F: -698.451482941393351   dF: +9.421e-06   |Residual|: 4.338e-04   |deigs|: 7.576e-05  t[s]:    307.84
	Linear fluid (dielectric constant: 7.2) occupying 0.826754 of unit cell:	Completed after 4 iterations at t[s]:    308.01
	FillingsUpdate:  mu: -0.128582668  nElectrons: 354.000000
	Linear fluid (dielectric constant: 7.2) occupying 0.826927 of unit cell:	Completed after 4 iterations at t[s]:    310.98
SCF: Cycle: 34   F: -698.451475655603076   dF: +7.286e-06   |Residual|: 6.354e-04   |deigs|: 7.211e-05  t[s]:    311.13
	Linear fluid (dielectric constant: 7.2) occupying 0.826761 of unit cell:	Completed after 4 iterations at t[s]:    311.28
	FillingsUpdate:  mu: -0.128599872  nElectrons: 354.000000
	Linear fluid (dielectric constant: 7.2) occupying 0.826699 of unit cell:	Completed after 5 iterations at t[s]:    314.40
SCF: Cycle: 35   F: -698.451212774361352   dF: +2.629e-04   |Residual|: 7.994e-04   |deigs|: 1.352e-03  t[s]:    314.56
	Linear fluid (dielectric constant: 7.2) occupying 0.826761 of unit cell:	Completed after 4 iterations at t[s]:    314.71
	FillingsUpdate:  mu: -0.128646589  nElectrons: 354.000000
	Linear fluid (dielectric constant: 7.2) occupying 0.826035 of unit cell:	Completed after 7 iterations at t[s]:    317.83
SCF: Cycle: 36   F: -698.446862114327928   dF: +4.351e-03   |Residual|: 2.566e-03   |deigs|: 7.127e-04  t[s]:    317.99
	Linear fluid (dielectric constant: 7.2) occupying 0.826760 of unit cell:	Completed after 7 iterations at t[s]:    318.17
	FillingsUpdate:  mu: -0.128627144  nElectrons: 354.000000
	Linear fluid (dielectric constant: 7.2) occupying 0.826301 of unit cell:	Completed after 6 iterations at t[s]:    321.07
SCF: Cycle: 37   F: -698.448826057756378   dF: -1.964e-03   |Residual|: 1.613e-03   |deigs|: 2.497e-04  t[s]:    321.24
	Linear fluid (dielectric constant: 7.2) occupying 0.826761 of unit cell:	Completed after 6 iterations at t[s]:    321.41
	FillingsUpdate:  mu: -0.128598253  nElectrons: 354.000000
	Linear fluid (dielectric constant: 7.2) occupying 0.826899 of unit cell:	Completed after 4 iterations at t[s]:    324.42
SCF: Cycle: 38   F: -698.451528777809358   dF: -2.703e-03   |Residual|: 7.261e-04   |deigs|: 1.113e-03  t[s]:    324.58
	Linear fluid (dielectric constant: 7.2) occupying 0.826763 of unit cell:	Completed after 4 iterations at t[s]:    324.72
	FillingsUpdate:  mu: -0.128591953  nElectrons: 354.000000
	Linear fluid (dielectric constant: 7.2) occupying 0.826894 of unit cell:	Completed after 4 iterations at t[s]:    327.81
SCF: Cycle: 39   F: -698.451525571514594   dF: +3.206e-06   |Residual|: 5.939e-04   |deigs|: 6.543e-04  t[s]:    327.97
	Linear fluid (dielectric constant: 7.2) occupying 0.826748 of unit cell:	Completed after 4 iterations at t[s]:    328.12
	FillingsUpdate:  mu: -0.128594207  nElectrons: 354.000000
	Linear fluid (dielectric constant: 7.2) occupying 0.826912 of unit cell:	Completed after 4 iterations at t[s]:    331.20
SCF: Cycle: 40   F: -698.451507092901124   dF: +1.848e-05   |Residual|: 7.422e-04   |deigs|: 1.363e-04  t[s]:    331.36
	Linear fluid (dielectric constant: 7.2) occupying 0.826773 of unit cell:	Completed after 4 iterations at t[s]:    331.51
	FillingsUpdate:  mu: -0.128602563  nElectrons: 354.000000
	Linear fluid (dielectric constant: 7.2) occupying 0.826891 of unit cell:	Completed after 4 iterations at t[s]:    334.57
SCF: Cycle: 41   F: -698.451525240830620   dF: -1.815e-05   |Residual|: 7.947e-04   |deigs|: 1.644e-04  t[s]:    334.72
	Linear fluid (dielectric constant: 7.2) occupying 0.826781 of unit cell:	Completed after 4 iterations at t[s]:    334.88
	FillingsUpdate:  mu: -0.128612496  nElectrons: 354.000000
	Linear fluid (dielectric constant: 7.2) occupying 0.826898 of unit cell:	Completed after 4 iterations at t[s]:    337.89
SCF: Cycle: 42   F: -698.451514491797411   dF: +1.075e-05   |Residual|: 9.143e-04   |deigs|: 8.774e-05  t[s]:    338.05
	Linear fluid (dielectric constant: 7.2) occupying 0.826824 of unit cell:	Completed after 4 iterations at t[s]:    338.20
	FillingsUpdate:  mu: -0.128615880  nElectrons: 354.000000
	Linear fluid (dielectric constant: 7.2) occupying 0.826865 of unit cell:	Completed after 4 iterations at t[s]:    341.30
SCF: Cycle: 43   F: -698.451521419485289   dF: -6.928e-06   |Residual|: 5.965e-04   |deigs|: 1.987e-04  t[s]:    341.45
	Linear fluid (dielectric constant: 7.2) occupying 0.826836 of unit cell:	Completed after 4 iterations at t[s]:    341.60
	FillingsUpdate:  mu: -0.128615021  nElectrons: 354.000000
	Linear fluid (dielectric constant: 7.2) occupying 0.826880 of unit cell:	Completed after 4 iterations at t[s]:    344.63
SCF: Cycle: 44   F: -698.451514070527196   dF: +7.349e-06   |Residual|: 5.557e-04   |deigs|: 2.311e-04  t[s]:    344.79
	Linear fluid (dielectric constant: 7.2) occupying 0.826865 of unit cell:	Completed after 3 iterations at t[s]:    344.93
	FillingsUpdate:  mu: -0.128620678  nElectrons: 354.000000
	Linear fluid (dielectric constant: 7.2) occupying 0.826897 of unit cell:	Completed after 2 iterations at t[s]:    347.98
SCF: Cycle: 45   F: -698.451508169903491   dF: +5.901e-06   |Residual|: 1.213e-03   |deigs|: 3.282e-04  t[s]:    348.13
	Linear fluid (dielectric constant: 7.2) occupying 0.826862 of unit cell:	Completed after 2 iterations at t[s]:    348.25
	FillingsUpdate:  mu: -0.128626534  nElectrons: 354.000000
	Linear fluid (dielectric constant: 7.2) occupying 0.826855 of unit cell:	Completed after 3 iterations at t[s]:    351.33
SCF: Cycle: 46   F: -698.451496095168181   dF: +1.207e-05   |Residual|: 9.070e-04   |deigs|: 3.831e-04  t[s]:    351.48
	Linear fluid (dielectric constant: 7.2) occupying 0.826848 of unit cell:	Completed after 3 iterations at t[s]:    351.61
	FillingsUpdate:  mu: -0.128634728  nElectrons: 354.000000
	Linear fluid (dielectric constant: 7.2) occupying 0.826831 of unit cell:	Completed after 4 iterations at t[s]:    354.67
SCF: Cycle: 47   F: -698.451504463594006   dF: -8.368e-06   |Residual|: 9.405e-04   |deigs|: 4.808e-04  t[s]:    354.83
	Linear fluid (dielectric constant: 7.2) occupying 0.826843 of unit cell:	Completed after 4 iterations at t[s]:    354.97
	FillingsUpdate:  mu: -0.128648532  nElectrons: 354.000000
	Linear fluid (dielectric constant: 7.2) occupying 0.826728 of unit cell:	Completed after 4 iterations at t[s]:    358.02
SCF: Cycle: 48   F: -698.451182414765185   dF: +3.220e-04   |Residual|: 1.164e-03   |deigs|: 1.056e-03  t[s]:    358.18
	Linear fluid (dielectric constant: 7.2) occupying 0.826842 of unit cell:	Completed after 4 iterations at t[s]:    358.34
	FillingsUpdate:  mu: -0.128648631  nElectrons: 354.000000
	Linear fluid (dielectric constant: 7.2) occupying 0.826730 of unit cell:	Completed after 4 iterations at t[s]:    361.19
SCF: Cycle: 49   F: -698.451170555146177   dF: +1.186e-05   |Residual|: 1.260e-03   |deigs|: 5.948e-05  t[s]:    361.34
	Linear fluid (dielectric constant: 7.2) occupying 0.826841 of unit cell:	Completed after 4 iterations at t[s]:    361.49
Setting wave functions to eigenvectors of Hamiltonian
Single-point solvation energy estimate, DeltaF = -0.029473570189793

Computing DFT-D3 correction:
# coordination-number C 3.300 3.301 3.301 3.300 3.300 3.296 3.300 3.301 3.470 3.300 3.300 3.300 3.300 3.300 3.457 3.300 3.300 3.299 3.495 3.300 3.300 3.300 3.291 3.300 3.307 3.292 3.300 3.300 3.543 3.301 3.300 3.503 3.300 3.301 3.300 3.300 3.308 3.296 3.300 3.300 3.484 3.300 3.301 3.300 3.300 3.300 3.300 3.300 3.301 3.533 3.291 3.300 3.300 3.499 3.300 3.300 3.300 3.451 3.301 3.300 3.496 3.300 3.300 3.292 3.300 3.300
# coordination-number N 3.419 3.483 3.408 3.506
# coordination-number Fe 6.006
# coordination-number S 2.003 2.986 2.904 2.905 2.979 2.003
# coordination-number Na 5.692 5.708
# diagonal-C6 C 24.28 24.27 24.27 24.28 24.28 24.32 24.28 24.27 22.10 24.28 24.28 24.28 24.28 24.28 22.29 24.29 24.29 24.29 21.72 24.28 24.28 24.28 24.36 24.28 24.21 24.36 24.28 24.28 21.01 24.27 24.28 21.59 24.28 24.27 24.28 24.28 24.21 24.32 24.28 24.28 21.89 24.28 24.27 24.28 24.28 24.28 24.28 24.28 24.27 21.15 24.37 24.28 24.28 21.65 24.28 24.28 24.28 22.37 24.27 24.29 21.70 24.28 24.28 24.36 24.28 24.29
# diagonal-C6 N 15.58 15.58 15.58 15.58
# diagonal-C6 Fe 109.50
# diagonal-C6 S 125.90 125.81 125.81 125.81 125.81 125.90
# diagonal-C6 Na 186.11 186.11
EvdW_6 =   -0.066209
EvdW_8 =   -0.062118

# Ionic positions in cartesian coordinates:
ion C   0.000000000000000   0.000000000000000   1.000007321400000 0
ion C  -2.333835447300000   4.042302545699999   1.000007321400000 0
ion C  11.669120544600000  20.211531625799999   1.000007321400000 0
ion C   4.667689791900001   0.000000000000000   1.000007321400000 0
ion C  23.338297781100000   0.000000000000000   1.000007321400000 0
ion C   2.333816549999999   4.042302545699999   1.000007321400000 0
ion C -11.669158339200003  20.211531625799999   1.000007321400000 0
ion C  -4.667670894600000   8.084623988700001   1.000007321400000 0
ion C   9.335303994599997  16.169229080099999   1.000007321400000 0
ion C   9.335322891900001   0.000000000000000   1.000007321400000 0
ion C  18.670626886499999   0.000000000000000   1.000007321400000 0
ion C  -9.335322891900001  16.169229080099999   1.000007321400000 0
ion C  -7.001487444600000  12.126907637100000   1.000007321400000 0
ion C  14.002993786499999   0.000000000000000   1.000007321400000 0
ion C   0.000000000000000   8.084623988700001   1.000007321400000 0
ion C   7.001487444599997  20.211531625799999   1.000007321400000 0
ion C  -7.001487444600003  20.211531625799999   1.000007321400000 0
ion C  -2.333816549999999  12.126907637100000   1.000007321400000 0
ion C   4.667670894600002  16.169229080099999   1.000007321400000 0
ion C  -2.333816550000000  20.211531625799999   1.000007321400000 0
ion C   2.333816550000000  20.211531625799999   1.000007321400000 0
ion C  -4.667651997299997  16.169229080099999   1.000007321400000 0
ion C   7.001487444600000   4.042302545699999   1.000007321400000 0
ion C  21.004424539199999   4.042302545699999   1.000007321400000 0
ion C  14.002955991899999  16.169229080099999   1.000007321400000 0
ion C   0.000000000000000  16.169229080099999   1.000007321400000 0
ion C  11.669120544600000   4.042302545699999   1.000007321400000 0
ion C  18.670607989199997   8.084623988700001   1.000007321400000 0
ion C  11.669120544599998  12.126907637100000   1.000007321400000 0
ion C  16.336791439199999  12.126907637100000   1.000007321400000 0
ion C  16.336791439199999   4.042302545699999   1.000007321400000 0
ion C   9.335303994599997   8.084623988700001   1.000007321400000 0
ion C  14.002955991899999   8.084623988700001   1.000007321400000 0
ion C   0.000000000000000   2.694868363800000   1.000007321400000 0
ion C  11.669120544600000  22.906399989600001   1.000007321400000 0
ion C -11.669120544600000  22.906399989600001   1.000007321400000 0
ion C  -2.333816550000000   6.737170909500000   1.000007321400000 0
ion C   9.335303994599995  18.864097443900000   1.000007321400000 0
ion C  -7.001487444600000  22.906399989600001   1.000007321400000 0
ion C   7.001487444600000  22.906399989600001   1.000007321400000 0
ion C   2.333816550000000   6.737170909500000   1.000007321400000 0
ion C  -9.335303994599998  18.864097443900000   1.000007321400000 0
ion C  -4.667670894599998  10.779473455200000   1.000007321400000 0
ion C  -2.333816550000000  22.906399989600001   1.000007321400000 0
ion C   2.333816550000000  22.906399989600001   1.000007321400000 0
ion C  -7.001487444600003  14.821794898200000   1.000007321400000 0
ion C   4.667670894600000   2.694868363800000   1.000007321400000 0
ion C  23.338259986499999   2.694868363800000   1.000007321400000 0
ion C  14.002974889199999  18.864097443900000   1.000007321400000 0
ion C   0.000000000000000  10.779473455200000   1.000007321400000 0
ion C   4.667670894600001  18.864097443900000   1.000007321400000 0
ion C  -4.667633100000002  18.864097443900000   1.000007321400000 0
ion C  -2.333816550000002  14.821794898200000   1.000007321400000 0
ion C   2.333816549999996  14.821794898200000   1.000007321400000 0
ion C  -0.000000000000004  18.864097443900000   1.000007321400000 0
ion C   9.335303994599998   2.694868363800000   1.000007321400000 0
ion C  21.004424539199999   6.737170909500000   1.000007321400000 0
ion C  11.669120544600000  14.821794898200000   1.000007321400000 0
ion C  16.336791439199999  14.821794898200000   1.000007321400000 0
ion C  18.670607989199997   2.694868363800000   1.000007321400000 0
ion C   7.001487444600001   6.737170909500000   1.000007321400000 0
ion C  14.002955991899999   2.694868363800000   1.000007321400000 0
ion C  18.670607989200004  10.779473455200000   1.000007321400000 0
ion C  11.669120544599998   6.737170909500000   1.000007321400000 0
ion C  16.336791439199999   6.737170909500000   1.000007321400000 0
ion C  14.002955991899999  10.779473455200000   1.000007321400000 0
ion N   4.667670894599999   8.084623988700001   1.000007321400000 0
ion N   2.333816549999999  12.126907637100000   1.000007321400000 0
ion N   7.001487444599997  14.821794898200000   1.000007321400000 0
ion N   9.335303994599997  10.779473455200000   1.000007321400000 0
ion Fe   5.837111407799997  11.454314935499999   1.000007321400000 0
ion S   0.972514686328656  10.280029133119969  10.978440437176102 1
ion S   3.681247965627498  12.869330513075642  11.114906222772364 1
ion S   4.133043418746228  14.621883535381638   7.767910980955014 1
ion S   7.572771482429999   8.159403449824440   7.652828678714473 1
ion S   8.078401124558020   9.811647685871222  11.042511241251466 1
ion S  10.770125004560008  12.420687714590761  10.937725384969188 1
ion Na   2.697100092660198   9.801905612606184   6.039595816369336 1
ion Na   8.977703302300373  13.027807243984991   6.034508422101376 1

# Forces in Cartesian coordinates:
force C   0.004315784577056  -0.000187585285133  -0.000293667832745 0
force C   0.001434022536208  -0.001151937992242  -0.000366738994033 0
force C   0.003735640439326  -0.001758483794066  -0.000277701564685 0
force C   0.001418583456941   0.002859304923869  -0.000279244081881 0
force C   0.002580852653730  -0.000382981616482  -0.000310554651146 0
force C   0.005200498990187   0.001254922606344  -0.000067393898634 0
force C   0.001050924470315  -0.000720241296832  -0.000313712417599 0
force C  -0.000279901351770   0.001792042799216  -0.000222109274621 0
force C  -0.032256885159096  -0.010877728286878  -0.002441184226470 0
force C  -0.001101266425823   0.000623972092715  -0.000298437123058 0
force C  -0.000578624987133  -0.000194343196969  -0.000312592516324 0
force C  -0.000058016226395   0.001217168073488  -0.000309428691383 0
force C   0.001970138562178   0.003851299377277  -0.000253198796468 0
force C  -0.001276098197557  -0.000656922626272  -0.000295697563249 0
force C   0.010307352587067   0.005717217203646  -0.000942052364522 0
force C   0.003055866963282   0.002846050102382  -0.000074843386474 0
force C   0.001440795483046   0.000803036491641  -0.000312958616295 0
force C   0.003411504730499   0.004011277587764  -0.000143441145903 0
force C   0.026791566210043   0.011901412972428  -0.000344768822771 0
force C  -0.000019078162559  -0.001219644198136  -0.000280404002161 0
force C  -0.003570365616095   0.000691237694527   0.000008481173913 0
force C   0.003172391540857  -0.000204661409859  -0.000275467197697 0
force C   0.005102763738632   0.007190683925849  -0.000362688935801 0
force C   0.001615641760492   0.000937624579218  -0.000290438768193 0
force C  -0.000622711494103  -0.000417546117731   0.000193838866768 0
force C   0.008925899926002   0.000676431947031  -0.000425961443219 0
force C  -0.001182164791118  -0.003332897835124   0.000001487631110 0
force C   0.000961813828656   0.002476672548870  -0.000316358961451 0
force C  -0.025277875858886  -0.022371833569470  -0.002038924903553 0
force C   0.000348828948419   0.004087581284995   0.000043941336422 0
force C  -0.000502841424291  -0.000347710643605  -0.000325435072293 0
force C   0.024040174537512   0.017260287870218  -0.000741918227594 0
force C   0.003905158054270   0.001117717380316   0.000086018236674 0
force C  -0.003711432812838   0.001754776616151  -0.000276264704365 0
force C  -0.004285712243122   0.000177709990126  -0.000298583896201 0
force C  -0.002617364139347   0.000394895920326  -0.000308343372699 0
force C   0.000576232410999   0.000391288953306   0.000171845734666 0
force C  -0.005205020716718  -0.001324750008640  -0.000125493596242 0
force C   0.000588485496228   0.000204158921314  -0.000310148903529 0
force C  -0.001433376249592  -0.002849682498976  -0.000277345590500 0
force C   0.032335665185262   0.010895784195685  -0.002488102424534 0
force C  -0.001622733127741  -0.000940883166165  -0.000306809887532 0
force C  -0.000367458846866  -0.004072800913382  -0.000039923825984 0
force C   0.001268158094038   0.000665627259374  -0.000295279296760 0
force C   0.001102067090246  -0.000618423781229  -0.000282954759363 0
force C  -0.000945178676807  -0.002490478744867  -0.000312621474817 0
force C  -0.003049972682832  -0.002829418198916  -0.000077568126676 0
force C  -0.001034280468608   0.000727031934111  -0.000299931754421 0
force C  -0.001449622543717   0.001166080947436  -0.000367551378982 0
force C   0.025467770924464   0.022546269985796  -0.002055294047436 0
force C  -0.005083386230146  -0.007229320177754  -0.000373741463071 0
force C   0.000475891883722   0.000345783160107  -0.000305328624310 0
force C  -0.003914272098351  -0.001177490613271   0.000115406037872 0
force C  -0.024005153269030  -0.017482024784971  -0.000587650089810 0
force C   0.001188244705459   0.003351018839214  -0.000005846102995 0
force C   0.003564023488000  -0.000680262110797  -0.000008498969433 0
force C   0.000082772405988  -0.001204981138856  -0.000315317743786 0
force C  -0.010350772848583  -0.005702641370106  -0.000943376285458 0
force C   0.000273643536634  -0.001817201854632  -0.000194620012182 0
force C  -0.001434918095318  -0.000816811028469  -0.000321449057957 0
force C  -0.026840019437431  -0.011889874152270  -0.000346781579819 0
force C   0.000021933997303   0.001222597292432  -0.000298446707851 0
force C  -0.001957437406378  -0.003828786340640  -0.000241565118286 0
force C  -0.008932968905559  -0.000655686151463  -0.000515154329574 0
force C  -0.003201644992278   0.000203431415530  -0.000244203926169 0
force C  -0.003440854913850  -0.004004917684736  -0.000200153943026 0
force N   0.026355835767346  -0.025811284045506  -0.000191755153529 0
force N  -0.008862562397069   0.036148299694397  -0.000261689687928 0
force N  -0.026158233724096   0.025956961322891   0.000002351368950 0
force N   0.009138093145243  -0.036106519958588  -0.000277799941661 0
force Fe  -0.000203191715251  -0.000362802260507  -0.023500480576955 0
force S  -0.001358695151925  -0.000810246722963   0.001354271719830 1
force S   0.001627992820636   0.001729622826485   0.001340430199470 1
force S  -0.000500207367641   0.000825427898002  -0.001142634096332 1
force S   0.000490342824456  -0.000881531897947  -0.001168926209644 1
force S  -0.001776461542409  -0.001509445043997   0.000859557249896 1
force S   0.001425037970283   0.000603781308780   0.001401000431602 1
force Na  -0.001260528649615  -0.002061184253819   0.000602633990588 1
force Na   0.001329126372894   0.002159922432353   0.000812385338130 1

# Energy components:
   A_diel =       -0.0277009443539588
   Eewald =     5503.2056571053208245
       EH =     6061.0702227635956660
     Eloc =   -12334.4989901317658223
      Enl =      -55.2307799727555988
     EvdW =       -0.1283271641068881
      Exc =     -184.4965253376395253
 Exc_core =       13.9690391124048094
       KE =      297.7726580006649897
-------------------------------------
     Etot =     -698.3647465686367468
       TS =        0.0933708159160416
-------------------------------------
        F =     -698.4581173845527928

IonicMinimize: Iter:   0  F: -698.458117384552793  |grad|_K:  1.295e-03  alpha:  1.000e+00

#--- Lowdin population analysis ---
# oxidation-state C +0.049 +0.039 +0.042 +0.041 +0.044 +0.029 +0.042 +0.039 +0.127 +0.046 +0.043 +0.043 +0.049 +0.046 -0.011 +0.052 +0.048 +0.029 +0.130 +0.046 +0.041 +0.042 +0.039 +0.050 +0.052 +0.040 +0.042 +0.044 +0.122 +0.043 +0.043 +0.133 +0.053 +0.042 +0.049 +0.044 +0.052 +0.029 +0.043 +0.041 +0.126 +0.050 +0.043 +0.046 +0.046 +0.044 +0.052 +0.042 +0.039 +0.123 +0.039 +0.043 +0.053 +0.133 +0.042 +0.042 +0.043 -0.011 +0.039 +0.048 +0.130 +0.046 +0.049 +0.041 +0.042 +0.029
# oxidation-state N -0.152 -0.152 -0.151 -0.152
# oxidation-state Fe +0.048
# oxidation-state S -0.344 +0.387 -0.410 -0.409 +0.388 -0.344
# oxidation-state Na +0.732 +0.732


Computing DFT-D3 correction:
# coordination-number C 3.300 3.301 3.301 3.300 3.300 3.296 3.300 3.301 3.470 3.300 3.300 3.300 3.300 3.300 3.457 3.300 3.300 3.299 3.495 3.300 3.300 3.300 3.291 3.300 3.307 3.292 3.300 3.300 3.543 3.301 3.300 3.503 3.300 3.301 3.300 3.300 3.308 3.296 3.300 3.300 3.484 3.300 3.301 3.300 3.300 3.300 3.300 3.300 3.301 3.533 3.291 3.300 3.300 3.499 3.300 3.300 3.300 3.451 3.301 3.300 3.496 3.300 3.300 3.292 3.300 3.300
# coordination-number N 3.419 3.482 3.408 3.505
# coordination-number Fe 6.003
# coordination-number S 2.003 2.984 2.903 2.903 2.978 2.002
# coordination-number Na 5.685 5.700
# diagonal-C6 C 24.28 24.27 24.27 24.28 24.28 24.32 24.28 24.27 22.09 24.28 24.28 24.28 24.28 24.28 22.28 24.29 24.29 24.29 21.72 24.28 24.28 24.28 24.36 24.28 24.21 24.36 24.28 24.28 21.01 24.27 24.28 21.59 24.28 24.27 24.28 24.28 24.21 24.32 24.28 24.28 21.88 24.28 24.27 24.28 24.28 24.28 24.28 24.28 24.27 21.15 24.37 24.28 24.28 21.65 24.28 24.28 24.28 22.37 24.27 24.29 21.70 24.28 24.28 24.36 24.28 24.29
# diagonal-C6 N 15.58 15.58 15.58 15.58
# diagonal-C6 Fe 109.50
# diagonal-C6 S 125.90 125.81 125.81 125.81 125.81 125.90
# diagonal-C6 Na 186.11 186.11
EvdW_6 =   -0.066208
EvdW_8 =   -0.062129

-------- Electronic minimization -----------
Will mix electronic density at each iteration.
	FillingsUpdate:  mu: -0.128648631  nElectrons: 354.000000
	Linear fluid (dielectric constant: 7.2) occupying 0.826716 of unit cell:	Completed after 5 iterations at t[s]:    368.20
	FillingsUpdate:  mu: -0.128914626  nElectrons: 354.000000
	Linear fluid (dielectric constant: 7.2) occupying 0.826990 of unit cell:	Completed after 5 iterations at t[s]:    371.82
SCF: Cycle:  0   F: -698.451117526478470   dF: +8.378e-05   |Residual|: 9.283e-03   |deigs|: 1.402e-02  t[s]:    371.99
	Linear fluid (dielectric constant: 7.2) occupying 0.826758 of unit cell:	Completed after 5 iterations at t[s]:    372.14
	FillingsUpdate:  mu: -0.127272164  nElectrons: 354.000000
	Linear fluid (dielectric constant: 7.2) occupying 0.826867 of unit cell:	Completed after 10 iterations at t[s]:    375.32
SCF: Cycle:  1   F: -698.418209254653902   dF: +3.291e-02   |Residual|: 1.007e-01   |deigs|: 9.818e-04  t[s]:    375.49
	Linear fluid (dielectric constant: 7.2) occupying 0.826791 of unit cell:	Completed after 9 iterations at t[s]:    375.69
	FillingsUpdate:  mu: -0.128759272  nElectrons: 354.000000
	Linear fluid (dielectric constant: 7.2) occupying 0.826931 of unit cell:	Completed after 4 iterations at t[s]:    378.79
SCF: Cycle:  2   F: -698.451505472004214   dF: -3.330e-02   |Residual|: 1.018e-03   |deigs|: 7.568e-04  t[s]:    378.95
	Linear fluid (dielectric constant: 7.2) occupying 0.826832 of unit cell:	Completed after 4 iterations at t[s]:    379.09
	FillingsUpdate:  mu: -0.128760261  nElectrons: 354.000000
	Linear fluid (dielectric constant: 7.2) occupying 0.826567 of unit cell:	Completed after 4 iterations at t[s]:    382.19
SCF: Cycle:  3   F: -698.450866572830023   dF: +6.389e-04   |Residual|: 1.752e-03   |deigs|: 1.387e-03  t[s]:    382.35
	Linear fluid (dielectric constant: 7.2) occupying 0.826788 of unit cell:	Completed after 4 iterations at t[s]:    382.49
	FillingsUpdate:  mu: -0.128771257  nElectrons: 354.000000
	Linear fluid (dielectric constant: 7.2) occupying 0.826965 of unit cell:	Completed after 4 iterations at t[s]:    385.56
SCF: Cycle:  4   F: -698.451439124877311   dF: -5.726e-04   |Residual|: 9.866e-04   |deigs|: 1.559e-03  t[s]:    385.72
	Linear fluid (dielectric constant: 7.2) occupying 0.826806 of unit cell:	Completed after 4 iterations at t[s]:    385.88
	FillingsUpdate:  mu: -0.128767338  nElectrons: 354.000000
	Linear fluid (dielectric constant: 7.2) occupying 0.826957 of unit cell:	Completed after 4 iterations at t[s]:    388.92
SCF: Cycle:  5   F: -698.451451106718309   dF: -1.198e-05   |Residual|: 1.112e-03   |deigs|: 1.748e-04  t[s]:    389.08
	Linear fluid (dielectric constant: 7.2) occupying 0.826820 of unit cell:	Completed after 4 iterations at t[s]:    389.23
	FillingsUpdate:  mu: -0.128761870  nElectrons: 354.000000
	Linear fluid (dielectric constant: 7.2) occupying 0.826945 of unit cell:	Completed after 4 iterations at t[s]:    392.24
SCF: Cycle:  6   F: -698.451471999013052   dF: -2.089e-05   |Residual|: 8.394e-04   |deigs|: 3.711e-04  t[s]:    392.40
	Linear fluid (dielectric constant: 7.2) occupying 0.826839 of unit cell:	Completed after 4 iterations at t[s]:    392.55
	FillingsUpdate:  mu: -0.128756721  nElectrons: 354.000000
	Linear fluid (dielectric constant: 7.2) occupying 0.826912 of unit cell:	Completed after 4 iterations at t[s]:    395.59
SCF: Cycle:  7   F: -698.451521348628603   dF: -4.935e-05   |Residual|: 3.800e-04   |deigs|: 1.038e-03  t[s]:    395.75
	Linear fluid (dielectric constant: 7.2) occupying 0.826845 of unit cell:	Completed after 4 iterations at t[s]:    395.90
	FillingsUpdate:  mu: -0.128761142  nElectrons: 354.000000
	Linear fluid (dielectric constant: 7.2) occupying 0.826834 of unit cell:	Completed after 4 iterations at t[s]:    398.84
SCF: Cycle:  8   F: -698.451612531228193   dF: -9.118e-05   |Residual|: 1.809e-04   |deigs|: 5.556e-04  t[s]:    399.00
	Linear fluid (dielectric constant: 7.2) occupying 0.826851 of unit cell:	Completed after 3 iterations at t[s]:    399.14
	FillingsUpdate:  mu: -0.128762069  nElectrons: 354.000000
	Linear fluid (dielectric constant: 7.2) occupying 0.826793 of unit cell:	Completed after 3 iterations at t[s]:    402.16
SCF: Cycle:  9   F: -698.451557445150684   dF: +5.509e-05   |Residual|: 2.433e-04   |deigs|: 4.557e-04  t[s]:    402.32
	Linear fluid (dielectric constant: 7.2) occupying 0.826853 of unit cell:	Completed after 2 iterations at t[s]:    402.45
	FillingsUpdate:  mu: -0.128768800  nElectrons: 354.000000
	Linear fluid (dielectric constant: 7.2) occupying 0.826637 of unit cell:	Completed after 3 iterations at t[s]:    405.45
SCF: Cycle: 10   F: -698.451010199240272   dF: +5.472e-04   |Residual|: 2.830e-04   |deigs|: 5.900e-04  t[s]:    405.60
	Linear fluid (dielectric constant: 7.2) occupying 0.826846 of unit cell:	Completed after 2 iterations at t[s]:    405.74
	FillingsUpdate:  mu: -0.128752079  nElectrons: 354.000000
	Linear fluid (dielectric constant: 7.2) occupying 0.826904 of unit cell:	Completed after 4 iterations at t[s]:    408.74
SCF: Cycle: 11   F: -698.451538730921811   dF: -5.285e-04   |Residual|: 1.644e-04   |deigs|: 6.794e-04  t[s]:    408.90
	Linear fluid (dielectric constant: 7.2) occupying 0.826847 of unit cell:	Completed after 4 iterations at t[s]:    409.11
	FillingsUpdate:  mu: -0.128749811  nElectrons: 354.000000
	Linear fluid (dielectric constant: 7.2) occupying 0.826900 of unit cell:	Completed after 4 iterations at t[s]:    411.94
SCF: Cycle: 12   F: -698.451546667197817   dF: -7.936e-06   |Residual|: 1.467e-04   |deigs|: 7.834e-05  t[s]:    412.09
	Linear fluid (dielectric constant: 7.2) occupying 0.826848 of unit cell:	Completed after 4 iterations at t[s]:    412.24
	FillingsUpdate:  mu: -0.128749145  nElectrons: 354.000000
	Linear fluid (dielectric constant: 7.2) occupying 0.826895 of unit cell:	Completed after 4 iterations at t[s]:    415.09
SCF: Cycle: 13   F: -698.451555492330499   dF: -8.825e-06   |Residual|: 1.462e-04   |deigs|: 4.459e-05  t[s]:    415.25
	Linear fluid (dielectric constant: 7.2) occupying 0.826847 of unit cell:	Completed after 4 iterations at t[s]:    415.39
	FillingsUpdate:  mu: -0.128748315  nElectrons: 354.000000
	Linear fluid (dielectric constant: 7.2) occupying 0.826900 of unit cell:	Completed after 4 iterations at t[s]:    418.36
SCF: Cycle: 14   F: -698.451555997164746   dF: -5.048e-07   |Residual|: 1.923e-04   |deigs|: 4.158e-04  t[s]:    418.51
	Linear fluid (dielectric constant: 7.2) occupying 0.826849 of unit cell:	Completed after 4 iterations at t[s]:    418.67
	FillingsUpdate:  mu: -0.128748152  nElectrons: 354.000000
	Linear fluid (dielectric constant: 7.2) occupying 0.826882 of unit cell:	Completed after 3 iterations at t[s]:    421.73
SCF: Cycle: 15   F: -698.451580000718536   dF: -2.400e-05   |Residual|: 1.572e-04   |deigs|: 1.854e-04  t[s]:    421.89
	Linear fluid (dielectric constant: 7.2) occupying 0.826849 of unit cell:	Completed after 3 iterations at t[s]:    422.03
	FillingsUpdate:  mu: -0.128751405  nElectrons: 354.000000
	Linear fluid (dielectric constant: 7.2) occupying 0.826883 of unit cell:	Completed after 3 iterations at t[s]:    424.10
SCF: Cycle: 16   F: -698.451579088173958   dF: +9.125e-07   |Residual|: 2.943e-04   |deigs|: 8.835e-06  t[s]:    424.25
	Linear fluid (dielectric constant: 7.2) occupying 0.826849 of unit cell:	Completed after 3 iterations at t[s]:    424.40
	FillingsUpdate:  mu: -0.128749175  nElectrons: 354.000000
	Linear fluid (dielectric constant: 7.2) occupying 0.826881 of unit cell:	Completed after 3 iterations at t[s]:    427.40
[...]
	SubspaceRotationAdjust: set factor to 0.144
ElecMinimize: Iter:   4  F: -698.461175501398884  |grad|_K:  2.774e-07  alpha:  2.100e-01  linmin:  8.626e-05  t[s]:   5735.66
	Linear fluid (dielectric constant: 7.2) occupying 0.826583 of unit cell:	Completed after 1 iterations at t[s]:   5736.46
	Linear fluid (dielectric constant: 7.2) occupying 0.826583 of unit cell:	Completed after 1 iterations at t[s]:   5737.25
	FillingsUpdate:  mu: -0.123951381  nElectrons: 354.000000
	SubspaceRotationAdjust: set factor to 0.158
ElecMinimize: Iter:   5  F: -698.461177221347384  |grad|_K:  1.968e-07  alpha:  6.267e-01  linmin: -6.937e-05  t[s]:   5738.28
	Linear fluid (dielectric constant: 7.2) occupying 0.826584 of unit cell:	Completed after 1 iterations at t[s]:   5739.08
	Linear fluid (dielectric constant: 7.2) occupying 0.826584 of unit cell:	Completed after 0 iterations at t[s]:   5739.86
	FillingsUpdate:  mu: -0.123853578  nElectrons: 354.000000
	SubspaceRotationAdjust: set factor to 0.168
ElecMinimize: Iter:   6  F: -698.461177932872715  |grad|_K:  2.024e-07  alpha:  5.083e-01  linmin:  7.409e-05  t[s]:   5740.88
	Linear fluid (dielectric constant: 7.2) occupying 0.826586 of unit cell:	Completed after 1 iterations at t[s]:   5741.78
	Linear fluid (dielectric constant: 7.2) occupying 0.826586 of unit cell:	Completed after 1 iterations at t[s]:   5742.57
	FillingsUpdate:  mu: -0.123987254  nElectrons: 354.000000
	SubspaceRotationAdjust: set factor to 0.154
ElecMinimize: Iter:   7  F: -698.461178420877673  |grad|_K:  1.798e-07  alpha:  3.387e-01  linmin: -4.203e-05  t[s]:   5743.62
	Linear fluid (dielectric constant: 7.2) occupying 0.826586 of unit cell:	Completed after 1 iterations at t[s]:   5744.42
	Linear fluid (dielectric constant: 7.2) occupying 0.826586 of unit cell:	Completed after 0 iterations at t[s]:   5745.19
	FillingsUpdate:  mu: -0.123839378  nElectrons: 354.000000
	SubspaceRotationAdjust: set factor to 0.119
ElecMinimize: Iter:   8  F: -698.461178760572807  |grad|_K:  1.524e-07  alpha:  2.908e-01  linmin:  1.562e-04  t[s]:   5746.21
	Linear fluid (dielectric constant: 7.2) occupying 0.826587 of unit cell:	Completed after 1 iterations at t[s]:   5746.99
	Linear fluid (dielectric constant: 7.2) occupying 0.826587 of unit cell:	Completed after 0 iterations at t[s]:   5747.77
	FillingsUpdate:  mu: -0.123913977  nElectrons: 354.000000
	SubspaceRotationAdjust: set factor to 0.116
ElecMinimize: Iter:   9  F: -698.461179095856664  |grad|_K:  8.344e-08  alpha:  4.086e-01  linmin: -2.014e-04  t[s]:   5748.79
	Linear fluid (dielectric constant: 7.2) occupying 0.826587 of unit cell:	Completed after 0 iterations at t[s]:   5749.56
	Linear fluid (dielectric constant: 7.2) occupying 0.826587 of unit cell:	Completed after 0 iterations at t[s]:   5750.33
	FillingsUpdate:  mu: -0.123890005  nElectrons: 354.000000
	SubspaceRotationAdjust: set factor to 0.11
ElecMinimize: Iter:  10  F: -698.461179210645810  |grad|_K:  7.120e-08  alpha:  4.504e-01  linmin: -5.592e-05  t[s]:   5751.34
	Linear fluid (dielectric constant: 7.2) occupying 0.826586 of unit cell:	Completed after 1 iterations at t[s]:   5752.12
	Linear fluid (dielectric constant: 7.2) occupying 0.826586 of unit cell:	Completed after 0 iterations at t[s]:   5752.90
	FillingsUpdate:  mu: -0.123927565  nElectrons: 354.000000
	SubspaceRotationAdjust: set factor to 0.0881
ElecMinimize: Iter:  11  F: -698.461179280522629  |grad|_K:  5.785e-08  alpha:  3.771e-01  linmin:  4.862e-04  t[s]:   5753.92
	Linear fluid (dielectric constant: 7.2) occupying 0.826586 of unit cell:	Completed after 0 iterations at t[s]:   5754.69
	Linear fluid (dielectric constant: 7.2) occupying 0.826586 of unit cell:	Completed after 0 iterations at t[s]:   5755.45
	FillingsUpdate:  mu: -0.123896196  nElectrons: 354.000000
	SubspaceRotationAdjust: set factor to 0.0718
ElecMinimize: Iter:  12  F: -698.461179314458036  |grad|_K:  3.087e-08  alpha:  2.978e-01  linmin:  3.327e-04  t[s]:   5756.48
	Linear fluid (dielectric constant: 7.2) occupying 0.826586 of unit cell:	Completed after 0 iterations at t[s]:   5757.25
	Linear fluid (dielectric constant: 7.2) occupying 0.826586 of unit cell:	Completed after 0 iterations at t[s]:   5758.05
	FillingsUpdate:  mu: -0.123914396  nElectrons: 354.000000
	SubspaceRotationAdjust: set factor to 0.0708
ElecMinimize: Iter:  13  F: -698.461179328954927  |grad|_K:  3.281e-08  alpha:  6.245e-01  linmin:  2.686e-03  t[s]:   5759.05
	Linear fluid (dielectric constant: 7.2) occupying 0.826586 of unit cell:	Completed after 0 iterations at t[s]:   5759.84
	Linear fluid (dielectric constant: 7.2) occupying 0.826586 of unit cell:	Completed after 0 iterations at t[s]:   5760.64
	FillingsUpdate:  mu: -0.123903326  nElectrons: 354.000000
	SubspaceRotationAdjust: set factor to 0.0722
ElecMinimize: Iter:  14  F: -698.461179338973693  |grad|_K:  2.050e-08  alpha:  3.400e-01  linmin:  7.993e-04  t[s]:   5761.68
	Linear fluid (dielectric constant: 7.2) occupying 0.826586 of unit cell:	Completed after 0 iterations at t[s]:   5762.49
	Linear fluid (dielectric constant: 7.2) occupying 0.826586 of unit cell:	Completed after 0 iterations at t[s]:   5763.28
	FillingsUpdate:  mu: -0.123903635  nElectrons: 354.000000
	SubspaceRotationAdjust: set factor to 0.0772
ElecMinimize: Iter:  15  F: -698.461179344163156  |grad|_K:  1.393e-08  alpha:  3.632e-01  linmin:  2.981e-04  t[s]:   5764.32
	Linear fluid (dielectric constant: 7.2) occupying 0.826586 of unit cell:	Completed after 0 iterations at t[s]:   5765.11
	Linear fluid (dielectric constant: 7.2) occupying 0.826586 of unit cell:	Completed after 0 iterations at t[s]:   5765.87
	FillingsUpdate:  mu: -0.123903586  nElectrons: 354.000000
	SubspaceRotationAdjust: set factor to 0.0861
ElecMinimize: Iter:  16  F: -698.461179347330813  |grad|_K:  1.177e-08  alpha:  4.685e-01  linmin:  6.342e-04  t[s]:   5766.90
ElecMinimize: Converged (|Delta F|<1.000000e-08 for 2 iters).
Setting wave functions to eigenvectors of Hamiltonian

Computing DFT-D3 correction:
# coordination-number C 3.300 3.302 3.302 3.300 3.300 3.298 3.300 3.301 3.393 3.300 3.300 3.300 3.300 3.300 3.385 3.300 3.300 3.293 3.487 3.300 3.300 3.300 3.291 3.300 3.308 3.290 3.300 3.300 3.353 3.301 3.300 3.486 3.299 3.302 3.300 3.300 3.308 3.297 3.300 3.300 3.411 3.300 3.301 3.300 3.300 3.300 3.300 3.300 3.301 3.353 3.290 3.300 3.299 3.484 3.300 3.300 3.300 3.375 3.301 3.300 3.488 3.300 3.300 3.290 3.300 3.293
# coordination-number N 3.239 3.203 3.230 3.205
# coordination-number Fe 5.218
# coordination-number S 1.928 2.873 2.879 2.873 2.869 1.927
# coordination-number Na 3.841 3.809
# diagonal-C6 C 24.28 24.27 24.27 24.28 24.28 24.30 24.28 24.27 23.20 24.28 24.28 24.28 24.28 24.29 23.31 24.28 24.29 24.35 21.84 24.28 24.28 24.28 24.37 24.28 24.21 24.38 24.28 24.28 23.71 24.27 24.28 21.85 24.29 24.27 24.28 24.28 24.20 24.31 24.28 24.28 22.95 24.28 24.27 24.28 24.28 24.28 24.28 24.28 24.27 23.72 24.37 24.29 24.29 21.88 24.28 24.28 24.28 23.44 24.27 24.29 21.83 24.28 24.28 24.37 24.28 24.35
# diagonal-C6 N 15.59 15.60 15.59 15.60
# diagonal-C6 Fe 204.99
# diagonal-C6 S 125.97 125.81 125.81 125.81 125.81 125.97
# diagonal-C6 Na 186.11 186.11
EvdW_6 =   -0.066994
EvdW_8 =   -0.066834

# Ionic positions in cartesian coordinates:
ion C   0.000000000000000   0.000000000000000   1.000007321400000 0
ion C  -2.333835447300000   4.042302545699999   1.000007321400000 0
ion C  11.669120544600000  20.211531625799999   1.000007321400000 0
ion C   4.667689791900001   0.000000000000000   1.000007321400000 0
ion C  23.338297781100000   0.000000000000000   1.000007321400000 0
ion C   2.333816549999999   4.042302545699999   1.000007321400000 0
ion C -11.669158339200004  20.211531625799999   1.000007321400000 0
ion C  -4.667670894600000   8.084623988700001   1.000007321400000 0
ion C   9.335303994599997  16.169229080099999   1.000007321400000 0
ion C   9.335322891900001   0.000000000000000   1.000007321400000 0
ion C  18.670626886499999   0.000000000000000   1.000007321400000 0
ion C  -9.335322891900001  16.169229080099999   1.000007321400000 0
ion C  -7.001487444600000  12.126907637100000   1.000007321400000 0
ion C  14.002993786499999   0.000000000000000   1.000007321400000 0
ion C   0.000000000000000   8.084623988700001   1.000007321400000 0
ion C   7.001487444599997  20.211531625799999   1.000007321400000 0
ion C  -7.001487444600005  20.211531625799999   1.000007321400000 0
ion C  -2.333816549999999  12.126907637100000   1.000007321400000 0
ion C   4.667670894600002  16.169229080099999   1.000007321400000 0
ion C  -2.333816550000000  20.211531625799999   1.000007321400000 0
ion C   2.333816550000000  20.211531625799999   1.000007321400000 0
ion C  -4.667651997299996  16.169229080099999   1.000007321400000 0
ion C   7.001487444600000   4.042302545699999   1.000007321400000 0
ion C  21.004424539199999   4.042302545699999   1.000007321400000 0
ion C  14.002955991899999  16.169229080099999   1.000007321400000 0
ion C   0.000000000000000  16.169229080099999   1.000007321400000 0
ion C  11.669120544600000   4.042302545699999   1.000007321400000 0
ion C  18.670607989199997   8.084623988700001   1.000007321400000 0
ion C  11.669120544599998  12.126907637100000   1.000007321400000 0
ion C  16.336791439199999  12.126907637100000   1.000007321400000 0
ion C  16.336791439199999   4.042302545699999   1.000007321400000 0
ion C   9.335303994599997   8.084623988700001   1.000007321400000 0
ion C  14.002955991899999   8.084623988700001   1.000007321400000 0
ion C   0.000000000000000   2.694868363800000   1.000007321400000 0
ion C  11.669120544600000  22.906399989600001   1.000007321400000 0
ion C -11.669120544600000  22.906399989600001   1.000007321400000 0
ion C  -2.333816550000000   6.737170909500000   1.000007321400000 0
ion C   9.335303994599995  18.864097443900000   1.000007321400000 0
ion C  -7.001487444600000  22.906399989600001   1.000007321400000 0
ion C   7.001487444600000  22.906399989600001   1.000007321400000 0
ion C   2.333816550000000   6.737170909500000   1.000007321400000 0
ion C  -9.335303994599998  18.864097443900000   1.000007321400000 0
ion C  -4.667670894599997  10.779473455200000   1.000007321400000 0
ion C  -2.333816550000000  22.906399989600001   1.000007321400000 0
ion C   2.333816550000000  22.906399989600001   1.000007321400000 0
ion C  -7.001487444600004  14.821794898200000   1.000007321400000 0
ion C   4.667670894600000   2.694868363800000   1.000007321400000 0
ion C  23.338259986499999   2.694868363800000   1.000007321400000 0
ion C  14.002974889199999  18.864097443900000   1.000007321400000 0
ion C   0.000000000000000  10.779473455200000   1.000007321400000 0
ion C   4.667670894600001  18.864097443900000   1.000007321400000 0
ion C  -4.667633100000004  18.864097443900000   1.000007321400000 0
ion C  -2.333816550000003  14.821794898200000   1.000007321400000 0
ion C   2.333816549999995  14.821794898200000   1.000007321400000 0
ion C  -0.000000000000005  18.864097443900000   1.000007321400000 0
ion C   9.335303994599998   2.694868363800000   1.000007321400000 0
ion C  21.004424539199999   6.737170909500000   1.000007321400000 0
ion C  11.669120544600000  14.821794898200000   1.000007321400000 0
ion C  16.336791439199999  14.821794898200000   1.000007321400000 0
ion C  18.670607989199997   2.694868363800000   1.000007321400000 0
ion C   7.001487444600001   6.737170909500000   1.000007321400000 0
ion C  14.002955991899999   2.694868363800000   1.000007321400000 0
ion C  18.670607989200004  10.779473455200000   1.000007321400000 0
ion C  11.669120544599998   6.737170909500000   1.000007321400000 0
ion C  16.336791439199999   6.737170909500000   1.000007321400000 0
ion C  14.002955991899999  10.779473455200000   1.000007321400000 0
ion N   4.667670894599999   8.084623988700001   1.000007321400000 0
ion N   2.333816549999999  12.126907637100000   1.000007321400000 0
ion N   7.001487444599997  14.821794898200000   1.000007321400000 0
ion N   9.335303994599997  10.779473455200000   1.000007321400000 0
ion Fe   5.837111407799997  11.454314935499999   1.000007321400000 0
ion S   0.899196499679604  10.825105736169309  11.658958617792711 1
ion S   3.803141589279161  13.132738893657974  11.010784896407360 1
ion S   4.005673423712771  14.137008175581833   7.349513775784066 1
ion S   7.691740463967397   8.641913164706869   7.296261567319670 1
ion S   7.917652545470606   9.581699252388695  10.974914926144910 1
ion S  10.831184910476921  11.872422535274806  11.642387808614455 1
ion Na   2.312580138212605   8.980219132481665   6.698596938038425 1
ion Na   9.369782444379265  13.821501965895179   6.734656033501579 1

# Forces in Cartesian coordinates:
force C   0.004250275581983  -0.000167820710429  -0.000281446472258 0
force C   0.001309874158792  -0.001229124016485  -0.000391624172873 0
force C   0.003679707619876  -0.001689529103973  -0.000326147501436 0
force C   0.001422434377390   0.002862368325626  -0.000285964221059 0
force C   0.002506985687504  -0.000362555697262  -0.000317026696700 0
force C   0.005250978618000   0.001203542806588  -0.000336212731423 0
force C   0.000966574451457  -0.000693719529036  -0.000299512451312 0
force C  -0.000408723149319   0.001824473124025  -0.000261125095808 0
force C  -0.033304379902457  -0.012212988367570  -0.001604403519111 0
force C  -0.001069873188438   0.000741505521063  -0.000304820082968 0
force C  -0.000587366146716  -0.000165104544321  -0.000310267330216 0
force C  -0.000149354469768   0.001236048557540  -0.000307081961111 0
force C   0.001962199311254   0.003749300903915  -0.000240627221551 0
force C  -0.001292085520674  -0.000626653495290  -0.000297466856887 0
force C   0.010272146725270   0.006096330206319  -0.000575861018855 0
force C   0.002912785042623   0.002691002539074  -0.000214684022313 0
force C   0.001398915341637   0.000828669353322  -0.000323616717719 0
force C   0.003799513364275   0.003928876268122  -0.000076154827832 0
force C   0.028445330145310   0.011770332694241  -0.000306880381163 0
force C   0.000083831382155  -0.001200232123244  -0.000295348728363 0
force C  -0.003500541021462   0.000729459477315  -0.000009164042017 0
force C   0.003092654105852  -0.000103846209760  -0.000290681105271 0
force C   0.005110401255917   0.007194722795829  -0.000323082598606 0
force C   0.001500098972071   0.000958869099382  -0.000306468176466 0
force C  -0.001100410209529  -0.000674366181551  -0.000096455398591 0
force C   0.008648193398851   0.000728332845881  -0.000346535742654 0
force C  -0.001099520478439  -0.003212137848097  -0.000018512336939 0
force C   0.000817098009164   0.002451898760740  -0.000305198795144 0
force C  -0.028064790423352  -0.023559667034717  -0.001166259081848 0
force C   0.000267037846641   0.003940298814967  -0.000016667461324 0
force C  -0.000532316907680  -0.000226899081760  -0.000321375128519 0
force C   0.024649133522095   0.019919942133325  -0.000544095789531 0
force C   0.003489089961138   0.001286185753947   0.000029428843743 0
force C  -0.003662554128459   0.001679194014091  -0.000331327334234 0
force C  -0.004220519375574   0.000153837238244  -0.000293929924602 0
force C  -0.002546067774096   0.000367406205312  -0.000311281630138 0
force C   0.001033451599448   0.000645902164935  -0.000102710796447 0
force C  -0.005272372718696  -0.001309316741307  -0.000348389939122 0
force C   0.000599599695676   0.000178255131530  -0.000317143321020 0
force C  -0.001435953831502  -0.002844838915350  -0.000282851419690 0
force C   0.033366096329282   0.012214409080064  -0.001675340433561 0
force C  -0.001502726445218  -0.000961980832863  -0.000322620347422 0
force C  -0.000288093896487  -0.003934634863595  -0.000069223785540 0
force C   0.001288265385128   0.000636694190669  -0.000300698991807 0
force C   0.001066416943966  -0.000741011836322  -0.000290814763189 0
force C  -0.000791608178147  -0.002456001434912  -0.000306575264359 0
force C  -0.002881963149850  -0.002696791092182  -0.000205745285532 0
force C  -0.000955641858304   0.000698308119240  -0.000287634989512 0
force C  -0.001331135959804   0.001246481347914  -0.000384397360189 0
force C   0.028210918980478   0.023738315741556  -0.001202632960813 0
force C  -0.005084521942127  -0.007249674714369  -0.000312590397537 0
force C   0.000504299081814   0.000226461694370  -0.000297656493227 0
force C  -0.003482012371346  -0.001339287771457   0.000061347180670 0
force C  -0.024644802047166  -0.020098859424725  -0.000409776223322 0
force C   0.001109695601694   0.003226093245946  -0.000035200811391 0
force C   0.003479361723930  -0.000717150374834  -0.000006994963126 0
force C   0.000175459242738  -0.001223818669972  -0.000314239654975 0
force C  -0.010318592270074  -0.006068573291110  -0.000577676884661 0
force C   0.000390082899218  -0.001855953647924  -0.000220959323621 0
force C  -0.001391023159110  -0.000845792058169  -0.000329002453555 0
force C  -0.028473621851427  -0.011774826515123  -0.000354805777739 0
force C  -0.000083189608085   0.001210021429142  -0.000306540488524 0
force C  -0.001938863923735  -0.003723980879028  -0.000240406166076 0
force C  -0.008641386510187  -0.000721308544060  -0.000421839613572 0
force C  -0.003122301581403   0.000091217748678  -0.000271626319852 0
force C  -0.003832226031547  -0.003925208882833  -0.000131762362315 0
force N   0.026228205038952  -0.026931076110116  -0.001363168703805 0
force N  -0.010912386453600   0.036479569920073  -0.002315603435631 0
force N  -0.026010858752895   0.027086666586452  -0.001219829807376 0
force N   0.011159231825077  -0.036403160088215  -0.002368280723076 0
force Fe  -0.000130828083486  -0.000331089448759  -0.022268191015801 0
force S  -0.000007410638959  -0.000093012626587   0.000089140215070 1
force S   0.000006927307076   0.000010966858793  -0.000081991198688 1
force S   0.000050279913959  -0.000057645120032  -0.000052762788734 1
force S  -0.000182285667975   0.000074395980260   0.000341446427808 1
force S   0.000031704076897   0.000034688594736  -0.000492975755142 1
force S  -0.000060943779986   0.000011998862348   0.000145561952490 1
force Na   0.000257057654414   0.000145604017537   0.000081133312215 1
force Na   0.000030296601497  -0.000055678659854   0.000073755201996 1

# Energy components:
   A_diel =       -0.0439698233776278
   Eewald =     5463.6925376483868604
       EH =     6021.9456319745258952
     Eloc =   -12255.8193111914715701
      Enl =      -55.2359778502485739
     EvdW =       -0.1338280704065470
      Exc =     -184.4870959254141667
 Exc_core =       13.9690391326123891
       KE =      297.7460092851170543
-------------------------------------
     Etot =     -698.3669648202755980
       TS =        0.0942145270551689
-------------------------------------
        F =     -698.4611793473308126

IonicMinimize: Iter:  38  F: -698.461179347330813  |grad|_K:  1.529e-04  alpha:  1.725e+00  linmin:  8.737e-04  t[s]:   5769.88
IonicMinimize: Converged (|Delta F|<1.000000e-06 for 2 iters).

#--- Lowdin population analysis ---
# oxidation-state C +0.045 +0.034 +0.038 +0.038 +0.041 +0.024 +0.039 +0.035 +0.126 +0.043 +0.040 +0.040 +0.047 +0.043 -0.012 +0.049 +0.045 +0.028 +0.130 +0.043 +0.039 +0.039 +0.037 +0.047 +0.047 +0.039 +0.040 +0.042 +0.132 +0.040 +0.041 +0.134 +0.052 +0.038 +0.045 +0.041 +0.047 +0.024 +0.040 +0.038 +0.125 +0.047 +0.040 +0.043 +0.043 +0.042 +0.049 +0.039 +0.034 +0.133 +0.037 +0.041 +0.052 +0.134 +0.040 +0.039 +0.040 -0.011 +0.035 +0.045 +0.130 +0.043 +0.047 +0.039 +0.039 +0.028
# oxidation-state N -0.146 -0.139 -0.144 -0.139
# oxidation-state Fe +0.093
# oxidation-state S -0.381 +0.363 -0.385 -0.385 +0.363 -0.381
# oxidation-state Na +0.784 +0.784


Dumping 'Na2S6@FeN4-glyme-vdw.fillings' ... done
Dumping 'Na2S6@FeN4-glyme-vdw.wfns' ... done
Dumping 'Na2S6@FeN4-glyme-vdw.fluidState' ... done
Dumping 'Na2S6@FeN4-glyme-vdw.ionpos' ... done
Dumping 'Na2S6@FeN4-glyme-vdw.eigenvals' ... done
End date and time: Fri Jan 17 00:16:50 2025  (Duration: 0-1:36:11.95)
Done!
