
*************** JDFTx 1.7.0  ***************

Start date and time: Wed Jan 15 17:44:50 2025
Executable jdftx_gpu with command-line: -i /home/akim2/JDFTx/Na2S4@FeN4-PC-vdw/Na2S4@FeN4-PC-vdw.in -o /home/akim2/JDFTx/Na2S4@FeN4-PC-vdw/Na2S4@FeN4-PC-vdw.out
Running on hosts (process indices):  exp-2-59 (0)
Divided in process groups (process indices):  0 (0)
gpuInit: Found compatible cuda device 0 'Tesla V100-SXM2-32GB'
gpuInit: Selected device 0
Resource initialization completed at t[s]:      0.63
Run totals: 1 processes, 1 threads, 1 GPUs


Input parsed successfully to the following command list (including defaults):

basis kpoint-dependent
coords-type Cartesian
core-overlap-check vector
coulomb-interaction Slab 001
coulomb-truncation-embed 0 0 2.00001
davidson-band-ratio 1.1
dump End State
dump-name Na2S4@FeN4-PC-vdw.$VAR
elec-cutoff 20 100
elec-eigen-algo Davidson
elec-ex-corr gga-PBE
elec-smearing Fermi 0.01
electronic-minimize  \
	dirUpdateScheme      FletcherReeves \
	linminMethod         DirUpdateRecommended \
	nIterations          100 \
	history              15 \
	knormThreshold       0 \
	energyDiffThreshold  1e-08 \
	nEnergyDiff          2 \
	alphaTstart          1 \
	alphaTmin            1e-10 \
	updateTestStepSize   yes \
	alphaTreduceFactor   0.1 \
	alphaTincreaseFactor 3 \
	nAlphaAdjustMax      3 \
	wolfeEnergy          0.0001 \
	wolfeGradient        0.9 \
	fdTest               no
electronic-scf  \
	nIterations	50 \
	energyDiffThreshold	1e-08 \
	residualThreshold	1e-07 \
	mixFraction	0.5 \
	qMetric	0.8 \
	history	10 \
	nEigSteps	2 \
	eigDiffThreshold	1e-08 \
	mixedVariable	Density \
	qKerker	0.8 \
	qKappa	-1 \
	verbose	no \
	mixFractionMag	1.5
exchange-regularization WignerSeitzTruncated
fluid LinearPCM 298.000000 1.013250
fluid-ex-corr lda-TF lda-PZ
fluid-gummel-loop 10 1.000000e-05
fluid-minimize  \
	dirUpdateScheme      PolakRibiere \
	linminMethod         DirUpdateRecommended \
	nIterations          400 \
	history              15 \
	knormThreshold       1e-11 \
	energyDiffThreshold  0 \
	nEnergyDiff          2 \
	alphaTstart          1 \
	alphaTmin            1e-10 \
	updateTestStepSize   yes \
	alphaTreduceFactor   0.1 \
	alphaTincreaseFactor 3 \
	nAlphaAdjustMax      6 \
	wolfeEnergy          0.0001 \
	wolfeGradient        0.9 \
	fdTest               no
fluid-solvent PC 11.6429 ScalarEOS \
	epsBulk 64 \
	pMol 2.95 \
	epsInf 2.02 \
	Pvap 1.53277e-13 \
	sigmaBulk 2.88e-05 \
	Rvdw 0 \
	Res 0 \
	tauNuc 343133
forces-output-coords Positions
ion C   0.000000000000000   0.000000000000000   1.000007321400000 0
ion C  -2.333835447300000   4.042302545699999   1.000007321400000 0
ion C  11.669120544600000  20.211531625799999   1.000007321400000 0
ion C   4.667689791900001   0.000000000000000   1.000007321400000 0
ion C  23.338297781100000   0.000000000000000   1.000007321400000 0
ion C   2.333816549999999   4.042302545699999   1.000007321400000 0
ion C -11.669158339200004  20.211531625799999   1.000007321400000 0
ion C  -4.667670894600000   8.084623988700001   1.000007321400000 0
ion C   9.335303994599997  16.169229080099999   1.000007321400000 0
ion C   9.335322891900001   0.000000000000000   1.000007321400000 0
ion C  18.670626886499999   0.000000000000000   1.000007321400000 0
ion C  -9.335322891900001  16.169229080099999   1.000007321400000 0
ion C  -7.001487444600000  12.126907637100000   1.000007321400000 0
ion C  14.002993786499999   0.000000000000000   1.000007321400000 0
ion C   0.000000000000000   8.084623988700001   1.000007321400000 0
ion C   7.001487444599997  20.211531625799999   1.000007321400000 0
ion C  -7.001487444600005  20.211531625799999   1.000007321400000 0
ion C  -2.333816549999999  12.126907637100000   1.000007321400000 0
ion C   4.667670894600002  16.169229080099999   1.000007321400000 0
ion C  -2.333816550000000  20.211531625799999   1.000007321400000 0
ion C   2.333816550000000  20.211531625799999   1.000007321400000 0
ion C  -4.667651997299996  16.169229080099999   1.000007321400000 0
ion C   7.001487444600000   4.042302545699999   1.000007321400000 0
ion C  21.004424539199999   4.042302545699999   1.000007321400000 0
ion C  14.002955991899999  16.169229080099999   1.000007321400000 0
ion C   0.000000000000000  16.169229080099999   1.000007321400000 0
ion C  11.669120544600000   4.042302545699999   1.000007321400000 0
ion C  18.670607989199997   8.084623988700001   1.000007321400000 0
ion C  11.669120544599998  12.126907637100000   1.000007321400000 0
ion C  16.336791439199999  12.126907637100000   1.000007321400000 0
ion C  16.336791439199999   4.042302545699999   1.000007321400000 0
ion C   9.335303994599997   8.084623988700001   1.000007321400000 0
ion C  14.002955991899999   8.084623988700001   1.000007321400000 0
ion C   0.000000000000000   2.694868363800000   1.000007321400000 0
ion C  11.669120544600000  22.906399989600001   1.000007321400000 0
ion C -11.669120544600000  22.906399989600001   1.000007321400000 0
ion C  -2.333816550000000   6.737170909500000   1.000007321400000 0
ion C   9.335303994599995  18.864097443900000   1.000007321400000 0
ion C  -7.001487444600000  22.906399989600001   1.000007321400000 0
ion C   7.001487444600000  22.906399989600001   1.000007321400000 0
ion C   2.333816550000000   6.737170909500000   1.000007321400000 0
ion C  -9.335303994599998  18.864097443900000   1.000007321400000 0
ion C  -4.667670894599997  10.779473455200000   1.000007321400000 0
ion C  -2.333816550000000  22.906399989600001   1.000007321400000 0
ion C   2.333816550000000  22.906399989600001   1.000007321400000 0
ion C  -7.001487444600004  14.821794898200000   1.000007321400000 0
ion C   4.667670894600000   2.694868363800000   1.000007321400000 0
ion C  23.338259986499999   2.694868363800000   1.000007321400000 0
ion C  14.002974889199999  18.864097443900000   1.000007321400000 0
ion C   0.000000000000000  10.779473455200000   1.000007321400000 0
ion C   4.667670894600001  18.864097443900000   1.000007321400000 0
ion C  -4.667633100000004  18.864097443900000   1.000007321400000 0
ion C  -2.333816550000003  14.821794898200000   1.000007321400000 0
ion C   2.333816549999995  14.821794898200000   1.000007321400000 0
ion C  -0.000000000000005  18.864097443900000   1.000007321400000 0
ion C   9.335303994599998   2.694868363800000   1.000007321400000 0
ion C  21.004424539199999   6.737170909500000   1.000007321400000 0
ion C  11.669120544600000  14.821794898200000   1.000007321400000 0
ion C  16.336791439199999  14.821794898200000   1.000007321400000 0
ion C  18.670607989199997   2.694868363800000   1.000007321400000 0
ion C   7.001487444600001   6.737170909500000   1.000007321400000 0
ion C  14.002955991899999   2.694868363800000   1.000007321400000 0
ion C  18.670607989200004  10.779473455200000   1.000007321400000 0
ion C  11.669120544599998   6.737170909500000   1.000007321400000 0
ion C  16.336791439199999   6.737170909500000   1.000007321400000 0
ion C  14.002955991899999  10.779473455200000   1.000007321400000 0
ion N   4.667670894599999   8.084623988700001   1.000007321400000 0
ion N   2.333816549999999  12.126907637100000   1.000007321400000 0
ion N   7.001487444599997  14.821794898200000   1.000007321400000 0
ion N   9.335303994599997  10.779473455200000   1.000007321400000 0
ion Fe   5.837111407799997  11.454314935499999   1.000007321400000 0
ion S   5.468204798104988  11.362534507786290   5.336785219362401 1
ion S   8.070808428515150  13.504650156018911   7.430805225604459 1
ion S   9.853203388601669  11.184101881026494  10.093829239225848 1
ion S  12.833201592618561   9.175275240526799   8.508169628990180 1
ion Na   8.687030711533254   7.230359205990412   6.209972494311719 1
ion Na  13.380327782281922  13.410495232840686   5.793200734643123 1
ion-species GBRV/$ID_pbe.uspp
ion-width Ecut
ionic-minimize  \
	dirUpdateScheme      FletcherReeves \
	linminMethod         DirUpdateRecommended \
	nIterations          200 \
	history              15 \
	knormThreshold       0.0001 \
	energyDiffThreshold  1e-06 \
	nEnergyDiff          2 \
	alphaTstart          1 \
	alphaTmin            1e-10 \
	updateTestStepSize   yes \
	alphaTreduceFactor   0.1 \
	alphaTincreaseFactor 3 \
	nAlphaAdjustMax      3 \
	wolfeEnergy          0.0001 \
	wolfeGradient        0.9 \
	fdTest               no
kpoint   0.000000000000   0.000000000000   0.000000000000  1.00000000000000
kpoint-folding 1 1 1 
latt-move-scale 1 1 1
latt-scale 1 1 1 
lattice Triclinic 28.0058 28.0058 37.7946 90 90 120
lattice-minimize  \
	dirUpdateScheme      L-BFGS \
	linminMethod         DirUpdateRecommended \
	nIterations          0 \
	history              15 \
	knormThreshold       0 \
	energyDiffThreshold  1e-06 \
	nEnergyDiff          2 \
	alphaTstart          1 \
	alphaTmin            1e-10 \
	updateTestStepSize   yes \
	alphaTreduceFactor   0.1 \
	alphaTincreaseFactor 3 \
	nAlphaAdjustMax      3 \
	wolfeEnergy          0.0001 \
	wolfeGradient        0.9 \
	fdTest               no
lcao-params -1 1e-06 0.01
pcm-variant GLSSA13
spintype no-spin
subspace-rotation-factor 1 yes
symmetries automatic
symmetry-threshold 0.0001
van-der-waals D3



---------- Setting up symmetries ----------

Found 24 point-group symmetries of the bravais lattice
Found 1 space-group symmetries with basis
Applied RMS atom displacement 0 bohrs to make symmetries exact.

---------- Initializing the Grid ----------
R = 
[      28.0058     -14.0029            0  ]
[            0      24.2537            0  ]
[            0            0      37.7946  ]
unit cell volume = 25671.8
G =
[   0.224353    0.12953         -0  ]
[          0   0.259061          0  ]
[          0         -0   0.166246  ]
Minimum fftbox size, Smin = [  128  128  172  ]
Chosen fftbox size, S = [  128  128  180  ]

---------- Initializing tighter grid for wavefunction operations ----------
R = 
[      28.0058     -14.0029            0  ]
[            0      24.2537            0  ]
[            0            0      37.7946  ]
unit cell volume = 25671.8
G =
[   0.224353    0.12953         -0  ]
[          0   0.259061          0  ]
[          0         -0   0.166246  ]
Minimum fftbox size, Smin = [  116  116  156  ]
Chosen fftbox size, S = [  120  120  160  ]

---------- Exchange Correlation functional ----------
Initalized PBE GGA exchange.
Initalized PBE GGA correlation.

---------- Setting up pseudopotentials ----------
Width of ionic core gaussian charges (only for fluid interactions / plotting) set to 0.397384

Reading pseudopotential file '/home/akim2/jdftx_install/build/pseudopotentials/GBRV/c_pbe.uspp':
  Title: C.  Created by USPP 7.3.6 on 3-2-2014
  Reference state energy: -5.406344.  4 valence electrons in orbitals:
    |200>  occupation: 2  eigenvalue: -0.504890
    |210>  occupation: 2  eigenvalue: -0.194356
  lMax: 1  lLocal: 2  QijEcut: 5
  4 projectors sampled on a log grid with 503 points:
    l: 0  eig: -0.504890  rCut: 1.3
    l: 0  eig: 0.000000  rCut: 1.3
    l: 1  eig: -0.194357  rCut: 1.3
    l: 1  eig: 0.000000  rCut: 1.3
  Partial core density with radius 1.1
  Transforming core density to a uniform radial grid of dG=0.02 with 1625 points.
  Transforming local potential to a uniform radial grid of dG=0.02 with 1625 points.
  Transforming nonlocal projectors to a uniform radial grid of dG=0.02 with 432 points.
  Transforming density augmentations to a uniform radial grid of dG=0.02 with 1625 points.
  Transforming atomic orbitals to a uniform radial grid of dG=0.02 with 432 points.
  Core radius for overlap checks: 1.30 bohrs.

Reading pseudopotential file '/home/akim2/jdftx_install/build/pseudopotentials/GBRV/n_pbe.uspp':
  Title: N.  Created by USPP 7.3.6 on 3-2-2014
  Reference state energy: -9.763716.  5 valence electrons in orbitals:
    |200>  occupation: 2  eigenvalue: -0.681964
    |210>  occupation: 3  eigenvalue: -0.260726
  lMax: 1  lLocal: 2  QijEcut: 6
  4 projectors sampled on a log grid with 491 points:
    l: 0  eig: -0.681964  rCut: 1.15
    l: 0  eig: 0.000000  rCut: 1.15
    l: 1  eig: -0.260729  rCut: 1.2
    l: 1  eig: 0.500000  rCut: 1.2
  Partial core density with radius 0.8
  Transforming core density to a uniform radial grid of dG=0.02 with 1625 points.
  Transforming local potential to a uniform radial grid of dG=0.02 with 1625 points.
  Transforming nonlocal projectors to a uniform radial grid of dG=0.02 with 432 points.
  Transforming density augmentations to a uniform radial grid of dG=0.02 with 1625 points.
  Transforming atomic orbitals to a uniform radial grid of dG=0.02 with 432 points.
  Core radius for overlap checks: 1.20 bohrs.

Reading pseudopotential file '/home/akim2/jdftx_install/build/pseudopotentials/GBRV/fe_pbe.uspp':
  Title: Fe.  Created by USPP 7.3.6 on 15-6-15
  Reference state energy: -124.316937.  16 valence electrons in orbitals:
    |300>  occupation: 2  eigenvalue: -4.008817
    |310>  occupation: 6  eigenvalue: -2.753096
    |320>  occupation: 5  eigenvalue: -0.791264
    |400>  occupation: 2  eigenvalue: -0.516384
    |410>  occupation: 0  eigenvalue: -0.312222
  lMax: 2  lLocal: 3  QijEcut: 6
  6 projectors sampled on a log grid with 607 points:
    l: 0  eig: -4.008819  rCut: 1.55
    l: 0  eig: -0.516386  rCut: 1.55
    l: 1  eig: -2.753096  rCut: 1.55
    l: 1  eig: -0.312226  rCut: 1.55
    l: 2  eig: -0.791264  rCut: 1.65
    l: 2  eig: -0.450000  rCut: 1.65
  Partial core density with radius 0.65
  Transforming core density to a uniform radial grid of dG=0.02 with 1625 points.
  Transforming local potential to a uniform radial grid of dG=0.02 with 1625 points.
  Transforming nonlocal projectors to a uniform radial grid of dG=0.02 with 432 points.
  Transforming density augmentations to a uniform radial grid of dG=0.02 with 1625 points.
  Transforming atomic orbitals to a uniform radial grid of dG=0.02 with 432 points.
  Core radius for overlap checks: 1.65 bohrs.

Reading pseudopotential file '/home/akim2/jdftx_install/build/pseudopotentials/GBRV/s_pbe.uspp':
  Title: S.  Created by USPP 7.3.6 on 1-4-15
  Reference state energy: -11.898476.  6 valence electrons in orbitals:
    |300>  occupation: 2  eigenvalue: -0.634167
    |310>  occupation: 4  eigenvalue: -0.257568
  lMax: 2  lLocal: 3  QijEcut: 6
  6 projectors sampled on a log grid with 635 points:
    l: 0  eig: -0.634161  rCut: 1.5
    l: 0  eig: 1.500000  rCut: 1.5
    l: 1  eig: -0.257567  rCut: 1.5
    l: 1  eig: 1.500000  rCut: 1.5
    l: 2  eig: -1.000000  rCut: 1.5
    l: 2  eig: 1.500000  rCut: 1.5
  Partial core density with radius 1.15
  Transforming core density to a uniform radial grid of dG=0.02 with 1625 points.
  Transforming local potential to a uniform radial grid of dG=0.02 with 1625 points.
  Transforming nonlocal projectors to a uniform radial grid of dG=0.02 with 432 points.
  Transforming density augmentations to a uniform radial grid of dG=0.02 with 1625 points.
  Transforming atomic orbitals to a uniform radial grid of dG=0.02 with 432 points.
  Core radius for overlap checks: 1.50 bohrs.

Reading pseudopotential file '/home/akim2/jdftx_install/build/pseudopotentials/GBRV/na_pbe.uspp':
  Title: Na.  Created by USPP 7.3.6 on 23-9-15
  Reference state energy: -47.625620.  9 valence electrons in orbitals:
    |200>  occupation: 2  eigenvalue: -2.085638
    |210>  occupation: 6  eigenvalue: -1.053708
    |300>  occupation: 1  eigenvalue: -0.100838
  lMax: 2  lLocal: 0  QijEcut: 6
  5 projectors sampled on a log grid with 657 points:
    l: 0  eig: -2.085640  rCut: 1.37
    l: 0  eig: -0.100839  rCut: 1.37
    l: 1  eig: -1.053708  rCut: 1.47
    l: 1  eig: 0.500000  rCut: 1.47
    l: 2  eig: 0.750000  rCut: 2
  Transforming local potential to a uniform radial grid of dG=0.02 with 1625 points.
  Transforming nonlocal projectors to a uniform radial grid of dG=0.02 with 432 points.
  Transforming density augmentations to a uniform radial grid of dG=0.02 with 1625 points.
  Transforming atomic orbitals to a uniform radial grid of dG=0.02 with 432 points.
  Core radius for overlap checks: 2.00 bohrs.

Initialized 5 species with 77 total atoms.

Folded 1 k-points by 1x1x1 to 1 k-points.

---------- Setting up k-points, bands, fillings ----------
No reducable k-points. 
Computing the number of bands and number of electrons
Calculating initial fillings.
nElectrons: 342.000000   nBands: 319   nStates: 1

----- Setting up reduced wavefunction bases (one per k-point) -----
average nbasis = 109673.000 , ideal nbasis = 109671.883

---------- Setting up coulomb interaction ----------
Fluid mode embedding: using embedded box, but periodic Coulomb kernel.
(Fluid response is responsible for (approximate) separation between periodic images.)
Setting up double-sized grid for truncated Coulomb potentials:
R = 
[      28.0058     -14.0029            0  ]
[            0      24.2537            0  ]
[            0            0      75.5892  ]
unit cell volume = 51343.6
G =
[   0.224353    0.12953         -0  ]
[          0   0.259061          0  ]
[          0         -0  0.0831228  ]
Chosen fftbox size, S = [  128  128  360  ]
Integer grid location selected as the embedding center:
   Grid: [  0  0  10  ]
   Lattice: [  0  0  0.0529178  ]
   Cartesian: [  0  0  2.00001  ]
Constructing Wigner-Seitz cell: 8 faces (6 quadrilaterals, 2 hexagons)
Range-separation parameter for embedded mesh potentials due to point charges: 0.590105 bohrs.

Initializing DFT-D3 calculator:
	Parameters set for gga-PBE functional
	s6:  1.000  s_r6:  1.217
	s8:  0.722  s_r8:  1.000
	Per-atom parameters loaded for:
	 C:  sqrtQ[a0]:  3.105  Rcov[a0]:  1.417  CN: [ 0.00 0.99 2.00 3.00 3.98 ]
	 N:  sqrtQ[a0]:  2.712  Rcov[a0]:  1.342  CN: [ 0.00 0.99 2.01 2.99 ]
	Fe:  sqrtQ[a0]:  5.584  Rcov[a0]:  1.965  CN: [ 0.00 1.65 9.14 ]
	 S:  sqrtQ[a0]:  4.041  Rcov[a0]:  1.928  CN: [ 0.00 0.99 1.99 ]
	Na:  sqrtQ[a0]:  6.586  Rcov[a0]:  2.646  CN: [ 0.00 0.97 ]

---------- Setting up ewald sum ----------
Optimum gaussian width for ewald sums = 7.188811 bohr.
Real space sum over 405 unit cells with max indices [  4  4  2  ]
Reciprocal space sum over 7875 terms with max indices [  7  7  17  ]

Computing DFT-D3 correction:
# coordination-number C 3.300 3.300 3.303 3.300 3.300 3.289 3.302 3.300 3.313 3.301 3.300 3.309 3.301 3.300 3.272 3.298 3.300 3.287 3.481 3.300 3.300 3.300 3.378 3.300 3.695 3.288 3.338 3.302 3.911 3.571 3.301 4.057 3.330 3.300 3.300 3.300 3.300 3.291 3.300 3.300 3.281 3.301 3.300 3.300 3.300 3.301 3.304 3.300 3.316 3.277 3.289 3.300 3.298 3.481 3.300 3.329 3.300 3.875 3.555 3.300 3.921 3.302 3.310 3.459 3.304 3.730
# coordination-number N 3.224 3.192 3.178 3.268
# coordination-number Fe 6.048
# coordination-number S 3.074 3.182 3.368 2.956
# coordination-number Na 4.715 5.310
# diagonal-C6 C 24.28 24.29 24.26 24.28 24.28 24.38 24.27 24.28 24.16 24.27 24.29 24.20 24.27 24.28 24.53 24.30 24.28 24.40 21.92 24.29 24.28 24.28 23.41 24.28 19.35 24.39 23.89 24.26 18.44 20.64 24.27 18.28 23.98 24.28 24.28 24.28 24.29 24.36 24.28 24.28 24.46 24.27 24.28 24.28 24.28 24.27 24.25 24.29 24.12 24.49 24.39 24.28 24.30 21.93 24.28 23.99 24.28 18.52 20.85 24.28 18.43 24.26 24.19 22.26 24.25 19.10
# diagonal-C6 N 15.60 15.60 15.60 15.59
# diagonal-C6 Fe 109.50
# diagonal-C6 S 125.81 125.81 125.81 125.81
# diagonal-C6 Na 186.11 186.11
EvdW_6 =   -0.064676
EvdW_8 =   -0.059726

---------- Allocating electronic variables ----------
Initializing wave functions:  linear combination of atomic orbitals
C pseudo-atom occupations:   s ( 2 )  p ( 2 )
N pseudo-atom occupations:   s ( 2 )  p ( 3 )
Fe pseudo-atom occupations:   s ( 2 0 )  p ( 6 0 )  d ( 8 )
S pseudo-atom occupations:   s ( 2 )  p ( 4 )
Na pseudo-atom occupations:   s ( 2 1 )  p ( 6 )
	FillingsUpdate:  mu: -0.207847254  nElectrons: 342.000000
LCAOMinimize: Iter:   0  F: -656.8844098006954937  |grad|_K:  2.726e-02  alpha:  1.000e+00
	FillingsUpdate:  mu: -0.264405493  nElectrons: 342.000000
LCAOMinimize: Iter:   1  F: -662.7375887581266625  |grad|_K:  1.587e-02  alpha:  1.609e-01  linmin: -1.766e-01  cgtest:  6.621e-01  t[s]:     10.59
LCAOMinimize: Encountered beta<0, resetting CG.
	FillingsUpdate:  mu: -0.194396290  nElectrons: 342.000000
LCAOMinimize: Iter:   2  F: -671.7766646951545226  |grad|_K:  2.897e-02  alpha:  6.279e-02  linmin: -4.412e-01  cgtest:  1.820e-01  t[s]:     12.27
LCAOMinimize: 	Step increased F by 9.653920e+00, reducing alpha to 2.665763e-03.
	FillingsUpdate:  mu: -0.126442637  nElectrons: 342.000000
LCAOMinimize: Iter:   3  F: -672.2822467926266654  |grad|_K:  1.981e-02  alpha:  2.666e-03  linmin:  3.298e-01  cgtest: -6.790e-01  t[s]:     15.12
LCAOMinimize: 	Bad step direction: g.d > 0.
LCAOMinimize: 	Undoing step.
LCAOMinimize: 	Step failed: resetting search direction.
	FillingsUpdate:  mu: -0.126442637  nElectrons: 342.000000
LCAOMinimize: Iter:   4  F: -672.2822467926266654  |grad|_K:  1.981e-02  alpha:  0.000e+00
LCAOMinimize: 	Predicted alpha/alphaT>3.000000, increasing alphaT to 7.997288e-03.
LCAOMinimize: 	Predicted alpha/alphaT>3.000000, increasing alphaT to 2.399186e-02.
	FillingsUpdate:  mu: -0.186493509  nElectrons: 342.000000
LCAOMinimize: Iter:   5  F: -672.8115328855617463  |grad|_K:  9.485e-03  alpha:  2.660e-02  linmin:  3.782e-02  cgtest: -1.949e-02  t[s]:     18.87
LCAOMinimize: 	Predicted alpha/alphaT>3.000000, increasing alphaT to 7.978608e-02.
	FillingsUpdate:  mu: -0.180350010  nElectrons: 342.000000
LCAOMinimize: Iter:   6  F: -673.3750999892426989  |grad|_K:  5.727e-03  alpha:  1.342e-01  linmin:  2.062e-02  cgtest: -5.972e-01  t[s]:     21.01
	FillingsUpdate:  mu: -0.205782150  nElectrons: 342.000000
LCAOMinimize: Iter:   7  F: -673.4226776572531890  |grad|_K:  1.926e-03  alpha:  3.527e-02  linmin:  2.590e-02  cgtest:  5.238e-01  t[s]:     22.62
LCAOMinimize: Encountered beta<0, resetting CG.
LCAOMinimize: 	Predicted alpha/alphaT>3.000000, increasing alphaT to 1.058112e-01.
	FillingsUpdate:  mu: -0.235153092  nElectrons: 342.000000
LCAOMinimize: Iter:   8  F: -673.4489339463846136  |grad|_K:  2.815e-03  alpha:  1.414e-01  linmin:  1.117e-02  cgtest: -1.782e-01  t[s]:     24.77
	FillingsUpdate:  mu: -0.234806090  nElectrons: 342.000000
LCAOMinimize: Iter:   9  F: -673.4545560486186560  |grad|_K:  2.047e-03  alpha:  9.812e-03  linmin: -7.998e-02  cgtest:  9.831e-01  t[s]:     26.42
LCAOMinimize: Encountered beta<0, resetting CG.
	FillingsUpdate:  mu: -0.219277977  nElectrons: 342.000000
LCAOMinimize: Iter:  10  F: -673.4600024145522639  |grad|_K:  5.886e-04  alpha:  2.510e-02  linmin: -2.362e-02  cgtest:  6.671e-02  t[s]:     28.07
LCAOMinimize: 	Predicted alpha/alphaT>3.000000, increasing alphaT to 7.531243e-02.
LCAOMinimize: 	Predicted alpha/alphaT>3.000000, increasing alphaT to 2.259373e-01.
	FillingsUpdate:  mu: -0.218721503  nElectrons: 342.000000
LCAOMinimize: Iter:  11  F: -673.4645406233081530  |grad|_K:  4.470e-04  alpha:  2.500e-01  linmin: -1.030e-02  cgtest:  9.469e-03  t[s]:     30.66
	FillingsUpdate:  mu: -0.224062432  nElectrons: 342.000000
LCAOMinimize: Iter:  12  F: -673.4671154183306498  |grad|_K:  3.369e-04  alpha:  2.407e-01  linmin:  2.613e-03  cgtest: -6.034e-02  t[s]:     32.37
	FillingsUpdate:  mu: -0.218883946  nElectrons: 342.000000
LCAOMinimize: Iter:  13  F: -673.4673196023103401  |grad|_K:  2.288e-04  alpha:  3.567e-02  linmin: -4.303e-04  cgtest:  5.793e-02  t[s]:     34.11
LCAOMinimize: 	Predicted alpha/alphaT>3.000000, increasing alphaT to 1.070031e-01.
	FillingsUpdate:  mu: -0.220019624  nElectrons: 342.000000
LCAOMinimize: Iter:  14  F: -673.4679453571934573  |grad|_K:  6.571e-05  alpha:  2.313e-01  linmin: -6.305e-03  cgtest: -3.759e-02  t[s]:     36.29
	FillingsUpdate:  mu: -0.220800301  nElectrons: 342.000000
LCAOMinimize: Iter:  15  F: -673.4679863024063025  |grad|_K:  5.420e-05  alpha:  1.820e-01  linmin:  2.327e-04  cgtest: -1.627e-02  t[s]:     37.93
	FillingsUpdate:  mu: -0.219940525  nElectrons: 342.000000
LCAOMinimize: Iter:  16  F: -673.4679917357409522  |grad|_K:  3.415e-05  alpha:  3.622e-02  linmin:  2.738e-04  cgtest:  7.267e-03  t[s]:     39.59
LCAOMinimize: 	Predicted alpha/alphaT>3.000000, increasing alphaT to 1.086480e-01.
	FillingsUpdate:  mu: -0.220149379  nElectrons: 342.000000
LCAOMinimize: Iter:  17  F: -673.4680021640527912  |grad|_K:  1.339e-05  alpha:  1.747e-01  linmin: -9.509e-04  cgtest:  1.103e-02  t[s]:     41.71
	FillingsUpdate:  mu: -0.220436741  nElectrons: 342.000000
LCAOMinimize: Iter:  18  F: -673.4680046473093853  |grad|_K:  1.643e-05  alpha:  2.698e-01  linmin:  2.214e-05  cgtest: -2.265e-03  t[s]:     43.33
	FillingsUpdate:  mu: -0.220198069  nElectrons: 342.000000
LCAOMinimize: Iter:  19  F: -673.4680051060316828  |grad|_K:  8.166e-06  alpha:  3.320e-02  linmin: -3.230e-05  cgtest:  2.145e-03  t[s]:     44.98
LCAOMinimize: 	Predicted alpha/alphaT>3.000000, increasing alphaT to 9.959493e-02.
	FillingsUpdate:  mu: -0.220219652  nElectrons: 342.000000
LCAOMinimize: Iter:  20  F: -673.4680059675570192  |grad|_K:  3.904e-06  alpha:  2.521e-01  linmin: -3.123e-04  cgtest:  2.863e-03  t[s]:     47.10
LCAOMinimize: Converged (|Delta F|<1.000000e-06 for 2 iters).
----- createFluidSolver() ----- (Fluid-side solver setup)
   Initializing fluid molecule 'PC'
     Net charge: 0   dipole magnitude: 0
     Initializing spherical shell mfKernel with radius 0 Bohr
     deltaS corrections:

Correction to mu due to finite nuclear width = -0.00660906
   Cavity determined by nc: 0.00098 and sigma: 0.6
   Effective cavity tension: 9.53e-06 Eh/bohr^2 to account for cavitation and dispersion.


---- Citations for features of the code used in this run ----

   Software package:
      R. Sundararaman, K. Letchworth-Weaver, K.A. Schwarz, D. Gunceler, Y. Ozhabes and T.A. Arias, 'JDFTx: software for joint density-functional theory', SoftwareX 6, 278 (2017)

   gga-PBE exchange-correlation functional:
      J.P. Perdew, K. Burke and M. Ernzerhof, Phys. Rev. Lett. 77, 3865 (1996)

   Pseudopotentials:
      KF Garrity, JW Bennett, KM Rabe and D Vanderbilt, Comput. Mater. Sci. 81, 446 (2014)

   Truncated Coulomb potentials:
      R. Sundararaman and T.A. Arias, Phys. Rev. B 87, 165122 (2013)

   DFT-D3 dispersion correction:
      S. Grimme, J. Antony, S. Ehrlich and H. Krieg, J. Chem. Phys. 132, 154104 (2010)

   Linear/nonlinear dielectric/ionic fluid model with effective cavity tension:
      D. Gunceler, K. Letchworth-Weaver, R. Sundararaman, K.A. Schwarz and T.A. Arias, Modelling Simul. Mater. Sci. Eng. 21, 074005 (2013)

This list may not be complete. Please suggest additional citations or
report any other bugs at https://github.com/shankar1729/jdftx/issues

Initialization completed successfully at t[s]:     47.28


Computing DFT-D3 correction:
# coordination-number C 3.300 3.300 3.303 3.300 3.300 3.289 3.302 3.300 3.313 3.301 3.300 3.309 3.301 3.300 3.272 3.298 3.300 3.287 3.481 3.300 3.300 3.300 3.378 3.300 3.695 3.288 3.338 3.302 3.911 3.571 3.301 4.057 3.330 3.300 3.300 3.300 3.300 3.291 3.300 3.300 3.281 3.301 3.300 3.300 3.300 3.301 3.304 3.300 3.316 3.277 3.289 3.300 3.298 3.481 3.300 3.329 3.300 3.875 3.555 3.300 3.921 3.302 3.310 3.459 3.304 3.730
# coordination-number N 3.224 3.192 3.178 3.268
# coordination-number Fe 6.048
# coordination-number S 3.074 3.182 3.368 2.956
# coordination-number Na 4.715 5.310
# diagonal-C6 C 24.28 24.29 24.26 24.28 24.28 24.38 24.27 24.28 24.16 24.27 24.29 24.20 24.27 24.28 24.53 24.30 24.28 24.40 21.92 24.29 24.28 24.28 23.41 24.28 19.35 24.39 23.89 24.26 18.44 20.64 24.27 18.28 23.98 24.28 24.28 24.28 24.29 24.36 24.28 24.28 24.46 24.27 24.28 24.28 24.28 24.27 24.25 24.29 24.12 24.49 24.39 24.28 24.30 21.93 24.28 23.99 24.28 18.52 20.85 24.28 18.43 24.26 24.19 22.26 24.25 19.10
# diagonal-C6 N 15.60 15.60 15.60 15.59
# diagonal-C6 Fe 109.50
# diagonal-C6 S 125.81 125.81 125.81 125.81
# diagonal-C6 Na 186.11 186.11
EvdW_6 =   -0.064676
EvdW_8 =   -0.059726
Fluid solver invoked on fresh (random / LCAO) wavefunctions
Running a vacuum solve first:

-------- Initial electronic minimization -----------
Will mix electronic density at each iteration.
	FillingsUpdate:  mu: -0.220219652  nElectrons: 342.000000
	FillingsUpdate:  mu: -0.233115830  nElectrons: 342.000000
SCF: Cycle:  0   F: -676.965414156671159   dF: -3.497e+00   |Residual|: 9.815e-01   |deigs|: 1.184e-01  t[s]:     53.82
	FillingsUpdate:  mu: -0.219060210  nElectrons: 342.000000
SCF: Cycle:  1   F: -675.538189467887037   dF: +1.427e+00   |Residual|: 9.049e-01   |deigs|: 3.237e-02  t[s]:     57.22
	FillingsUpdate:  mu: -0.162601263  nElectrons: 342.000000
SCF: Cycle:  2   F: -668.156043202691990   dF: +7.382e+00   |Residual|: 1.846e+00   |deigs|: 3.261e-02  t[s]:     60.51
	FillingsUpdate:  mu: -0.182483623  nElectrons: 342.000000
SCF: Cycle:  3   F: -677.196694380835083   dF: -9.041e+00   |Residual|: 4.112e-01   |deigs|: 2.953e-02  t[s]:     63.89
	FillingsUpdate:  mu: -0.171179813  nElectrons: 342.000000
SCF: Cycle:  4   F: -677.783864290163478   dF: -5.872e-01   |Residual|: 1.894e-01   |deigs|: 9.036e-03  t[s]:     67.26
	FillingsUpdate:  mu: -0.167842688  nElectrons: 342.000000
SCF: Cycle:  5   F: -677.776097942499405   dF: +7.766e-03   |Residual|: 1.440e-01   |deigs|: 3.656e-03  t[s]:     70.69
	FillingsUpdate:  mu: -0.153972939  nElectrons: 342.000000
SCF: Cycle:  6   F: -677.823495105669735   dF: -4.740e-02   |Residual|: 1.446e-01   |deigs|: 9.819e-03  t[s]:     74.15
	FillingsUpdate:  mu: -0.152485208  nElectrons: 342.000000
SCF: Cycle:  7   F: -677.840148760237980   dF: -1.665e-02   |Residual|: 1.024e-01   |deigs|: 4.148e-03  t[s]:     77.49
	FillingsUpdate:  mu: -0.147334850  nElectrons: 342.000000
SCF: Cycle:  8   F: -677.865700746209654   dF: -2.555e-02   |Residual|: 3.689e-02   |deigs|: 3.715e-03  t[s]:     80.91
	FillingsUpdate:  mu: -0.144287504  nElectrons: 342.000000
SCF: Cycle:  9   F: -677.858640104384222   dF: +7.061e-03   |Residual|: 5.622e-02   |deigs|: 3.305e-03  t[s]:     83.89
	FillingsUpdate:  mu: -0.137787384  nElectrons: 342.000000
SCF: Cycle: 10   F: -677.869071254536948   dF: -1.043e-02   |Residual|: 1.762e-02   |deigs|: 5.628e-03  t[s]:     87.28
	FillingsUpdate:  mu: -0.132985786  nElectrons: 342.000000
SCF: Cycle: 11   F: -677.867704834952065   dF: +1.366e-03   |Residual|: 2.618e-02   |deigs|: 4.696e-03  t[s]:     90.45
	FillingsUpdate:  mu: -0.131277576  nElectrons: 342.000000
SCF: Cycle: 12   F: -677.868817920166293   dF: -1.113e-03   |Residual|: 2.362e-02   |deigs|: 2.258e-03  t[s]:     93.38
	FillingsUpdate:  mu: -0.127627435  nElectrons: 342.000000
SCF: Cycle: 13   F: -677.870312530331830   dF: -1.495e-03   |Residual|: 1.211e-02   |deigs|: 3.059e-03  t[s]:     96.34
	FillingsUpdate:  mu: -0.125760046  nElectrons: 342.000000
SCF: Cycle: 14   F: -677.870504161643339   dF: -1.916e-04   |Residual|: 1.106e-02   |deigs|: 1.696e-03  t[s]:     99.28
	FillingsUpdate:  mu: -0.122739697  nElectrons: 342.000000
SCF: Cycle: 15   F: -677.870872606179432   dF: -3.684e-04   |Residual|: 5.176e-03   |deigs|: 2.684e-03  t[s]:    102.18
	FillingsUpdate:  mu: -0.120704816  nElectrons: 342.000000
SCF: Cycle: 16   F: -677.870863321846400   dF: +9.284e-06   |Residual|: 6.279e-03   |deigs|: 1.838e-03  t[s]:    105.15
	FillingsUpdate:  mu: -0.117595438  nElectrons: 342.000000
SCF: Cycle: 17   F: -677.870892936897235   dF: -2.962e-05   |Residual|: 4.132e-03   |deigs|: 2.804e-03  t[s]:    108.06
	FillingsUpdate:  mu: -0.115740019  nElectrons: 342.000000
SCF: Cycle: 18   F: -677.870899946929512   dF: -7.010e-06   |Residual|: 3.455e-03   |deigs|: 1.973e-03  t[s]:    111.08
	FillingsUpdate:  mu: -0.114699245  nElectrons: 342.000000
SCF: Cycle: 19   F: -677.870908956177914   dF: -9.009e-06   |Residual|: 2.514e-03   |deigs|: 1.480e-03  t[s]:    114.08
	FillingsUpdate:  mu: -0.113388694  nElectrons: 342.000000
SCF: Cycle: 20   F: -677.870932531383232   dF: -2.358e-05   |Residual|: 1.475e-03   |deigs|: 1.815e-03  t[s]:    116.99
	FillingsUpdate:  mu: -0.112285613  nElectrons: 342.000000
SCF: Cycle: 21   F: -677.870946203112226   dF: -1.367e-05   |Residual|: 1.001e-03   |deigs|: 1.207e-03  t[s]:    119.91
	FillingsUpdate:  mu: -0.111897402  nElectrons: 342.000000
SCF: Cycle: 22   F: -677.870950187756762   dF: -3.985e-06   |Residual|: 1.218e-03   |deigs|: 4.526e-04  t[s]:    122.78
	FillingsUpdate:  mu: -0.111656995  nElectrons: 342.000000
SCF: Cycle: 23   F: -677.870952584421843   dF: -2.397e-06   |Residual|: 1.128e-03   |deigs|: 3.010e-04  t[s]:    125.70
	FillingsUpdate:  mu: -0.111436485  nElectrons: 342.000000
SCF: Cycle: 24   F: -677.870958883901153   dF: -6.299e-06   |Residual|: 7.871e-04   |deigs|: 6.599e-04  t[s]:    128.66
	FillingsUpdate:  mu: -0.111280635  nElectrons: 342.000000
SCF: Cycle: 25   F: -677.870961235257823   dF: -2.351e-06   |Residual|: 5.443e-04   |deigs|: 4.422e-04  t[s]:    131.56
	FillingsUpdate:  mu: -0.111251079  nElectrons: 342.000000
SCF: Cycle: 26   F: -677.870962076132514   dF: -8.409e-07   |Residual|: 5.376e-04   |deigs|: 2.436e-04  t[s]:    134.44
	FillingsUpdate:  mu: -0.111281995  nElectrons: 342.000000
SCF: Cycle: 27   F: -677.870964221392796   dF: -2.145e-06   |Residual|: 2.300e-04   |deigs|: 3.530e-04  t[s]:    137.36
	FillingsUpdate:  mu: -0.111314110  nElectrons: 342.000000
SCF: Cycle: 28   F: -677.870964982901455   dF: -7.615e-07   |Residual|: 1.804e-04   |deigs|: 2.678e-04  t[s]:    140.26
	FillingsUpdate:  mu: -0.111324238  nElectrons: 342.000000
SCF: Cycle: 29   F: -677.870965517600780   dF: -5.347e-07   |Residual|: 1.306e-04   |deigs|: 2.107e-04  t[s]:    143.18
	FillingsUpdate:  mu: -0.111315895  nElectrons: 342.000000
SCF: Cycle: 30   F: -677.870965787333375   dF: -2.697e-07   |Residual|: 9.825e-05   |deigs|: 1.658e-04  t[s]:    146.08
	FillingsUpdate:  mu: -0.111288669  nElectrons: 342.000000
SCF: Cycle: 31   F: -677.870965839927180   dF: -5.259e-08   |Residual|: 8.570e-05   |deigs|: 2.626e-04  t[s]:    148.94
	FillingsUpdate:  mu: -0.111258641  nElectrons: 342.000000
SCF: Cycle: 32   F: -677.870965857436317   dF: -1.751e-08   |Residual|: 8.507e-05   |deigs|: 2.128e-04  t[s]:    151.82
	FillingsUpdate:  mu: -0.111222390  nElectrons: 342.000000
SCF: Cycle: 33   F: -677.870965889030003   dF: -3.159e-08   |Residual|: 4.818e-05   |deigs|: 2.058e-04  t[s]:    154.77
	FillingsUpdate:  mu: -0.111202865  nElectrons: 342.000000
SCF: Cycle: 34   F: -677.870965892575327   dF: -3.545e-09   |Residual|: 4.553e-05   |deigs|: 1.659e-04  t[s]:    157.68
	FillingsUpdate:  mu: -0.111188106  nElectrons: 342.000000
SCF: Cycle: 35   F: -677.870965902756097   dF: -1.018e-08   |Residual|: 2.887e-05   |deigs|: 1.388e-04  t[s]:    160.58
	FillingsUpdate:  mu: -0.111179038  nElectrons: 342.000000
SCF: Cycle: 36   F: -677.870965900893452   dF: +1.863e-09   |Residual|: 4.029e-05   |deigs|: 1.119e-04  t[s]:    163.48
	FillingsUpdate:  mu: -0.111173967  nElectrons: 342.000000
SCF: Cycle: 37   F: -677.870965907009690   dF: -6.116e-09   |Residual|: 2.420e-05   |deigs|: 3.458e-05  t[s]:    166.44
	FillingsUpdate:  mu: -0.111165116  nElectrons: 342.000000
SCF: Cycle: 38   F: -677.870965910126642   dF: -3.117e-09   |Residual|: 1.818e-05   |deigs|: 9.909e-05  t[s]:    169.43
SCF: Converged (|Delta E|<1.000000e-08 for 2 iters).

Setting wave functions to eigenvectors of Hamiltonian
Vacuum energy after initial minimize, F = -677.870965910126642


-------- Electronic minimization -----------
Will mix electronic density at each iteration.
	FillingsUpdate:  mu: -0.111165116  nElectrons: 342.000000
	Linear fluid (dielectric constant: 64) occupying 0.886466 of unit cell:	Completed after 43 iterations at t[s]:    170.62
	FillingsUpdate:  mu: -0.098896496  nElectrons: 342.000000
	Linear fluid (dielectric constant: 64) occupying 0.886141 of unit cell:	Completed after 35 iterations at t[s]:    175.00
SCF: Cycle:  0   F: -677.955337991584770   dF: -7.269e-04   |Residual|: 1.010e-01   |deigs|: 1.929e-03  t[s]:    175.17
	Linear fluid (dielectric constant: 64) occupying 0.886546 of unit cell:	Completed after 33 iterations at t[s]:    175.68
	FillingsUpdate:  mu: -0.107232548  nElectrons: 342.000000
	Linear fluid (dielectric constant: 64) occupying 0.886286 of unit cell:	Completed after 38 iterations at t[s]:    179.59
SCF: Cycle:  1   F: -677.296334874884110   dF: +6.590e-01   |Residual|: 5.265e-01   |deigs|: 7.175e-03  t[s]:    179.77
	Linear fluid (dielectric constant: 64) occupying 0.886502 of unit cell:	Completed after 37 iterations at t[s]:    180.30
	FillingsUpdate:  mu: -0.100196856  nElectrons: 342.000000
	Linear fluid (dielectric constant: 64) occupying 0.886179 of unit cell:	Completed after 32 iterations at t[s]:    184.13
SCF: Cycle:  2   F: -677.989800386591469   dF: -6.935e-01   |Residual|: 3.304e-02   |deigs|: 6.313e-03  t[s]:    184.31
	Linear fluid (dielectric constant: 64) occupying 0.886422 of unit cell:	Completed after 30 iterations at t[s]:    184.76
	FillingsUpdate:  mu: -0.099407565  nElectrons: 342.000000
	Linear fluid (dielectric constant: 64) occupying 0.886193 of unit cell:	Completed after 32 iterations at t[s]:    188.59
SCF: Cycle:  3   F: -677.985293223270105   dF: +4.507e-03   |Residual|: 5.431e-02   |deigs|: 1.152e-03  t[s]:    188.77
	Linear fluid (dielectric constant: 64) occupying 0.886317 of unit cell:	Completed after 29 iterations at t[s]:    189.22
	FillingsUpdate:  mu: -0.100015539  nElectrons: 342.000000
	Linear fluid (dielectric constant: 64) occupying 0.886217 of unit cell:	Completed after 28 iterations at t[s]:    193.06
SCF: Cycle:  4   F: -677.994137269457269   dF: -8.844e-03   |Residual|: 1.585e-02   |deigs|: 9.565e-04  t[s]:    193.24
	Linear fluid (dielectric constant: 64) occupying 0.886166 of unit cell:	Completed after 24 iterations at t[s]:    193.64
	FillingsUpdate:  mu: -0.099177395  nElectrons: 342.000000
	Linear fluid (dielectric constant: 64) occupying 0.886196 of unit cell:	Completed after 27 iterations at t[s]:    198.71
SCF: Cycle:  5   F: -677.992315413142478   dF: +1.822e-03   |Residual|: 3.171e-02   |deigs|: 1.166e-03  t[s]:    198.89
	Linear fluid (dielectric constant: 64) occupying 0.886093 of unit cell:	Completed after 23 iterations at t[s]:    199.29
	FillingsUpdate:  mu: -0.099366461  nElectrons: 342.000000
	Linear fluid (dielectric constant: 64) occupying 0.886185 of unit cell:	Completed after 23 iterations at t[s]:    215.76
SCF: Cycle:  6   F: -677.995524350277833   dF: -3.209e-03   |Residual|: 1.028e-02   |deigs|: 7.622e-04  t[s]:    215.93
	Linear fluid (dielectric constant: 64) occupying 0.886012 of unit cell:	Completed after 22 iterations at t[s]:    216.30
	FillingsUpdate:  mu: -0.099072307  nElectrons: 342.000000
	Linear fluid (dielectric constant: 64) occupying 0.886160 of unit cell:	Completed after 22 iterations at t[s]:    220.04
SCF: Cycle:  7   F: -677.995858790287230   dF: -3.344e-04   |Residual|: 1.091e-02   |deigs|: 6.970e-04  t[s]:    220.21
	Linear fluid (dielectric constant: 64) occupying 0.885926 of unit cell:	Completed after 22 iterations at t[s]:    220.59
	FillingsUpdate:  mu: -0.099069173  nElectrons: 342.000000
	Linear fluid (dielectric constant: 64) occupying 0.886158 of unit cell:	Completed after 20 iterations at t[s]:    224.24
SCF: Cycle:  8   F: -677.996276131005288   dF: -4.173e-04   |Residual|: 9.834e-03   |deigs|: 6.152e-04  t[s]:    224.41
	Linear fluid (dielectric constant: 64) occupying 0.885923 of unit cell:	Completed after 18 iterations at t[s]:    224.75
	FillingsUpdate:  mu: -0.099129922  nElectrons: 342.000000
	Linear fluid (dielectric constant: 64) occupying 0.886171 of unit cell:	Completed after 18 iterations at t[s]:    228.45
SCF: Cycle:  9   F: -677.996628129001579   dF: -3.520e-04   |Residual|: 8.466e-03   |deigs|: 6.407e-04  t[s]:    228.62
	Linear fluid (dielectric constant: 64) occupying 0.885965 of unit cell:	Completed after 16 iterations at t[s]:    228.93
	FillingsUpdate:  mu: -0.099022276  nElectrons: 342.000000
	Linear fluid (dielectric constant: 64) occupying 0.886182 of unit cell:	Completed after 22 iterations at t[s]:    232.66
SCF: Cycle: 10   F: -677.996813798260519   dF: -1.857e-04   |Residual|: 1.160e-02   |deigs|: 4.641e-04  t[s]:    232.83
	Linear fluid (dielectric constant: 64) occupying 0.886031 of unit cell:	Completed after 16 iterations at t[s]:    233.15
	FillingsUpdate:  mu: -0.099012382  nElectrons: 342.000000
	Linear fluid (dielectric constant: 64) occupying 0.886192 of unit cell:	Completed after 22 iterations at t[s]:    236.84
SCF: Cycle: 11   F: -677.997282854225091   dF: -4.691e-04   |Residual|: 7.196e-03   |deigs|: 3.582e-04  t[s]:    237.01
	Linear fluid (dielectric constant: 64) occupying 0.886116 of unit cell:	Completed after 20 iterations at t[s]:    237.37
	FillingsUpdate:  mu: -0.098759197  nElectrons: 342.000000
	Linear fluid (dielectric constant: 64) occupying 0.886195 of unit cell:	Completed after 20 iterations at t[s]:    241.01
SCF: Cycle: 12   F: -677.997298908109428   dF: -1.605e-05   |Residual|: 1.044e-02   |deigs|: 3.818e-04  t[s]:    241.19
	Linear fluid (dielectric constant: 64) occupying 0.886180 of unit cell:	Completed after 21 iterations at t[s]:    241.55
	FillingsUpdate:  mu: -0.098606056  nElectrons: 342.000000
	Linear fluid (dielectric constant: 64) occupying 0.886203 of unit cell:	Completed after 18 iterations at t[s]:    245.26
SCF: Cycle: 13   F: -677.997579475436623   dF: -2.806e-04   |Residual|: 1.157e-02   |deigs|: 5.229e-04  t[s]:    245.43
	Linear fluid (dielectric constant: 64) occupying 0.886218 of unit cell:	Completed after 28 iterations at t[s]:    245.87
	FillingsUpdate:  mu: -0.098310826  nElectrons: 342.000000
	Linear fluid (dielectric constant: 64) occupying 0.886204 of unit cell:	Completed after 29 iterations at t[s]:    249.67
SCF: Cycle: 14   F: -677.997953061088424   dF: -3.736e-04   |Residual|: 1.776e-02   |deigs|: 4.988e-04  t[s]:    249.84
	Linear fluid (dielectric constant: 64) occupying 0.886199 of unit cell:	Completed after 29 iterations at t[s]:    250.31
	FillingsUpdate:  mu: -0.098406400  nElectrons: 342.000000
	Linear fluid (dielectric constant: 64) occupying 0.886200 of unit cell:	Completed after 23 iterations at t[s]:    254.08
SCF: Cycle: 15   F: -677.997162907564643   dF: +7.902e-04   |Residual|: 1.908e-02   |deigs|: 2.705e-04  t[s]:    254.25
	Linear fluid (dielectric constant: 64) occupying 0.886198 of unit cell:	Completed after 23 iterations at t[s]:    254.68
	FillingsUpdate:  mu: -0.098465229  nElectrons: 342.000000
	Linear fluid (dielectric constant: 64) occupying 0.886202 of unit cell:	Completed after 19 iterations at t[s]:    258.33
SCF: Cycle: 16   F: -677.996897257190085   dF: +2.657e-04   |Residual|: 1.943e-02   |deigs|: 9.836e-05  t[s]:    258.51
	Linear fluid (dielectric constant: 64) occupying 0.886196 of unit cell:	Completed after 19 iterations at t[s]:    258.86
	FillingsUpdate:  mu: -0.098458165  nElectrons: 342.000000
	Linear fluid (dielectric constant: 64) occupying 0.886204 of unit cell:	Completed after 21 iterations at t[s]:    262.56
SCF: Cycle: 17   F: -677.997069053745690   dF: -1.718e-04   |Residual|: 1.894e-02   |deigs|: 5.714e-05  t[s]:    262.73
	Linear fluid (dielectric constant: 64) occupying 0.886194 of unit cell:	Completed after 18 iterations at t[s]:    263.08
	FillingsUpdate:  mu: -0.098377763  nElectrons: 342.000000
	Linear fluid (dielectric constant: 64) occupying 0.886202 of unit cell:	Completed after 24 iterations at t[s]:    266.84
SCF: Cycle: 18   F: -677.996969035892221   dF: +1.000e-04   |Residual|: 2.136e-02   |deigs|: 9.010e-05  t[s]:    267.01
	Linear fluid (dielectric constant: 64) occupying 0.886196 of unit cell:	Completed after 23 iterations at t[s]:    267.41
	FillingsUpdate:  mu: -0.098457578  nElectrons: 342.000000
	Linear fluid (dielectric constant: 64) occupying 0.886199 of unit cell:	Completed after 22 iterations at t[s]:    271.20
SCF: Cycle: 19   F: -677.996152425161881   dF: +8.166e-04   |Residual|: 2.379e-02   |deigs|: 2.130e-04  t[s]:    271.37
	Linear fluid (dielectric constant: 64) occupying 0.886196 of unit cell:	Completed after 24 iterations at t[s]:    271.77
	FillingsUpdate:  mu: -0.098283416  nElectrons: 342.000000
	Linear fluid (dielectric constant: 64) occupying 0.886201 of unit cell:	Completed after 23 iterations at t[s]:    275.47
SCF: Cycle: 20   F: -677.995870255598334   dF: +2.822e-04   |Residual|: 2.857e-02   |deigs|: 1.553e-04  t[s]:    275.64
	Linear fluid (dielectric constant: 64) occupying 0.886196 of unit cell:	Completed after 23 iterations at t[s]:    276.04
	FillingsUpdate:  mu: -0.098303705  nElectrons: 342.000000
	Linear fluid (dielectric constant: 64) occupying 0.886200 of unit cell:	Completed after 22 iterations at t[s]:    279.30
SCF: Cycle: 21   F: -677.995830630821388   dF: +3.962e-05   |Residual|: 2.810e-02   |deigs|: 2.945e-05  t[s]:    279.47
	Linear fluid (dielectric constant: 64) occupying 0.886196 of unit cell:	Completed after 21 iterations at t[s]:    279.86
	FillingsUpdate:  mu: -0.098427093  nElectrons: 342.000000
	Linear fluid (dielectric constant: 64) occupying 0.886204 of unit cell:	Completed after 20 iterations at t[s]:    283.07
SCF: Cycle: 22   F: -677.996965303178627   dF: -1.135e-03   |Residual|: 1.999e-02   |deigs|: 1.824e-04  t[s]:    283.24
	Linear fluid (dielectric constant: 64) occupying 0.886178 of unit cell:	Completed after 20 iterations at t[s]:    283.62
	FillingsUpdate:  mu: -0.098310936  nElectrons: 342.000000
	Linear fluid (dielectric constant: 64) occupying 0.886202 of unit cell:	Completed after 22 iterations at t[s]:    286.83
SCF: Cycle: 23   F: -677.996411954780910   dF: +5.533e-04   |Residual|: 2.483e-02   |deigs|: 5.344e-04  t[s]:    287.00
	Linear fluid (dielectric constant: 64) occupying 0.886179 of unit cell:	Completed after 20 iterations at t[s]:    287.36
	FillingsUpdate:  mu: -0.098268352  nElectrons: 342.000000
	Linear fluid (dielectric constant: 64) occupying 0.886203 of unit cell:	Completed after 22 iterations at t[s]:    290.65
SCF: Cycle: 24   F: -677.996256298533808   dF: +1.557e-04   |Residual|: 2.623e-02   |deigs|: 1.587e-04  t[s]:    290.82
	Linear fluid (dielectric constant: 64) occupying 0.886184 of unit cell:	Completed after 20 iterations at t[s]:    291.21
	FillingsUpdate:  mu: -0.098265121  nElectrons: 342.000000
	Linear fluid (dielectric constant: 64) occupying 0.886205 of unit cell:	Completed after 24 iterations at t[s]:    294.47
SCF: Cycle: 25   F: -677.996512595365516   dF: -2.563e-04   |Residual|: 2.523e-02   |deigs|: 1.201e-04  t[s]:    294.64
	Linear fluid (dielectric constant: 64) occupying 0.886170 of unit cell:	Completed after 23 iterations at t[s]:    295.04
	FillingsUpdate:  mu: -0.098269252  nElectrons: 342.000000
	Linear fluid (dielectric constant: 64) occupying 0.886201 of unit cell:	Completed after 22 iterations at t[s]:    298.26
SCF: Cycle: 26   F: -677.996370318716458   dF: +1.423e-04   |Residual|: 2.539e-02   |deigs|: 3.440e-04  t[s]:    298.43
	Linear fluid (dielectric constant: 64) occupying 0.886160 of unit cell:	Completed after 22 iterations at t[s]:    298.80
	FillingsUpdate:  mu: -0.098331274  nElectrons: 342.000000
	Linear fluid (dielectric constant: 64) occupying 0.886201 of unit cell:	Completed after 20 iterations at t[s]:    302.04
SCF: Cycle: 27   F: -677.996554466692260   dF: -1.841e-04   |Residual|: 2.326e-02   |deigs|: 2.669e-04  t[s]:    302.21
	Linear fluid (dielectric constant: 64) occupying 0.886126 of unit cell:	Completed after 20 iterations at t[s]:    302.59
	FillingsUpdate:  mu: -0.098412792  nElectrons: 342.000000
	Linear fluid (dielectric constant: 64) occupying 0.886198 of unit cell:	Completed after 20 iterations at t[s]:    306.31
SCF: Cycle: 28   F: -677.996728776586792   dF: -1.743e-04   |Residual|: 2.045e-02   |deigs|: 7.456e-04  t[s]:    306.48
	Linear fluid (dielectric constant: 64) occupying 0.886121 of unit cell:	Completed after 21 iterations at t[s]:    306.85
	FillingsUpdate:  mu: -0.098473852  nElectrons: 342.000000
	Linear fluid (dielectric constant: 64) occupying 0.886197 of unit cell:	Completed after 22 iterations at t[s]:    310.53
SCF: Cycle: 29   F: -677.996629211257186   dF: +9.957e-05   |Residual|: 2.040e-02   |deigs|: 2.270e-04  t[s]:    310.70
	Linear fluid (dielectric constant: 64) occupying 0.886111 of unit cell:	Completed after 27 iterations at t[s]:    311.15
	FillingsUpdate:  mu: -0.098433382  nElectrons: 342.000000
	Linear fluid (dielectric constant: 64) occupying 0.886189 of unit cell:	Completed after 27 iterations at t[s]:    314.89
SCF: Cycle: 30   F: -677.995022772549078   dF: +1.606e-03   |Residual|: 3.076e-02   |deigs|: 1.943e-04  t[s]:    315.06
	Linear fluid (dielectric constant: 64) occupying 0.886165 of unit cell:	Completed after 27 iterations at t[s]:    315.50
	FillingsUpdate:  mu: -0.098367980  nElectrons: 342.000000
	Linear fluid (dielectric constant: 64) occupying 0.886203 of unit cell:	Completed after 27 iterations at t[s]:    319.28
SCF: Cycle: 31   F: -677.997334371113993   dF: -2.312e-03   |Residual|: 1.903e-02   |deigs|: 5.284e-04  t[s]:    319.46
	Linear fluid (dielectric constant: 64) occupying 0.886179 of unit cell:	Completed after 31 iterations at t[s]:    319.95
	FillingsUpdate:  mu: -0.097813315  nElectrons: 342.000000
	Linear fluid (dielectric constant: 64) occupying 0.886192 of unit cell:	Completed after 31 iterations at t[s]:    323.76
SCF: Cycle: 32   F: -677.995346647553333   dF: +1.988e-03   |Residual|: 3.763e-02   |deigs|: 4.121e-04  t[s]:    323.93
	Linear fluid (dielectric constant: 64) occupying 0.886172 of unit cell:	Completed after 31 iterations at t[s]:    324.43
	FillingsUpdate:  mu: -0.097714212  nElectrons: 342.000000
	Linear fluid (dielectric constant: 64) occupying 0.886189 of unit cell:	Completed after 31 iterations at t[s]:    327.74
SCF: Cycle: 33   F: -677.993605058737216   dF: +1.742e-03   |Residual|: 4.500e-02   |deigs|: 1.221e-04  t[s]:    327.92
	Linear fluid (dielectric constant: 64) occupying 0.886174 of unit cell:	Completed after 31 iterations at t[s]:    328.40
	FillingsUpdate:  mu: -0.097699059  nElectrons: 342.000000
	Linear fluid (dielectric constant: 64) occupying 0.886188 of unit cell:	Completed after 31 iterations at t[s]:    331.72
SCF: Cycle: 34   F: -677.994053767838864   dF: -4.487e-04   |Residual|: 4.319e-02   |deigs|: 7.289e-05  t[s]:    331.90
	Linear fluid (dielectric constant: 64) occupying 0.886187 of unit cell:	Completed after 31 iterations at t[s]:    332.39
	FillingsUpdate:  mu: -0.097930647  nElectrons: 342.000000
	Linear fluid (dielectric constant: 64) occupying 0.886196 of unit cell:	Completed after 31 iterations at t[s]:    335.74
SCF: Cycle: 35   F: -677.996840328563167   dF: -2.787e-03   |Residual|: 2.977e-02   |deigs|: 2.042e-04  t[s]:    335.91
	Linear fluid (dielectric constant: 64) occupying 0.886185 of unit cell:	Completed after 30 iterations at t[s]:    336.38
	FillingsUpdate:  mu: -0.097924003  nElectrons: 342.000000
	Linear fluid (dielectric constant: 64) occupying 0.886195 of unit cell:	Completed after 31 iterations at t[s]:    339.13
SCF: Cycle: 36   F: -677.996628936988145   dF: +2.114e-04   |Residual|: 3.093e-02   |deigs|: 5.371e-05  t[s]:    339.30
	Linear fluid (dielectric constant: 64) occupying 0.886192 of unit cell:	Completed after 30 iterations at t[s]:    339.76
	FillingsUpdate:  mu: -0.097873485  nElectrons: 342.000000
	Linear fluid (dielectric constant: 64) occupying 0.886193 of unit cell:	Completed after 31 iterations at t[s]:    343.06
SCF: Cycle: 37   F: -677.996196684268966   dF: +4.323e-04   |Residual|: 3.298e-02   |deigs|: 6.599e-05  t[s]:    343.23
	Linear fluid (dielectric constant: 64) occupying 0.886193 of unit cell:	Completed after 31 iterations at t[s]:    343.71
	FillingsUpdate:  mu: -0.097968398  nElectrons: 342.000000
	Linear fluid (dielectric constant: 64) occupying 0.886196 of unit cell:	Completed after 31 iterations at t[s]:    347.07
SCF: Cycle: 38   F: -677.996729757016965   dF: -5.331e-04   |Residual|: 2.970e-02   |deigs|: 6.567e-05  t[s]:    347.24
	Linear fluid (dielectric constant: 64) occupying 0.886190 of unit cell:	Completed after 31 iterations at t[s]:    347.73
	FillingsUpdate:  mu: -0.098138873  nElectrons: 342.000000
	Linear fluid (dielectric constant: 64) occupying 0.886200 of unit cell:	Completed after 30 iterations at t[s]:    351.52
SCF: Cycle: 39   F: -677.997693177816132   dF: -9.634e-04   |Residual|: 2.262e-02   |deigs|: 1.504e-04  t[s]:    351.68
	Linear fluid (dielectric constant: 64) occupying 0.886174 of unit cell:	Completed after 29 iterations at t[s]:    352.16
	FillingsUpdate:  mu: -0.098270705  nElectrons: 342.000000
	Linear fluid (dielectric constant: 64) occupying 0.886203 of unit cell:	Completed after 29 iterations at t[s]:    355.48
SCF: Cycle: 40   F: -677.998632927023891   dF: -9.397e-04   |Residual|: 1.428e-02   |deigs|: 1.877e-04  t[s]:    355.65
	Linear fluid (dielectric constant: 64) occupying 0.886159 of unit cell:	Completed after 27 iterations at t[s]:    356.10
	FillingsUpdate:  mu: -0.098603756  nElectrons: 342.000000
	Linear fluid (dielectric constant: 64) occupying 0.886211 of unit cell:	Completed after 31 iterations at t[s]:    359.47
SCF: Cycle: 41   F: -677.999000748335789   dF: -3.678e-04   |Residual|: 7.724e-03   |deigs|: 2.858e-04  t[s]:    359.64
	Linear fluid (dielectric constant: 64) occupying 0.886160 of unit cell:	Completed after 23 iterations at t[s]:    360.03
	FillingsUpdate:  mu: -0.098266373  nElectrons: 342.000000
	Linear fluid (dielectric constant: 64) occupying 0.886201 of unit cell:	Completed after 23 iterations at t[s]:    363.70
SCF: Cycle: 42   F: -677.999320797679161   dF: -3.200e-04   |Residual|: 3.413e-03   |deigs|: 3.994e-04  t[s]:    363.87
	Linear fluid (dielectric constant: 64) occupying 0.886151 of unit cell:	Completed after 20 iterations at t[s]:    364.25
	FillingsUpdate:  mu: -0.098234950  nElectrons: 342.000000
	Linear fluid (dielectric constant: 64) occupying 0.886200 of unit cell:	Completed after 22 iterations at t[s]:    367.46
SCF: Cycle: 43   F: -677.999330408482251   dF: -9.611e-06   |Residual|: 3.496e-03   |deigs|: 7.450e-05  t[s]:    367.65
	Linear fluid (dielectric constant: 64) occupying 0.886151 of unit cell:	Completed after 23 iterations at t[s]:    368.04
	FillingsUpdate:  mu: -0.098260498  nElectrons: 342.000000
	Linear fluid (dielectric constant: 64) occupying 0.886201 of unit cell:	Completed after 23 iterations at t[s]:    370.72
SCF: Cycle: 44   F: -677.999334097543397   dF: -3.689e-06   |Residual|: 3.471e-03   |deigs|: 1.834e-05  t[s]:    370.89
	Linear fluid (dielectric constant: 64) occupying 0.886156 of unit cell:	Completed after 22 iterations at t[s]:    371.27
	FillingsUpdate:  mu: -0.098289246  nElectrons: 342.000000
	Linear fluid (dielectric constant: 64) occupying 0.886203 of unit cell:	Completed after 24 iterations at t[s]:    374.55
SCF: Cycle: 45   F: -677.999359081963007   dF: -2.498e-05   |Residual|: 1.659e-03   |deigs|: 5.519e-05  t[s]:    374.72
	Linear fluid (dielectric constant: 64) occupying 0.886178 of unit cell:	Completed after 27 iterations at t[s]:    375.17
	FillingsUpdate:  mu: -0.098066623  nElectrons: 342.000000
	Linear fluid (dielectric constant: 64) occupying 0.886195 of unit cell:	Completed after 25 iterations at t[s]:    378.84
SCF: Cycle: 46   F: -677.999272433114015   dF: +8.665e-05   |Residual|: 3.955e-03   |deigs|: 2.432e-04  t[s]:    379.01
	Linear fluid (dielectric constant: 64) occupying 0.886176 of unit cell:	Completed after 28 iterations at t[s]:    379.44
	FillingsUpdate:  mu: -0.097967726  nElectrons: 342.000000
	Linear fluid (dielectric constant: 64) occupying 0.886190 of unit cell:	Completed after 28 iterations at t[s]:    383.10
SCF: Cycle: 47   F: -677.999070357712526   dF: +2.021e-04   |Residual|: 7.949e-03   |deigs|: 2.524e-04  t[s]:    383.27
	Linear fluid (dielectric constant: 64) occupying 0.886180 of unit cell:	Completed after 28 iterations at t[s]:    383.72
	FillingsUpdate:  mu: -0.097947430  nElectrons: 342.000000
	Linear fluid (dielectric constant: 64) occupying 0.886189 of unit cell:	Completed after 29 iterations at t[s]:    387.09
SCF: Cycle: 48   F: -677.998980971883952   dF: +8.939e-05   |Residual|: 9.429e-03   |deigs|: 1.731e-04  t[s]:    387.26
	Linear fluid (dielectric constant: 64) occupying 0.886195 of unit cell:	Completed after 31 iterations at t[s]:    387.74
	FillingsUpdate:  mu: -0.097836423  nElectrons: 342.000000
	Linear fluid (dielectric constant: 64) occupying 0.886184 of unit cell:	Completed after 31 iterations at t[s]:    391.56
SCF: Cycle: 49   F: -677.998546437760865   dF: +4.345e-04   |Residual|: 1.375e-02   |deigs|: 2.747e-04  t[s]:    391.73
	Linear fluid (dielectric constant: 64) occupying 0.886187 of unit cell:	Completed after 31 iterations at t[s]:    392.21
Setting wave functions to eigenvectors of Hamiltonian
Single-point solvation energy estimate, DeltaF = -0.259681652628956

Computing DFT-D3 correction:
# coordination-number C 3.300 3.300 3.303 3.300 3.300 3.289 3.302 3.300 3.313 3.301 3.300 3.309 3.301 3.300 3.272 3.298 3.300 3.287 3.481 3.300 3.300 3.300 3.378 3.300 3.695 3.288 3.338 3.302 3.911 3.571 3.301 4.057 3.330 3.300 3.300 3.300 3.300 3.291 3.300 3.300 3.281 3.301 3.300 3.300 3.300 3.301 3.304 3.300 3.316 3.277 3.289 3.300 3.298 3.481 3.300 3.329 3.300 3.875 3.555 3.300 3.921 3.302 3.310 3.459 3.304 3.730
# coordination-number N 3.224 3.192 3.178 3.268
# coordination-number Fe 6.048
# coordination-number S 3.074 3.182 3.368 2.956
# coordination-number Na 4.715 5.310
# diagonal-C6 C 24.28 24.29 24.26 24.28 24.28 24.38 24.27 24.28 24.16 24.27 24.29 24.20 24.27 24.28 24.53 24.30 24.28 24.40 21.92 24.29 24.28 24.28 23.41 24.28 19.35 24.39 23.89 24.26 18.44 20.64 24.27 18.28 23.98 24.28 24.28 24.28 24.29 24.36 24.28 24.28 24.46 24.27 24.28 24.28 24.28 24.27 24.25 24.29 24.12 24.49 24.39 24.28 24.30 21.93 24.28 23.99 24.28 18.52 20.85 24.28 18.43 24.26 24.19 22.26 24.25 19.10
# diagonal-C6 N 15.60 15.60 15.60 15.59
# diagonal-C6 Fe 109.50
# diagonal-C6 S 125.81 125.81 125.81 125.81
# diagonal-C6 Na 186.11 186.11
EvdW_6 =   -0.064676
EvdW_8 =   -0.059726

# Ionic positions in cartesian coordinates:
ion C   0.000000000000000   0.000000000000000   1.000007321400000 0
ion C  -2.333835447300000   4.042302545699999   1.000007321400000 0
ion C  11.669120544600000  20.211531625799999   1.000007321400000 0
ion C   4.667689791900001   0.000000000000000   1.000007321400000 0
ion C  23.338297781100000   0.000000000000000   1.000007321400000 0
ion C   2.333816549999999   4.042302545699999   1.000007321400000 0
ion C -11.669158339200004  20.211531625799999   1.000007321400000 0
ion C  -4.667670894600000   8.084623988700001   1.000007321400000 0
ion C   9.335303994599997  16.169229080099999   1.000007321400000 0
ion C   9.335322891900001   0.000000000000000   1.000007321400000 0
ion C  18.670626886499999   0.000000000000000   1.000007321400000 0
ion C  -9.335322891900001  16.169229080099999   1.000007321400000 0
ion C  -7.001487444600000  12.126907637100000   1.000007321400000 0
ion C  14.002993786499999   0.000000000000000   1.000007321400000 0
ion C   0.000000000000000   8.084623988700001   1.000007321400000 0
ion C   7.001487444599997  20.211531625799999   1.000007321400000 0
ion C  -7.001487444600005  20.211531625799999   1.000007321400000 0
ion C  -2.333816549999999  12.126907637100000   1.000007321400000 0
ion C   4.667670894600002  16.169229080099999   1.000007321400000 0
ion C  -2.333816550000000  20.211531625799999   1.000007321400000 0
ion C   2.333816550000000  20.211531625799999   1.000007321400000 0
ion C  -4.667651997299996  16.169229080099999   1.000007321400000 0
ion C   7.001487444600000   4.042302545699999   1.000007321400000 0
ion C  21.004424539199999   4.042302545699999   1.000007321400000 0
ion C  14.002955991899999  16.169229080099999   1.000007321400000 0
ion C   0.000000000000000  16.169229080099999   1.000007321400000 0
ion C  11.669120544600000   4.042302545699999   1.000007321400000 0
ion C  18.670607989199997   8.084623988700001   1.000007321400000 0
ion C  11.669120544599998  12.126907637100000   1.000007321400000 0
ion C  16.336791439199999  12.126907637100000   1.000007321400000 0
ion C  16.336791439199999   4.042302545699999   1.000007321400000 0
ion C   9.335303994599997   8.084623988700001   1.000007321400000 0
ion C  14.002955991899999   8.084623988700001   1.000007321400000 0
ion C   0.000000000000000   2.694868363800000   1.000007321400000 0
ion C  11.669120544600000  22.906399989600001   1.000007321400000 0
ion C -11.669120544600000  22.906399989600001   1.000007321400000 0
ion C  -2.333816550000000   6.737170909500000   1.000007321400000 0
ion C   9.335303994599995  18.864097443900000   1.000007321400000 0
ion C  -7.001487444600000  22.906399989600001   1.000007321400000 0
ion C   7.001487444600000  22.906399989600001   1.000007321400000 0
ion C   2.333816550000000   6.737170909500000   1.000007321400000 0
ion C  -9.335303994599998  18.864097443900000   1.000007321400000 0
ion C  -4.667670894599997  10.779473455200000   1.000007321400000 0
ion C  -2.333816550000000  22.906399989600001   1.000007321400000 0
ion C   2.333816550000000  22.906399989600001   1.000007321400000 0
ion C  -7.001487444600004  14.821794898200000   1.000007321400000 0
ion C   4.667670894600000   2.694868363800000   1.000007321400000 0
ion C  23.338259986499999   2.694868363800000   1.000007321400000 0
ion C  14.002974889199999  18.864097443900000   1.000007321400000 0
ion C   0.000000000000000  10.779473455200000   1.000007321400000 0
ion C   4.667670894600001  18.864097443900000   1.000007321400000 0
ion C  -4.667633100000004  18.864097443900000   1.000007321400000 0
ion C  -2.333816550000003  14.821794898200000   1.000007321400000 0
ion C   2.333816549999995  14.821794898200000   1.000007321400000 0
ion C  -0.000000000000005  18.864097443900000   1.000007321400000 0
ion C   9.335303994599998   2.694868363800000   1.000007321400000 0
ion C  21.004424539199999   6.737170909500000   1.000007321400000 0
ion C  11.669120544600000  14.821794898200000   1.000007321400000 0
ion C  16.336791439199999  14.821794898200000   1.000007321400000 0
ion C  18.670607989199997   2.694868363800000   1.000007321400000 0
ion C   7.001487444600001   6.737170909500000   1.000007321400000 0
ion C  14.002955991899999   2.694868363800000   1.000007321400000 0
ion C  18.670607989200004  10.779473455200000   1.000007321400000 0
ion C  11.669120544599998   6.737170909500000   1.000007321400000 0
ion C  16.336791439199999   6.737170909500000   1.000007321400000 0
ion C  14.002955991899999  10.779473455200000   1.000007321400000 0
ion N   4.667670894599999   8.084623988700001   1.000007321400000 0
ion N   2.333816549999999  12.126907637100000   1.000007321400000 0
ion N   7.001487444599997  14.821794898200000   1.000007321400000 0
ion N   9.335303994599997  10.779473455200000   1.000007321400000 0
ion Fe   5.837111407799997  11.454314935499999   1.000007321400000 0
ion S   5.468204798104988  11.362534507786290   5.336785219362401 1
ion S   8.070808428515150  13.504650156018911   7.430805225604459 1
ion S   9.853203388601669  11.184101881026494  10.093829239225848 1
ion S  12.833201592618561   9.175275240526799   8.508169628990180 1
ion Na   8.687030711533254   7.230359205990412   6.209972494311719 1
ion Na  13.380327782281922  13.410495232840686   5.793200734643123 1

# Forces in Cartesian coordinates:
force C   0.003890329638306  -0.000094549801882   0.000009599324506 0
force C   0.000989643327944  -0.001172348569389   0.000009417055147 0
force C   0.003172971230584  -0.002051569760862   0.000110368260722 0
force C   0.001121943572819   0.002271859934126   0.000069453147727 0
force C   0.001832234126533  -0.000406395879431   0.000030563986882 0
force C   0.004940025325268   0.001476345187525   0.000222617839355 0
force C   0.000654901984242  -0.000702199509712   0.000109179223511 0
force C  -0.000679761427267   0.001479514862228   0.000011759176861 0
force C  -0.036648668718851  -0.016087098158304   0.000055693314921 0
force C  -0.000898252966697  -0.000054113902492   0.000103288491521 0
force C  -0.000723217691185  -0.000290815129486   0.000020692682502 0
force C  -0.000175986564762   0.000815961124741   0.000235094555119 0
force C   0.001941907292804   0.003295693431991   0.000061004752952 0
force C  -0.000343878116117  -0.000248731657001   0.000070341899216 0
force C   0.010158287854807   0.005722551216602   0.000078062364102 0
force C   0.002640653546696   0.001751300596622   0.000017617854189 0
force C   0.001428473492147   0.000569689849148  -0.000009477502915 0
force C   0.003807845569396   0.003857227090177   0.000274684443342 0
force C   0.032960630821013   0.007324823914063  -0.000060505697541 0
force C  -0.000300806153774  -0.000678248612838   0.000011344761722 0
force C  -0.002385389643578   0.000283021756173  -0.000086122613745 0
force C   0.002285903662548  -0.000277174609369   0.000013463986504 0
force C   0.005039979160108   0.004070973482527  -0.000990376029177 0
force C   0.001479435740376   0.000723060725678  -0.000004715192713 0
force C  -0.001305334582076  -0.000000521631190  -0.003394681381340 0
force C   0.006640345280333   0.001901617458670   0.000132025011832 0
force C  -0.000555494745564  -0.001667707691662  -0.000366892862156 0
force C   0.000886619589068   0.002027561542014   0.000167815074935 0
force C  -0.031817710240955  -0.023000344741012  -0.004174593295388 0
force C   0.000742646751620   0.003293785308476  -0.002966241635327 0
force C  -0.000863865523924  -0.000478583116424   0.000108589826484 0
force C   0.021853739368223   0.024187870484382  -0.004437584675173 0
force C   0.003037091064631   0.000723792414319  -0.000241140661182 0
force C  -0.003137708830348   0.002197355945572   0.000002102096590 0
force C  -0.003804195776778  -0.000008959171057   0.000025384307710 0
force C  -0.002115622436261   0.000323347267116   0.000065166101542 0
force C   0.002170820331439   0.001151308059842  -0.000070965069892 0
force C  -0.004951170374939  -0.001726857092057   0.000305433037322 0
force C   0.000591231886590   0.000557900289410   0.000040109237595 0
force C  -0.000843336916982  -0.002218213118590   0.000030670367454 0
force C   0.035498959934049   0.015835383849633   0.000471717891511 0
force C  -0.001582725151569  -0.000840958341108   0.000050744814826 0
force C   0.000123868210804  -0.003853172962334  -0.000001143613082 0
force C   0.000373971569887   0.000075821162541   0.000061624782709 0
force C   0.000898653559152  -0.000070480986935   0.000021067540410 0
force C  -0.000605998293422  -0.001803044630555   0.000096985889381 0
force C  -0.002513222856158  -0.001703395160745   0.000042560514242 0
force C  -0.000636705119292   0.000685191436835   0.000015935654670 0
force C  -0.001062680501752   0.001108521063608   0.000229053230023 0
force C   0.031960105766249   0.023168857616805   0.000234454696939 0
force C  -0.004970726893931  -0.004954260193734   0.000117086500528 0
force C   0.000531029218562   0.000370836574244   0.000004778627615 0
force C  -0.002835579553042  -0.001547750677262  -0.000068728177737 0
force C  -0.022861946702319  -0.025037526789899  -0.000336662282814 0
force C   0.000914764392458   0.002203530089711  -0.000107853716483 0
force C   0.001714825816400  -0.000312908738953  -0.000231334673856 0
force C   0.000241732028381  -0.000650611123549   0.000043079283121 0
force C  -0.010949607577486  -0.005289192638962  -0.004231296554722 0
force C   0.001310263362479  -0.000842652275760  -0.002555179610053 0
force C  -0.001176331499951  -0.000824579258664  -0.000000487075543 0
force C  -0.032840570679373  -0.006781814801595  -0.003729177740649 0
force C   0.000655591788025   0.000864571356228   0.000166757642416 0
force C  -0.001937373746898  -0.003517512477733   0.000225306209522 0
force C  -0.005714401752709  -0.002486359188878  -0.002542922350547 0
force C  -0.002913374186333   0.000535036678625   0.000222762385172 0
force C  -0.003085400422546  -0.004277661986461  -0.003869455226688 0
force N   0.024108155775406  -0.040361994871024  -0.007702218519021 0
force N  -0.024446386717469   0.041430623309607  -0.010150111225796 0
force N  -0.023355660857016   0.040100573372736  -0.008431997987633 0
force N   0.021235837598561  -0.039722993184094  -0.006858924487189 0
force Fe   0.005121452233154   0.001605846227277   0.017748089826442 0
force S  -0.005546793578332   0.006839786426219  -0.004925493959935 1
force S  -0.006899112727040  -0.001123369373434   0.000006611924206 1
force S   0.003046248600219  -0.000103152701583  -0.000958857931034 1
force S   0.002665521848521  -0.002553010997109   0.013702286491625 1
force Na  -0.006428614242627  -0.018267286768305   0.004755960130111 1
force Na   0.010477255101770   0.013142568371797   0.008384358941714 1

# Energy components:
   A_diel =       -0.2180952409243771
   Eewald =     5388.4396513944566323
       EH =     5930.6469775872801620
     Eloc =   -12062.2379775011631864
      Enl =      -59.1658893086151920
     EvdW =       -0.1244018764395322
      Exc =     -176.3002700252040711
 Exc_core =       10.4335678128360438
       KE =      290.4622988469713505
-------------------------------------
     Etot =     -678.0641383108013542
       TS =        0.0665092519542970
-------------------------------------
        F =     -678.1306475627555983

IonicMinimize: Iter:   0  F: -678.130647562755598  |grad|_K:  7.862e-03  alpha:  1.000e+00

#--- Lowdin population analysis ---
# oxidation-state C +0.033 +0.022 +0.026 +0.024 +0.027 +0.016 +0.026 +0.022 +0.137 +0.027 +0.027 +0.026 +0.033 +0.027 -0.005 +0.040 +0.033 +0.017 +0.120 +0.028 +0.023 +0.025 +0.024 +0.035 +0.035 +0.026 +0.021 +0.026 +0.115 +0.023 +0.027 +0.102 +0.037 +0.027 +0.034 +0.026 +0.041 +0.016 +0.026 +0.025 +0.137 +0.034 +0.028 +0.027 +0.028 +0.026 +0.038 +0.027 +0.021 +0.138 +0.025 +0.027 +0.040 +0.121 +0.023 +0.021 +0.027 -0.018 +0.018 +0.033 +0.112 +0.027 +0.033 +0.022 +0.025 +0.006
# oxidation-state N -0.132 -0.128 -0.127 -0.135
# oxidation-state Fe +0.257
# oxidation-state S -0.121 +0.000 +0.016 -0.578
# oxidation-state Na +0.857 +0.868


Computing DFT-D3 correction:
# coordination-number C 3.300 3.300 3.303 3.300 3.300 3.289 3.302 3.300 3.312 3.301 3.300 3.309 3.301 3.300 3.272 3.298 3.300 3.287 3.481 3.300 3.300 3.300 3.379 3.300 3.695 3.288 3.338 3.302 3.901 3.568 3.301 4.050 3.329 3.300 3.300 3.300 3.300 3.291 3.300 3.300 3.281 3.301 3.300 3.300 3.300 3.301 3.304 3.300 3.316 3.277 3.289 3.300 3.298 3.481 3.300 3.329 3.300 3.869 3.556 3.300 3.920 3.302 3.310 3.457 3.304 3.722
# coordination-number N 3.224 3.193 3.178 3.265
# coordination-number Fe 6.047
# coordination-number S 3.070 3.167 3.360 2.950
# coordination-number Na 4.672 5.261
# diagonal-C6 C 24.28 24.29 24.26 24.28 24.28 24.38 24.27 24.28 24.16 24.27 24.29 24.19 24.27 24.28 24.53 24.30 24.28 24.40 21.92 24.28 24.28 24.28 23.39 24.28 19.34 24.39 23.89 24.26 18.46 20.68 24.27 18.29 23.99 24.28 24.28 24.28 24.29 24.36 24.28 24.28 24.46 24.27 24.28 24.28 24.28 24.27 24.25 24.29 24.12 24.49 24.39 24.28 24.30 21.92 24.28 23.98 24.28 18.53 20.84 24.28 18.43 24.26 24.19 22.29 24.25 19.16
# diagonal-C6 N 15.60 15.60 15.60 15.59
# diagonal-C6 Fe 109.50
# diagonal-C6 S 125.81 125.81 125.81 125.81
# diagonal-C6 Na 186.11 186.11
EvdW_6 =   -0.064683
EvdW_8 =   -0.059741

-------- Electronic minimization -----------
Will mix electronic density at each iteration.
	FillingsUpdate:  mu: -0.097836423  nElectrons: 342.000000
	Linear fluid (dielectric constant: 64) occupying 0.886164 of unit cell:	Completed after 31 iterations at t[s]:    398.90
	FillingsUpdate:  mu: -0.102456787  nElectrons: 342.000000
	Linear fluid (dielectric constant: 64) occupying 0.886302 of unit cell:	Completed after 35 iterations at t[s]:    403.26
SCF: Cycle:  0   F: -677.751909253155873   dF: +2.477e-01   |Residual|: 3.046e-01   |deigs|: 6.404e-05  t[s]:    403.44
	Linear fluid (dielectric constant: 64) occupying 0.886018 of unit cell:	Completed after 52 iterations at t[s]:    404.15
	FillingsUpdate:  mu: -0.062773356  nElectrons: 342.000000
	Linear fluid (dielectric constant: 64) occupying 0.885430 of unit cell:	Completed after 51 iterations at t[s]:    408.23
SCF: Cycle:  1   F: -669.869279042083008   dF: +7.883e+00   |Residual|: 1.764e+00   |deigs|: 2.293e-02  t[s]:    408.40
	Linear fluid (dielectric constant: 64) occupying 0.886132 of unit cell:	Completed after 44 iterations at t[s]:    409.03
	FillingsUpdate:  mu: -0.098623351  nElectrons: 342.000000
	Linear fluid (dielectric constant: 64) occupying 0.886199 of unit cell:	Completed after 29 iterations at t[s]:    412.83
SCF: Cycle:  2   F: -677.998825003166075   dF: -8.130e+00   |Residual|: 4.619e-02   |deigs|: 1.930e-02  t[s]:    413.00
	Linear fluid (dielectric constant: 64) occupying 0.886129 of unit cell:	Completed after 29 iterations at t[s]:    413.45
	FillingsUpdate:  mu: -0.098505571  nElectrons: 342.000000
	Linear fluid (dielectric constant: 64) occupying 0.886195 of unit cell:	Completed after 23 iterations at t[s]:    417.18
SCF: Cycle:  3   F: -678.000067774819513   dF: -1.243e-03   |Residual|: 2.764e-02   |deigs|: 2.281e-04  t[s]:    417.34
	Linear fluid (dielectric constant: 64) occupying 0.886134 of unit cell:	Completed after 21 iterations at t[s]:    417.72
	FillingsUpdate:  mu: -0.098537771  nElectrons: 342.000000
	Linear fluid (dielectric constant: 64) occupying 0.886193 of unit cell:	Completed after 20 iterations at t[s]:    421.39
SCF: Cycle:  4   F: -678.000034583631418   dF: +3.319e-05   |Residual|: 1.352e-02   |deigs|: 2.012e-04  t[s]:    421.56
	Linear fluid (dielectric constant: 64) occupying 0.886145 of unit cell:	Completed after 19 iterations at t[s]:    421.90
	FillingsUpdate:  mu: -0.098372333  nElectrons: 342.000000
	Linear fluid (dielectric constant: 64) occupying 0.886187 of unit cell:	Completed after 16 iterations at t[s]:    425.04
SCF: Cycle:  5   F: -678.000426622908890   dF: -3.920e-04   |Residual|: 3.938e-03   |deigs|: 2.189e-04  t[s]:    425.21
	Linear fluid (dielectric constant: 64) occupying 0.886166 of unit cell:	Completed after 14 iterations at t[s]:    425.50
	FillingsUpdate:  mu: -0.098368199  nElectrons: 342.000000
	Linear fluid (dielectric constant: 64) occupying 0.886186 of unit cell:	Completed after 14 iterations at t[s]:    428.59
SCF: Cycle:  6   F: -678.000359513400326   dF: +6.711e-05   |Residual|: 8.989e-03   |deigs|: 2.837e-04  t[s]:    428.77
	Linear fluid (dielectric constant: 64) occupying 0.886177 of unit cell:	Completed after 14 iterations at t[s]:    429.04
	FillingsUpdate:  mu: -0.098288821  nElectrons: 342.000000
	Linear fluid (dielectric constant: 64) occupying 0.886184 of unit cell:	Completed after 12 iterations at t[s]:    431.51
SCF: Cycle:  7   F: -678.000478108458879   dF: -1.186e-04   |Residual|: 3.114e-03   |deigs|: 1.583e-04  t[s]:    431.69
	Linear fluid (dielectric constant: 64) occupying 0.886191 of unit cell:	Completed after 9 iterations at t[s]:    431.90
	FillingsUpdate:  mu: -0.098230628  nElectrons: 342.000000
	Linear fluid (dielectric constant: 64) occupying 0.886182 of unit cell:	Completed after 11 iterations at t[s]:    434.35
SCF: Cycle:  8   F: -678.000490866922860   dF: -1.276e-05   |Residual|: 2.152e-03   |deigs|: 2.063e-04  t[s]:    434.52
	Linear fluid (dielectric constant: 64) occupying 0.886200 of unit cell:	Completed after 5 iterations at t[s]:    434.69
	FillingsUpdate:  mu: -0.098309409  nElectrons: 342.000000
	Linear fluid (dielectric constant: 64) occupying 0.886184 of unit cell:	Completed after 12 iterations at t[s]:    437.12
SCF: Cycle:  9   F: -678.000467753256657   dF: +2.311e-05   |Residual|: 2.710e-03   |deigs|: 1.857e-04  t[s]:    437.30
	Linear fluid (dielectric constant: 64) occupying 0.886203 of unit cell:	Completed after 12 iterations at t[s]:    437.56
	FillingsUpdate:  mu: -0.098255363  nElectrons: 342.000000
	Linear fluid (dielectric constant: 64) occupying 0.886183 of unit cell:	Completed after 4 iterations at t[s]:    439.94
SCF: Cycle: 10   F: -678.000492635673709   dF: -2.488e-05   |Residual|: 1.548e-03   |deigs|: 8.645e-05  t[s]:    440.09
	Linear fluid (dielectric constant: 64) occupying 0.886199 of unit cell:	Completed after 5 iterations at t[s]:    440.26
	FillingsUpdate:  mu: -0.098239476  nElectrons: 342.000000
	Linear fluid (dielectric constant: 64) occupying 0.886182 of unit cell:	Completed after 9 iterations at t[s]:    442.68
SCF: Cycle: 11   F: -678.000489578096449   dF: +3.058e-06   |Residual|: 1.219e-03   |deigs|: 8.575e-05  t[s]:    442.85
	Linear fluid (dielectric constant: 64) occupying 0.886195 of unit cell:	Completed after 5 iterations at t[s]:    443.02
	FillingsUpdate:  mu: -0.098293563  nElectrons: 342.000000
	Linear fluid (dielectric constant: 64) occupying 0.886184 of unit cell:	Completed after 10 iterations at t[s]:    446.03
SCF: Cycle: 12   F: -678.000489129019684   dF: +4.491e-07   |Residual|: 1.384e-03   |deigs|: 6.813e-05  t[s]:    446.20
	Linear fluid (dielectric constant: 64) occupying 0.886190 of unit cell:	Completed after 6 iterations at t[s]:    446.38
	FillingsUpdate:  mu: -0.098225552  nElectrons: 342.000000
	Linear fluid (dielectric constant: 64) occupying 0.886182 of unit cell:	Completed after 12 iterations at t[s]:    449.49
SCF: Cycle: 13   F: -678.000476174548226   dF: +1.295e-05   |Residual|: 2.369e-03   |deigs|: 9.805e-05  t[s]:    449.67
	Linear fluid (dielectric constant: 64) occupying 0.886183 of unit cell:	Completed after 10 iterations at t[s]:    449.89
	FillingsUpdate:  mu: -0.098277416  nElectrons: 342.000000
	Linear fluid (dielectric constant: 64) occupying 0.886183 of unit cell:	Completed after 4 iterations at t[s]:    452.90
SCF: Cycle: 14   F: -678.000494320651910   dF: -1.815e-05   |Residual|: 7.480e-04   |deigs|: 1.699e-04  t[s]:    453.05
	Linear fluid (dielectric constant: 64) occupying 0.886180 of unit cell:	Completed after 4 iterations at t[s]:    453.20
	FillingsUpdate:  mu: -0.098275780  nElectrons: 342.000000
	Linear fluid (dielectric constant: 64) occupying 0.886183 of unit cell:	Completed after 3 iterations at t[s]:    455.58
SCF: Cycle: 15   F: -678.000495364052313   dF: -1.043e-06   |Residual|: 2.536e-04   |deigs|: 1.037e-04  t[s]:    455.73
	Linear fluid (dielectric constant: 64) occupying 0.886179 of unit cell:	Completed after 1 iterations at t[s]:    455.85
	FillingsUpdate:  mu: -0.098245816  nElectrons: 342.000000
	Linear fluid (dielectric constant: 64) occupying 0.886182 of unit cell:	Completed after 5 iterations at t[s]:    458.81
SCF: Cycle: 16   F: -678.000485348495999   dF: +1.002e-05   |Residual|: 1.975e-03   |deigs|: 1.594e-04  t[s]:    458.98
	Linear fluid (dielectric constant: 64) occupying 0.886180 of unit cell:	Completed after 4 iterations at t[s]:    459.14
	FillingsUpdate:  mu: -0.098293818  nElectrons: 342.000000
	Linear fluid (dielectric constant: 64) occupying 0.886183 of unit cell:	Completed after 9 iterations at t[s]:    461.58
SCF: Cycle: 17   F: -678.000487748375122   dF: -2.400e-06   |Residual|: 1.590e-03   |deigs|: 5.885e-05  t[s]:    461.76
	Linear fluid (dielectric constant: 64) occupying 0.886181 of unit cell:	Completed after 8 iterations at t[s]:    461.95
	FillingsUpdate:  mu: -0.098256372  nElectrons: 342.000000
	Linear fluid (dielectric constant: 64) occupying 0.886182 of unit cell:	Completed after 5 iterations at t[s]:    464.98
SCF: Cycle: 18   F: -678.000495248380957   dF: -7.500e-06   |Residual|: 2.739e-04   |deigs|: 1.339e-04  t[s]:    465.14
	Linear fluid (dielectric constant: 64) occupying 0.886182 of unit cell:	Completed after 2 iterations at t[s]:    465.27
	FillingsUpdate:  mu: -0.098316189  nElectrons: 342.000000
	Linear fluid (dielectric constant: 64) occupying 0.886183 of unit cell:	Completed after 12 iterations at t[s]:    467.68
SCF: Cycle: 19   F: -678.000466917893959   dF: +2.833e-05   |Residual|: 3.082e-03   |deigs|: 7.908e-05  t[s]:    467.86
	Linear fluid (dielectric constant: 64) occupying 0.886183 of unit cell:	Completed after 12 iterations at t[s]:    468.12
	FillingsUpdate:  mu: -0.098271597  nElectrons: 342.000000
[...]
	FillingsUpdate:  mu: -0.095285498  nElectrons: 342.000000
	SubspaceRotationAdjust: set factor to 0.222
ElecMinimize: Iter:   6  F: -678.067839241819115  |grad|_K:  2.121e-07  alpha:  6.893e-02  linmin:  2.665e-03  t[s]:  12503.21
	Linear fluid (dielectric constant: 64) occupying 0.884509 of unit cell:	Completed after 0 iterations at t[s]:  12503.95
	Linear fluid (dielectric constant: 64) occupying 0.884509 of unit cell:	Completed after 0 iterations at t[s]:  12504.68
ElecMinimize: 	Step increased F by 9.733981e-09, reducing alpha to 1.637397e-03.
	Linear fluid (dielectric constant: 64) occupying 0.884509 of unit cell:	Completed after 0 iterations at t[s]:  12506.24
ElecMinimize: 	Step increased F by 1.238925e-08, reducing alpha to 1.637397e-04.
	Linear fluid (dielectric constant: 64) occupying 0.884509 of unit cell:	Completed after 0 iterations at t[s]:  12507.80
ElecMinimize: 	Step increased F by 1.291914e-08, reducing alpha to 1.637397e-05.
ElecMinimize: 	Step failed to reduce F after 3 attempts. Quitting step.
ElecMinimize: 	Undoing step.
	Linear fluid (dielectric constant: 64) occupying 0.884509 of unit cell:	Completed after 0 iterations at t[s]:  12509.38
ElecMinimize: 	Step failed: resetting search direction.
	FillingsUpdate:  mu: -0.095288768  nElectrons: 342.000000
	SubspaceRotationAdjust: set factor to 0.283
ElecMinimize: Iter:   7  F: -678.067839228890421  |grad|_K:  1.995e-07  alpha:  1.637e-05
	Linear fluid (dielectric constant: 64) occupying 0.884509 of unit cell:	Completed after 0 iterations at t[s]:  12511.04
ElecMinimize: 	Predicted alpha/alphaT>3.000000, increasing alphaT to 2.067796e-01.
	Linear fluid (dielectric constant: 64) occupying 0.884509 of unit cell:	Completed after 2 iterations at t[s]:  12511.84
	Linear fluid (dielectric constant: 64) occupying 0.884509 of unit cell:	Completed after 0 iterations at t[s]:  12512.63
	FillingsUpdate:  mu: -0.095132553  nElectrons: 342.000000
	SubspaceRotationAdjust: set factor to 0.183
ElecMinimize: Iter:   8  F: -678.067839377498672  |grad|_K:  2.006e-07  alpha:  8.785e-02  linmin:  2.365e-02  t[s]:  12513.62
	Linear fluid (dielectric constant: 64) occupying 0.884509 of unit cell:	Completed after 0 iterations at t[s]:  12514.37
ElecMinimize: 	Predicted alpha/alphaT>3.000000, increasing alphaT to 2.635536e-01.
	Linear fluid (dielectric constant: 64) occupying 0.884509 of unit cell:	Completed after 1 iterations at t[s]:  12515.12
	Linear fluid (dielectric constant: 64) occupying 0.884509 of unit cell:	Completed after 0 iterations at t[s]:  12515.87
	FillingsUpdate:  mu: -0.095187561  nElectrons: 342.000000
	SubspaceRotationAdjust: set factor to 0.253
ElecMinimize: Iter:   9  F: -678.067839382262036  |grad|_K:  9.209e-08  alpha:  1.453e-01  linmin: -4.854e-03  t[s]:  12516.87
	Linear fluid (dielectric constant: 64) occupying 0.884509 of unit cell:	Completed after 1 iterations at t[s]:  12517.62
	Linear fluid (dielectric constant: 64) occupying 0.884509 of unit cell:	Completed after 0 iterations at t[s]:  12518.37
ElecMinimize: 	Step increased F by 2.013428e-08, reducing alpha to 7.431451e-03.
	Linear fluid (dielectric constant: 64) occupying 0.884509 of unit cell:	Completed after 0 iterations at t[s]:  12519.96
ElecMinimize: 	Step increased F by 4.120022e-08, reducing alpha to 7.431451e-04.
	Linear fluid (dielectric constant: 64) occupying 0.884509 of unit cell:	Completed after 0 iterations at t[s]:  12521.51
ElecMinimize: 	Step increased F by 4.331514e-08, reducing alpha to 7.431451e-05.
ElecMinimize: 	Step failed to reduce F after 3 attempts. Quitting step.
ElecMinimize: 	Undoing step.
	Linear fluid (dielectric constant: 64) occupying 0.884509 of unit cell:	Completed after 0 iterations at t[s]:  12523.08
ElecMinimize: 	Step failed: resetting search direction.
	FillingsUpdate:  mu: -0.095197525  nElectrons: 342.000000
	SubspaceRotationAdjust: set factor to 0.267
ElecMinimize: Iter:  10  F: -678.067839338918020  |grad|_K:  6.167e-08  alpha:  7.431e-05
	Linear fluid (dielectric constant: 64) occupying 0.884509 of unit cell:	Completed after 0 iterations at t[s]:  12524.77
ElecMinimize: 	Predicted alpha/alphaT>3.000000, increasing alphaT to 4.359423e-01.
	Linear fluid (dielectric constant: 64) occupying 0.884509 of unit cell:	Completed after 2 iterations at t[s]:  12525.55
	Linear fluid (dielectric constant: 64) occupying 0.884509 of unit cell:	Completed after 0 iterations at t[s]:  12526.34
	FillingsUpdate:  mu: -0.095267390  nElectrons: 342.000000
	SubspaceRotationAdjust: set factor to 0.227
ElecMinimize: Iter:  11  F: -678.067839389852566  |grad|_K:  1.463e-07  alpha:  1.188e-01  linmin:  1.269e-02  t[s]:  12527.33
ElecMinimize: 	Bad step direction: g.d > 0.
ElecMinimize: 	Undoing step.
	Linear fluid (dielectric constant: 64) occupying 0.884509 of unit cell:	Completed after 0 iterations at t[s]:  12528.07
ElecMinimize: 	Step failed: resetting search direction.
	FillingsUpdate:  mu: -0.095267390  nElectrons: 342.000000
	SubspaceRotationAdjust: set factor to 0.282
ElecMinimize: Iter:  12  F: -678.067839389849155  |grad|_K:  1.413e-07  alpha:  0.000e+00
	Linear fluid (dielectric constant: 64) occupying 0.884509 of unit cell:	Completed after 1 iterations at t[s]:  12529.79
	Linear fluid (dielectric constant: 64) occupying 0.884509 of unit cell:	Completed after 0 iterations at t[s]:  12530.55
ElecMinimize: 	Step increased F by 1.633271e-08, reducing alpha to 6.068315e-03.
	Linear fluid (dielectric constant: 64) occupying 0.884509 of unit cell:	Completed after 0 iterations at t[s]:  12532.11
ElecMinimize: 	Step increased F by 3.121227e-08, reducing alpha to 6.068315e-04.
	Linear fluid (dielectric constant: 64) occupying 0.884509 of unit cell:	Completed after 0 iterations at t[s]:  12533.67
ElecMinimize: 	Step increased F by 3.250864e-08, reducing alpha to 6.068315e-05.
ElecMinimize: 	Step failed to reduce F after 3 attempts. Quitting step.
ElecMinimize: 	Undoing step.
	Linear fluid (dielectric constant: 64) occupying 0.884509 of unit cell:	Completed after 0 iterations at t[s]:  12535.21
ElecMinimize: 	Step failed along negative gradient direction.
ElecMinimize: Probably at roundoff error limit. (Stopping)
Setting wave functions to eigenvectors of Hamiltonian

Computing DFT-D3 correction:
# coordination-number C 3.300 3.300 3.303 3.303 3.300 3.291 3.306 3.300 3.281 3.303 3.300 3.310 3.300 3.300 3.272 3.298 3.301 3.287 3.482 3.300 3.300 3.300 3.336 3.300 3.341 3.288 3.306 3.300 3.283 3.308 3.300 3.488 3.302 3.300 3.300 3.301 3.300 3.289 3.302 3.300 3.279 3.305 3.300 3.300 3.300 3.301 3.312 3.300 3.316 3.277 3.288 3.300 3.298 3.482 3.300 3.319 3.300 3.284 3.332 3.300 3.506 3.301 3.301 3.294 3.301 3.293
# coordination-number N 3.190 3.200 3.179 3.174
# coordination-number Fe 5.989
# coordination-number S 2.219 2.130 2.163 1.145
# coordination-number Na 0.347 0.343
# diagonal-C6 C 24.28 24.28 24.26 24.25 24.28 24.37 24.22 24.29 24.45 24.25 24.29 24.18 24.28 24.28 24.53 24.30 24.28 24.40 21.91 24.28 24.28 24.28 23.91 24.29 23.85 24.39 24.22 24.28 24.44 24.21 24.28 21.82 24.26 24.28 24.28 24.27 24.29 24.39 24.27 24.28 24.47 24.23 24.28 24.28 24.28 24.27 24.17 24.29 24.12 24.49 24.39 24.28 24.30 21.91 24.28 24.10 24.28 24.43 23.95 24.28 21.56 24.27 24.27 24.34 24.27 24.35
# diagonal-C6 N 15.60 15.60 15.60 15.60
# diagonal-C6 Fe 109.50
# diagonal-C6 S 125.83 125.84 125.84 130.70
# diagonal-C6 Na 1094.41 1103.65
EvdW_6 =   -0.069532
EvdW_8 =   -0.064470

# Ionic positions in cartesian coordinates:
ion C   0.000000000000000   0.000000000000000   1.000007321400000 0
ion C  -2.333835447300000   4.042302545699999   1.000007321400000 0
ion C  11.669120544600000  20.211531625799999   1.000007321400000 0
ion C   4.667689791900001   0.000000000000000   1.000007321400000 0
ion C  23.338297781100000   0.000000000000000   1.000007321400000 0
ion C   2.333816549999999   4.042302545699999   1.000007321400000 0
ion C -11.669158339200006  20.211531625799999   1.000007321400000 0
ion C  -4.667670894600000   8.084623988700001   1.000007321400000 0
ion C   9.335303994599997  16.169229080099999   1.000007321400000 0
ion C   9.335322891900001   0.000000000000000   1.000007321400000 0
ion C  18.670626886499999   0.000000000000000   1.000007321400000 0
ion C  -9.335322891900001  16.169229080099999   1.000007321400000 0
ion C  -7.001487444600000  12.126907637100000   1.000007321400000 0
ion C  14.002993786499999   0.000000000000000   1.000007321400000 0
ion C   0.000000000000000   8.084623988700001   1.000007321400000 0
ion C   7.001487444599997  20.211531625799999   1.000007321400000 0
ion C  -7.001487444600006  20.211531625799999   1.000007321400000 0
ion C  -2.333816549999999  12.126907637100000   1.000007321400000 0
ion C   4.667670894600002  16.169229080099999   1.000007321400000 0
ion C  -2.333816550000000  20.211531625799999   1.000007321400000 0
ion C   2.333816550000000  20.211531625799999   1.000007321400000 0
ion C  -4.667651997299995  16.169229080099999   1.000007321400000 0
ion C   7.001487444600000   4.042302545699999   1.000007321400000 0
ion C  21.004424539199999   4.042302545699999   1.000007321400000 0
ion C  14.002955991899999  16.169229080099999   1.000007321400000 0
ion C   0.000000000000000  16.169229080099999   1.000007321400000 0
ion C  11.669120544600000   4.042302545699999   1.000007321400000 0
ion C  18.670607989199997   8.084623988700001   1.000007321400000 0
ion C  11.669120544599998  12.126907637100000   1.000007321400000 0
ion C  16.336791439199999  12.126907637100000   1.000007321400000 0
ion C  16.336791439199999   4.042302545699999   1.000007321400000 0
ion C   9.335303994599997   8.084623988700001   1.000007321400000 0
ion C  14.002955991899999   8.084623988700001   1.000007321400000 0
ion C   0.000000000000000   2.694868363800000   1.000007321400000 0
ion C  11.669120544600000  22.906399989600001   1.000007321400000 0
ion C -11.669120544600000  22.906399989600001   1.000007321400000 0
ion C  -2.333816550000000   6.737170909500000   1.000007321400000 0
ion C   9.335303994599995  18.864097443900000   1.000007321400000 0
ion C  -7.001487444600000  22.906399989600001   1.000007321400000 0
ion C   7.001487444600000  22.906399989600001   1.000007321400000 0
ion C   2.333816550000000   6.737170909500000   1.000007321400000 0
ion C  -9.335303994599998  18.864097443900000   1.000007321400000 0
ion C  -4.667670894599997  10.779473455200000   1.000007321400000 0
ion C  -2.333816550000000  22.906399989600001   1.000007321400000 0
ion C   2.333816550000000  22.906399989600001   1.000007321400000 0
ion C  -7.001487444600004  14.821794898200000   1.000007321400000 0
ion C   4.667670894600000   2.694868363800000   1.000007321400000 0
ion C  23.338259986499999   2.694868363800000   1.000007321400000 0
ion C  14.002974889199999  18.864097443900000   1.000007321400000 0
ion C   0.000000000000000  10.779473455200000   1.000007321400000 0
ion C   4.667670894600001  18.864097443900000   1.000007321400000 0
ion C  -4.667633100000005  18.864097443900000   1.000007321400000 0
ion C  -2.333816550000003  14.821794898200000   1.000007321400000 0
ion C   2.333816549999993  14.821794898200000   1.000007321400000 0
ion C  -0.000000000000005  18.864097443900000   1.000007321400000 0
ion C   9.335303994599998   2.694868363800000   1.000007321400000 0
ion C  21.004424539199999   6.737170909500000   1.000007321400000 0
ion C  11.669120544600000  14.821794898200000   1.000007321400000 0
ion C  16.336791439199999  14.821794898200000   1.000007321400000 0
ion C  18.670607989199997   2.694868363800000   1.000007321400000 0
ion C   7.001487444600001   6.737170909500000   1.000007321400000 0
ion C  14.002955991899999   2.694868363800000   1.000007321400000 0
ion C  18.670607989200004  10.779473455200000   1.000007321400000 0
ion C  11.669120544599998   6.737170909500000   1.000007321400000 0
ion C  16.336791439199999   6.737170909500000   1.000007321400000 0
ion C  14.002955991899999  10.779473455200000   1.000007321400000 0
ion N   4.667670894599999   8.084623988700001   1.000007321400000 0
ion N   2.333816549999999  12.126907637100000   1.000007321400000 0
ion N   7.001487444599997  14.821794898200000   1.000007321400000 0
ion N   9.335303994599997  10.779473455200000   1.000007321400000 0
ion Fe   5.837111407799997  11.454314935499999   1.000007321400000 0
ion S   5.475727008674640  11.442029796621647   5.253740800842355 1
ion S   8.416535433803375  13.206838243843196   7.163213474994898 1
ion S  10.407986291265342  10.732116159308726   9.556418683261676 1
ion S  13.403234045806888   8.904076924467486   7.913809371112196 1
ion Na   7.290314262934460   4.561400151909570   7.639576462861888 1
ion Na  15.100094676582438  16.084814840285286   7.651214675272683 1

# Forces in Cartesian coordinates:
force C   0.003781235814380   0.000080846772307  -0.000015971632480 0
force C   0.000925491626874  -0.001068247192558   0.000001843006379 0
force C   0.003018671500254  -0.002108614307515   0.000083900555469 0
force C   0.000857312858286   0.002488551514056   0.000083781893963 0
force C   0.001921974264941  -0.000248711819969  -0.000001934727972 0
force C   0.004951311499646   0.001622265217438   0.000334749258565 0
force C   0.000552400037418  -0.000545187812359   0.000073282988021 0
force C  -0.000449062012718   0.001269248218575   0.000001440068895 0
force C  -0.036044439562398  -0.016362827429957   0.000321833417900 0
force C  -0.000817177971770   0.000093837458583   0.000049171714248 0
force C  -0.000657395836844  -0.000297108004924  -0.000010737868395 0
force C  -0.000231031686362   0.000757892449985   0.000046625671805 0
force C   0.001906499192717   0.003209004112103   0.000015265725189 0
force C  -0.000189548740316  -0.000007174628191   0.000005113482369 0
force C   0.010302912930262   0.005850703005784   0.000208951393789 0
force C   0.002627530061658   0.001892852008611   0.000048001586991 0
force C   0.001383235891260   0.000799003872616   0.000029656290054 0
force C   0.003875291588295   0.003494784046023   0.000343271965593 0
force C   0.032869555356513   0.007433695745483  -0.000041259840915 0
force C  -0.000321347977434  -0.000705750946253  -0.000026404174380 0
force C  -0.002090398058468   0.000296181356421  -0.000053004212605 0
force C   0.002551096285515  -0.000420537004786   0.000008391484292 0
force C   0.005129437625345   0.004932071643498  -0.000688627389050 0
force C   0.001543126245444   0.000929338583098  -0.000025445649267 0
force C  -0.002415993725304  -0.001419637577405  -0.000677510188970 0
force C   0.006896505385463   0.001874368429639   0.000188834342285 0
force C  -0.000761149623940  -0.001634120754818  -0.000023870742422 0
force C   0.000567548865584   0.001869263513791   0.000186036509947 0
force C  -0.032051371464751  -0.023605641047794   0.000416918363812 0
force C  -0.000717789069190   0.003351578878782  -0.000105037670120 0
force C  -0.000682160299450  -0.000295793249735   0.000165331073228 0
force C   0.023390763351584   0.025010622583992   0.000203616290618 0
force C   0.002795990513493   0.001574097277120  -0.000847551190533 0
force C  -0.002995169079723   0.002077287295049   0.000019515433357 0
force C  -0.003762181342750  -0.000074453924167  -0.000021852100762 0
force C  -0.001888275571263   0.000276156447476   0.000084010027379 0
force C   0.001950574891565   0.001192990514152  -0.000035621508122 0
force C  -0.004968185401235  -0.001869874228795   0.000359228360294 0
force C   0.000738437751211   0.000291501107002   0.000052546508655 0
force C  -0.000987344552344  -0.002477413050742  -0.000001292354270 0
force C   0.035833417253645   0.015997479717677   0.000453522810313 0
force C  -0.001520709915444  -0.000920490556464   0.000032178620608 0
force C   0.000317196351697  -0.003576748997318   0.000015642168762 0
force C   0.000185331053687   0.000052511791176   0.000026667546377 0
force C   0.000798447565786  -0.000144321605730  -0.000022310376135 0
force C  -0.000653216904170  -0.001827910039779   0.000061859319800 0
force C  -0.002639818446728  -0.001991549500076  -0.000062737047137 0
force C  -0.000561787060879   0.000583795501068  -0.000008947828675 0
force C  -0.000979599440679   0.001170877040392   0.000013306867505 0
force C   0.031774451446480   0.023154981629578   0.000250180716410 0
force C  -0.005141334191581  -0.004969382824606   0.000239427350331 0
force C   0.000632291834297   0.000378214900373  -0.000001926735276 0
force C  -0.002985030070699  -0.001286097690629  -0.000017049148171 0
force C  -0.023099886727966  -0.024089630922272  -0.000214662022069 0
force C   0.000817712250856   0.001959620913735  -0.000087156707035 0
force C   0.002189308088503  -0.000311648394960  -0.000153466023401 0
force C   0.000235630800922  -0.000753864638421   0.000005299881406 0
force C  -0.010236354794433  -0.006079549193189  -0.000200381584517 0
force C   0.000548046656671  -0.001501151834757  -0.000285279158029 0
force C  -0.001438979192732  -0.000816623515170  -0.000013882372405 0
force C  -0.032524432088594  -0.007490329217575  -0.000490029211355 0
force C   0.000293972565218   0.000777998838655   0.000164917702176 0
force C  -0.002033100857727  -0.003239612530648   0.000137147665630 0
force C  -0.006539429124077  -0.001624213577891  -0.000268943526776 0
force C  -0.003092785450602   0.000692819635316  -0.000088496393532 0
force C  -0.004181394697517  -0.003744863672766  -0.000470169832143 0
force N   0.023945621633037  -0.040778370091327  -0.008507339996011 0
force N  -0.024715605703996   0.040914861545283  -0.009854999489557 0
force N  -0.023464001456906   0.040187213726090  -0.009236825120807 0
force N   0.022610859086559  -0.040726066691879  -0.007169536642166 0
force Fe   0.003565734875726   0.000896772785174   0.022376962071974 0
force S   0.000387959784136   0.000106699584089  -0.000176184266357 1
force S  -0.000207127179930  -0.000243089360855   0.000056184747780 1
force S  -0.000138046699493   0.000081899368217  -0.000576931026250 1
force S   0.000098454067612   0.000026623093409   0.000198267547038 1
force Na  -0.000039492043028  -0.000052015289377   0.000011308992682 1
force Na   0.000108181023025   0.000046148130307  -0.000062203851360 1

# Energy components:
   A_diel =       -0.3392831529307735
   Eewald =     5314.9537482421137611
       EH =     5866.2146120943161804
     Eloc =   -11924.1975678085291293
      Enl =      -59.0656352754777032
     EvdW =       -0.1340019051430164
      Exc =     -176.2507871446466368
 Exc_core =       10.4335680046930861
       KE =      290.3845649471543311
-------------------------------------
     Etot =     -678.0007819984509752
       TS =        0.0670573588847656
-------------------------------------
        F =     -678.0678393573357425

IonicMinimize: Iter:  65  F: -678.067839357335743  |grad|_K:  2.012e-04  alpha:  1.152e+00  linmin:  6.195e-04  t[s]:  12539.23
IonicMinimize: Converged (|Delta F|<1.000000e-06 for 2 iters).

#--- Lowdin population analysis ---
# oxidation-state C +0.031 +0.020 +0.024 +0.021 +0.024 +0.013 +0.022 +0.020 +0.137 +0.024 +0.025 +0.022 +0.031 +0.025 -0.009 +0.038 +0.030 +0.015 +0.118 +0.026 +0.021 +0.023 +0.021 +0.033 +0.036 +0.024 +0.020 +0.024 +0.140 +0.024 +0.025 +0.118 +0.044 +0.025 +0.031 +0.023 +0.039 +0.014 +0.023 +0.023 +0.134 +0.030 +0.025 +0.025 +0.026 +0.023 +0.035 +0.025 +0.018 +0.136 +0.023 +0.024 +0.038 +0.117 +0.021 +0.019 +0.025 -0.008 +0.017 +0.031 +0.115 +0.025 +0.031 +0.025 +0.023 +0.020
# oxidation-state N -0.135 -0.134 -0.130 -0.128
# oxidation-state Fe +0.188
# oxidation-state S -0.090 -0.027 +0.002 -0.603
# oxidation-state Na +0.955 +0.962


Dumping 'Na2S4@FeN4-PC-vdw.fillings' ... done
Dumping 'Na2S4@FeN4-PC-vdw.wfns' ... done
Dumping 'Na2S4@FeN4-PC-vdw.fluidState' ... done
Dumping 'Na2S4@FeN4-PC-vdw.ionpos' ... done
Dumping 'Na2S4@FeN4-PC-vdw.eigenvals' ... done
End date and time: Thu Jan 16 22:44:53 2025  (Duration: 0-3:29:01.35)
Done!
