
*************** JDFTx 1.7.0  ***************

Start date and time: Wed Oct 16 06:58:23 2024
Executable jdftx_gpu with command-line: -i /home/akim2/JDFTx/Na2S8@TiO2-PC/Na2S8@TiO2-PC.in -o /home/akim2/JDFTx/Na2S8@TiO2-PC/Na2S8@TiO2-PC.out
Running on hosts (process indices):  exp-1-57 (0)
Divided in process groups (process indices):  0 (0)
gpuInit: Found compatible cuda device 0 'Tesla V100-SXM2-32GB'
gpuInit: Selected device 0
Resource initialization completed at t[s]:      0.37
Run totals: 1 processes, 1 threads, 1 GPUs


Input parsed successfully to the following command list (including defaults):

basis kpoint-dependent
coords-type Cartesian
core-overlap-check vector
coulomb-interaction Slab 001
coulomb-truncation-embed 0 0 1
davidson-band-ratio 1.1
dump End State
dump Ionic State
dump-interval Ionic 5
dump-name Na2S8@TiO2-PC.$VAR
elec-cutoff 20 100
elec-eigen-algo Davidson
elec-ex-corr gga-PBE
elec-smearing Fermi 0.01
electronic-minimize  \
	dirUpdateScheme      FletcherReeves \
	linminMethod         DirUpdateRecommended \
	nIterations          100 \
	history              15 \
	knormThreshold       0 \
	energyDiffThreshold  1e-08 \
	nEnergyDiff          2 \
	alphaTstart          1 \
	alphaTmin            1e-10 \
	updateTestStepSize   yes \
	alphaTreduceFactor   0.1 \
	alphaTincreaseFactor 3 \
	nAlphaAdjustMax      3 \
	wolfeEnergy          0.0001 \
	wolfeGradient        0.9 \
	fdTest               no
exchange-regularization WignerSeitzTruncated
fluid LinearPCM 298.000000 1.013250
fluid-ex-corr lda-TF lda-PZ
fluid-gummel-loop 10 1.000000e-05
fluid-minimize  \
	dirUpdateScheme      PolakRibiere \
	linminMethod         DirUpdateRecommended \
	nIterations          400 \
	history              15 \
	knormThreshold       1e-11 \
	energyDiffThreshold  0 \
	nEnergyDiff          2 \
	alphaTstart          1 \
	alphaTmin            1e-10 \
	updateTestStepSize   yes \
	alphaTreduceFactor   0.1 \
	alphaTincreaseFactor 3 \
	nAlphaAdjustMax      6 \
	wolfeEnergy          0.0001 \
	wolfeGradient        0.9 \
	fdTest               no
fluid-solvent PC 11.6429 ScalarEOS \
	epsBulk 64 \
	pMol 2.95 \
	epsInf 2.02 \
	Pvap 1.53277e-13 \
	sigmaBulk 2.88e-05 \
	Rvdw 0 \
	Res 0 \
	tauNuc 343133
forces-output-coords Positions
initial-state Na2S8@TiO2-PC.$VAR
ion Ti   0.000000174975000  -0.000000174975000   2.000000000000000 0
ion Ti   4.340445422775002   4.340445072825003   4.795024053800006 0
ion Ti   0.000000174975000   8.680909217925004   2.000000000000000 0
ion Ti   4.340445422775002  13.021354465725009   4.795024053800006 0
ion Ti   0.000000174975000  17.361818610825011   2.000000000000000 0
ion Ti   4.340445422775002  21.702263858625013   4.795024053800006 0
ion Ti   8.680909567875004  -0.000000174975000   2.000000000000000 0
ion Ti  13.021354815675011   4.340445072825003   4.795024053800006 0
ion Ti   8.680909567875004   8.680909217925004   2.000000000000000 0
ion Ti  13.021354815675011  13.021354465725009   4.795024053800006 0
ion Ti   8.680909567875004  17.361818610825011   2.000000000000000 0
ion Ti  13.021364264325012  21.702263858625013   4.795024053800006 0
ion Ti  17.361818960775011  -0.000000174975000   2.000000000000000 0
ion Ti  21.702264208575013   4.340445072825003   4.795024053800006 0
ion Ti  17.361818960775011   8.680909217925004   2.000000000000000 0
ion Ti  21.702264208575013  13.021363914375009   4.795024053800006 0
ion Ti  17.361818960775011  17.361818610825011   2.000000000000000 0
ion Ti  21.702264208575013  21.702263858625013   4.795024053800006 0
ion O   2.650289808075001   2.650289458125000   2.000000000000000 0
ion O   6.030619934775004   6.030619584825001   2.000000000000000 0
ion O   1.690174686975001   6.990734705925004   4.795024053800006 0
ion O   6.990735055875005   1.690174337025000   4.795024053800006 0
ion O   2.650289808075001  11.331198851025007   2.000000000000000 0
ion O   6.030619934775004  14.711528977725013   2.000000000000000 0
ion O   1.690174686975001  15.671644098825009   4.795024053800006 0
ion O   6.990735055875005  10.371083729925008   4.795024053800006 0
ion O   2.650289808075001  20.012108243925013   2.000000000000000 0
ion O   6.030619934775004  23.392438370625015   2.000000000000000 0
ion O   1.690174686975001  24.352553491725022   4.795024053800006 0
ion O   6.990735055875005  19.051993122825007   4.795024053800006 0
ion O  11.331199200975007   2.650289458125000   2.000000000000000 0
ion O  14.711529327675009   6.030619584825001   2.000000000000000 0
ion O  10.371084079875008   6.990734705925004   4.795024053800006 0
ion O  15.671644448775007   1.690174337025000   4.795024053800006 0
ion O  11.331199200975007  11.331198851025007   2.000000000000000 0
ion O  14.711529327675009  14.711528977725013   2.000000000000000 0
ion O  10.371084079875008  15.671644098825009   4.795024053800006 0
ion O  15.671644448775007  10.371083729925008   4.795024053800006 0
ion O  11.331199200975007  20.012108243925013   2.000000000000000 0
ion O  14.711529327675009  23.392438370625015   2.000000000000000 0
ion O  10.371084079875008  24.352553491725022   4.795024053800006 0
ion O  15.671644448775007  19.051993122825007   4.795024053800006 0
ion O  20.012108593875006   2.650289458125000   2.000000000000000 0
ion O  23.392438720575015   6.030619584825001   2.000000000000000 0
ion O  19.051993472775010   6.990734705925004   4.795024053800006 0
ion O  24.352553841675014   1.690174337025000   4.795024053800006 0
ion O  20.012108593875006  11.331198851025007   2.000000000000000 0
ion O  23.392438720575015  14.711528977725013   2.000000000000000 0
ion O  19.051993472775010  15.671644098825009   4.795024053800006 0
ion O  24.352553841675014  10.371083729925008   4.795024053800006 0
ion O  20.012108593875006  20.012108243925013   2.000000000000000 0
ion O  23.392438720575015  23.392438370625015   2.000000000000000 0
ion O  19.051993472775010  24.352553491725022   4.795024053800006 0
ion O  24.352553841675014  19.051993122825007   4.795024053800006 0
ion S   8.787778461898730   6.401358157535348  14.384361674229829 1
ion S  23.110445062356181  10.303313132903654  16.132222681692731 1
ion S  22.677340008081238  13.786179309289487  13.946095166653844 1
ion S  20.291958434769718  25.499114943584271  13.512546821029749 1
ion S  21.811081826108097  20.389943690283367   9.928414661925089 1
ion S  10.955566086186556  23.541204212624191  16.129079711806718 1
ion S  15.988016726799421  11.903355746666241  11.649249585002545 1
ion S   9.873170954443903  12.479522412604977  14.820868544737941 1
ion Na  17.919048412507831  18.162855214143836   7.975316056291141 1
ion Na  16.850027405290437   8.220702879967551   8.138515562635259 1
ion-species GBRV/$ID_pbe.uspp
ion-width Ecut
ionic-minimize  \
	dirUpdateScheme      FletcherReeves \
	linminMethod         DirUpdateRecommended \
	nIterations          400 \
	history              15 \
	knormThreshold       0.0001 \
	energyDiffThreshold  1e-06 \
	nEnergyDiff          2 \
	alphaTstart          1 \
	alphaTmin            1e-10 \
	updateTestStepSize   yes \
	alphaTreduceFactor   0.1 \
	alphaTincreaseFactor 3 \
	nAlphaAdjustMax      3 \
	wolfeEnergy          0.0001 \
	wolfeGradient        0.9 \
	fdTest               no
kpoint   0.000000000000   0.000000000000   0.000000000000  1.00000000000000
kpoint-folding 1 1 1 
latt-move-scale 1 1 1
latt-scale 1 1 1 
lattice Tetragonal 26.04 47
lattice-minimize  \
	dirUpdateScheme      L-BFGS \
	linminMethod         DirUpdateRecommended \
	nIterations          0 \
	history              15 \
	knormThreshold       0 \
	energyDiffThreshold  1e-06 \
	nEnergyDiff          2 \
	alphaTstart          1 \
	alphaTmin            1e-10 \
	updateTestStepSize   yes \
	alphaTreduceFactor   0.1 \
	alphaTincreaseFactor 3 \
	nAlphaAdjustMax      3 \
	wolfeEnergy          0.0001 \
	wolfeGradient        0.9 \
	fdTest               no
lcao-params -1 1e-06 0.01
pcm-variant GLSSA13
spintype no-spin
subspace-rotation-factor 1 yes
symmetries automatic
symmetry-threshold 0.0001



---------- Setting up symmetries ----------

Found 16 point-group symmetries of the bravais lattice
Found 1 space-group symmetries with basis
Applied RMS atom displacement 0 bohrs to make symmetries exact.

---------- Initializing the Grid ----------
R = 
[        26.04            0            0  ]
[            0        26.04            0  ]
[            0            0           47  ]
unit cell volume = 31869.8
G =
[    0.24129          0          0  ]
[          0    0.24129          0  ]
[          0          0   0.133685  ]
Minimum fftbox size, Smin = [  120  120  212  ]
Chosen fftbox size, S = [  120  120  216  ]

---------- Initializing tighter grid for wavefunction operations ----------
R = 
[        26.04            0            0  ]
[            0        26.04            0  ]
[            0            0           47  ]
unit cell volume = 31869.8
G =
[    0.24129          0          0  ]
[          0    0.24129          0  ]
[          0          0   0.133685  ]
Minimum fftbox size, Smin = [  108  108  192  ]
Chosen fftbox size, S = [  108  108  192  ]

---------- Exchange Correlation functional ----------
Initalized PBE GGA exchange.
Initalized PBE GGA correlation.

---------- Setting up pseudopotentials ----------
Width of ionic core gaussian charges (only for fluid interactions / plotting) set to 0.397384

Reading pseudopotential file '/home/akim2/jdftx_install/build/pseudopotentials/GBRV/ti_pbe.uspp':
  Title: Ti.  Created by USPP 7.3.6 on 31-3-15
  Reference state energy: -59.020943.  12 valence electrons in orbitals:
    |300>  occupation: 2  eigenvalue: -2.777623
    |310>  occupation: 6  eigenvalue: -1.894596
    |400>  occupation: 2  eigenvalue: -0.438610
    |320>  occupation: 1  eigenvalue: -0.583119
  lMax: 2  lLocal: 3  QijEcut: 6
  6 projectors sampled on a log grid with 597 points:
    l: 0  eig: -2.777624  rCut: 1.8
    l: 0  eig: -0.438611  rCut: 1.8
    l: 1  eig: -1.894596  rCut: 1.8
    l: 1  eig: 0.500000  rCut: 1.8
    l: 2  eig: -0.583118  rCut: 1.8
    l: 2  eig: 0.150000  rCut: 1.8
  Partial core density with radius 0.8
  Transforming core density to a uniform radial grid of dG=0.02 with 1258 points.
  Transforming local potential to a uniform radial grid of dG=0.02 with 1258 points.
  Transforming nonlocal projectors to a uniform radial grid of dG=0.02 with 432 points.
  Transforming density augmentations to a uniform radial grid of dG=0.02 with 1258 points.
  Transforming atomic orbitals to a uniform radial grid of dG=0.02 with 432 points.
  Core radius for overlap checks: 1.80 bohrs.

Reading pseudopotential file '/home/akim2/jdftx_install/build/pseudopotentials/GBRV/o_pbe.uspp':
  Title: O.  Created by USPP 7.3.6 on 3-2-2014
  Reference state energy: -15.894388.  6 valence electrons in orbitals:
    |200>  occupation: 2  eigenvalue: -0.878823
    |210>  occupation: 4  eigenvalue: -0.332131
  lMax: 2  lLocal: 2  QijEcut: 6
  5 projectors sampled on a log grid with 511 points:
    l: 0  eig: -0.878823  rCut: 1.25
    l: 0  eig: 0.000000  rCut: 1.25
    l: 1  eig: -0.332132  rCut: 1.25
    l: 1  eig: 0.000000  rCut: 1.25
    l: 2  eig: 1.000000  rCut: 1.25
  Partial core density with radius 0.7
  Transforming core density to a uniform radial grid of dG=0.02 with 1258 points.
  Transforming local potential to a uniform radial grid of dG=0.02 with 1258 points.
  Transforming nonlocal projectors to a uniform radial grid of dG=0.02 with 432 points.
  Transforming density augmentations to a uniform radial grid of dG=0.02 with 1258 points.
  Transforming atomic orbitals to a uniform radial grid of dG=0.02 with 432 points.
  Core radius for overlap checks: 1.25 bohrs.

Reading pseudopotential file '/home/akim2/jdftx_install/build/pseudopotentials/GBRV/s_pbe.uspp':
  Title: S.  Created by USPP 7.3.6 on 1-4-15
  Reference state energy: -11.898476.  6 valence electrons in orbitals:
    |300>  occupation: 2  eigenvalue: -0.634167
    |310>  occupation: 4  eigenvalue: -0.257568
  lMax: 2  lLocal: 3  QijEcut: 6
  6 projectors sampled on a log grid with 635 points:
    l: 0  eig: -0.634161  rCut: 1.5
    l: 0  eig: 1.500000  rCut: 1.5
    l: 1  eig: -0.257567  rCut: 1.5
    l: 1  eig: 1.500000  rCut: 1.5
    l: 2  eig: -1.000000  rCut: 1.5
    l: 2  eig: 1.500000  rCut: 1.5
  Partial core density with radius 1.15
  Transforming core density to a uniform radial grid of dG=0.02 with 1258 points.
  Transforming local potential to a uniform radial grid of dG=0.02 with 1258 points.
  Transforming nonlocal projectors to a uniform radial grid of dG=0.02 with 432 points.
  Transforming density augmentations to a uniform radial grid of dG=0.02 with 1258 points.
  Transforming atomic orbitals to a uniform radial grid of dG=0.02 with 432 points.
  Core radius for overlap checks: 1.50 bohrs.

Reading pseudopotential file '/home/akim2/jdftx_install/build/pseudopotentials/GBRV/na_pbe.uspp':
  Title: Na.  Created by USPP 7.3.6 on 23-9-15
  Reference state energy: -47.625620.  9 valence electrons in orbitals:
    |200>  occupation: 2  eigenvalue: -2.085638
    |210>  occupation: 6  eigenvalue: -1.053708
    |300>  occupation: 1  eigenvalue: -0.100838
  lMax: 2  lLocal: 0  QijEcut: 6
  5 projectors sampled on a log grid with 657 points:
    l: 0  eig: -2.085640  rCut: 1.37
    l: 0  eig: -0.100839  rCut: 1.37
    l: 1  eig: -1.053708  rCut: 1.47
    l: 1  eig: 0.500000  rCut: 1.47
    l: 2  eig: 0.750000  rCut: 2
  Transforming local potential to a uniform radial grid of dG=0.02 with 1258 points.
  Transforming nonlocal projectors to a uniform radial grid of dG=0.02 with 432 points.
  Transforming density augmentations to a uniform radial grid of dG=0.02 with 1258 points.
  Transforming atomic orbitals to a uniform radial grid of dG=0.02 with 432 points.
  Core radius for overlap checks: 2.00 bohrs.

Initialized 4 species with 64 total atoms.

Folded 1 k-points by 1x1x1 to 1 k-points.

---------- Setting up k-points, bands, fillings ----------
No reducable k-points. 
Computing the number of bands and number of electrons
Reading initial fillings from file Na2S8@TiO2-PC.fillings.
nElectrons: 498.000000   nBands: 366   nStates: 1

----- Setting up reduced wavefunction bases (one per k-point) -----
average nbasis = 136095.000 , ideal nbasis = 136150.365

---------- Setting up coulomb interaction ----------
Fluid mode embedding: using embedded box, but periodic Coulomb kernel.
(Fluid response is responsible for (approximate) separation between periodic images.)
Setting up double-sized grid for truncated Coulomb potentials:
R = 
[        26.04            0            0  ]
[            0        26.04            0  ]
[            0            0           94  ]
unit cell volume = 63739.7
G =
[    0.24129          0          0  ]
[          0    0.24129          0  ]
[          0          0  0.0668424  ]
Chosen fftbox size, S = [  120  120  432  ]
Integer grid location selected as the embedding center:
   Grid: [  0  0  5  ]
   Lattice: [  0  0  0.0212766  ]
   Cartesian: [  0  0  1  ]
Constructing Wigner-Seitz cell: 6 faces (6 quadrilaterals, 0 hexagons)
Range-separation parameter for embedded mesh potentials due to point charges: 0.588481 bohrs.

---------- Setting up ewald sum ----------
Optimum gaussian width for ewald sums = 7.968013 bohr.
Real space sum over 405 unit cells with max indices [  4  4  2  ]
Reciprocal space sum over 6591 terms with max indices [  6  6  19  ]

---------- Allocating electronic variables ----------
Initializing wave functions:  reading from 'Na2S8@TiO2-PC.wfns'
----- createFluidSolver() ----- (Fluid-side solver setup)
   Initializing fluid molecule 'PC'
     Net charge: 0   dipole magnitude: 0
     Initializing spherical shell mfKernel with radius 0 Bohr
     deltaS corrections:

Correction to mu due to finite nuclear width = -0.0077521
   Cavity determined by nc: 0.00098 and sigma: 0.6
   Effective cavity tension: 9.53e-06 Eh/bohr^2 to account for cavitation and dispersion.
Reading fluid state from 'Na2S8@TiO2-PC.fluidState'


---- Citations for features of the code used in this run ----

   Software package:
      R. Sundararaman, K. Letchworth-Weaver, K.A. Schwarz, D. Gunceler, Y. Ozhabes and T.A. Arias, 'JDFTx: software for joint density-functional theory', SoftwareX 6, 278 (2017)

   gga-PBE exchange-correlation functional:
      J.P. Perdew, K. Burke and M. Ernzerhof, Phys. Rev. Lett. 77, 3865 (1996)

   Pseudopotentials:
      KF Garrity, JW Bennett, KM Rabe and D Vanderbilt, Comput. Mater. Sci. 81, 446 (2014)

   Truncated Coulomb potentials:
      R. Sundararaman and T.A. Arias, Phys. Rev. B 87, 165122 (2013)

   Linear/nonlinear dielectric/ionic fluid model with effective cavity tension:
      D. Gunceler, K. Letchworth-Weaver, R. Sundararaman, K.A. Schwarz and T.A. Arias, Modelling Simul. Mater. Sci. Eng. 21, 074005 (2013)

   Total energy minimization with Auxiliary Hamiltonian:
      C. Freysoldt, S. Boeck, and J. Neugebauer, Phys. Rev. B 79, 241103(R) (2009)

This list may not be complete. Please suggest additional citations or
report any other bugs at https://github.com/shankar1729/jdftx/issues

Initialization completed successfully at t[s]:      5.01


-------- Electronic minimization -----------
	Linear fluid (dielectric constant: 64) occupying 0.731042 of unit cell:	Completed after 4 iterations at t[s]:      5.73
	FillingsUpdate:  mu: -0.013822050  nElectrons: 498.000000
ElecMinimize: Iter:   0  F: -1825.339781279544695  |grad|_K:  1.992e-07  alpha:  1.000e+00
	Linear fluid (dielectric constant: 64) occupying 0.731034 of unit cell:	Completed after 11 iterations at t[s]:      8.35
	Linear fluid (dielectric constant: 64) occupying 0.731041 of unit cell:	Completed after 7 iterations at t[s]:      9.39
	FillingsUpdate:  mu: -0.013823991  nElectrons: 498.000000
	SubspaceRotationAdjust: set factor to 1.48
ElecMinimize: Iter:   1  F: -1825.339781520606266  |grad|_K:  1.341e-07  alpha:  9.526e-02  linmin:  1.060e-03  t[s]:     10.79
	Linear fluid (dielectric constant: 64) occupying 0.731041 of unit cell:	Completed after 1 iterations at t[s]:     11.76
	Linear fluid (dielectric constant: 64) occupying 0.731041 of unit cell:	Completed after 0 iterations at t[s]:     12.67
	FillingsUpdate:  mu: -0.013825170  nElectrons: 498.000000
	SubspaceRotationAdjust: set factor to 1.84
ElecMinimize: Iter:   2  F: -1825.339781617820108  |grad|_K:  1.057e-07  alpha:  1.086e-01  linmin: -2.569e-03  t[s]:     14.03
	Linear fluid (dielectric constant: 64) occupying 0.731042 of unit cell:	Completed after 3 iterations at t[s]:     15.02
	Linear fluid (dielectric constant: 64) occupying 0.731042 of unit cell:	Completed after 1 iterations at t[s]:     15.96
ElecMinimize: 	Step increased F by 9.531686e-08, reducing alpha to 3.673398e-03.
	Linear fluid (dielectric constant: 64) occupying 0.731041 of unit cell:	Completed after 0 iterations at t[s]:     18.05
ElecMinimize: 	Step increased F by 7.908170e-08, reducing alpha to 3.673398e-04.
	Linear fluid (dielectric constant: 64) occupying 0.731041 of unit cell:	Completed after 0 iterations at t[s]:     20.13
ElecMinimize: 	Step increased F by 7.704921e-08, reducing alpha to 3.673398e-05.
ElecMinimize: 	Step failed to reduce F after 3 attempts. Quitting step.
ElecMinimize: 	Undoing step.
	Linear fluid (dielectric constant: 64) occupying 0.731041 of unit cell:	Completed after 0 iterations at t[s]:     22.21
ElecMinimize: 	Step failed: resetting search direction.
	FillingsUpdate:  mu: -0.013825459  nElectrons: 498.000000
	SubspaceRotationAdjust: set factor to 1.61
ElecMinimize: Iter:   3  F: -1825.339781540802960  |grad|_K:  1.186e-07  alpha:  3.673e-05
	Linear fluid (dielectric constant: 64) occupying 0.731042 of unit cell:	Completed after 2 iterations at t[s]:     24.54
	Linear fluid (dielectric constant: 64) occupying 0.731042 of unit cell:	Completed after 0 iterations at t[s]:     25.46
ElecMinimize: 	Step increased F by 1.621038e-08, reducing alpha to 4.271837e-03.
	Linear fluid (dielectric constant: 64) occupying 0.731041 of unit cell:	Completed after 0 iterations at t[s]:     27.55
ElecMinimize: 	Step increased F by 7.425115e-09, reducing alpha to 4.271837e-04.
	Linear fluid (dielectric constant: 64) occupying 0.731041 of unit cell:	Completed after 0 iterations at t[s]:     29.64
ElecMinimize: 	Step increased F by 6.792106e-09, reducing alpha to 4.271837e-05.
ElecMinimize: 	Step failed to reduce F after 3 attempts. Quitting step.
ElecMinimize: 	Undoing step.
	Linear fluid (dielectric constant: 64) occupying 0.731041 of unit cell:	Completed after 0 iterations at t[s]:     31.73
ElecMinimize: 	Step failed along negative gradient direction.
ElecMinimize: Probably at roundoff error limit. (Stopping)
Setting wave functions to eigenvectors of Hamiltonian

# Ionic positions in cartesian coordinates:
ion Ti   0.000000174975000  -0.000000174975000   2.000000000000000 0
ion Ti   4.340445422775002   4.340445072825003   4.795024053800006 0
ion Ti   0.000000174975000   8.680909217925004   2.000000000000000 0
ion Ti   4.340445422775002  13.021354465725009   4.795024053800006 0
ion Ti   0.000000174975000  17.361818610825011   2.000000000000000 0
ion Ti   4.340445422775002  21.702263858625013   4.795024053800006 0
ion Ti   8.680909567875004  -0.000000174975000   2.000000000000000 0
ion Ti  13.021354815675011   4.340445072825003   4.795024053800006 0
ion Ti   8.680909567875004   8.680909217925004   2.000000000000000 0
ion Ti  13.021354815675011  13.021354465725009   4.795024053800006 0
ion Ti   8.680909567875004  17.361818610825011   2.000000000000000 0
ion Ti  13.021364264325012  21.702263858625013   4.795024053800006 0
ion Ti  17.361818960775011  -0.000000174975000   2.000000000000000 0
ion Ti  21.702264208575013   4.340445072825003   4.795024053800006 0
ion Ti  17.361818960775011   8.680909217925004   2.000000000000000 0
ion Ti  21.702264208575013  13.021363914375009   4.795024053800006 0
ion Ti  17.361818960775011  17.361818610825011   2.000000000000000 0
ion Ti  21.702264208575013  21.702263858625013   4.795024053800006 0
ion O   2.650289808075001   2.650289458125000   2.000000000000000 0
ion O   6.030619934775004   6.030619584825001   2.000000000000000 0
ion O   1.690174686975001   6.990734705925004   4.795024053800006 0
ion O   6.990735055875005   1.690174337025000   4.795024053800006 0
ion O   2.650289808075001  11.331198851025007   2.000000000000000 0
ion O   6.030619934775004  14.711528977725013   2.000000000000000 0
ion O   1.690174686975001  15.671644098825009   4.795024053800006 0
ion O   6.990735055875005  10.371083729925008   4.795024053800006 0
ion O   2.650289808075001  20.012108243925013   2.000000000000000 0
ion O   6.030619934775004  23.392438370625015   2.000000000000000 0
ion O   1.690174686975001  24.352553491725022   4.795024053800006 0
ion O   6.990735055875005  19.051993122825007   4.795024053800006 0
ion O  11.331199200975007   2.650289458125000   2.000000000000000 0
ion O  14.711529327675009   6.030619584825001   2.000000000000000 0
ion O  10.371084079875008   6.990734705925004   4.795024053800006 0
ion O  15.671644448775007   1.690174337025000   4.795024053800006 0
ion O  11.331199200975007  11.331198851025007   2.000000000000000 0
ion O  14.711529327675009  14.711528977725013   2.000000000000000 0
ion O  10.371084079875008  15.671644098825009   4.795024053800006 0
ion O  15.671644448775007  10.371083729925008   4.795024053800006 0
ion O  11.331199200975007  20.012108243925013   2.000000000000000 0
ion O  14.711529327675009  23.392438370625015   2.000000000000000 0
ion O  10.371084079875008  24.352553491725022   4.795024053800006 0
ion O  15.671644448775007  19.051993122825007   4.795024053800006 0
ion O  20.012108593875006   2.650289458125000   2.000000000000000 0
ion O  23.392438720575015   6.030619584825001   2.000000000000000 0
ion O  19.051993472775010   6.990734705925004   4.795024053800006 0
ion O  24.352553841675014   1.690174337025000   4.795024053800006 0
ion O  20.012108593875006  11.331198851025007   2.000000000000000 0
ion O  23.392438720575015  14.711528977725013   2.000000000000000 0
ion O  19.051993472775010  15.671644098825009   4.795024053800006 0
ion O  24.352553841675014  10.371083729925008   4.795024053800006 0
ion O  20.012108593875006  20.012108243925013   2.000000000000000 0
ion O  23.392438720575015  23.392438370625015   2.000000000000000 0
ion O  19.051993472775010  24.352553491725022   4.795024053800006 0
ion O  24.352553841675014  19.051993122825007   4.795024053800006 0
ion S   8.787778461898730   6.401358157535348  14.384361674229829 1
ion S  23.110445062356181  10.303313132903654  16.132222681692731 1
ion S  22.677340008081238  13.786179309289487  13.946095166653844 1
ion S  20.291958434769718  25.499114943584271  13.512546821029749 1
ion S  21.811081826108097  20.389943690283367   9.928414661925089 1
ion S  10.955566086186556  23.541204212624191  16.129079711806718 1
ion S  15.988016726799421  11.903355746666241  11.649249585002545 1
ion S   9.873170954443903  12.479522412604977  14.820868544737941 1
ion Na  17.919048412507831  18.162855214143836   7.975316056291141 1
ion Na  16.850027405290437   8.220702879967551   8.138515562635259 1

# Forces in Cartesian coordinates:
force Ti   0.004445212490384  -0.001275790235195   0.021268279083595 0
force Ti  -0.007099546594199  -0.008084219005351  -0.147344152521977 0
force Ti   0.004688468667468  -0.001560781807264   0.014249121334093 0
force Ti  -0.001696792512599   0.002731509286258  -0.155113131065158 0
force Ti   0.002611668129194   0.009618058876174   0.022392148326205 0
force Ti  -0.000012930790599   0.001176075589953  -0.122737946749248 0
force Ti  -0.004381591838375  -0.004527645246899   0.020725601636135 0
force Ti  -0.000387268719713  -0.009588601462746  -0.141695365813793 0
force Ti  -0.003696124847753  -0.000566545964760   0.010356360969346 0
force Ti   0.002653309090165   0.008220956377721  -0.141618456898031 0
force Ti  -0.002824404319690   0.003624898256806   0.019248405962950 0
force Ti  -0.007388679253279   0.002842394922943  -0.126557035467444 0
force Ti  -0.002111116717490  -0.001689894494441   0.016955922249081 0
force Ti   0.007422937249162  -0.003394362936702  -0.138658245535831 0
force Ti  -0.002712625804731  -0.001008485074877   0.008349602771714 0
force Ti   0.001861282181019  -0.001992413315117  -0.152166130397437 0
force Ti   0.000500903327084   0.003255429373856   0.011982310978135 0
force Ti   0.004817723592751  -0.014556733330037  -0.119285135383856 0
force O  -0.004954653210877  -0.003795015926574   0.021973195076968 0
force O   0.007045026183950   0.006680558998238   0.023057568536756 0
force O   0.025903805265972  -0.023901623931225   0.022547711626225 0
force O  -0.025472804650635   0.028951498441685   0.023099468971545 0
force O  -0.005346026901974  -0.004669487214924   0.023341515643507 0
force O   0.004704047711608   0.003297402813190   0.023481445943779 0
force O   0.027182934055688  -0.029498518352579   0.025525572822997 0
force O  -0.024756601566899   0.027327689878148   0.028402274562767 0
force O  -0.007592750222355  -0.008232117675407   0.017903807006568 0
force O   0.007799070916809   0.007817806885879   0.017874130704308 0
force O   0.023088467399117  -0.023605717050439   0.018807611889841 0
force O  -0.023025195901676   0.023754200249216   0.019177583095692 0
force O  -0.000373757449327   0.000457574619922   0.026109536368522 0
force O   0.003654155154122   0.004046616640336   0.026017352923669 0
force O   0.030161477197449  -0.028874451887151   0.033973505728094 0
force O  -0.027205124216857   0.028774196291502   0.023678181696011 0
force O  -0.001981837991940  -0.002623067774383   0.027018329148761 0
force O   0.002078605908845   0.001108142561753   0.026447980260633 0
force O   0.030377352428953  -0.032618080893772   0.028799503631286 0
force O  -0.028455318101898   0.024570143352547   0.020962576229241 0
force O  -0.002739515292253  -0.004464018856250   0.022178149092868 0
force O   0.004998574290441   0.004450769488201   0.022120034848203 0
force O   0.027635702557932  -0.027552121188807   0.022975494683631 0
force O  -0.029030131347951   0.026161388977900   0.017428601349690 0
force O  -0.002266532746266  -0.001699107934898   0.025705061676406 0
force O   0.001019517624579   0.002848040720890   0.025599154658325 0
force O   0.027419859120333  -0.025092558059691   0.026755905539343 0
force O  -0.031783360742300   0.029654457329164   0.026132904459465 0
force O  -0.001514899933938  -0.001147091347759   0.028434094939132 0
force O  -0.001085271282226  -0.001127722410972   0.028520444935499 0
force O   0.026613888750559  -0.029673937714617   0.028456449546965 0
force O  -0.032580621091807   0.032462734683286   0.032767940372623 0
force O  -0.002917582670618  -0.002857943020948   0.026417972851465 0
force O   0.001401649113540   0.002997531193492   0.023253042381333 0
force O   0.029516708175227  -0.028915743418818   0.025610211853996 0
force O  -0.022494511177474   0.027682028668748   0.002081578128780 0
force S  -0.000499334786557   0.000456900996141   0.000355176667485 1
force S   0.001290330819951  -0.000958231491797  -0.001001196501437 1
force S   0.000168327163949  -0.000274362000866  -0.000125866366900 1
force S   0.000654761094711  -0.003273235000964  -0.000104034016872 1
force S  -0.000921246007006   0.000871481086555   0.000690579112232 1
force S   0.000901415333587   0.002638493997743  -0.003204315773922 1
force S   0.000615275128271   0.000852523192797  -0.000353825181587 1
force S  -0.000653114691584  -0.000500879335195  -0.000494055669423 1
force Na  -0.001794571024376  -0.000476101633459  -0.001383929572079 1
force Na  -0.000003240402304  -0.001585321461992   0.000706608034264 1

# Energy components:
   A_diel =      -78.2456913274928780
   Eewald =    13257.7016226575178734
       EH =    14335.0078989384110173
     Eloc =   -29599.8162421694505611
      Enl =       36.5996288928903653
      Exc =     -329.9226854478504265
 Exc_core =       40.0526531006007573
       KE =      513.5022451412255577
  MuShift =        0.0000000000000436
-------------------------------------
     Etot =    -1825.1205702141483016
       TS =        0.2192113198592535
-------------------------------------
        F =    -1825.3397815340074430

IonicMinimize: Iter:   0  F: -1825.339781534007443  |grad|_K:  1.240e-03  alpha:  1.000e+00

#--- Lowdin population analysis ---
# oxidation-state Ti +2.369 +1.862 +2.390 +1.821 +2.353 +1.918 +2.367 +1.770 +2.397 +1.794 +2.373 +1.856 +2.380 +1.787 +2.403 +1.757 +2.406 +1.542
# oxidation-state O -0.922 -0.935 -1.022 -1.019 -0.928 -0.928 -1.025 -1.037 -0.936 -0.935 -1.011 -1.014 -0.910 -0.919 -1.033 -1.013 -0.920 -0.907 -1.019 -1.015 -0.924 -0.927 -1.006 -1.004 -0.920 -0.915 -1.018 -1.010 -0.909 -0.910 -1.006 -1.027 -0.895 -0.887 -1.012 -0.978
# oxidation-state S +5.890 +5.926 +5.954 +5.881 -1.575 +5.823 -1.704 +5.909
# oxidation-state Na +0.356 +0.070


-------- Electronic minimization -----------
	Linear fluid (dielectric constant: 64) occupying 0.731039 of unit cell:	Completed after 34 iterations at t[s]:     35.92
	FillingsUpdate:  mu: -0.013833971  nElectrons: 498.000000
ElecMinimize: Iter:   0  F: -1825.339704478860085  |grad|_K:  2.435e-06  alpha:  1.000e+00
	Linear fluid (dielectric constant: 64) occupying 0.731069 of unit cell:	Completed after 19 iterations at t[s]:     38.62
	Linear fluid (dielectric constant: 64) occupying 0.731041 of unit cell:	Completed after 17 iterations at t[s]:     39.79
	FillingsUpdate:  mu: -0.013834220  nElectrons: 498.000000
	SubspaceRotationAdjust: set factor to 1.88
ElecMinimize: Iter:   1  F: -1825.339723626744217  |grad|_K:  3.831e-07  alpha:  6.497e-02  linmin:  1.758e-04  t[s]:     41.19
	Linear fluid (dielectric constant: 64) occupying 0.731041 of unit cell:	Completed after 0 iterations at t[s]:     42.15
	Linear fluid (dielectric constant: 64) occupying 0.731041 of unit cell:	Completed after 3 iterations at t[s]:     43.10
	FillingsUpdate:  mu: -0.013827755  nElectrons: 498.000000
	SubspaceRotationAdjust: set factor to 1.88
ElecMinimize: Iter:   2  F: -1825.339724765806295  |grad|_K:  3.916e-07  alpha:  1.694e-01  linmin:  1.721e-04  t[s]:     44.48
	Linear fluid (dielectric constant: 64) occupying 0.731037 of unit cell:	Completed after 4 iterations at t[s]:     45.48
	Linear fluid (dielectric constant: 64) occupying 0.731038 of unit cell:	Completed after 0 iterations at t[s]:     46.42
	FillingsUpdate:  mu: -0.013827814  nElectrons: 498.000000
	SubspaceRotationAdjust: set factor to 1.7
ElecMinimize: Iter:   3  F: -1825.339725842375174  |grad|_K:  1.877e-07  alpha:  1.474e-01  linmin: -8.772e-04  t[s]:     47.79
	Linear fluid (dielectric constant: 64) occupying 0.731036 of unit cell:	Completed after 3 iterations at t[s]:     48.79
	Linear fluid (dielectric constant: 64) occupying 0.731037 of unit cell:	Completed after 0 iterations at t[s]:     49.71
	FillingsUpdate:  mu: -0.013831948  nElectrons: 498.000000
	SubspaceRotationAdjust: set factor to 1.46
ElecMinimize: Iter:   4  F: -1825.339726050708123  |grad|_K:  1.220e-07  alpha:  1.219e-01  linmin: -3.833e-04  t[s]:     51.07
	Linear fluid (dielectric constant: 64) occupying 0.731037 of unit cell:	Completed after 0 iterations at t[s]:     52.02
	Linear fluid (dielectric constant: 64) occupying 0.731039 of unit cell:	Completed after 3 iterations at t[s]:     52.97
	FillingsUpdate:  mu: -0.013829282  nElectrons: 498.000000
	SubspaceRotationAdjust: set factor to 1.49
ElecMinimize: Iter:   5  F: -1825.339726124918116  |grad|_K:  2.391e-07  alpha:  3.545e-01  linmin:  3.091e-03  t[s]:     54.36
	Linear fluid (dielectric constant: 64) occupying 0.731048 of unit cell:	Completed after 8 iterations at t[s]:     55.41
	Linear fluid (dielectric constant: 64) occupying 0.731040 of unit cell:	Completed after 7 iterations at t[s]:     56.44
ElecMinimize: 	Step increased F by 1.780222e-08, reducing alpha to 2.771914e-03.
	Linear fluid (dielectric constant: 64) occupying 0.731039 of unit cell:	Completed after 0 iterations at t[s]:     58.55
	FillingsUpdate:  mu: -0.013829333  nElectrons: 498.000000
	SubspaceRotationAdjust: set factor to 1.55
ElecMinimize: Iter:   6  F: -1825.339726147107285  |grad|_K:  2.770e-07  alpha:  2.772e-03  linmin:  1.325e-03  t[s]:     59.90
	Linear fluid (dielectric constant: 64) occupying 0.731039 of unit cell:	Completed after 0 iterations at t[s]:     60.86
ElecMinimize: 	Predicted alpha/alphaT>3.000000, increasing alphaT to 8.315741e-03.
	Linear fluid (dielectric constant: 64) occupying 0.731039 of unit cell:	Completed after 0 iterations at t[s]:     61.76
ElecMinimize: 	Predicted alpha/alphaT>3.000000, increasing alphaT to 2.494722e-02.
	Linear fluid (dielectric constant: 64) occupying 0.731040 of unit cell:	Completed after 0 iterations at t[s]:     62.67
	Linear fluid (dielectric constant: 64) occupying 0.731041 of unit cell:	Completed after 0 iterations at t[s]:     63.58
	FillingsUpdate:  mu: -0.013829188  nElectrons: 498.000000
	SubspaceRotationAdjust: set factor to 1.52
ElecMinimize: Iter:   7  F: -1825.339726259056306  |grad|_K:  1.716e-07  alpha:  4.022e-02  linmin:  4.098e-06  t[s]:     64.94
	Linear fluid (dielectric constant: 64) occupying 0.731041 of unit cell:	Completed after 0 iterations at t[s]:     65.91
	Linear fluid (dielectric constant: 64) occupying 0.731041 of unit cell:	Completed after 0 iterations at t[s]:     66.82
	FillingsUpdate:  mu: -0.013829032  nElectrons: 498.000000
	SubspaceRotationAdjust: set factor to 1.42
ElecMinimize: Iter:   8  F: -1825.339726320987666  |grad|_K:  1.660e-07  alpha:  4.131e-02  linmin: -2.232e-03  t[s]:     68.19
	Linear fluid (dielectric constant: 64) occupying 0.731042 of unit cell:	Completed after 3 iterations at t[s]:     69.19
	Linear fluid (dielectric constant: 64) occupying 0.731042 of unit cell:	Completed after 0 iterations at t[s]:     70.14
ElecMinimize: 	Step increased F by 4.143885e-08, reducing alpha to 1.694951e-03.
	Linear fluid (dielectric constant: 64) occupying 0.731041 of unit cell:	Completed after 0 iterations at t[s]:     72.22
ElecMinimize: 	Step increased F by 4.869230e-08, reducing alpha to 1.694951e-04.
	Linear fluid (dielectric constant: 64) occupying 0.731041 of unit cell:	Completed after 0 iterations at t[s]:     74.31
ElecMinimize: 	Step increased F by 4.951085e-08, reducing alpha to 1.694951e-05.
ElecMinimize: 	Step failed to reduce F after 3 attempts. Quitting step.
ElecMinimize: 	Undoing step.
	Linear fluid (dielectric constant: 64) occupying 0.731041 of unit cell:	Completed after 0 iterations at t[s]:     76.39
ElecMinimize: 	Step failed: resetting search direction.
	FillingsUpdate:  mu: -0.013827236  nElectrons: 498.000000
	SubspaceRotationAdjust: set factor to 1.71
ElecMinimize: Iter:   9  F: -1825.339726271460904  |grad|_K:  1.261e-07  alpha:  1.695e-05
	Linear fluid (dielectric constant: 64) occupying 0.731041 of unit cell:	Completed after 0 iterations at t[s]:     78.69
ElecMinimize: 	Predicted alpha/alphaT>3.000000, increasing alphaT to 1.239238e-01.
	Linear fluid (dielectric constant: 64) occupying 0.731041 of unit cell:	Completed after 1 iterations at t[s]:     79.62
	Linear fluid (dielectric constant: 64) occupying 0.731041 of unit cell:	Completed after 0 iterations at t[s]:     80.54
	FillingsUpdate:  mu: -0.013829515  nElectrons: 498.000000
	SubspaceRotationAdjust: set factor to 1.78
ElecMinimize: Iter:  10  F: -1825.339726335500245  |grad|_K:  1.066e-07  alpha:  1.004e-01  linmin: -3.639e-03  t[s]:     81.91
	Linear fluid (dielectric constant: 64) occupying 0.731041 of unit cell:	Completed after 0 iterations at t[s]:     82.87
ElecMinimize: 	Wrong curvature in test step, increasing alphaT to 3.011229e-01.
	Linear fluid (dielectric constant: 64) occupying 0.731041 of unit cell:	Completed after 0 iterations at t[s]:     83.50
	FillingsUpdate:  mu: -0.013829075  nElectrons: 498.000000
	SubspaceRotationAdjust: set factor to 1.34
ElecMinimize: Iter:  11  F: -1825.339726496591766  |grad|_K:  1.430e-07  alpha: -1.143e+00  linmin: -7.130e-03  t[s]:     84.86
	Linear fluid (dielectric constant: 64) occupying 0.731052 of unit cell:	Completed after 19 iterations at t[s]:     86.04
	Linear fluid (dielectric constant: 64) occupying 0.731042 of unit cell:	Completed after 15 iterations at t[s]:     87.17
ElecMinimize: 	Step increased F by 6.707523e-08, reducing alpha to 6.446414e-03.
	Linear fluid (dielectric constant: 64) occupying 0.731042 of unit cell:	Completed after 4 iterations at t[s]:     89.37
	FillingsUpdate:  mu: -0.013828241  nElectrons: 498.000000
	SubspaceRotationAdjust: set factor to 1.19
ElecMinimize: Iter:  12  F: -1825.339726504684450  |grad|_K:  1.270e-07  alpha:  6.446e-03  linmin:  1.412e-03  t[s]:     90.76
	Linear fluid (dielectric constant: 64) occupying 0.731041 of unit cell:	Completed after 0 iterations at t[s]:     91.71
ElecMinimize: 	Wrong curvature in test step, increasing alphaT to 1.933924e-02.
	Linear fluid (dielectric constant: 64) occupying 0.731041 of unit cell:	Completed after 0 iterations at t[s]:     92.33
	FillingsUpdate:  mu: -0.013828196  nElectrons: 498.000000
	SubspaceRotationAdjust: set factor to 1.52
ElecMinimize: Iter:  13  F: -1825.339726509627553  |grad|_K:  1.233e-07  alpha: -1.018e-01  linmin: -1.444e-03  t[s]:     93.69
ElecMinimize: Converged (|Delta F|<1.000000e-08 for 2 iters).
Setting wave functions to eigenvectors of Hamiltonian

-------- Electronic minimization -----------
	Linear fluid (dielectric constant: 64) occupying 0.731034 of unit cell:	Completed after 30 iterations at t[s]:     95.26
	FillingsUpdate:  mu: -0.013833522  nElectrons: 498.000000
ElecMinimize: Iter:   0  F: -1825.339773694486212  |grad|_K:  1.875e-06  alpha:  1.000e+00
	Linear fluid (dielectric constant: 64) occupying 0.731066 of unit cell:	Completed after 15 iterations at t[s]:     97.92
	Linear fluid (dielectric constant: 64) occupying 0.731036 of unit cell:	Completed after 14 iterations at t[s]:     99.04
	FillingsUpdate:  mu: -0.013832591  nElectrons: 498.000000
	SubspaceRotationAdjust: set factor to 1.96
ElecMinimize: Iter:   1  F: -1825.339785086011489  |grad|_K:  3.230e-07  alpha:  6.552e-02  linmin: -6.821e-05  t[s]:    100.45
	Linear fluid (dielectric constant: 64) occupying 0.731037 of unit cell:	Completed after 0 iterations at t[s]:    101.42
ElecMinimize: 	Predicted alpha/alphaT>3.000000, increasing alphaT to 1.965624e-01.
	Linear fluid (dielectric constant: 64) occupying 0.731038 of unit cell:	Completed after 4 iterations at t[s]:    102.38
	Linear fluid (dielectric constant: 64) occupying 0.731037 of unit cell:	Completed after 0 iterations at t[s]:    103.31
	FillingsUpdate:  mu: -0.013830749  nElectrons: 498.000000
	SubspaceRotationAdjust: set factor to 1.85
ElecMinimize: Iter:   2  F: -1825.339785895309433  |grad|_K:  3.040e-07  alpha:  1.589e-01  linmin: -8.897e-05  t[s]:    104.68
	Linear fluid (dielectric constant: 64) occupying 0.731039 of unit cell:	Completed after 1 iterations at t[s]:    105.65
	Linear fluid (dielectric constant: 64) occupying 0.731039 of unit cell:	Completed after 0 iterations at t[s]:    106.55
	FillingsUpdate:  mu: -0.013830115  nElectrons: 498.000000
	SubspaceRotationAdjust: set factor to 2.34
ElecMinimize: Iter:   3  F: -1825.339786745781566  |grad|_K:  1.559e-07  alpha:  1.805e-01  linmin: -8.984e-04  t[s]:    107.92
	Linear fluid (dielectric constant: 64) occupying 0.731040 of unit cell:	Completed after 3 iterations at t[s]:    108.92
	Linear fluid (dielectric constant: 64) occupying 0.731039 of unit cell:	Completed after 0 iterations at t[s]:    109.85
	FillingsUpdate:  mu: -0.013829400  nElectrons: 498.000000
	SubspaceRotationAdjust: set factor to 1.56
ElecMinimize: Iter:   4  F: -1825.339786753660292  |grad|_K:  1.710e-07  alpha:  7.605e-02  linmin:  1.540e-03  t[s]:    111.23
	Linear fluid (dielectric constant: 64) occupying 0.731039 of unit cell:	Completed after 0 iterations at t[s]:    112.18
	Linear fluid (dielectric constant: 64) occupying 0.731039 of unit cell:	Completed after 0 iterations at t[s]:    113.09
	FillingsUpdate:  mu: -0.013829407  nElectrons: 498.000000
	SubspaceRotationAdjust: set factor to 1.74
ElecMinimize: Iter:   5  F: -1825.339786837439306  |grad|_K:  1.615e-07  alpha:  7.299e-02  linmin: -1.147e-03  t[s]:    114.47
	Linear fluid (dielectric constant: 64) occupying 0.731040 of unit cell:	Completed after 3 iterations at t[s]:    115.46
	Linear fluid (dielectric constant: 64) occupying 0.731040 of unit cell:	Completed after 0 iterations at t[s]:    116.38
ElecMinimize: 	Step increased F by 4.967819e-08, reducing alpha to 2.366269e-03.
	Linear fluid (dielectric constant: 64) occupying 0.731039 of unit cell:	Completed after 0 iterations at t[s]:    118.47
ElecMinimize: 	Step increased F by 2.551997e-08, reducing alpha to 2.366269e-04.
	Linear fluid (dielectric constant: 64) occupying 0.731039 of unit cell:	Completed after 0 iterations at t[s]:    120.55
ElecMinimize: 	Step increased F by 2.328670e-08, reducing alpha to 2.366269e-05.
ElecMinimize: 	Step failed to reduce F after 3 attempts. Quitting step.
ElecMinimize: 	Undoing step.
	Linear fluid (dielectric constant: 64) occupying 0.731039 of unit cell:	Completed after 0 iterations at t[s]:    122.64
ElecMinimize: 	Step failed: resetting search direction.
	FillingsUpdate:  mu: -0.013827025  nElectrons: 498.000000
	SubspaceRotationAdjust: set factor to 1.27
ElecMinimize: Iter:   6  F: -1825.339786814162153  |grad|_K:  1.576e-07  alpha:  2.366e-05
	Linear fluid (dielectric constant: 64) occupying 0.731039 of unit cell:	Completed after 1 iterations at t[s]:    124.97
	Linear fluid (dielectric constant: 64) occupying 0.731039 of unit cell:	Completed after 0 iterations at t[s]:    125.88
ElecMinimize: 	Step increased F by 1.932744e-08, reducing alpha to 3.551726e-03.
	Linear fluid (dielectric constant: 64) occupying 0.731039 of unit cell:	Completed after 0 iterations at t[s]:    127.97
ElecMinimize: 	Step increased F by 4.981234e-08, reducing alpha to 3.551726e-04.
	Linear fluid (dielectric constant: 64) occupying 0.731039 of unit cell:	Completed after 0 iterations at t[s]:    130.06
ElecMinimize: 	Step increased F by 5.375909e-08, reducing alpha to 3.551726e-05.
ElecMinimize: 	Step failed to reduce F after 3 attempts. Quitting step.
ElecMinimize: 	Undoing step.
	Linear fluid (dielectric constant: 64) occupying 0.731039 of unit cell:	Completed after 0 iterations at t[s]:    132.16
ElecMinimize: 	Step failed along negative gradient direction.
ElecMinimize: Probably at roundoff error limit. (Stopping)
Setting wave functions to eigenvectors of Hamiltonian

# Ionic positions in cartesian coordinates:
ion Ti   0.000000174975000  -0.000000174975000   2.000000000000000 0
ion Ti   4.340445422775002   4.340445072825003   4.795024053800006 0
ion Ti   0.000000174975000   8.680909217925004   2.000000000000000 0
ion Ti   4.340445422775002  13.021354465725009   4.795024053800006 0
ion Ti   0.000000174975000  17.361818610825011   2.000000000000000 0
ion Ti   4.340445422775002  21.702263858625013   4.795024053800006 0
ion Ti   8.680909567875004  -0.000000174975000   2.000000000000000 0
ion Ti  13.021354815675011   4.340445072825003   4.795024053800006 0
ion Ti   8.680909567875004   8.680909217925004   2.000000000000000 0
ion Ti  13.021354815675011  13.021354465725009   4.795024053800006 0
ion Ti   8.680909567875004  17.361818610825011   2.000000000000000 0
ion Ti  13.021364264325012  21.702263858625013   4.795024053800006 0
ion Ti  17.361818960775011  -0.000000174975000   2.000000000000000 0
ion Ti  21.702264208575013   4.340445072825003   4.795024053800006 0
ion Ti  17.361818960775011   8.680909217925004   2.000000000000000 0
ion Ti  21.702264208575013  13.021363914375009   4.795024053800006 0
ion Ti  17.361818960775011  17.361818610825011   2.000000000000000 0
ion Ti  21.702264208575013  21.702263858625013   4.795024053800006 0
ion O   2.650289808075001   2.650289458125000   2.000000000000000 0
ion O   6.030619934775004   6.030619584825001   2.000000000000000 0
ion O   1.690174686975001   6.990734705925004   4.795024053800006 0
ion O   6.990735055875005   1.690174337025000   4.795024053800006 0
ion O   2.650289808075001  11.331198851025007   2.000000000000000 0
ion O   6.030619934775004  14.711528977725013   2.000000000000000 0
ion O   1.690174686975001  15.671644098825009   4.795024053800006 0
ion O   6.990735055875005  10.371083729925008   4.795024053800006 0
ion O   2.650289808075001  20.012108243925013   2.000000000000000 0
ion O   6.030619934775004  23.392438370625015   2.000000000000000 0
ion O   1.690174686975001  24.352553491725022   4.795024053800006 0
ion O   6.990735055875005  19.051993122825007   4.795024053800006 0
ion O  11.331199200975007   2.650289458125000   2.000000000000000 0
ion O  14.711529327675009   6.030619584825001   2.000000000000000 0
ion O  10.371084079875008   6.990734705925004   4.795024053800006 0
ion O  15.671644448775007   1.690174337025000   4.795024053800006 0
ion O  11.331199200975007  11.331198851025007   2.000000000000000 0
ion O  14.711529327675009  14.711528977725013   2.000000000000000 0
ion O  10.371084079875008  15.671644098825009   4.795024053800006 0
ion O  15.671644448775007  10.371083729925008   4.795024053800006 0
ion O  11.331199200975007  20.012108243925013   2.000000000000000 0
ion O  14.711529327675009  23.392438370625015   2.000000000000000 0
ion O  10.371084079875008  24.352553491725022   4.795024053800006 0
ion O  15.671644448775007  19.051993122825007   4.795024053800006 0
ion O  20.012108593875006   2.650289458125000   2.000000000000000 0
ion O  23.392438720575015   6.030619584825001   2.000000000000000 0
ion O  19.051993472775010   6.990734705925004   4.795024053800006 0
ion O  24.352553841675014   1.690174337025000   4.795024053800006 0
ion O  20.012108593875006  11.331198851025007   2.000000000000000 0
ion O  23.392438720575015  14.711528977725013   2.000000000000000 0
ion O  19.051993472775010  15.671644098825009   4.795024053800006 0
ion O  24.352553841675014  10.371083729925008   4.795024053800006 0
ion O  20.012108593875006  20.012108243925013   2.000000000000000 0
ion O  23.392438720575015  23.392438370625015   2.000000000000000 0
ion O  19.051993472775010  24.352553491725022   4.795024053800006 0
ion O  24.352553841675014  19.051993122825007   4.795024053800006 0
ion S   8.787664649242624   6.401462298318943  14.384442629134238 1
ion S  23.110739165594786  10.303094724584861  16.131994480421397 1
ion S  22.677378374648399  13.786116774355223  13.946066478114778 1
ion S  20.292107673519570  25.498368879861999  13.512523108706665 1
ion S  21.810871847837394  20.390142325707689   9.928572064623902 1
ion S  10.955771544480534  23.541805600747125  16.128349356744241 1
ion S  15.988156965570019  11.903550061045243  11.649168938140363 1
ion S   9.873022090956336  12.479408247902134  14.820755935343371 1
ion Na  17.918639378528315  18.162746696986733   7.975000619224263 1
ion Na  16.850026666710225   8.220341539938318   8.138676618783100 1

# Forces in Cartesian coordinates:
force Ti   0.004456900533327  -0.001261057011128   0.021229096323588 0
force Ti  -0.007099583680915  -0.008083586976785  -0.147410329105636 0
force Ti   0.004681267280863  -0.001563943385382   0.014215176878766 0
force Ti  -0.001699090628735   0.002729510456211  -0.155205947858551 0
force Ti   0.002615936761762   0.009609199228144   0.022385353455287 0
force Ti  -0.000016790848497   0.001183542339786  -0.122769412430278 0
force Ti  -0.004377062408496  -0.004524829026251   0.020690046919673 0
force Ti  -0.000382197097370  -0.009586358427877  -0.141725469326793 0
force Ti  -0.003692758081470  -0.000565328452696   0.010338759104860 0
force Ti   0.002651977129192   0.008215831010457  -0.141647813475869 0
force Ti  -0.002819154232555   0.003626570705708   0.019221839629594 0
force Ti  -0.007379318665465   0.002841527071567  -0.126585984429161 0
force Ti  -0.002118272535850  -0.001680311812749   0.016948399276255 0
force Ti   0.007424241811910  -0.003394933375085  -0.138677354547911 0
force Ti  -0.002713315364749  -0.001009451383187   0.008321124413388 0
force Ti   0.001856034218760  -0.001997384769895  -0.152184110118680 0
force Ti   0.000497175673393   0.003250309833079   0.011944701466654 0
force Ti   0.004742746179239  -0.014618318606244  -0.119294680724280 0
force O  -0.004953617236558  -0.003790696539199   0.021964119479198 0
force O   0.007044380603496   0.006681450449824   0.023057332661096 0
force O   0.025898183561010  -0.023895845271557   0.022536663644951 0
force O  -0.025463595189150   0.028945721192935   0.023092316992331 0
force O  -0.005352955907265  -0.004674344074265   0.023334402927158 0
force O   0.004707409133096   0.003300415065069   0.023475488698448 0
force O   0.027180085902027  -0.029496526554933   0.025504661868938 0
force O  -0.024746183466328   0.027319442075552   0.028393080457631 0
force O  -0.007586796531897  -0.008234482661546   0.017899194975048 0
force O   0.007799746935555   0.007821321615969   0.017870285056087 0
force O   0.023105841655222  -0.023601271722350   0.018789405966099 0
force O  -0.023018061534459   0.023754583602903   0.019162700229512 0
force O  -0.000369106348354   0.000461663833632   0.026109309788431 0
force O   0.003655833505394   0.004046905919402   0.026018381850729 0
force O   0.030159837634277  -0.028868649742332   0.033964363789329 0
force O  -0.027208081916123   0.028776929563742   0.023668458459879 0
force O  -0.001985784865199  -0.002626109577454   0.027014701802954 0
force O   0.002079135309479   0.001106518471930   0.026436006677697 0
force O   0.030369321860083  -0.032610498268365   0.028792471585286 0
force O  -0.028442239399643   0.024550980053183   0.020962347384394 0
force O  -0.002736428760019  -0.004465556897979   0.022172862684986 0
force O   0.004992438274840   0.004448673004504   0.022117280787993 0
force O   0.027630818307708  -0.027553662709581   0.022980943851113 0
force O  -0.029055281681651   0.026170656494340   0.017396003277617 0
force O  -0.002266320289037  -0.001689190008781   0.025701685563721 0
force O   0.001020452172354   0.002847886850631   0.025593313722265 0
force O   0.027415520051201  -0.025088214111783   0.026746333641019 0
force O  -0.031780779566703   0.029670569424597   0.026114646811414 0
force O  -0.001516571386124  -0.001145910271206   0.028432217834702 0
force O  -0.001085116680392  -0.001135588495412   0.028509008854829 0
force O   0.026606856092157  -0.029674022934490   0.028442745313982 0
force O  -0.032571844408915   0.032450458557827   0.032764718715176 0
force O  -0.002941621833960  -0.002881502314265   0.026381021881611 0
force O   0.001436220669982   0.003033387167686   0.023191603527085 0
force O   0.029512268722976  -0.028914437776327   0.025580529174426 0
force O  -0.022490240227691   0.027671317911962   0.002053583987177 0
force S   0.000115322791177  -0.000203874203915  -0.000114471790152 1
force S  -0.000356455328063   0.000367015481582   0.000319534579315 1
force S  -0.000038753461967   0.000164834639231   0.000058464034675 1
force S  -0.000303990258807   0.001438110307511   0.000121665513619 1
force S  -0.000881084213839   0.000798737057076   0.000633736717119 1
force S  -0.000354777734939  -0.001265070008649   0.001043506473535 1
force S   0.000598212350453   0.000818879346840  -0.000326503334625 1
force S   0.000253695103135   0.000182451913964   0.000141905755100 1
force Na  -0.001784244775774  -0.000466287320324  -0.001351189489276 1
force Na  -0.000004080250530  -0.001578458356941   0.000692692494106 1

# Energy components:
   A_diel =      -78.2452861014876362
   Eewald =    13257.7233341203755117
       EH =    14335.0203836948112439
     Eloc =   -29599.8507551409929874
      Enl =       36.5998674455664741
      Exc =     -329.9226532356547636
 Exc_core =       40.0526530738698554
       KE =      513.5018887566732246
  MuShift =        0.0000000000000436
-------------------------------------
     Etot =    -1825.1205673868396389
       TS =        0.2192193735182883
-------------------------------------
        F =    -1825.3397867603580380

IonicMinimize: Iter:   1  F: -1825.339786760358038  |grad|_K:  7.466e-04  alpha:  2.279e-01  linmin:  6.852e-04  t[s]:    134.82

#--- Lowdin population analysis ---
# oxidation-state Ti +2.369 +1.862 +2.390 +1.821 +2.353 +1.918 +2.367 +1.769 +2.397 +1.794 +2.373 +1.856 +2.380 +1.787 +2.403 +1.757 +2.406 +1.543
# oxidation-state O -0.922 -0.935 -1.022 -1.019 -0.928 -0.928 -1.025 -1.037 -0.936 -0.935 -1.011 -1.014 -0.910 -0.919 -1.033 -1.013 -0.920 -0.907 -1.019 -1.015 -0.924 -0.926 -1.006 -1.004 -0.920 -0.915 -1.018 -1.010 -0.909 -0.909 -1.006 -1.027 -0.895 -0.887 -1.012 -0.978
# oxidation-state S +5.890 +5.926 +5.954 +5.881 -1.575 +5.823 -1.704 +5.909
# oxidation-state Na +0.356 +0.070


-------- Electronic minimization -----------
	Linear fluid (dielectric constant: 64) occupying 0.731042 of unit cell:	Completed after 5 iterations at t[s]:    136.06
	FillingsUpdate:  mu: -0.013824037  nElectrons: 498.000000
ElecMinimize: Iter:   0  F: -1825.339790393061548  |grad|_K:  1.477e-07  alpha:  1.000e+00
	Linear fluid (dielectric constant: 64) occupying 0.731034 of unit cell:	Completed after 6 iterations at t[s]:    138.60
	Linear fluid (dielectric constant: 64) occupying 0.731041 of unit cell:	Completed after 5 iterations at t[s]:    139.61
	FillingsUpdate:  mu: -0.013827765  nElectrons: 498.000000
	SubspaceRotationAdjust: set factor to 1.51
ElecMinimize: Iter:   1  F: -1825.339790407741930  |grad|_K:  8.863e-08  alpha:  9.816e-02  linmin:  9.704e-04  t[s]:    141.02
	Linear fluid (dielectric constant: 64) occupying 0.731042 of unit cell:	Completed after 0 iterations at t[s]:    141.98
	Linear fluid (dielectric constant: 64) occupying 0.731042 of unit cell:	Completed after 0 iterations at t[s]:    142.88
	FillingsUpdate:  mu: -0.013826492  nElectrons: 498.000000
	SubspaceRotationAdjust: set factor to 1.55
ElecMinimize: Iter:   2  F: -1825.339790452370835  |grad|_K:  6.327e-08  alpha:  1.100e-01  linmin: -8.671e-03  t[s]:    144.24
	Linear fluid (dielectric constant: 64) occupying 0.731042 of unit cell:	Completed after 1 iterations at t[s]:    145.21
	Linear fluid (dielectric constant: 64) occupying 0.731042 of unit cell:	Completed after 0 iterations at t[s]:    146.13
ElecMinimize: 	Step increased F by 1.370313e-08, reducing alpha to 4.975015e-03.
	Linear fluid (dielectric constant: 64) occupying 0.731042 of unit cell:	Completed after 0 iterations at t[s]:    148.23
ElecMinimize: 	Step increased F by 1.887770e-08, reducing alpha to 4.975015e-04.
	Linear fluid (dielectric constant: 64) occupying 0.731042 of unit cell:	Completed after 0 iterations at t[s]:    150.31
ElecMinimize: 	Step increased F by 1.944863e-08, reducing alpha to 4.975015e-05.
ElecMinimize: 	Step failed to reduce F after 3 attempts. Quitting step.
ElecMinimize: 	Undoing step.
	Linear fluid (dielectric constant: 64) occupying 0.731042 of unit cell:	Completed after 0 iterations at t[s]:    152.41
ElecMinimize: 	Step failed: resetting search direction.
	FillingsUpdate:  mu: -0.013828074  nElectrons: 498.000000
	SubspaceRotationAdjust: set factor to 1.15
ElecMinimize: Iter:   3  F: -1825.339790432919244  |grad|_K:  5.103e-08  alpha:  4.975e-05
	Linear fluid (dielectric constant: 64) occupying 0.731042 of unit cell:	Completed after 0 iterations at t[s]:    154.71
ElecMinimize: 	Predicted alpha/alphaT>3.000000, increasing alphaT to 3.298804e-01.
	Linear fluid (dielectric constant: 64) occupying 0.731043 of unit cell:	Completed after 1 iterations at t[s]:    155.63
	Linear fluid (dielectric constant: 64) occupying 0.731042 of unit cell:	Completed after 0 iterations at t[s]:    156.55
ElecMinimize: 	Step increased F by 2.924253e-09, reducing alpha to 1.453243e-02.
	Linear fluid (dielectric constant: 64) occupying 0.731042 of unit cell:	Completed after 0 iterations at t[s]:    158.65
ElecMinimize: 	Step increased F by 4.700269e-09, reducing alpha to 1.453243e-03.
	Linear fluid (dielectric constant: 64) occupying 0.731042 of unit cell:	Completed after 0 iterations at t[s]:    160.74
ElecMinimize: 	Step increased F by 5.242782e-09, reducing alpha to 1.453243e-04.
ElecMinimize: 	Step failed to reduce F after 3 attempts. Quitting step.
ElecMinimize: 	Undoing step.
	Linear fluid (dielectric constant: 64) occupying 0.731042 of unit cell:	Completed after 0 iterations at t[s]:    162.84
ElecMinimize: 	Step failed along negative gradient direction.
ElecMinimize: Probably at roundoff error limit. (Stopping)
Setting wave functions to eigenvectors of Hamiltonian
IonicMinimize: 	Wrong curvature in test step, increasing alphaT to 6.837857e-01.

-------- Electronic minimization -----------
	Linear fluid (dielectric constant: 64) occupying 0.731042 of unit cell:	Completed after 2 iterations at t[s]:    164.98
	FillingsUpdate:  mu: -0.013828211  nElectrons: 498.000000
ElecMinimize: Iter:   0  F: -1825.339790390090002  |grad|_K:  6.127e-08  alpha:  1.000e+00
	Linear fluid (dielectric constant: 64) occupying 0.731040 of unit cell:	Completed after 3 iterations at t[s]:    167.46
	Linear fluid (dielectric constant: 64) occupying 0.731041 of unit cell:	Completed after 1 iterations at t[s]:    168.40
	FillingsUpdate:  mu: -0.013826752  nElectrons: 498.000000
	SubspaceRotationAdjust: set factor to 1.14
ElecMinimize: Iter:   1  F: -1825.339790409098214  |grad|_K:  7.269e-08  alpha:  3.059e-01  linmin:  1.272e-03  t[s]:    169.78
	Linear fluid (dielectric constant: 64) occupying 0.731040 of unit cell:	Completed after 1 iterations at t[s]:    170.75
	Linear fluid (dielectric constant: 64) occupying 0.731041 of unit cell:	Completed after 0 iterations at t[s]:    171.65
	FillingsUpdate:  mu: -0.013827960  nElectrons: 498.000000
	SubspaceRotationAdjust: set factor to 0.946
ElecMinimize: Iter:   2  F: -1825.339790444572373  |grad|_K:  5.112e-08  alpha:  1.240e-01  linmin:  4.770e-03  t[s]:    173.02
	Linear fluid (dielectric constant: 64) occupying 0.731041 of unit cell:	Completed after 0 iterations at t[s]:    173.97
ElecMinimize: 	Predicted alpha/alphaT>3.000000, increasing alphaT to 3.720553e-01.
	Linear fluid (dielectric constant: 64) occupying 0.731042 of unit cell:	Completed after 0 iterations at t[s]:    174.87
	Linear fluid (dielectric constant: 64) occupying 0.731042 of unit cell:	Completed after 0 iterations at t[s]:    175.78
ElecMinimize: 	Step increased F by 8.415100e-09, reducing alpha to 5.324627e-02.
	Linear fluid (dielectric constant: 64) occupying 0.731041 of unit cell:	Completed after 0 iterations at t[s]:    177.89
ElecMinimize: 	Step increased F by 9.529685e-09, reducing alpha to 5.324627e-03.
	Linear fluid (dielectric constant: 64) occupying 0.731041 of unit cell:	Completed after 0 iterations at t[s]:    179.98
ElecMinimize: 	Step increased F by 1.323087e-08, reducing alpha to 5.324627e-04.
ElecMinimize: 	Step failed to reduce F after 3 attempts. Quitting step.
ElecMinimize: 	Undoing step.
	Linear fluid (dielectric constant: 64) occupying 0.731041 of unit cell:	Completed after 0 iterations at t[s]:    182.06
ElecMinimize: 	Step failed: resetting search direction.
	FillingsUpdate:  mu: -0.013827221  nElectrons: 498.000000
	SubspaceRotationAdjust: set factor to 1.08
ElecMinimize: Iter:   3  F: -1825.339790431309893  |grad|_K:  3.042e-08  alpha:  5.325e-04
	Linear fluid (dielectric constant: 64) occupying 0.731041 of unit cell:	Completed after 0 iterations at t[s]:    184.35
	Linear fluid (dielectric constant: 64) occupying 0.731041 of unit cell:	Completed after 0 iterations at t[s]:    185.25
	FillingsUpdate:  mu: -0.013826777  nElectrons: 498.000000
	SubspaceRotationAdjust: set factor to 1.15
ElecMinimize: Iter:   4  F: -1825.339790442891172  |grad|_K:  5.430e-08  alpha:  2.498e-01  linmin: -1.489e-05  t[s]:    186.61
	Linear fluid (dielectric constant: 64) occupying 0.731042 of unit cell:	Completed after 1 iterations at t[s]:    187.59
	Linear fluid (dielectric constant: 64) occupying 0.731042 of unit cell:	Completed after 0 iterations at t[s]:    188.49
	FillingsUpdate:  mu: -0.013827096  nElectrons: 498.000000
	SubspaceRotationAdjust: set factor to 1.17
ElecMinimize: Iter:   5  F: -1825.339790461125631  |grad|_K:  7.869e-08  alpha:  1.718e-01  linmin:  2.149e-04  t[s]:    189.86
	Linear fluid (dielectric constant: 64) occupying 0.731043 of unit cell:	Completed after 4 iterations at t[s]:    190.88
	Linear fluid (dielectric constant: 64) occupying 0.731042 of unit cell:	Completed after 2 iterations at t[s]:    191.84
ElecMinimize: 	Step increased F by 2.903630e-08, reducing alpha to 2.966954e-03.
	Linear fluid (dielectric constant: 64) occupying 0.731042 of unit cell:	Completed after 0 iterations at t[s]:    193.93
	FillingsUpdate:  mu: -0.013827526  nElectrons: 498.000000
	SubspaceRotationAdjust: set factor to 1.19
ElecMinimize: Iter:   6  F: -1825.339790463812733  |grad|_K:  1.184e-07  alpha:  2.967e-03  linmin:  4.091e-03  t[s]:    195.30
ElecMinimize: 	Bad step direction: g.d > 0.
ElecMinimize: 	Undoing step.
	Linear fluid (dielectric constant: 64) occupying 0.731042 of unit cell:	Completed after 0 iterations at t[s]:    196.24
ElecMinimize: 	Step failed: resetting search direction.
	FillingsUpdate:  mu: -0.013827526  nElectrons: 498.000000
	SubspaceRotationAdjust: set factor to 1.47
ElecMinimize: Iter:   7  F: -1825.339790463806139  |grad|_K:  1.186e-07  alpha:  0.000e+00
	Linear fluid (dielectric constant: 64) occupying 0.731042 of unit cell:	Completed after 0 iterations at t[s]:    198.54
ElecMinimize: 	Predicted alpha/alphaT>3.000000, increasing alphaT to 8.900862e-03.
	Linear fluid (dielectric constant: 64) occupying 0.731042 of unit cell:	Completed after 0 iterations at t[s]:    199.43
ElecMinimize: 	Predicted alpha/alphaT>3.000000, increasing alphaT to 2.670259e-02.
	Linear fluid (dielectric constant: 64) occupying 0.731042 of unit cell:	Completed after 0 iterations at t[s]:    200.34
ElecMinimize: 	Wrong curvature in test step, increasing alphaT to 8.010776e-02.
	Linear fluid (dielectric constant: 64) occupying 0.731042 of unit cell:	Completed after 0 iterations at t[s]:    200.98
	FillingsUpdate:  mu: -0.013827720  nElectrons: 498.000000
	SubspaceRotationAdjust: set factor to 1.79
ElecMinimize: Iter:   8  F: -1825.339790501323250  |grad|_K:  1.253e-07  alpha: -2.560e+01  linmin: -7.884e-03  t[s]:    202.34
	Linear fluid (dielectric constant: 64) occupying 0.731047 of unit cell:	Completed after 22 iterations at t[s]:    203.55
	Linear fluid (dielectric constant: 64) occupying 0.731042 of unit cell:	Completed after 21 iterations at t[s]:    204.73
	FillingsUpdate:  mu: -0.013825021  nElectrons: 498.000000
	SubspaceRotationAdjust: set factor to 1.5
ElecMinimize: Iter:   9  F: -1825.339790566619286  |grad|_K:  1.173e-07  alpha:  7.560e-02  linmin:  5.599e-03  t[s]:    206.14
ElecMinimize: 	Bad step direction: g.d > 0.
ElecMinimize: 	Undoing step.
	Linear fluid (dielectric constant: 64) occupying 0.731042 of unit cell:	Completed after 0 iterations at t[s]:    207.08
ElecMinimize: 	Step failed: resetting search direction.
	FillingsUpdate:  mu: -0.013825021  nElectrons: 498.000000
	SubspaceRotationAdjust: set factor to 1.93
ElecMinimize: Iter:  10  F: -1825.339790566623151  |grad|_K:  1.149e-07  alpha:  0.000e+00
	Linear fluid (dielectric constant: 64) occupying 0.731042 of unit cell:	Completed after 0 iterations at t[s]:    209.37
ElecMinimize: 	Predicted alpha/alphaT>3.000000, increasing alphaT to 2.268004e-01.
	Linear fluid (dielectric constant: 64) occupying 0.731041 of unit cell:	Completed after 4 iterations at t[s]:    210.33
	Linear fluid (dielectric constant: 64) occupying 0.731042 of unit cell:	Completed after 0 iterations at t[s]:    211.27
	FillingsUpdate:  mu: -0.013827262  nElectrons: 498.000000
	SubspaceRotationAdjust: set factor to 1.52
ElecMinimize: Iter:  11  F: -1825.339790613383002  |grad|_K:  6.566e-08  alpha:  1.134e-01  linmin:  6.382e-03  t[s]:    212.64
	Linear fluid (dielectric constant: 64) occupying 0.731042 of unit cell:	Completed after 0 iterations at t[s]:    213.59
ElecMinimize: 	Predicted alpha/alphaT>3.000000, increasing alphaT to 3.400908e-01.
	Linear fluid (dielectric constant: 64) occupying 0.731043 of unit cell:	Completed after 0 iterations at t[s]:    214.50
	Linear fluid (dielectric constant: 64) occupying 0.731043 of unit cell:	Completed after 0 iterations at t[s]:    215.40
	FillingsUpdate:  mu: -0.013827006  nElectrons: 498.000000
	SubspaceRotationAdjust: set factor to 1.69
ElecMinimize: Iter:  12  F: -1825.339790639208559  |grad|_K:  1.023e-07  alpha:  2.275e-01  linmin: -6.268e-04  t[s]:    216.77
	Linear fluid (dielectric constant: 64) occupying 0.731045 of unit cell:	Completed after 10 iterations at t[s]:    217.85
	Linear fluid (dielectric constant: 64) occupying 0.731043 of unit cell:	Completed after 5 iterations at t[s]:    218.86
ElecMinimize: 	Step increased F by 1.676626e-07, reducing alpha to 4.219423e-03.
	Linear fluid (dielectric constant: 64) occupying 0.731043 of unit cell:	Completed after 0 iterations at t[s]:    221.00
ElecMinimize: 	Step increased F by 1.034307e-07, reducing alpha to 4.219423e-04.
	Linear fluid (dielectric constant: 64) occupying 0.731043 of unit cell:	Completed after 0 iterations at t[s]:    223.08
ElecMinimize: 	Step increased F by 9.550786e-08, reducing alpha to 4.219423e-05.
ElecMinimize: 	Step failed to reduce F after 3 attempts. Quitting step.
ElecMinimize: 	Undoing step.
	Linear fluid (dielectric constant: 64) occupying 0.731043 of unit cell:	Completed after 0 iterations at t[s]:    225.17
ElecMinimize: 	Step failed: resetting search direction.
	FillingsUpdate:  mu: -0.013824039  nElectrons: 498.000000
	SubspaceRotationAdjust: set factor to 1.6
ElecMinimize: Iter:  13  F: -1825.339790543801200  |grad|_K:  1.613e-07  alpha:  4.219e-05
	Linear fluid (dielectric constant: 64) occupying 0.731040 of unit cell:	Completed after 7 iterations at t[s]:    227.56
	Linear fluid (dielectric constant: 64) occupying 0.731042 of unit cell:	Completed after 3 iterations at t[s]:    228.53
ElecMinimize: 	Step increased F by 4.150911e-08, reducing alpha to 7.850018e-03.
	Linear fluid (dielectric constant: 64) occupying 0.731043 of unit cell:	Completed after 0 iterations at t[s]:    230.65
	FillingsUpdate:  mu: -0.013827832  nElectrons: 498.000000
	SubspaceRotationAdjust: set factor to 1.46
ElecMinimize: Iter:  14  F: -1825.339790564693203  |grad|_K:  1.371e-07  alpha:  7.850e-03  linmin:  5.128e-03  t[s]:    232.02
	Linear fluid (dielectric constant: 64) occupying 0.731043 of unit cell:	Completed after 0 iterations at t[s]:    232.98
ElecMinimize: 	Predicted alpha/alphaT>3.000000, increasing alphaT to 2.355005e-02.
	Linear fluid (dielectric constant: 64) occupying 0.731042 of unit cell:	Completed after 0 iterations at t[s]:    233.89
	Linear fluid (dielectric constant: 64) occupying 0.731042 of unit cell:	Completed after 0 iterations at t[s]:    234.78
	FillingsUpdate:  mu: -0.013827586  nElectrons: 498.000000
	SubspaceRotationAdjust: set factor to 1.6
ElecMinimize: Iter:  15  F: -1825.339790588759797  |grad|_K:  1.320e-07  alpha:  4.591e-02  linmin:  1.879e-05  t[s]:    240.09
	Linear fluid (dielectric constant: 64) occupying 0.731042 of unit cell:	Completed after 3 iterations at t[s]:    245.40
	Linear fluid (dielectric constant: 64) occupying 0.731042 of unit cell:	Completed after 0 iterations at t[s]:    248.11
ElecMinimize: 	Step increased F by 9.957898e-08, reducing alpha to 1.008802e-03.
	Linear fluid (dielectric constant: 64) occupying 0.731042 of unit cell:	Completed after 0 iterations at t[s]:    250.20
ElecMinimize: 	Step increased F by 9.307428e-08, reducing alpha to 1.008802e-04.
	Linear fluid (dielectric constant: 64) occupying 0.731042 of unit cell:	Completed after 0 iterations at t[s]:    253.13
ElecMinimize: 	Step increased F by 9.237647e-08, reducing alpha to 1.008802e-05.
ElecMinimize: 	Step failed to reduce F after 3 attempts. Quitting step.
ElecMinimize: 	Undoing step.
	Linear fluid (dielectric constant: 64) occupying 0.731042 of unit cell:	Completed after 0 iterations at t[s]:    255.22
ElecMinimize: 	Step failed: resetting search direction.
	FillingsUpdate:  mu: -0.013827367  nElectrons: 498.000000
	SubspaceRotationAdjust: set factor to 1.38
ElecMinimize: Iter:  16  F: -1825.339790496395835  |grad|_K:  5.468e-08  alpha:  1.009e-05
	Linear fluid (dielectric constant: 64) occupying 0.731042 of unit cell:	Completed after 0 iterations at t[s]:    257.50
ElecMinimize: 	Wrong curvature in test step, increasing alphaT to 1.377223e-01.
	Linear fluid (dielectric constant: 64) occupying 0.731042 of unit cell:	Completed after 0 iterations at t[s]:    258.13
	FillingsUpdate:  mu: -0.013827324  nElectrons: 498.000000
	SubspaceRotationAdjust: set factor to 1.52
ElecMinimize: Iter:  17  F: -1825.339790510276771  |grad|_K:  6.248e-08  alpha: -1.684e+00  linmin: -1.059e-02  t[s]:    259.49
	Linear fluid (dielectric constant: 64) occupying 0.731045 of unit cell:	Completed after 17 iterations at t[s]:    260.63
	Linear fluid (dielectric constant: 64) occupying 0.731042 of unit cell:	Completed after 12 iterations at t[s]:    261.72
	FillingsUpdate:  mu: -0.013826185  nElectrons: 498.000000
	SubspaceRotationAdjust: set factor to 1.53
ElecMinimize: Iter:  18  F: -1825.339790693427176  |grad|_K:  1.127e-07  alpha:  7.224e-02  linmin:  1.058e-02  t[s]:    263.12
ElecMinimize: 	Bad step direction: g.d > 0.
ElecMinimize: 	Undoing step.
	Linear fluid (dielectric constant: 64) occupying 0.731042 of unit cell:	Completed after 0 iterations at t[s]:    264.06
ElecMinimize: 	Step failed: resetting search direction.
	FillingsUpdate:  mu: -0.013826185  nElectrons: 498.000000
	SubspaceRotationAdjust: set factor to 1.58
ElecMinimize: Iter:  19  F: -1825.339790693427631  |grad|_K:  1.128e-07  alpha:  0.000e+00
	Linear fluid (dielectric constant: 64) occupying 0.731042 of unit cell:	Completed after 0 iterations at t[s]:    266.38
	Linear fluid (dielectric constant: 64) occupying 0.731042 of unit cell:	Completed after 9 iterations at t[s]:    267.40
ElecMinimize: 	Step increased F by 2.340939e-07, reducing alpha to 2.088122e-02.
	Linear fluid (dielectric constant: 64) occupying 0.731042 of unit cell:	Completed after 1 iterations at t[s]:    269.54
ElecMinimize: 	Step increased F by 2.421643e-08, reducing alpha to 2.088122e-03.
	Linear fluid (dielectric constant: 64) occupying 0.731042 of unit cell:	Completed after 0 iterations at t[s]:    271.70
ElecMinimize: 	Step increased F by 2.673460e-09, reducing alpha to 2.088122e-04.
ElecMinimize: 	Step failed to reduce F after 3 attempts. Quitting step.
ElecMinimize: 	Undoing step.
	Linear fluid (dielectric constant: 64) occupying 0.731042 of unit cell:	Completed after 0 iterations at t[s]:    273.80
ElecMinimize: 	Step failed along negative gradient direction.
ElecMinimize: Probably at roundoff error limit. (Stopping)
Setting wave functions to eigenvectors of Hamiltonian

# Ionic positions in cartesian coordinates:
ion Ti   0.000000174975000  -0.000000174975000   2.000000000000000 0
ion Ti   4.340445422775002   4.340445072825003   4.795024053800006 0
ion Ti   0.000000174975000   8.680909217925004   2.000000000000000 0
ion Ti   4.340445422775002  13.021354465725009   4.795024053800006 0
ion Ti   0.000000174975000  17.361818610825011   2.000000000000000 0
ion Ti   4.340445422775002  21.702263858625013   4.795024053800006 0
ion Ti   8.680909567875004  -0.000000174975000   2.000000000000000 0
ion Ti  13.021354815675011   4.340445072825003   4.795024053800006 0
ion Ti   8.680909567875004   8.680909217925004   2.000000000000000 0
ion Ti  13.021354815675011  13.021354465725009   4.795024053800006 0
ion Ti   8.680909567875004  17.361818610825011   2.000000000000000 0
ion Ti  13.021364264325012  21.702263858625013   4.795024053800006 0
ion Ti  17.361818960775011  -0.000000174975000   2.000000000000000 0
ion Ti  21.702264208575013   4.340445072825003   4.795024053800006 0
ion Ti  17.361818960775011   8.680909217925004   2.000000000000000 0
ion Ti  21.702264208575013  13.021363914375009   4.795024053800006 0
ion Ti  17.361818960775011  17.361818610825011   2.000000000000000 0
ion Ti  21.702264208575013  21.702263858625013   4.795024053800006 0
ion O   2.650289808075001   2.650289458125000   2.000000000000000 0
ion O   6.030619934775004   6.030619584825001   2.000000000000000 0
ion O   1.690174686975001   6.990734705925004   4.795024053800006 0
ion O   6.990735055875005   1.690174337025000   4.795024053800006 0
ion O   2.650289808075001  11.331198851025007   2.000000000000000 0
ion O   6.030619934775004  14.711528977725013   2.000000000000000 0
ion O   1.690174686975001  15.671644098825009   4.795024053800006 0
ion O   6.990735055875005  10.371083729925008   4.795024053800006 0
ion O   2.650289808075001  20.012108243925013   2.000000000000000 0
ion O   6.030619934775004  23.392438370625015   2.000000000000000 0
ion O   1.690174686975001  24.352553491725022   4.795024053800006 0
ion O   6.990735055875005  19.051993122825007   4.795024053800006 0
ion O  11.331199200975007   2.650289458125000   2.000000000000000 0
ion O  14.711529327675009   6.030619584825001   2.000000000000000 0
ion O  10.371084079875008   6.990734705925004   4.795024053800006 0
ion O  15.671644448775007   1.690174337025000   4.795024053800006 0
ion O  11.331199200975007  11.331198851025007   2.000000000000000 0
ion O  14.711529327675009  14.711528977725013   2.000000000000000 0
ion O  10.371084079875008  15.671644098825009   4.795024053800006 0
ion O  15.671644448775007  10.371083729925008   4.795024053800006 0
ion O  11.331199200975007  20.012108243925013   2.000000000000000 0
ion O  14.711529327675009  23.392438370625015   2.000000000000000 0
ion O  10.371084079875008  24.352553491725022   4.795024053800006 0
ion O  15.671644448775007  19.051993122825007   4.795024053800006 0
ion O  20.012108593875006   2.650289458125000   2.000000000000000 0
ion O  23.392438720575015   6.030619584825001   2.000000000000000 0
ion O  19.051993472775010   6.990734705925004   4.795024053800006 0
ion O  24.352553841675014   1.690174337025000   4.795024053800006 0
ion O  20.012108593875006  11.331198851025007   2.000000000000000 0
ion O  23.392438720575015  14.711528977725013   2.000000000000000 0
ion O  19.051993472775010  15.671644098825009   4.795024053800006 0
ion O  24.352553841675014  10.371083729925008   4.795024053800006 0
ion O  20.012108593875006  20.012108243925013   2.000000000000000 0
ion O  23.392438720575015  23.392438370625015   2.000000000000000 0
ion O  19.051993472775010  24.352553491725022   4.795024053800006 0
ion O  24.352553841675014  19.051993122825007   4.795024053800006 0
ion S   8.787649650015837   6.401453605759810  14.384445903455353 1
ion S  23.110764602723624  10.303099152112146  16.131984533384085 1
ion S  22.677383458777417  13.786131660854766  13.946069397211406 1
ion S  20.292092520560768  25.498426037924457  13.512542238305530 1
ion S  21.810594855734291  20.390396434020246   9.928773607823056 1
ion S  10.955765208772556  23.541735403652865  16.128322271509461 1
ion S  15.988344185681013  11.903807192937940  11.649065264736221 1
ion S   9.873025916336248  12.479408421617274  14.820747431606129 1
ion Na  17.918084324559477  18.162601053105686   7.974578222413831 1
ion Na  16.850025468790861   8.219850691149833   8.138892924945193 1

# Forces in Cartesian coordinates:
force Ti   0.004454641100898  -0.001263996921203   0.021257974619938 0
force Ti  -0.007102138883274  -0.008083168319145  -0.147346182444613 0
force Ti   0.004679982304032  -0.001566952611452   0.014236111742783 0
force Ti  -0.001694543227055   0.002729884922901  -0.155155952655406 0
force Ti   0.002592106664145   0.009612197841756   0.022411448567985 0
force Ti  -0.000013817438740   0.001194675537884  -0.123077066030360 0
force Ti  -0.004363775943400  -0.004515306485468   0.020734237207531 0
force Ti  -0.000390581657770  -0.009593918837069  -0.141723394641910 0
force Ti  -0.003693159159245  -0.000567270924512   0.010320644411212 0
force Ti   0.002658008495556   0.008213051304898  -0.141646774255763 0
force Ti  -0.002818114813478   0.003628251174756   0.019226231046391 0
force Ti  -0.007380663769342   0.002839537687299  -0.126595971115377 0
force Ti  -0.002100887326751  -0.001694115299236   0.016934879581583 0
force Ti   0.007422622619502  -0.003401638406259  -0.138677340437281 0
force Ti  -0.002715726865188  -0.001011955039025   0.008324707481185 0
force Ti   0.001852750422415  -0.001991003903042  -0.152181943260320 0
force Ti   0.000497454032826   0.003256504602692   0.011955908288442 0
force Ti   0.004785768761573  -0.014565720749123  -0.119238300506800 0
force O  -0.004948271534555  -0.003787689832475   0.021971261077499 0
force O   0.007040260947054   0.006675857555374   0.023058923608436 0
force O   0.025904508569206  -0.023904601502519   0.022542221473959 0
force O  -0.025468836689681   0.028943619336111   0.023104045732652 0
force O  -0.005348647461608  -0.004672605031048   0.023337701973132 0
force O   0.004705205039419   0.003299101107928   0.023478887329455 0
force O   0.027183677669779  -0.029491273679771   0.025519710359467 0
force O  -0.024752564971362   0.027324747315715   0.028397247542847 0
force O  -0.007602244682977  -0.008244675051157   0.017901159752525 0
force O   0.007810772006695   0.007834446736594   0.017871696611336 0
force O   0.023087302775299  -0.023592366178733   0.018805316125435 0
force O  -0.023007142506258   0.023743057653904   0.019172126829710 0
force O  -0.000366880025468   0.000464123364924   0.026113358053682 0
force O   0.003653436314114   0.004041982480567   0.026019378425644 0
force O   0.030163819850746  -0.028878032812828   0.033967379692664 0
force O  -0.027211562073258   0.028777857461392   0.023667018823818 0
force O  -0.001981668816643  -0.002622560399289   0.027016773405938 0
force O   0.002081657289059   0.001108996769268   0.026443276251200 0
[...]
ElecMinimize: Iter:   2  F: -1825.339981975729415  |grad|_K:  1.294e-07  alpha:  3.457e-01  linmin:  1.320e-05  t[s]:   3284.56
	Linear fluid (dielectric constant: 64) occupying 0.731108 of unit cell:	Completed after 7 iterations at t[s]:   3285.60
	Linear fluid (dielectric constant: 64) occupying 0.731098 of unit cell:	Completed after 5 iterations at t[s]:   3286.62
ElecMinimize: 	Step increased F by 5.260836e-08, reducing alpha to 4.865907e-03.
	Linear fluid (dielectric constant: 64) occupying 0.731096 of unit cell:	Completed after 0 iterations at t[s]:   3288.76
	FillingsUpdate:  mu: -0.013861865  nElectrons: 498.000000
	SubspaceRotationAdjust: set factor to 0.862
ElecMinimize: Iter:   3  F: -1825.339982006165201  |grad|_K:  1.634e-07  alpha:  4.866e-03  linmin:  2.710e-03  t[s]:   3290.13
ElecMinimize: 	Bad step direction: g.d > 0.
ElecMinimize: 	Undoing step.
	Linear fluid (dielectric constant: 64) occupying 0.731096 of unit cell:	Completed after 0 iterations at t[s]:   3291.09
ElecMinimize: 	Step failed: resetting search direction.
	FillingsUpdate:  mu: -0.013861865  nElectrons: 498.000000
	SubspaceRotationAdjust: set factor to 1.04
ElecMinimize: Iter:   4  F: -1825.339982006161563  |grad|_K:  1.622e-07  alpha:  0.000e+00
	Linear fluid (dielectric constant: 64) occupying 0.731096 of unit cell:	Completed after 0 iterations at t[s]:   3293.40
	Linear fluid (dielectric constant: 64) occupying 0.731096 of unit cell:	Completed after 0 iterations at t[s]:   3294.32
ElecMinimize: 	Step increased F by 1.610692e-08, reducing alpha to 1.492639e-04.
	Linear fluid (dielectric constant: 64) occupying 0.731096 of unit cell:	Completed after 0 iterations at t[s]:   3296.43
ElecMinimize: 	Step increased F by 1.940953e-08, reducing alpha to 1.492639e-05.
	Linear fluid (dielectric constant: 64) occupying 0.731096 of unit cell:	Completed after 0 iterations at t[s]:   3298.54
ElecMinimize: 	Step increased F by 1.970989e-08, reducing alpha to 1.492639e-06.
ElecMinimize: 	Step failed to reduce F after 3 attempts. Quitting step.
ElecMinimize: 	Undoing step.
	Linear fluid (dielectric constant: 64) occupying 0.731096 of unit cell:	Completed after 0 iterations at t[s]:   3300.64
ElecMinimize: 	Step failed along negative gradient direction.
ElecMinimize: Probably at roundoff error limit. (Stopping)
Setting wave functions to eigenvectors of Hamiltonian

-------- Electronic minimization -----------
	Linear fluid (dielectric constant: 64) occupying 0.731086 of unit cell:	Completed after 10 iterations at t[s]:   3303.30
	FillingsUpdate:  mu: -0.013890505  nElectrons: 498.000000
ElecMinimize: Iter:   0  F: -1825.339981111094630  |grad|_K:  3.590e-07  alpha:  1.000e+00
	Linear fluid (dielectric constant: 64) occupying 0.731144 of unit cell:	Completed after 15 iterations at t[s]:   3305.98
	Linear fluid (dielectric constant: 64) occupying 0.731094 of unit cell:	Completed after 13 iterations at t[s]:   3307.09
	FillingsUpdate:  mu: -0.013876810  nElectrons: 498.000000
	SubspaceRotationAdjust: set factor to 1.59
ElecMinimize: Iter:   1  F: -1825.339981987749752  |grad|_K:  1.765e-07  alpha:  1.265e-01  linmin:  2.837e-04  t[s]:   3308.52
	Linear fluid (dielectric constant: 64) occupying 0.731095 of unit cell:	Completed after 1 iterations at t[s]:   3309.49
	Linear fluid (dielectric constant: 64) occupying 0.731094 of unit cell:	Completed after 0 iterations at t[s]:   3310.41
	FillingsUpdate:  mu: -0.013871533  nElectrons: 498.000000
	SubspaceRotationAdjust: set factor to 2.05
ElecMinimize: Iter:   2  F: -1825.339982084362191  |grad|_K:  6.388e-08  alpha:  7.296e-02  linmin:  1.924e-04  t[s]:   3311.78
	Linear fluid (dielectric constant: 64) occupying 0.731093 of unit cell:	Completed after 0 iterations at t[s]:   3312.76
ElecMinimize: 	Wrong curvature in test step, increasing alphaT to 2.188855e-01.
	Linear fluid (dielectric constant: 64) occupying 0.731093 of unit cell:	Completed after 0 iterations at t[s]:   3313.38
	FillingsUpdate:  mu: -0.013871568  nElectrons: 498.000000
	SubspaceRotationAdjust: set factor to 2.33
ElecMinimize: Iter:   3  F: -1825.339982113898714  |grad|_K:  6.841e-08  alpha: -5.895e+00  linmin: -5.309e-03  t[s]:   3314.77
	Linear fluid (dielectric constant: 64) occupying 0.731051 of unit cell:	Completed after 14 iterations at t[s]:   3315.88
	Linear fluid (dielectric constant: 64) occupying 0.731088 of unit cell:	Completed after 9 iterations at t[s]:   3316.94
ElecMinimize: 	Step increased F by 2.183151e-08, reducing alpha to 1.124667e-02.
	Linear fluid (dielectric constant: 64) occupying 0.731093 of unit cell:	Completed after 0 iterations at t[s]:   3319.08
	FillingsUpdate:  mu: -0.013878430  nElectrons: 498.000000
	SubspaceRotationAdjust: set factor to 2.14
ElecMinimize: Iter:   4  F: -1825.339982161326361  |grad|_K:  1.761e-07  alpha:  1.125e-02  linmin:  1.831e-03  t[s]:   3320.46
ElecMinimize: 	Bad step direction: g.d > 0.
ElecMinimize: 	Undoing step.
	Linear fluid (dielectric constant: 64) occupying 0.731093 of unit cell:	Completed after 0 iterations at t[s]:   3321.41
ElecMinimize: 	Step failed: resetting search direction.
	FillingsUpdate:  mu: -0.013878430  nElectrons: 498.000000
	SubspaceRotationAdjust: set factor to 2.9
ElecMinimize: Iter:   5  F: -1825.339982161330909  |grad|_K:  1.733e-07  alpha:  0.000e+00
	Linear fluid (dielectric constant: 64) occupying 0.731094 of unit cell:	Completed after 0 iterations at t[s]:   3323.71
ElecMinimize: 	Wrong curvature in test step, increasing alphaT to 3.374000e-02.
	Linear fluid (dielectric constant: 64) occupying 0.731094 of unit cell:	Completed after 0 iterations at t[s]:   3324.34
	FillingsUpdate:  mu: -0.013878972  nElectrons: 498.000000
	SubspaceRotationAdjust: set factor to 3.51
ElecMinimize: Iter:   6  F: -1825.339982196111123  |grad|_K:  1.953e-07  alpha: -1.747e-01  linmin: -5.163e-03  t[s]:   3325.72
	Linear fluid (dielectric constant: 64) occupying 0.731341 of unit cell:	Completed after 30 iterations at t[s]:   3327.01
	Linear fluid (dielectric constant: 64) occupying 0.731109 of unit cell:	Completed after 28 iterations at t[s]:   3328.31
ElecMinimize: 	Step increased F by 1.603910e-07, reducing alpha to 6.203935e-03.
	Linear fluid (dielectric constant: 64) occupying 0.731095 of unit cell:	Completed after 5 iterations at t[s]:   3330.52
	FillingsUpdate:  mu: -0.013868436  nElectrons: 498.000000
	SubspaceRotationAdjust: set factor to 3.55
ElecMinimize: Iter:   7  F: -1825.339982217656143  |grad|_K:  1.353e-07  alpha:  6.204e-03  linmin:  2.108e-03  t[s]:   3331.92
	Linear fluid (dielectric constant: 64) occupying 0.731096 of unit cell:	Completed after 0 iterations at t[s]:   3332.87
ElecMinimize: 	Wrong curvature in test step, increasing alphaT to 1.861180e-02.
	Linear fluid (dielectric constant: 64) occupying 0.731096 of unit cell:	Completed after 0 iterations at t[s]:   3333.50
	FillingsUpdate:  mu: -0.013868844  nElectrons: 498.000000
	SubspaceRotationAdjust: set factor to 4.19
ElecMinimize: Iter:   8  F: -1825.339982220778666  |grad|_K:  1.354e-07  alpha: -6.495e-02  linmin: -8.685e-04  t[s]:   3334.87
	Linear fluid (dielectric constant: 64) occupying 0.731220 of unit cell:	Completed after 24 iterations at t[s]:   3336.10
	Linear fluid (dielectric constant: 64) occupying 0.731102 of unit cell:	Completed after 22 iterations at t[s]:   3337.31
ElecMinimize: 	Step increased F by 1.006413e-07, reducing alpha to 4.897340e-03.
	Linear fluid (dielectric constant: 64) occupying 0.731097 of unit cell:	Completed after 0 iterations at t[s]:   3339.47
ElecMinimize: 	Step increased F by 3.844775e-08, reducing alpha to 4.897340e-04.
	Linear fluid (dielectric constant: 64) occupying 0.731096 of unit cell:	Completed after 0 iterations at t[s]:   3341.57
ElecMinimize: 	Step increased F by 2.944716e-08, reducing alpha to 4.897340e-05.
ElecMinimize: 	Step failed to reduce F after 3 attempts. Quitting step.
ElecMinimize: 	Undoing step.
	Linear fluid (dielectric constant: 64) occupying 0.731096 of unit cell:	Completed after 0 iterations at t[s]:   3343.67
ElecMinimize: 	Step failed: resetting search direction.
	FillingsUpdate:  mu: -0.013862938  nElectrons: 498.000000
	SubspaceRotationAdjust: set factor to 2.94
ElecMinimize: Iter:   9  F: -1825.339982191454737  |grad|_K:  1.410e-07  alpha:  4.897e-05
	Linear fluid (dielectric constant: 64) occupying 0.730994 of unit cell:	Completed after 21 iterations at t[s]:   3346.23
	Linear fluid (dielectric constant: 64) occupying 0.731090 of unit cell:	Completed after 20 iterations at t[s]:   3347.43
ElecMinimize: 	Step increased F by 1.799021e-07, reducing alpha to 6.184574e-03.
	Linear fluid (dielectric constant: 64) occupying 0.731095 of unit cell:	Completed after 0 iterations at t[s]:   3349.57
ElecMinimize: 	Step increased F by 5.648985e-08, reducing alpha to 6.184574e-04.
	Linear fluid (dielectric constant: 64) occupying 0.731096 of unit cell:	Completed after 0 iterations at t[s]:   3351.68
ElecMinimize: 	Step increased F by 4.184017e-08, reducing alpha to 6.184574e-05.
ElecMinimize: 	Step failed to reduce F after 3 attempts. Quitting step.
ElecMinimize: 	Undoing step.
	Linear fluid (dielectric constant: 64) occupying 0.731096 of unit cell:	Completed after 0 iterations at t[s]:   3353.78
ElecMinimize: 	Step failed along negative gradient direction.
ElecMinimize: Probably at roundoff error limit. (Stopping)
Setting wave functions to eigenvectors of Hamiltonian

# Ionic positions in cartesian coordinates:
ion Ti   0.000000174975000  -0.000000174975000   2.000000000000000 0
ion Ti   4.340445422775002   4.340445072825003   4.795024053800006 0
ion Ti   0.000000174975000   8.680909217925004   2.000000000000000 0
ion Ti   4.340445422775002  13.021354465725009   4.795024053800006 0
ion Ti   0.000000174975000  17.361818610825011   2.000000000000000 0
ion Ti   4.340445422775002  21.702263858625013   4.795024053800006 0
ion Ti   8.680909567875004  -0.000000174975000   2.000000000000000 0
ion Ti  13.021354815675011   4.340445072825003   4.795024053800006 0
ion Ti   8.680909567875004   8.680909217925004   2.000000000000000 0
ion Ti  13.021354815675011  13.021354465725009   4.795024053800006 0
ion Ti   8.680909567875004  17.361818610825011   2.000000000000000 0
ion Ti  13.021364264325012  21.702263858625013   4.795024053800006 0
ion Ti  17.361818960775011  -0.000000174975000   2.000000000000000 0
ion Ti  21.702264208575013   4.340445072825003   4.795024053800006 0
ion Ti  17.361818960775011   8.680909217925004   2.000000000000000 0
ion Ti  21.702264208575013  13.021363914375009   4.795024053800006 0
ion Ti  17.361818960775011  17.361818610825011   2.000000000000000 0
ion Ti  21.702264208575013  21.702263858625013   4.795024053800006 0
ion O   2.650289808075001   2.650289458125000   2.000000000000000 0
ion O   6.030619934775004   6.030619584825001   2.000000000000000 0
ion O   1.690174686975001   6.990734705925004   4.795024053800006 0
ion O   6.990735055875005   1.690174337025000   4.795024053800006 0
ion O   2.650289808075001  11.331198851025007   2.000000000000000 0
ion O   6.030619934775004  14.711528977725013   2.000000000000000 0
ion O   1.690174686975001  15.671644098825009   4.795024053800006 0
ion O   6.990735055875005  10.371083729925008   4.795024053800006 0
ion O   2.650289808075001  20.012108243925013   2.000000000000000 0
ion O   6.030619934775004  23.392438370625015   2.000000000000000 0
ion O   1.690174686975001  24.352553491725022   4.795024053800006 0
ion O   6.990735055875005  19.051993122825007   4.795024053800006 0
ion O  11.331199200975007   2.650289458125000   2.000000000000000 0
ion O  14.711529327675009   6.030619584825001   2.000000000000000 0
ion O  10.371084079875008   6.990734705925004   4.795024053800006 0
ion O  15.671644448775007   1.690174337025000   4.795024053800006 0
ion O  11.331199200975007  11.331198851025007   2.000000000000000 0
ion O  14.711529327675009  14.711528977725013   2.000000000000000 0
ion O  10.371084079875008  15.671644098825009   4.795024053800006 0
ion O  15.671644448775007  10.371083729925008   4.795024053800006 0
ion O  11.331199200975007  20.012108243925013   2.000000000000000 0
ion O  14.711529327675009  23.392438370625015   2.000000000000000 0
ion O  10.371084079875008  24.352553491725022   4.795024053800006 0
ion O  15.671644448775007  19.051993122825007   4.795024053800006 0
ion O  20.012108593875006   2.650289458125000   2.000000000000000 0
ion O  23.392438720575015   6.030619584825001   2.000000000000000 0
ion O  19.051993472775010   6.990734705925004   4.795024053800006 0
ion O  24.352553841675014   1.690174337025000   4.795024053800006 0
ion O  20.012108593875006  11.331198851025007   2.000000000000000 0
ion O  23.392438720575015  14.711528977725013   2.000000000000000 0
ion O  19.051993472775010  15.671644098825009   4.795024053800006 0
ion O  24.352553841675014  10.371083729925008   4.795024053800006 0
ion O  20.012108593875006  20.012108243925013   2.000000000000000 0
ion O  23.392438720575015  23.392438370625015   2.000000000000000 0
ion O  19.051993472775010  24.352553491725022   4.795024053800006 0
ion O  24.352553841675014  19.051993122825007   4.795024053800006 0
ion S   8.787671684034002   6.401413026209737  14.384460858583989 1
ion S  23.110657977079509  10.303154137881624  16.131874319303204 1
ion S  22.677409404711760  13.786183832300861  13.946061250838120 1
ion S  20.292010309718080  25.498908915720914  13.512604692935227 1
ion S  21.704367022838753  20.415691280229424   9.934547483285264 1
ion S  10.955631206019852  23.541510851464970  16.128281345872850 1
ion S  16.041927435262775  11.972170805911336  11.616148461804620 1
ion S   9.873145753191848  12.479456961369149  14.820696349689973 1
ion Na  17.866496170930258  18.130315352746837   7.991164159346339 1
ion Na  16.838958151891976   8.117118745837272   8.172373840600844 1

# Forces in Cartesian coordinates:
force Ti   0.004320691476218  -0.001287905667726   0.021171356431032 0
force Ti  -0.007100829248012  -0.008045460212758  -0.147533016070997 0
force Ti   0.004630627321685  -0.001517718653278   0.014314137306539 0
force Ti  -0.001710513618026   0.002693525178358  -0.155129400975771 0
force Ti   0.002623733573979   0.009376409626668   0.022128605075426 0
force Ti   0.000077753084426   0.001180618741519  -0.123078251361685 0
force Ti  -0.004370851327963  -0.004537437691960   0.020672978512332 0
force Ti  -0.000678037683376  -0.009779943275398  -0.142081210685629 0
force Ti  -0.003609860752713  -0.000508529541469   0.010346708844661 0
force Ti   0.003134614238165   0.007928273035095  -0.141540646013332 0
force Ti  -0.002748437390699   0.003616054959836   0.019258550651133 0
force Ti  -0.007202859861979   0.002755726204921  -0.126544584705478 0
force Ti  -0.001911867927394  -0.001841408288082   0.017136824340148 0
force Ti   0.007332417459455  -0.003305171785009  -0.138743752158939 0
force Ti  -0.002844357005617  -0.000734858063235   0.008840177450206 0
force Ti   0.001403975498167  -0.002001621084833  -0.151733504076732 0
force Ti   0.000673482337040   0.003235753147755   0.012513770211029 0
force Ti   0.003172133249728  -0.014653413975876  -0.118658095986083 0
force O  -0.004918910685885  -0.003777113559675   0.021941634885201 0
force O   0.007021541580941   0.006656501441343   0.023023428873648 0
force O   0.025925715204287  -0.023919020853099   0.022506563122494 0
force O  -0.025465946661472   0.028944024454794   0.023072280142400 0
force O  -0.005320279120576  -0.004662609576081   0.023289051253933 0
force O   0.004683250994542   0.003300484227443   0.023435164481147 0
force O   0.027124878809882  -0.029438145709171   0.025527234879906 0
force O  -0.024770796782203   0.027331830637845   0.028365282168977 0
force O  -0.007548762940612  -0.008186382410543   0.017914329693816 0
force O   0.007752051468497   0.007790351037551   0.017878281895430 0
force O   0.023108653243265  -0.023720826345701   0.018887120666356 0
force O  -0.023065971214448   0.023792734741644   0.019146238834618 0
force O  -0.000321801935734   0.000517497795533   0.026122507524929 0
force O   0.003599177518360   0.003933098966340   0.025989646728241 0
force O   0.030129468344616  -0.028918710207920   0.033841412967531 0
force O  -0.027267331595531   0.028865363619077   0.023678946100282 0
force O  -0.002122001962222  -0.002702872042531   0.026867894045184 0
force O   0.002063358794708   0.001135687563925   0.026310541562102 0
force O   0.030270544367046  -0.032534065658376   0.028725521870065 0
force O  -0.027949231046936   0.023161811764105   0.022212690881601 0
force O  -0.002803979641706  -0.004485964786078   0.022085254630587 0
force O   0.004961015662262   0.004475531342591   0.022040557735894 0
force O   0.027590780314140  -0.027512903634559   0.022918239543286 0
force O  -0.029423838243756   0.026343084968817   0.016713084912563 0
force O  -0.002263584369637  -0.001659698364952   0.025615173103515 0
force O   0.001034417764464   0.002827220548298   0.025538246855000 0
force O   0.027603820334938  -0.025264962385900   0.026733523668249 0
force O  -0.031732330889227   0.029629698633442   0.026073964821026 0
force O  -0.001497849709727  -0.001209265977662   0.028234754987690 0
force O  -0.000922135807751  -0.000986399176953   0.028351456654743 0
force O   0.026582256019066  -0.029413220864976   0.027970560717215 0
force O  -0.032440856706581   0.032366525780629   0.032652016845291 0
force O  -0.002867409493504  -0.002845243771326   0.026219717805156 0
force O   0.001597057153103   0.003130295859523   0.023077992642791 0
force O   0.029502127007389  -0.028555256731041   0.024756408045973 0
force O  -0.022563898995161   0.027892735622801   0.003233388073960 0
force S  -0.000054000470476   0.000084895157592  -0.000147457008306 1
force S   0.000099206468792  -0.000050029107838   0.000902769608721 1
force S   0.000067392557375  -0.000031993739272   0.000090228026135 1
force S   0.000137025889445  -0.001421933225209  -0.000172322741523 1
force S   0.001066814635368   0.000076716783576  -0.000242286853000 1
force S   0.000257504287030   0.000783291717865   0.001415219397735 1
force S   0.000313251975731   0.000165264109470  -0.000197036896769 1
force S  -0.000098738358776  -0.000180722858607   0.000209303568261 1
force Na  -0.001735532543537  -0.000978415019622  -0.001348001368515 1
force Na  -0.000503690729355   0.000885210131841  -0.000654317948462 1

# Energy components:
   A_diel =      -78.2229100257703323
   Eewald =    13256.8319130880354351
       EH =    14334.7050972348424693
     Eloc =   -29598.6691582323801413
      Enl =       36.6052132377301689
      Exc =     -329.9217055783163346
 Exc_core =       40.0526504752004655
       KE =      513.4980982724121077
  MuShift =        0.0000000000000436
-------------------------------------
     Etot =    -1825.1208015282438737
       TS =        0.2191806215163886
-------------------------------------
        F =    -1825.3399821497603170

IonicMinimize: Iter:  18  F: -1825.339982149760317  |grad|_K:  6.912e-04  alpha:  3.840e-02  linmin: -5.303e-04  t[s]:   3356.44
IonicMinimize: Converged (|Delta F|<1.000000e-06 for 2 iters).

#--- Lowdin population analysis ---
# oxidation-state Ti +2.368 +1.861 +2.389 +1.821 +2.354 +1.916 +2.367 +1.768 +2.397 +1.794 +2.373 +1.856 +2.379 +1.787 +2.402 +1.760 +2.404 +1.546
# oxidation-state O -0.922 -0.935 -1.022 -1.019 -0.928 -0.928 -1.025 -1.037 -0.936 -0.935 -1.011 -1.014 -0.909 -0.919 -1.033 -1.013 -0.920 -0.907 -1.019 -1.013 -0.924 -0.926 -1.006 -1.004 -0.920 -0.915 -1.018 -1.010 -0.909 -0.910 -1.005 -1.027 -0.895 -0.888 -1.011 -0.981
# oxidation-state S +5.890 +5.926 +5.954 +5.881 -1.576 +5.823 -1.704 +5.909
# oxidation-state Na +0.360 +0.041


Dumping 'Na2S8@TiO2-PC.fillings' ... done
Dumping 'Na2S8@TiO2-PC.wfns' ... done
Dumping 'Na2S8@TiO2-PC.fluidState' ... done
Dumping 'Na2S8@TiO2-PC.ionpos' ... done
Dumping 'Na2S8@TiO2-PC.eigenvals' ... done
End date and time: Wed Oct 16 07:54:22 2024  (Duration: 0-0:55:58.99)
Done!
