
*************** JDFTx 1.7.0  ***************

Start date and time: Fri Sep 27 18:25:07 2024
Executable jdftx_gpu with command-line: -i /home/akim2/JDFTx/Na2S8@TiO2-glyme/Na2S8@TiO2-glyme.in -o /home/akim2/JDFTx/Na2S8@TiO2-glyme/Na2S8@TiO2-glyme.out
Running on hosts (process indices):  exp-1-58 (0)
Divided in process groups (process indices):  0 (0)
gpuInit: Found compatible cuda device 0 'Tesla V100-SXM2-32GB'
gpuInit: Selected device 0
Resource initialization completed at t[s]:      0.38
Run totals: 1 processes, 1 threads, 1 GPUs


Input parsed successfully to the following command list (including defaults):

basis kpoint-dependent
coords-type Cartesian
core-overlap-check vector
coulomb-interaction Slab 001
coulomb-truncation-embed 0 0 1
davidson-band-ratio 1.1
dump End State
dump-name Na2S8@TiO2-glyme.$VAR
elec-cutoff 20 100
elec-eigen-algo Davidson
elec-ex-corr gga-PBE
elec-smearing Fermi 0.01
electronic-minimize  \
	dirUpdateScheme      FletcherReeves \
	linminMethod         DirUpdateRecommended \
	nIterations          100 \
	history              15 \
	knormThreshold       0 \
	energyDiffThreshold  1e-08 \
	nEnergyDiff          2 \
	alphaTstart          1 \
	alphaTmin            1e-10 \
	updateTestStepSize   yes \
	alphaTreduceFactor   0.1 \
	alphaTincreaseFactor 3 \
	nAlphaAdjustMax      3 \
	wolfeEnergy          0.0001 \
	wolfeGradient        0.9 \
	fdTest               no
exchange-regularization WignerSeitzTruncated
fluid LinearPCM 298.000000 1.013250
fluid-ex-corr lda-TF lda-PZ
fluid-gummel-loop 10 1.000000e-05
fluid-minimize  \
	dirUpdateScheme      PolakRibiere \
	linminMethod         DirUpdateRecommended \
	nIterations          400 \
	history              15 \
	knormThreshold       1e-11 \
	energyDiffThreshold  0 \
	nEnergyDiff          2 \
	alphaTstart          1 \
	alphaTmin            1e-10 \
	updateTestStepSize   yes \
	alphaTreduceFactor   0.1 \
	alphaTincreaseFactor 3 \
	nAlphaAdjustMax      6 \
	wolfeEnergy          0.0001 \
	wolfeGradient        0.9 \
	fdTest               no
fluid-solvent Glyme 9.62137 ScalarEOS \
	epsBulk 7.2 \
	pMol 0 \
	epsInf 1.9 \
	Pvap 0 \
	sigmaBulk 0 \
	Rvdw 0 \
	Res 0 \
	tauNuc 343133
forces-output-coords Positions
initial-state Na2S8@TiO2-glyme.$VAR
ion Ti   0.000000174975000  -0.000000174975000   2.000000000000000 0
ion Ti   4.340445422775000   4.340445072825000   4.795024053800001 0
ion Ti   0.000000174975000   8.680909217924999   2.000000000000000 0
ion Ti   4.340445422775000  13.021354465725000   4.795024053800001 0
ion Ti   0.000000174975000  17.361818610825001   2.000000000000000 0
ion Ti   4.340445422775000  21.702263858624999   4.795024053800001 0
ion Ti   8.680909567874998  -0.000000174975000   2.000000000000000 0
ion Ti  13.021354815675002   4.340445072825000   4.795024053800001 0
ion Ti   8.680909567874998   8.680909217924999   2.000000000000000 0
ion Ti  13.021354815675002  13.021354465725000   4.795024053800001 0
ion Ti   8.680909567874998  17.361818610825001   2.000000000000000 0
ion Ti  13.021364264325003  21.702263858624999   4.795024053800001 0
ion Ti  17.361818960775000  -0.000000174975000   2.000000000000000 0
ion Ti  21.702264208574999   4.340445072825000   4.795024053800001 0
ion Ti  17.361818960775000   8.680909217924999   2.000000000000000 0
ion Ti  21.702264208574999  13.021363914375000   4.795024053800001 0
ion Ti  17.361818960775000  17.361818610825001   2.000000000000000 0
ion Ti  21.702264208574999  21.702263858624999   4.795024053800001 0
ion O   2.650289808075000   2.650289458125000   2.000000000000000 0
ion O   6.030619934775000   6.030619584825001   2.000000000000000 0
ion O   1.690174686975000   6.990734705924999   4.795024053800001 0
ion O   6.990735055874999   1.690174337025000   4.795024053800001 0
ion O   2.650289808075000  11.331198851025000   2.000000000000000 0
ion O   6.030619934775000  14.711528977725004   2.000000000000000 0
ion O   1.690174686975000  15.671644098825000   4.795024053800001 0
ion O   6.990735055874999  10.371083729925001   4.795024053800001 0
ion O   2.650289808075000  20.012108243924999   2.000000000000000 0
ion O   6.030619934775000  23.392438370625001   2.000000000000000 0
ion O   1.690174686975000  24.352553491725004   4.795024053800001 0
ion O   6.990735055874999  19.051993122824996   4.795024053800001 0
ion O  11.331199200975000   2.650289458125000   2.000000000000000 0
ion O  14.711529327675001   6.030619584825001   2.000000000000000 0
ion O  10.371084079875001   6.990734705924999   4.795024053800001 0
ion O  15.671644448774998   1.690174337025000   4.795024053800001 0
ion O  11.331199200975000  11.331198851025000   2.000000000000000 0
ion O  14.711529327675001  14.711528977725004   2.000000000000000 0
ion O  10.371084079875001  15.671644098825000   4.795024053800001 0
ion O  15.671644448774998  10.371083729925001   4.795024053800001 0
ion O  11.331199200975000  20.012108243924999   2.000000000000000 0
ion O  14.711529327675001  23.392438370625001   2.000000000000000 0
ion O  10.371084079875001  24.352553491725004   4.795024053800001 0
ion O  15.671644448774998  19.051993122824996   4.795024053800001 0
ion O  20.012108593874995   2.650289458125000   2.000000000000000 0
ion O  23.392438720575004   6.030619584825001   2.000000000000000 0
ion O  19.051993472774999   6.990734705924999   4.795024053800001 0
ion O  24.352553841675000   1.690174337025000   4.795024053800001 0
ion O  20.012108593874995  11.331198851025000   2.000000000000000 0
ion O  23.392438720575004  14.711528977725004   2.000000000000000 0
ion O  19.051993472774999  15.671644098825000   4.795024053800001 0
ion O  24.352553841675000  10.371083729925001   4.795024053800001 0
ion O  20.012108593874995  20.012108243924999   2.000000000000000 0
ion O  23.392438720575004  23.392438370625001   2.000000000000000 0
ion O  19.051993472774999  24.352553491725004   4.795024053800001 0
ion O  24.352553841675000  19.051993122824996   4.795024053800001 0
ion S  13.538499920481470   5.584493502627348   9.475425448748295 1
ion S  21.908361820846700  12.001391165521389   9.453678271473200 1
ion S  19.058030872976239  13.392393897669617  11.559583324250479 1
ion S  20.538490514791210  21.451576612252378   9.509570339643496 1
ion S  17.433843771031377  23.792386945937917   9.518225906404076 1
ion S  14.114800919934641  21.898529951305584   9.652872597057677 1
ion S  11.073944552615684   8.554479076256644   9.923631876678018 1
ion S  12.627823979094645  12.057572303415093   9.614977245030582 1
ion Na  17.362198135663544  17.405499594589010   8.433247529885506 1
ion Na  17.395861403953237   9.010594730846419   8.426992295739439 1
ion-species GBRV/$ID_pbe.uspp
ion-width Ecut
ionic-minimize  \
	dirUpdateScheme      FletcherReeves \
	linminMethod         DirUpdateRecommended \
	nIterations          200 \
	history              15 \
	knormThreshold       0.0001 \
	energyDiffThreshold  1e-06 \
	nEnergyDiff          2 \
	alphaTstart          1 \
	alphaTmin            1e-10 \
	updateTestStepSize   yes \
	alphaTreduceFactor   0.1 \
	alphaTincreaseFactor 3 \
	nAlphaAdjustMax      3 \
	wolfeEnergy          0.0001 \
	wolfeGradient        0.9 \
	fdTest               no
kpoint   0.000000000000   0.000000000000   0.000000000000  1.00000000000000
kpoint-folding 1 1 1 
latt-move-scale 1 1 1
latt-scale 1 1 1 
lattice Tetragonal 26.04 37.7946
lattice-minimize  \
	dirUpdateScheme      L-BFGS \
	linminMethod         DirUpdateRecommended \
	nIterations          0 \
	history              15 \
	knormThreshold       0 \
	energyDiffThreshold  1e-06 \
	nEnergyDiff          2 \
	alphaTstart          1 \
	alphaTmin            1e-10 \
	updateTestStepSize   yes \
	alphaTreduceFactor   0.1 \
	alphaTincreaseFactor 3 \
	nAlphaAdjustMax      3 \
	wolfeEnergy          0.0001 \
	wolfeGradient        0.9 \
	fdTest               no
lcao-params -1 1e-06 0.01
pcm-variant GLSSA13
spintype no-spin
subspace-rotation-factor 1 yes
symmetries automatic
symmetry-threshold 0.0001



---------- Setting up symmetries ----------

Found 16 point-group symmetries of the bravais lattice
Found 1 space-group symmetries with basis
Applied RMS atom displacement 0 bohrs to make symmetries exact.

---------- Initializing the Grid ----------
R = 
[        26.04            0            0  ]
[            0        26.04            0  ]
[            0            0      37.7946  ]
unit cell volume = 25627.8
G =
[    0.24129          0          0  ]
[          0    0.24129          0  ]
[          0          0   0.166246  ]
Minimum fftbox size, Smin = [  120  120  172  ]
Chosen fftbox size, S = [  120  120  180  ]

---------- Initializing tighter grid for wavefunction operations ----------
R = 
[        26.04            0            0  ]
[            0        26.04            0  ]
[            0            0      37.7946  ]
unit cell volume = 25627.8
G =
[    0.24129          0          0  ]
[          0    0.24129          0  ]
[          0          0   0.166246  ]
Minimum fftbox size, Smin = [  108  108  156  ]
Chosen fftbox size, S = [  108  108  160  ]

---------- Exchange Correlation functional ----------
Initalized PBE GGA exchange.
Initalized PBE GGA correlation.

---------- Setting up pseudopotentials ----------
Width of ionic core gaussian charges (only for fluid interactions / plotting) set to 0.397384

Reading pseudopotential file '/home/akim2/jdftx_install/build/pseudopotentials/GBRV/ti_pbe.uspp':
  Title: Ti.  Created by USPP 7.3.6 on 31-3-15
  Reference state energy: -59.020943.  12 valence electrons in orbitals:
    |300>  occupation: 2  eigenvalue: -2.777623
    |310>  occupation: 6  eigenvalue: -1.894596
    |400>  occupation: 2  eigenvalue: -0.438610
    |320>  occupation: 1  eigenvalue: -0.583119
  lMax: 2  lLocal: 3  QijEcut: 6
  6 projectors sampled on a log grid with 597 points:
    l: 0  eig: -2.777624  rCut: 1.8
    l: 0  eig: -0.438611  rCut: 1.8
    l: 1  eig: -1.894596  rCut: 1.8
    l: 1  eig: 0.500000  rCut: 1.8
    l: 2  eig: -0.583118  rCut: 1.8
    l: 2  eig: 0.150000  rCut: 1.8
  Partial core density with radius 0.8
  Transforming core density to a uniform radial grid of dG=0.02 with 1273 points.
  Transforming local potential to a uniform radial grid of dG=0.02 with 1273 points.
  Transforming nonlocal projectors to a uniform radial grid of dG=0.02 with 432 points.
  Transforming density augmentations to a uniform radial grid of dG=0.02 with 1273 points.
  Transforming atomic orbitals to a uniform radial grid of dG=0.02 with 432 points.
  Core radius for overlap checks: 1.80 bohrs.

Reading pseudopotential file '/home/akim2/jdftx_install/build/pseudopotentials/GBRV/o_pbe.uspp':
  Title: O.  Created by USPP 7.3.6 on 3-2-2014
  Reference state energy: -15.894388.  6 valence electrons in orbitals:
    |200>  occupation: 2  eigenvalue: -0.878823
    |210>  occupation: 4  eigenvalue: -0.332131
  lMax: 2  lLocal: 2  QijEcut: 6
  5 projectors sampled on a log grid with 511 points:
    l: 0  eig: -0.878823  rCut: 1.25
    l: 0  eig: 0.000000  rCut: 1.25
    l: 1  eig: -0.332132  rCut: 1.25
    l: 1  eig: 0.000000  rCut: 1.25
    l: 2  eig: 1.000000  rCut: 1.25
  Partial core density with radius 0.7
  Transforming core density to a uniform radial grid of dG=0.02 with 1273 points.
  Transforming local potential to a uniform radial grid of dG=0.02 with 1273 points.
  Transforming nonlocal projectors to a uniform radial grid of dG=0.02 with 432 points.
  Transforming density augmentations to a uniform radial grid of dG=0.02 with 1273 points.
  Transforming atomic orbitals to a uniform radial grid of dG=0.02 with 432 points.
  Core radius for overlap checks: 1.25 bohrs.

Reading pseudopotential file '/home/akim2/jdftx_install/build/pseudopotentials/GBRV/s_pbe.uspp':
  Title: S.  Created by USPP 7.3.6 on 1-4-15
  Reference state energy: -11.898476.  6 valence electrons in orbitals:
    |300>  occupation: 2  eigenvalue: -0.634167
    |310>  occupation: 4  eigenvalue: -0.257568
  lMax: 2  lLocal: 3  QijEcut: 6
  6 projectors sampled on a log grid with 635 points:
    l: 0  eig: -0.634161  rCut: 1.5
    l: 0  eig: 1.500000  rCut: 1.5
    l: 1  eig: -0.257567  rCut: 1.5
    l: 1  eig: 1.500000  rCut: 1.5
    l: 2  eig: -1.000000  rCut: 1.5
    l: 2  eig: 1.500000  rCut: 1.5
  Partial core density with radius 1.15
  Transforming core density to a uniform radial grid of dG=0.02 with 1273 points.
  Transforming local potential to a uniform radial grid of dG=0.02 with 1273 points.
  Transforming nonlocal projectors to a uniform radial grid of dG=0.02 with 432 points.
  Transforming density augmentations to a uniform radial grid of dG=0.02 with 1273 points.
  Transforming atomic orbitals to a uniform radial grid of dG=0.02 with 432 points.
  Core radius for overlap checks: 1.50 bohrs.

Reading pseudopotential file '/home/akim2/jdftx_install/build/pseudopotentials/GBRV/na_pbe.uspp':
  Title: Na.  Created by USPP 7.3.6 on 23-9-15
  Reference state energy: -47.625620.  9 valence electrons in orbitals:
    |200>  occupation: 2  eigenvalue: -2.085638
    |210>  occupation: 6  eigenvalue: -1.053708
    |300>  occupation: 1  eigenvalue: -0.100838
  lMax: 2  lLocal: 0  QijEcut: 6
  5 projectors sampled on a log grid with 657 points:
    l: 0  eig: -2.085640  rCut: 1.37
    l: 0  eig: -0.100839  rCut: 1.37
    l: 1  eig: -1.053708  rCut: 1.47
    l: 1  eig: 0.500000  rCut: 1.47
    l: 2  eig: 0.750000  rCut: 2
  Transforming local potential to a uniform radial grid of dG=0.02 with 1273 points.
  Transforming nonlocal projectors to a uniform radial grid of dG=0.02 with 432 points.
  Transforming density augmentations to a uniform radial grid of dG=0.02 with 1273 points.
  Transforming atomic orbitals to a uniform radial grid of dG=0.02 with 432 points.
  Core radius for overlap checks: 2.00 bohrs.

Initialized 4 species with 64 total atoms.

Folded 1 k-points by 1x1x1 to 1 k-points.

---------- Setting up k-points, bands, fillings ----------
No reducable k-points. 
Computing the number of bands and number of electrons
Calculating initial fillings.
nElectrons: 498.000000   nBands: 366   nStates: 1

----- Setting up reduced wavefunction bases (one per k-point) -----
average nbasis = 109517.000 , ideal nbasis = 109484.012

---------- Setting up coulomb interaction ----------
Fluid mode embedding: using embedded box, but periodic Coulomb kernel.
(Fluid response is responsible for (approximate) separation between periodic images.)
Setting up double-sized grid for truncated Coulomb potentials:
R = 
[        26.04            0            0  ]
[            0        26.04            0  ]
[            0            0      75.5892  ]
unit cell volume = 51255.6
G =
[    0.24129          0          0  ]
[          0    0.24129          0  ]
[          0          0  0.0831228  ]
Chosen fftbox size, S = [  120  120  360  ]
Integer grid location selected as the embedding center:
   Grid: [  0  0  5  ]
   Lattice: [  0  0  0.0264588  ]
   Cartesian: [  0  0  1  ]
Constructing Wigner-Seitz cell: 6 faces (6 quadrilaterals, 0 hexagons)
Range-separation parameter for embedded mesh potentials due to point charges: 0.587679 bohrs.

---------- Setting up ewald sum ----------
Optimum gaussian width for ewald sums = 7.409587 bohr.
Real space sum over 405 unit cells with max indices [  4  4  2  ]
Reciprocal space sum over 7875 terms with max indices [  7  7  17  ]

---------- Allocating electronic variables ----------
Initializing wave functions:  linear combination of atomic orbitals
Ti pseudo-atom occupations:   s ( 2 0 )  p ( 6 )  d ( 4 )
O pseudo-atom occupations:   s ( 2 )  p ( 4 )
S pseudo-atom occupations:   s ( 2 )  p ( 4 )
Na pseudo-atom occupations:   s ( 2 1 )  p ( 6 )
	FillingsUpdate:  mu: +0.099298847  nElectrons: 498.000000
LCAOMinimize: Iter:   0  F: -1778.1623617925338294  |grad|_K:  1.783e-02  alpha:  1.000e+00
	FillingsUpdate:  mu: +0.080546432  nElectrons: 498.000000
LCAOMinimize: Iter:   1  F: -1780.4461072239662371  |grad|_K:  1.648e-02  alpha:  5.658e-02  linmin: -1.780e-01  cgtest:  9.909e-01  t[s]:      7.80
LCAOMinimize: Encountered beta<0, resetting CG.
LCAOMinimize: 	Wrong curvature in test step, increasing alphaT to 1.697420e-01.
	FillingsUpdate:  mu: +0.080668221  nElectrons: 498.000000
LCAOMinimize: Iter:   2  F: -1782.6055482528208813  |grad|_K:  1.619e-02  alpha: -6.506e-01  linmin: -1.728e-01  cgtest:  9.102e-01  t[s]:      9.57
	FillingsUpdate:  mu: +0.080303029  nElectrons: 498.000000
LCAOMinimize: Iter:   3  F: -1784.6100283311538988  |grad|_K:  1.575e-02  alpha:  5.118e-02  linmin: -1.847e-01  cgtest:  9.115e-01  t[s]:     11.40
LCAOMinimize: 	Wrong curvature in test step, increasing alphaT to 1.535465e-01.
	FillingsUpdate:  mu: +0.057202745  nElectrons: 498.000000
LCAOMinimize: Iter:   4  F: -1786.5078361977036820  |grad|_K:  1.562e-02  alpha: -7.155e-01  linmin: -1.878e-01  cgtest:  9.135e-01  t[s]:     13.18
	FillingsUpdate:  mu: +0.040572590  nElectrons: 498.000000
LCAOMinimize: Iter:   5  F: -1788.3840773820641061  |grad|_K:  1.574e-02  alpha:  4.973e-02  linmin: -1.936e-01  cgtest:  9.032e-01  t[s]:     15.00
LCAOMinimize: 	Wrong curvature in test step, increasing alphaT to 1.491765e-01.
	FillingsUpdate:  mu: +0.024868012  nElectrons: 498.000000
LCAOMinimize: Iter:   6  F: -1790.3787022505480309  |grad|_K:  1.600e-02  alpha: -3.700e-01  linmin: -2.034e-01  cgtest:  8.885e-01  t[s]:     16.82
	FillingsUpdate:  mu: +0.006345160  nElectrons: 498.000000
LCAOMinimize: Iter:   7  F: -1792.7640461475352822  |grad|_K:  1.630e-02  alpha:  5.485e-02  linmin: -2.182e-01  cgtest:  8.629e-01  t[s]:     18.67
LCAOMinimize: 	Wrong curvature in test step, increasing alphaT to 1.645400e-01.
	FillingsUpdate:  mu: -0.015333029  nElectrons: 498.000000
LCAOMinimize: Iter:   8  F: -1795.3475309246678080  |grad|_K:  1.641e-02  alpha: -3.135e-01  linmin: -2.359e-01  cgtest:  8.506e-01  t[s]:     20.45
	FillingsUpdate:  mu: -0.042231267  nElectrons: 498.000000
LCAOMinimize: Iter:   9  F: -1798.2125279363374375  |grad|_K:  1.593e-02  alpha:  5.988e-02  linmin: -2.576e-01  cgtest:  8.342e-01  t[s]:     22.29
LCAOMinimize: 	Wrong curvature in test step, increasing alphaT to 1.796395e-01.
	FillingsUpdate:  mu: -0.068849405  nElectrons: 498.000000
LCAOMinimize: Iter:  10  F: -1800.7773854116144321  |grad|_K:  1.453e-02  alpha: -6.657e-01  linmin: -2.783e-01  cgtest:  8.440e-01  t[s]:     24.06
	FillingsUpdate:  mu: -0.084806023  nElectrons: 498.000000
LCAOMinimize: Iter:  11  F: -1802.2877443362597205  |grad|_K:  1.293e-02  alpha:  4.838e-02  linmin: -2.905e-01  cgtest:  8.962e-01  t[s]:     25.91
LCAOMinimize: Encountered beta<0, resetting CG.
LCAOMinimize: 	Predicted alpha/alphaT>3.000000, increasing alphaT to 1.451432e-01.
LCAOMinimize: 	Predicted alpha/alphaT>3.000000, increasing alphaT to 4.354297e-01.
	FillingsUpdate:  mu: -0.092654025  nElectrons: 498.000000
LCAOMinimize: Iter:  12  F: -1803.0995173496562529  |grad|_K:  1.165e-02  alpha:  3.666e-02  linmin: -2.967e-01  cgtest:  9.364e-01  t[s]:     28.71
LCAOMinimize: Encountered beta<0, resetting CG.
LCAOMinimize: 	Predicted alpha/alphaT>3.000000, increasing alphaT to 1.099948e-01.
LCAOMinimize: 	Predicted alpha/alphaT>3.000000, increasing alphaT to 3.299844e-01.
	FillingsUpdate:  mu: -0.101537067  nElectrons: 498.000000
LCAOMinimize: Iter:  13  F: -1804.4478921195377552  |grad|_K:  8.105e-03  alpha:  8.068e-02  linmin: -3.117e-01  cgtest:  8.677e-01  t[s]:     31.54
LCAOMinimize: Encountered beta<0, resetting CG.
LCAOMinimize: 	Predicted alpha/alphaT>3.000000, increasing alphaT to 2.420368e-01.
	FillingsUpdate:  mu: -0.074426447  nElectrons: 498.000000
LCAOMinimize: Iter:  14  F: -1805.3191459668873904  |grad|_K:  1.691e-03  alpha:  1.528e-01  linmin: -1.389e-01  cgtest:  2.975e-01  t[s]:     33.91
LCAOMinimize: Encountered beta<0, resetting CG.
	FillingsUpdate:  mu: -0.059646005  nElectrons: 498.000000
LCAOMinimize: Iter:  15  F: -1805.3598585353090584  |grad|_K:  1.095e-03  alpha:  2.512e-01  linmin:  1.541e-01  cgtest: -3.730e-01  t[s]:     35.78
	FillingsUpdate:  mu: -0.056391737  nElectrons: 498.000000
LCAOMinimize: Iter:  16  F: -1805.3641681970993886  |grad|_K:  1.125e-03  alpha:  1.258e-01  linmin: -7.600e-04  cgtest:  8.804e-01  t[s]:     37.70
	FillingsUpdate:  mu: -0.062266370  nElectrons: 498.000000
LCAOMinimize: Iter:  17  F: -1805.3774917049806845  |grad|_K:  3.296e-04  alpha:  1.544e-01  linmin: -6.864e-02  cgtest:  9.825e-02  t[s]:     39.59
	FillingsUpdate:  mu: -0.061737909  nElectrons: 498.000000
LCAOMinimize: Iter:  18  F: -1805.3790621517296131  |grad|_K:  2.817e-04  alpha:  2.084e-01  linmin:  1.894e-03  cgtest: -3.891e-02  t[s]:     41.47
	FillingsUpdate:  mu: -0.060431967  nElectrons: 498.000000
LCAOMinimize: Iter:  19  F: -1805.3805506455080376  |grad|_K:  1.956e-04  alpha:  2.806e-01  linmin:  1.825e-03  cgtest:  5.325e-02  t[s]:     43.34
	FillingsUpdate:  mu: -0.060279664  nElectrons: 498.000000
LCAOMinimize: Iter:  20  F: -1805.3809353184019528  |grad|_K:  7.795e-05  alpha:  1.494e-01  linmin: -1.185e-03  cgtest:  2.524e-02  t[s]:     45.27
	FillingsUpdate:  mu: -0.060169953  nElectrons: 498.000000
LCAOMinimize: Iter:  21  F: -1805.3809881507065711  |grad|_K:  4.889e-05  alpha:  1.287e-01  linmin:  5.629e-04  cgtest: -5.371e-03  t[s]:     47.15
	FillingsUpdate:  mu: -0.059999406  nElectrons: 498.000000
LCAOMinimize: Iter:  22  F: -1805.3810077895357153  |grad|_K:  2.785e-05  alpha:  1.222e-01  linmin: -9.987e-04  cgtest:  1.081e-02  t[s]:     49.01
	FillingsUpdate:  mu: -0.060072010  nElectrons: 498.000000
LCAOMinimize: Iter:  23  F: -1805.3810166275068241  |grad|_K:  1.321e-05  alpha:  1.690e-01  linmin:  6.939e-04  cgtest: -1.097e-02  t[s]:     50.86
	FillingsUpdate:  mu: -0.060118437  nElectrons: 498.000000
LCAOMinimize: Iter:  24  F: -1805.3810192335663487  |grad|_K:  8.980e-06  alpha:  2.220e-01  linmin:  7.877e-05  cgtest:  2.842e-03  t[s]:     52.74
	FillingsUpdate:  mu: -0.060115970  nElectrons: 498.000000
LCAOMinimize: Iter:  25  F: -1805.3810204152873666  |grad|_K:  4.787e-06  alpha:  2.177e-01  linmin: -1.119e-05  cgtest: -4.548e-04  t[s]:     54.65
	FillingsUpdate:  mu: -0.060114635  nElectrons: 498.000000
LCAOMinimize: Iter:  26  F: -1805.3810206395471596  |grad|_K:  2.255e-06  alpha:  1.453e-01  linmin: -1.743e-05  cgtest: -4.523e-04  t[s]:     56.53
	FillingsUpdate:  mu: -0.060120613  nElectrons: 498.000000
LCAOMinimize: Iter:  27  F: -1805.3810206938121610  |grad|_K:  1.618e-06  alpha:  1.586e-01  linmin:  6.658e-05  cgtest: -2.551e-04  t[s]:     58.38
LCAOMinimize: Converged (|Delta F|<1.000000e-06 for 2 iters).
----- createFluidSolver() ----- (Fluid-side solver setup)
   Initializing fluid molecule 'Glyme'
     Net charge: 0   dipole magnitude: 0
     Initializing spherical shell mfKernel with radius 0 Bohr
     deltaS corrections:

Correction to mu due to finite nuclear width = -0.00964023
   Cavity determined by nc: 8.36e-05 and sigma: 0.6
   Effective cavity tension: -8.03e-06 Eh/bohr^2 to account for cavitation and dispersion.


---- Citations for features of the code used in this run ----

   Software package:
      R. Sundararaman, K. Letchworth-Weaver, K.A. Schwarz, D. Gunceler, Y. Ozhabes and T.A. Arias, 'JDFTx: software for joint density-functional theory', SoftwareX 6, 278 (2017)

   gga-PBE exchange-correlation functional:
      J.P. Perdew, K. Burke and M. Ernzerhof, Phys. Rev. Lett. 77, 3865 (1996)

   Pseudopotentials:
      KF Garrity, JW Bennett, KM Rabe and D Vanderbilt, Comput. Mater. Sci. 81, 446 (2014)

   Truncated Coulomb potentials:
      R. Sundararaman and T.A. Arias, Phys. Rev. B 87, 165122 (2013)

   Linear/nonlinear dielectric/ionic fluid model with effective cavity tension:
      D. Gunceler, K. Letchworth-Weaver, R. Sundararaman, K.A. Schwarz and T.A. Arias, Modelling Simul. Mater. Sci. Eng. 21, 074005 (2013)

   Total energy minimization with Auxiliary Hamiltonian:
      C. Freysoldt, S. Boeck, and J. Neugebauer, Phys. Rev. B 79, 241103(R) (2009)

This list may not be complete. Please suggest additional citations or
report any other bugs at https://github.com/shankar1729/jdftx/issues

Initialization completed successfully at t[s]:     58.65

Fluid solver invoked on fresh (random / LCAO) wavefunctions
Running a vacuum solve first:

-------- Initial electronic minimization -----------
	FillingsUpdate:  mu: -0.060120613  nElectrons: 498.000000
ElecMinimize: Iter:   0  F: -1805.381020693822393  |grad|_K:  3.384e-04  alpha:  1.000e+00
	FillingsUpdate:  mu: -0.102395105  nElectrons: 498.000000
	SubspaceRotationAdjust: set factor to 1
ElecMinimize: Iter:   1  F: -1807.184192499560368  |grad|_K:  1.858e-04  alpha:  3.930e-01  linmin:  5.044e-05  t[s]:     63.21
	FillingsUpdate:  mu: -0.069988149  nElectrons: 498.000000
	SubspaceRotationAdjust: set factor to 0.605
ElecMinimize: Iter:   2  F: -1807.546910618160382  |grad|_K:  2.477e-04  alpha:  2.754e-01  linmin: -1.878e-05  t[s]:     65.89
	FillingsUpdate:  mu: -0.087226009  nElectrons: 498.000000
	SubspaceRotationAdjust: set factor to 0.497
ElecMinimize: Iter:   3  F: -1807.839400784508371  |grad|_K:  1.122e-04  alpha:  1.400e-01  linmin:  1.334e-03  t[s]:     68.56
	FillingsUpdate:  mu: -0.104821869  nElectrons: 498.000000
	SubspaceRotationAdjust: set factor to 0.383
ElecMinimize: Iter:   4  F: -1807.953344033886879  |grad|_K:  7.282e-05  alpha:  2.455e-01  linmin:  1.196e-04  t[s]:     71.26
	FillingsUpdate:  mu: -0.113417079  nElectrons: 498.000000
	SubspaceRotationAdjust: set factor to 0.33
ElecMinimize: Iter:   5  F: -1808.026003514178683  |grad|_K:  5.551e-05  alpha:  3.464e-01  linmin:  1.622e-04  t[s]:     73.92
	FillingsUpdate:  mu: -0.116833656  nElectrons: 498.000000
	SubspaceRotationAdjust: set factor to 0.33
ElecMinimize: Iter:   6  F: -1808.060550312103032  |grad|_K:  3.568e-05  alpha:  2.845e-01  linmin: -5.334e-05  t[s]:     76.62
	FillingsUpdate:  mu: -0.115129232  nElectrons: 498.000000
	SubspaceRotationAdjust: set factor to 0.37
ElecMinimize: Iter:   7  F: -1808.079266044810993  |grad|_K:  2.346e-05  alpha:  3.644e-01  linmin:  3.650e-05  t[s]:     79.29
	FillingsUpdate:  mu: -0.116515517  nElectrons: 498.000000
	SubspaceRotationAdjust: set factor to 0.33
ElecMinimize: Iter:   8  F: -1808.086901214339605  |grad|_K:  1.887e-05  alpha:  3.475e-01  linmin:  3.426e-05  t[s]:     81.99
	FillingsUpdate:  mu: -0.118614928  nElectrons: 498.000000
	SubspaceRotationAdjust: set factor to 0.372
ElecMinimize: Iter:   9  F: -1808.091764518720538  |grad|_K:  1.175e-05  alpha:  3.426e-01  linmin:  1.327e-05  t[s]:     84.66
	FillingsUpdate:  mu: -0.118631563  nElectrons: 498.000000
	SubspaceRotationAdjust: set factor to 0.387
ElecMinimize: Iter:  10  F: -1808.093957201592048  |grad|_K:  9.666e-06  alpha:  3.970e-01  linmin:  1.381e-05  t[s]:     87.35
	FillingsUpdate:  mu: -0.120185378  nElectrons: 498.000000
	SubspaceRotationAdjust: set factor to 0.339
ElecMinimize: Iter:  11  F: -1808.095130036227374  |grad|_K:  6.764e-06  alpha:  3.135e-01  linmin:  5.680e-06  t[s]:     90.02
	FillingsUpdate:  mu: -0.120330793  nElectrons: 498.000000
	SubspaceRotationAdjust: set factor to 0.416
ElecMinimize: Iter:  12  F: -1808.095861695865779  |grad|_K:  4.753e-06  alpha:  3.998e-01  linmin:  7.688e-06  t[s]:     92.72
	FillingsUpdate:  mu: -0.119961531  nElectrons: 498.000000
	SubspaceRotationAdjust: set factor to 0.367
ElecMinimize: Iter:  13  F: -1808.096170846009727  |grad|_K:  3.438e-06  alpha:  3.422e-01  linmin:  9.028e-07  t[s]:     95.40
	FillingsUpdate:  mu: -0.120312732  nElectrons: 498.000000
	SubspaceRotationAdjust: set factor to 0.322
ElecMinimize: Iter:  14  F: -1808.096320855564045  |grad|_K:  2.405e-06  alpha:  3.162e-01  linmin:  2.316e-06  t[s]:     98.07
	FillingsUpdate:  mu: -0.120460701  nElectrons: 498.000000
	SubspaceRotationAdjust: set factor to 0.382
ElecMinimize: Iter:  15  F: -1808.096422952988632  |grad|_K:  1.623e-06  alpha:  4.408e-01  linmin:  4.129e-06  t[s]:    100.77
	FillingsUpdate:  mu: -0.120318541  nElectrons: 498.000000
	SubspaceRotationAdjust: set factor to 0.324
ElecMinimize: Iter:  16  F: -1808.096459509108172  |grad|_K:  1.210e-06  alpha:  3.465e-01  linmin:  7.196e-07  t[s]:    103.47
	FillingsUpdate:  mu: -0.120335650  nElectrons: 498.000000
	SubspaceRotationAdjust: set factor to 0.32
ElecMinimize: Iter:  17  F: -1808.096482761602147  |grad|_K:  8.350e-07  alpha:  3.956e-01  linmin:  1.762e-06  t[s]:    106.12
	FillingsUpdate:  mu: -0.120331372  nElectrons: 498.000000
	SubspaceRotationAdjust: set factor to 0.36
ElecMinimize: Iter:  18  F: -1808.096494534913745  |grad|_K:  5.863e-07  alpha:  4.212e-01  linmin:  1.655e-06  t[s]:    108.78
	FillingsUpdate:  mu: -0.120279111  nElectrons: 498.000000
	SubspaceRotationAdjust: set factor to 0.327
ElecMinimize: Iter:  19  F: -1808.096500425652948  |grad|_K:  4.712e-07  alpha:  4.274e-01  linmin:  9.722e-07  t[s]:    111.43
	FillingsUpdate:  mu: -0.120289801  nElectrons: 498.000000
	SubspaceRotationAdjust: set factor to 0.325
ElecMinimize: Iter:  20  F: -1808.096503808973694  |grad|_K:  3.230e-07  alpha:  3.799e-01  linmin:  1.079e-06  t[s]:    114.14
	FillingsUpdate:  mu: -0.120278778  nElectrons: 498.000000
	SubspaceRotationAdjust: set factor to 0.36
ElecMinimize: Iter:  21  F: -1808.096505956247483  |grad|_K:  2.588e-07  alpha:  5.136e-01  linmin:  1.496e-06  t[s]:    116.81
	FillingsUpdate:  mu: -0.120267616  nElectrons: 498.000000
	SubspaceRotationAdjust: set factor to 0.33
ElecMinimize: Iter:  22  F: -1808.096507030410521  |grad|_K:  1.920e-07  alpha:  4.002e-01  linmin:  4.960e-07  t[s]:    119.50
	FillingsUpdate:  mu: -0.120280616  nElectrons: 498.000000
	SubspaceRotationAdjust: set factor to 0.312
ElecMinimize: Iter:  23  F: -1808.096507695218861  |grad|_K:  1.599e-07  alpha:  4.497e-01  linmin:  7.273e-07  t[s]:    122.17
	FillingsUpdate:  mu: -0.120268785  nElectrons: 498.000000
	SubspaceRotationAdjust: set factor to 0.331
ElecMinimize: Iter:  24  F: -1808.096508161932888  |grad|_K:  1.150e-07  alpha:  4.558e-01  linmin:  5.868e-07  t[s]:    124.88
	FillingsUpdate:  mu: -0.120263464  nElectrons: 498.000000
	SubspaceRotationAdjust: set factor to 0.326
ElecMinimize: Iter:  25  F: -1808.096508413185575  |grad|_K:  9.681e-08  alpha:  4.741e-01  linmin:  4.383e-07  t[s]:    127.55
	FillingsUpdate:  mu: -0.120275583  nElectrons: 498.000000
	SubspaceRotationAdjust: set factor to 0.311
ElecMinimize: Iter:  26  F: -1808.096508583544392  |grad|_K:  7.761e-08  alpha:  4.536e-01  linmin:  3.377e-07  t[s]:    130.21
	FillingsUpdate:  mu: -0.120276558  nElectrons: 498.000000
	SubspaceRotationAdjust: set factor to 0.32
ElecMinimize: Iter:  27  F: -1808.096508692137149  |grad|_K:  6.004e-08  alpha:  4.499e-01  linmin:  3.222e-07  t[s]:    132.87
	FillingsUpdate:  mu: -0.120277147  nElectrons: 498.000000
	SubspaceRotationAdjust: set factor to 0.343
ElecMinimize: Iter:  28  F: -1808.096508764950158  |grad|_K:  4.816e-08  alpha:  5.040e-01  linmin:  3.392e-07  t[s]:    135.55
	FillingsUpdate:  mu: -0.120281058  nElectrons: 498.000000
	SubspaceRotationAdjust: set factor to 0.32
ElecMinimize: Iter:  29  F: -1808.096508805125268  |grad|_K:  4.043e-08  alpha:  4.324e-01  linmin:  2.364e-08  t[s]:    138.19
	FillingsUpdate:  mu: -0.120278711  nElectrons: 498.000000
	SubspaceRotationAdjust: set factor to 0.324
ElecMinimize: Iter:  30  F: -1808.096508835687246  |grad|_K:  3.029e-08  alpha:  4.660e-01  linmin:  1.161e-07  t[s]:    140.87
	FillingsUpdate:  mu: -0.120279650  nElectrons: 498.000000
	SubspaceRotationAdjust: set factor to 0.343
ElecMinimize: Iter:  31  F: -1808.096508853698424  |grad|_K:  2.515e-08  alpha:  4.893e-01  linmin:  3.565e-08  t[s]:    143.58
	FillingsUpdate:  mu: -0.120282317  nElectrons: 498.000000
	SubspaceRotationAdjust: set factor to 0.318
ElecMinimize: Iter:  32  F: -1808.096508865042324  |grad|_K:  2.005e-08  alpha:  4.466e-01  linmin:  3.373e-08  t[s]:    146.30
	FillingsUpdate:  mu: -0.120280289  nElectrons: 498.000000
	SubspaceRotationAdjust: set factor to 0.307
ElecMinimize: Iter:  33  F: -1808.096508872217328  |grad|_K:  1.557e-08  alpha:  4.427e-01  linmin:  2.324e-09  t[s]:    148.97
	FillingsUpdate:  mu: -0.120279642  nElectrons: 498.000000
	SubspaceRotationAdjust: set factor to 0.326
ElecMinimize: Iter:  34  F: -1808.096508877079032  |grad|_K:  1.301e-08  alpha:  4.982e-01  linmin: -4.006e-07  t[s]:    151.71
ElecMinimize: Converged (|Delta F|<1.000000e-08 for 2 iters).
Setting wave functions to eigenvectors of Hamiltonian
Vacuum energy after initial minimize, F = -1808.096508877079032


-------- Electronic minimization -----------
	Linear fluid (dielectric constant: 7.2) occupying 0.798409 of unit cell:	Completed after 13 iterations at t[s]:    152.40
	FillingsUpdate:  mu: -0.127662062  nElectrons: 498.000000
ElecMinimize: Iter:   0  F: -1808.140601560581445  |grad|_K:  1.722e-05  alpha:  1.000e+00
	Linear fluid (dielectric constant: 7.2) occupying 0.801419 of unit cell:	Completed after 12 iterations at t[s]:    154.73
	Linear fluid (dielectric constant: 7.2) occupying 0.800151 of unit cell:	Completed after 10 iterations at t[s]:    155.72
	FillingsUpdate:  mu: -0.122334010  nElectrons: 498.000000
	SubspaceRotationAdjust: set factor to 0.28
ElecMinimize: Iter:   1  F: -1808.147794733682304  |grad|_K:  1.560e-05  alpha:  5.735e-01  linmin: -1.035e-04  t[s]:    156.98
	Linear fluid (dielectric constant: 7.2) occupying 0.802545 of unit cell:	Completed after 12 iterations at t[s]:    158.02
	Linear fluid (dielectric constant: 7.2) occupying 0.802485 of unit cell:	Completed after 5 iterations at t[s]:    158.93
	FillingsUpdate:  mu: -0.121370731  nElectrons: 498.000000
	SubspaceRotationAdjust: set factor to 0.3
ElecMinimize: Iter:   2  F: -1808.153306633582815  |grad|_K:  1.642e-05  alpha:  5.581e-01  linmin:  1.224e-04  t[s]:    160.17
	Linear fluid (dielectric constant: 7.2) occupying 0.804733 of unit cell:	Completed after 13 iterations at t[s]:    161.21
	Linear fluid (dielectric constant: 7.2) occupying 0.804298 of unit cell:	Completed after 9 iterations at t[s]:    162.16
	FillingsUpdate:  mu: -0.119639859  nElectrons: 498.000000
	SubspaceRotationAdjust: set factor to 0.319
ElecMinimize: Iter:   3  F: -1808.157944455886991  |grad|_K:  1.786e-05  alpha:  4.417e-01  linmin:  5.078e-06  t[s]:    163.44
	Linear fluid (dielectric constant: 7.2) occupying 0.805733 of unit cell:	Completed after 13 iterations at t[s]:    164.46
	Linear fluid (dielectric constant: 7.2) occupying 0.805448 of unit cell:	Completed after 11 iterations at t[s]:    165.42
	FillingsUpdate:  mu: -0.117185985  nElectrons: 498.000000
	SubspaceRotationAdjust: set factor to 0.348
ElecMinimize: Iter:   4  F: -1808.162562944794900  |grad|_K:  1.718e-05  alpha:  3.497e-01  linmin:  9.344e-05  t[s]:    166.70
	Linear fluid (dielectric constant: 7.2) occupying 0.806117 of unit cell:	Completed after 13 iterations at t[s]:    167.72
	Linear fluid (dielectric constant: 7.2) occupying 0.806008 of unit cell:	Completed after 10 iterations at t[s]:    168.69
	FillingsUpdate:  mu: -0.113897464  nElectrons: 498.000000
	SubspaceRotationAdjust: set factor to 0.359
ElecMinimize: Iter:   5  F: -1808.165824371563986  |grad|_K:  1.693e-05  alpha:  2.897e-01  linmin: -8.474e-05  t[s]:    169.96
	Linear fluid (dielectric constant: 7.2) occupying 0.806334 of unit cell:	Completed after 13 iterations at t[s]:    170.98
	Linear fluid (dielectric constant: 7.2) occupying 0.806298 of unit cell:	Completed after 9 iterations at t[s]:    171.96
	FillingsUpdate:  mu: -0.111254884  nElectrons: 498.000000
	SubspaceRotationAdjust: set factor to 0.398
ElecMinimize: Iter:   6  F: -1808.168910896403759  |grad|_K:  1.520e-05  alpha:  2.552e-01  linmin:  9.666e-05  t[s]:    173.21
	Linear fluid (dielectric constant: 7.2) occupying 0.806446 of unit cell:	Completed after 13 iterations at t[s]:    174.23
	Linear fluid (dielectric constant: 7.2) occupying 0.806427 of unit cell:	Completed after 9 iterations at t[s]:    175.21
	FillingsUpdate:  mu: -0.110120818  nElectrons: 498.000000
	SubspaceRotationAdjust: set factor to 0.419
ElecMinimize: Iter:   7  F: -1808.170822367295159  |grad|_K:  1.418e-05  alpha:  2.198e-01  linmin: -5.105e-05  t[s]:    176.45
	Linear fluid (dielectric constant: 7.2) occupying 0.806528 of unit cell:	Completed after 12 iterations at t[s]:    177.44
	Linear fluid (dielectric constant: 7.2) occupying 0.806542 of unit cell:	Completed after 9 iterations at t[s]:    178.42
	FillingsUpdate:  mu: -0.108764726  nElectrons: 498.000000
	SubspaceRotationAdjust: set factor to 0.437
ElecMinimize: Iter:   8  F: -1808.173022349279563  |grad|_K:  1.318e-05  alpha:  2.638e-01  linmin:  1.478e-05  t[s]:    179.67
	Linear fluid (dielectric constant: 7.2) occupying 0.806588 of unit cell:	Completed after 13 iterations at t[s]:    180.70
	Linear fluid (dielectric constant: 7.2) occupying 0.806578 of unit cell:	Completed after 11 iterations at t[s]:    181.68
	FillingsUpdate:  mu: -0.107777151  nElectrons: 498.000000
	SubspaceRotationAdjust: set factor to 0.499
ElecMinimize: Iter:   9  F: -1808.174238291071561  |grad|_K:  1.122e-05  alpha:  1.690e-01  linmin: -4.545e-06  t[s]:    182.94
	Linear fluid (dielectric constant: 7.2) occupying 0.806511 of unit cell:	Completed after 12 iterations at t[s]:    183.94
	Linear fluid (dielectric constant: 7.2) occupying 0.806522 of unit cell:	Completed after 8 iterations at t[s]:    184.93
	FillingsUpdate:  mu: -0.107063538  nElectrons: 498.000000
	SubspaceRotationAdjust: set factor to 0.53
ElecMinimize: Iter:  10  F: -1808.174983343857548  |grad|_K:  1.027e-05  alpha:  1.463e-01  linmin:  4.592e-06  t[s]:    186.21
	Linear fluid (dielectric constant: 7.2) occupying 0.806363 of unit cell:	Completed after 10 iterations at t[s]:    187.18
	Linear fluid (dielectric constant: 7.2) occupying 0.806368 of unit cell:	Completed after 4 iterations at t[s]:    188.12
	FillingsUpdate:  mu: -0.106672704  nElectrons: 498.000000
	SubspaceRotationAdjust: set factor to 0.588
ElecMinimize: Iter:  11  F: -1808.175579256439732  |grad|_K:  9.094e-06  alpha:  1.415e-01  linmin: -2.211e-05  t[s]:    189.36
	Linear fluid (dielectric constant: 7.2) occupying 0.806174 of unit cell:	Completed after 10 iterations at t[s]:    190.31
	Linear fluid (dielectric constant: 7.2) occupying 0.806212 of unit cell:	Completed after 7 iterations at t[s]:    191.27
	FillingsUpdate:  mu: -0.106856973  nElectrons: 498.000000
	SubspaceRotationAdjust: set factor to 0.694
ElecMinimize: Iter:  12  F: -1808.175971692740859  |grad|_K:  7.582e-06  alpha:  1.155e-01  linmin: -2.705e-05  t[s]:    192.53
	Linear fluid (dielectric constant: 7.2) occupying 0.806091 of unit cell:	Completed after 9 iterations at t[s]:    193.46
	Linear fluid (dielectric constant: 7.2) occupying 0.806088 of unit cell:	Completed after 2 iterations at t[s]:    194.36
	FillingsUpdate:  mu: -0.107232649  nElectrons: 498.000000
	SubspaceRotationAdjust: set factor to 0.731
ElecMinimize: Iter:  13  F: -1808.176255576000358  |grad|_K:  6.689e-06  alpha:  1.187e-01  linmin: -2.774e-05  t[s]:    195.59
	Linear fluid (dielectric constant: 7.2) occupying 0.805990 of unit cell:	Completed after 9 iterations at t[s]:    196.56
	Linear fluid (dielectric constant: 7.2) occupying 0.805990 of unit cell:	Completed after 0 iterations at t[s]:    197.42
	FillingsUpdate:  mu: -0.107439579  nElectrons: 498.000000
	SubspaceRotationAdjust: set factor to 0.815
ElecMinimize: Iter:  14  F: -1808.176476814415309  |grad|_K:  5.892e-06  alpha:  1.186e-01  linmin: -4.294e-06  t[s]:    198.65
	Linear fluid (dielectric constant: 7.2) occupying 0.805900 of unit cell:	Completed after 8 iterations at t[s]:    199.64
	Linear fluid (dielectric constant: 7.2) occupying 0.805897 of unit cell:	Completed after 2 iterations at t[s]:    200.52
	FillingsUpdate:  mu: -0.107411061  nElectrons: 498.000000
	SubspaceRotationAdjust: set factor to 0.957
ElecMinimize: Iter:  15  F: -1808.176648566875883  |grad|_K:  5.233e-06  alpha:  1.225e-01  linmin:  1.392e-05  t[s]:    201.76
	Linear fluid (dielectric constant: 7.2) occupying 0.805808 of unit cell:	Completed after 8 iterations at t[s]:    202.72
	Linear fluid (dielectric constant: 7.2) occupying 0.805810 of unit cell:	Completed after 1 iterations at t[s]:    203.58
	FillingsUpdate:  mu: -0.107240137  nElectrons: 498.000000
	SubspaceRotationAdjust: set factor to 0.979
ElecMinimize: Iter:  16  F: -1808.176778617069431  |grad|_K:  5.030e-06  alpha:  1.208e-01  linmin: -6.314e-06  t[s]:    204.81
	Linear fluid (dielectric constant: 7.2) occupying 0.805718 of unit cell:	Completed after 8 iterations at t[s]:    205.77
	Linear fluid (dielectric constant: 7.2) occupying 0.805723 of unit cell:	Completed after 2 iterations at t[s]:    206.66
	FillingsUpdate:  mu: -0.107256362  nElectrons: 498.000000
	SubspaceRotationAdjust: set factor to 1.15
ElecMinimize: Iter:  17  F: -1808.176897004278771  |grad|_K:  4.609e-06  alpha:  1.156e-01  linmin: -2.635e-05  t[s]:    207.91
	Linear fluid (dielectric constant: 7.2) occupying 0.805645 of unit cell:	Completed after 8 iterations at t[s]:    208.88
	Linear fluid (dielectric constant: 7.2) occupying 0.805663 of unit cell:	Completed after 5 iterations at t[s]:    209.80
	FillingsUpdate:  mu: -0.107507472  nElectrons: 498.000000
	SubspaceRotationAdjust: set factor to 1.3
ElecMinimize: Iter:  18  F: -1808.176976269946636  |grad|_K:  3.878e-06  alpha:  9.034e-02  linmin: -2.966e-05  t[s]:    211.04
	Linear fluid (dielectric constant: 7.2) occupying 0.805626 of unit cell:	Completed after 8 iterations at t[s]:    211.99
	Linear fluid (dielectric constant: 7.2) occupying 0.805626 of unit cell:	Completed after 0 iterations at t[s]:    212.86
	FillingsUpdate:  mu: -0.107787568  nElectrons: 498.000000
	SubspaceRotationAdjust: set factor to 1.37
ElecMinimize: Iter:  19  F: -1808.177032823642548  |grad|_K:  3.680e-06  alpha:  9.024e-02  linmin: -2.387e-05  t[s]:    214.07
	Linear fluid (dielectric constant: 7.2) occupying 0.805601 of unit cell:	Completed after 8 iterations at t[s]:    215.05
	Linear fluid (dielectric constant: 7.2) occupying 0.805600 of unit cell:	Completed after 0 iterations at t[s]:    215.94
	FillingsUpdate:  mu: -0.107952477  nElectrons: 498.000000
	SubspaceRotationAdjust: set factor to 1.59
ElecMinimize: Iter:  20  F: -1808.177083943316575  |grad|_K:  3.468e-06  alpha:  9.085e-02  linmin: -1.145e-05  t[s]:    217.17
	Linear fluid (dielectric constant: 7.2) occupying 0.805582 of unit cell:	Completed after 7 iterations at t[s]:    218.14
	Linear fluid (dielectric constant: 7.2) occupying 0.805583 of unit cell:	Completed after 2 iterations at t[s]:    219.05
	FillingsUpdate:  mu: -0.107953105  nElectrons: 498.000000
	SubspaceRotationAdjust: set factor to 1.74
ElecMinimize: Iter:  21  F: -1808.177125235131598  |grad|_K:  3.275e-06  alpha:  8.381e-02  linmin: -4.879e-06  t[s]:    222.80
	Linear fluid (dielectric constant: 7.2) occupying 0.805569 of unit cell:	Completed after 7 iterations at t[s]:    223.79
	Linear fluid (dielectric constant: 7.2) occupying 0.805570 of unit cell:	Completed after 2 iterations at t[s]:    224.72
	FillingsUpdate:  mu: -0.107940369  nElectrons: 498.000000
	SubspaceRotationAdjust: set factor to 1.95
ElecMinimize: Iter:  22  F: -1808.177158752786454  |grad|_K:  2.944e-06  alpha:  7.705e-02  linmin: -7.213e-06  t[s]:    232.05
	Linear fluid (dielectric constant: 7.2) occupying 0.805562 of unit cell:	Completed after 7 iterations at t[s]:    233.05
	Linear fluid (dielectric constant: 7.2) occupying 0.805564 of unit cell:	Completed after 2 iterations at t[s]:    233.97
	FillingsUpdate:  mu: -0.107995969  nElectrons: 498.000000
	SubspaceRotationAdjust: set factor to 2.09
ElecMinimize: Iter:  23  F: -1808.177182637775786  |grad|_K:  2.668e-06  alpha:  6.776e-02  linmin: -2.022e-05  t[s]:    235.19
	Linear fluid (dielectric constant: 7.2) occupying 0.805562 of unit cell:	Completed after 6 iterations at t[s]:    240.61
	Linear fluid (dielectric constant: 7.2) occupying 0.805562 of unit cell:	Completed after 0 iterations at t[s]:    243.98
	FillingsUpdate:  mu: -0.108040204  nElectrons: 498.000000
	SubspaceRotationAdjust: set factor to 2.4
ElecMinimize: Iter:  24  F: -1808.177202778740821  |grad|_K:  2.429e-06  alpha:  6.642e-02  linmin: -4.294e-05  t[s]:    245.22
	Linear fluid (dielectric constant: 7.2) occupying 0.805561 of unit cell:	Completed after 6 iterations at t[s]:    248.31
	Linear fluid (dielectric constant: 7.2) occupying 0.805561 of unit cell:	Completed after 1 iterations at t[s]:    249.22
	FillingsUpdate:  mu: -0.108015004  nElectrons: 498.000000
	SubspaceRotationAdjust: set factor to 2.52
	SubspaceRotationAdjust: resetting CG because factor has changed by 7.75066
	Linear fluid (dielectric constant: 7.2) occupying 0.805561 of unit cell:	Completed after 0 iterations at t[s]:    250.91
ElecMinimize: 	State modified externally: resetting search direction.
ElecMinimize: Iter:  25  F: -1808.177219234558606  |grad|_K:  2.250e-06  alpha:  6.186e-02
	Linear fluid (dielectric constant: 7.2) occupying 0.805559 of unit cell:	Completed after 5 iterations at t[s]:    253.00
	Linear fluid (dielectric constant: 7.2) occupying 0.805556 of unit cell:	Completed after 5 iterations at t[s]:    253.90
	FillingsUpdate:  mu: -0.107957286  nElectrons: 498.000000
	SubspaceRotationAdjust: set factor to 1.76
ElecMinimize: Iter:  26  F: -1808.177247911097538  |grad|_K:  2.420e-06  alpha:  1.306e-01  linmin: -2.374e-04  t[s]:    255.15
	Linear fluid (dielectric constant: 7.2) occupying 0.805544 of unit cell:	Completed after 7 iterations at t[s]:    256.07
	Linear fluid (dielectric constant: 7.2) occupying 0.805548 of unit cell:	Completed after 5 iterations at t[s]:    257.02
	FillingsUpdate:  mu: -0.107997772  nElectrons: 498.000000
	SubspaceRotationAdjust: set factor to 0.94
ElecMinimize: Iter:  27  F: -1808.177272853412887  |grad|_K:  1.188e-06  alpha:  9.400e-02  linmin: -1.315e-04  t[s]:    258.28
	Linear fluid (dielectric constant: 7.2) occupying 0.805556 of unit cell:	Completed after 5 iterations at t[s]:    259.18
	Linear fluid (dielectric constant: 7.2) occupying 0.805562 of unit cell:	Completed after 4 iterations at t[s]:    260.10
	FillingsUpdate:  mu: -0.108046776  nElectrons: 498.000000
	SubspaceRotationAdjust: set factor to 0.552
ElecMinimize: Iter:  28  F: -1808.177282589336755  |grad|_K:  1.049e-06  alpha:  1.693e-01  linmin:  3.275e-04  t[s]:    261.36
	Linear fluid (dielectric constant: 7.2) occupying 0.805560 of unit cell:	Completed after 6 iterations at t[s]:    262.26
	Linear fluid (dielectric constant: 7.2) occupying 0.805560 of unit cell:	Completed after 1 iterations at t[s]:    263.15
	FillingsUpdate:  mu: -0.107999233  nElectrons: 498.000000
	SubspaceRotationAdjust: set factor to 0.863
ElecMinimize: Iter:  29  F: -1808.177288683321422  |grad|_K:  6.525e-07  alpha:  1.582e-01  linmin: -1.216e-04  t[s]:    264.38
	Linear fluid (dielectric constant: 7.2) occupying 0.805561 of unit cell:	Completed after 4 iterations at t[s]:    265.28
	Linear fluid (dielectric constant: 7.2) occupying 0.805561 of unit cell:	Completed after 1 iterations at t[s]:    266.16
	FillingsUpdate:  mu: -0.107984977  nElectrons: 498.000000
	SubspaceRotationAdjust: set factor to 0.833
ElecMinimize: Iter:  30  F: -1808.177292141692533  |grad|_K:  5.817e-07  alpha:  1.799e-01  linmin: -8.259e-04  t[s]:    267.41
	Linear fluid (dielectric constant: 7.2) occupying 0.805563 of unit cell:	Completed after 4 iterations at t[s]:    268.31
	Linear fluid (dielectric constant: 7.2) occupying 0.805563 of unit cell:	Completed after 0 iterations at t[s]:    269.17
	FillingsUpdate:  mu: -0.108028453  nElectrons: 498.000000
	SubspaceRotationAdjust: set factor to 0.998
ElecMinimize: Iter:  31  F: -1808.177295493800329  |grad|_K:  4.443e-07  alpha:  1.745e-01  linmin: -1.239e-03  t[s]:    270.40
	Linear fluid (dielectric constant: 7.2) occupying 0.805562 of unit cell:	Completed after 4 iterations at t[s]:    271.30
	Linear fluid (dielectric constant: 7.2) occupying 0.805562 of unit cell:	Completed after 1 iterations at t[s]:    272.19
	FillingsUpdate:  mu: -0.108053769  nElectrons: 498.000000
	SubspaceRotationAdjust: set factor to 1.02
ElecMinimize: Iter:  32  F: -1808.177297377551213  |grad|_K:  3.906e-07  alpha:  1.545e-01  linmin: -8.817e-04  t[s]:    273.42
	Linear fluid (dielectric constant: 7.2) occupying 0.805563 of unit cell:	Completed after 4 iterations at t[s]:    274.32
	Linear fluid (dielectric constant: 7.2) occupying 0.805563 of unit cell:	Completed after 1 iterations at t[s]:    275.20
	FillingsUpdate:  mu: -0.108042778  nElectrons: 498.000000
	SubspaceRotationAdjust: set factor to 1.12
ElecMinimize: Iter:  33  F: -1808.177299461926623  |grad|_K:  3.381e-07  alpha:  1.738e-01  linmin: -6.791e-04  t[s]:    276.43
	Linear fluid (dielectric constant: 7.2) occupying 0.805567 of unit cell:	Completed after 5 iterations at t[s]:    277.36
	Linear fluid (dielectric constant: 7.2) occupying 0.805567 of unit cell:	Completed after 0 iterations at t[s]:    278.21
	FillingsUpdate:  mu: -0.108036235  nElectrons: 498.000000
	SubspaceRotationAdjust: set factor to 1.07
ElecMinimize: Iter:  34  F: -1808.177301256127748  |grad|_K:  3.775e-07  alpha:  1.911e-01  linmin: -4.617e-04  t[s]:    279.45
	Linear fluid (dielectric constant: 7.2) occupying 0.805566 of unit cell:	Completed after 5 iterations at t[s]:    280.38
	Linear fluid (dielectric constant: 7.2) occupying 0.805566 of unit cell:	Completed after 2 iterations at t[s]:    281.26
	FillingsUpdate:  mu: -0.108061049  nElectrons: 498.000000
	SubspaceRotationAdjust: set factor to 1.39
ElecMinimize: Iter:  35  F: -1808.177302175388149  |grad|_K:  3.161e-07  alpha:  1.248e-01  linmin: -4.277e-04  t[s]:    282.50
	Linear fluid (dielectric constant: 7.2) occupying 0.805564 of unit cell:	Completed after 3 iterations at t[s]:    283.43
	Linear fluid (dielectric constant: 7.2) occupying 0.805565 of unit cell:	Completed after 2 iterations at t[s]:    284.29
	FillingsUpdate:  mu: -0.108076561  nElectrons: 498.000000
	SubspaceRotationAdjust: set factor to 1.49
ElecMinimize: Iter:  36  F: -1808.177302519129853  |grad|_K:  2.735e-07  alpha:  7.552e-02  linmin: -5.420e-04  t[s]:    285.53
	Linear fluid (dielectric constant: 7.2) occupying 0.805565 of unit cell:	Completed after 2 iterations at t[s]:    286.46
	Linear fluid (dielectric constant: 7.2) occupying 0.805565 of unit cell:	Completed after 1 iterations at t[s]:    287.30
	FillingsUpdate:  mu: -0.108079943  nElectrons: 498.000000
	SubspaceRotationAdjust: set factor to 1.72
ElecMinimize: Iter:  37  F: -1808.177302766870298  |grad|_K:  2.371e-07  alpha:  5.157e-02  linmin: -7.156e-04  t[s]:    288.55
	Linear fluid (dielectric constant: 7.2) occupying 0.805565 of unit cell:	Completed after 2 iterations at t[s]:    289.52
	Linear fluid (dielectric constant: 7.2) occupying 0.805565 of unit cell:	Completed after 1 iterations at t[s]:    290.36
	FillingsUpdate:  mu: -0.108079169  nElectrons: 498.000000
	SubspaceRotationAdjust: set factor to 2.04
ElecMinimize: Iter:  38  F: -1808.177302933198916  |grad|_K:  2.088e-07  alpha:  3.668e-02  linmin: -8.307e-04  t[s]:    291.61
	Linear fluid (dielectric constant: 7.2) occupying 0.805564 of unit cell:	Completed after 2 iterations at t[s]:    292.53
	Linear fluid (dielectric constant: 7.2) occupying 0.805564 of unit cell:	Completed after 0 iterations at t[s]:    293.38
	FillingsUpdate:  mu: -0.108077893  nElectrons: 498.000000
	SubspaceRotationAdjust: set factor to 2.43
ElecMinimize: Iter:  39  F: -1808.177303018796465  |grad|_K:  1.990e-07  alpha:  2.447e-02  linmin: -8.317e-04  t[s]:    294.65
	Linear fluid (dielectric constant: 7.2) occupying 0.805563 of unit cell:	Completed after 1 iterations at t[s]:    295.55
	Linear fluid (dielectric constant: 7.2) occupying 0.805564 of unit cell:	Completed after 0 iterations at t[s]:    296.37
	FillingsUpdate:  mu: -0.108078452  nElectrons: 498.000000
	SubspaceRotationAdjust: set factor to 3.03
ElecMinimize: Iter:  40  F: -1808.177303062267129  |grad|_K:  1.948e-07  alpha:  1.526e-02  linmin: -8.084e-04  t[s]:    297.60
	Linear fluid (dielectric constant: 7.2) occupying 0.805563 of unit cell:	Completed after 0 iterations at t[s]:    298.47
	Linear fluid (dielectric constant: 7.2) occupying 0.805563 of unit cell:	Completed after 0 iterations at t[s]:    299.34
	FillingsUpdate:  mu: -0.108079728  nElectrons: 498.000000
	SubspaceRotationAdjust: set factor to 3.76
ElecMinimize: Iter:  41  F: -1808.177303086896700  |grad|_K:  1.929e-07  alpha:  9.192e-03  linmin: -7.722e-04  t[s]:    300.57
	Linear fluid (dielectric constant: 7.2) occupying 0.805563 of unit cell:	Completed after 0 iterations at t[s]:    301.44
	Linear fluid (dielectric constant: 7.2) occupying 0.805563 of unit cell:	Completed after 0 iterations at t[s]:    302.26
	FillingsUpdate:  mu: -0.108081506  nElectrons: 498.000000
	SubspaceRotationAdjust: set factor to 4.64
ElecMinimize: Iter:  42  F: -1808.177303102511587  |grad|_K:  1.899e-07  alpha:  5.435e-03  linmin: -7.302e-04  t[s]:    303.49
	Linear fluid (dielectric constant: 7.2) occupying 0.805562 of unit cell:	Completed after 0 iterations at t[s]:    304.35
	Linear fluid (dielectric constant: 7.2) occupying 0.805563 of unit cell:	Completed after 0 iterations at t[s]:    305.19
	FillingsUpdate:  mu: -0.108081417  nElectrons: 498.000000
	SubspaceRotationAdjust: set factor to 5.69
ElecMinimize: Iter:  43  F: -1808.177303112570826  |grad|_K:  1.928e-07  alpha:  3.236e-03  linmin: -6.830e-04  t[s]:    306.43
	Linear fluid (dielectric constant: 7.2) occupying 0.805562 of unit cell:	Completed after 0 iterations at t[s]:    307.27
	Linear fluid (dielectric constant: 7.2) occupying 0.805562 of unit cell:	Completed after 0 iterations at t[s]:    308.12
	FillingsUpdate:  mu: -0.108081881  nElectrons: 498.000000
	SubspaceRotationAdjust: set factor to 6.96
ElecMinimize: Iter:  44  F: -1808.177303119031194  |grad|_K:  1.905e-07  alpha:  1.915e-03  linmin: -6.351e-04  t[s]:    309.34
	Linear fluid (dielectric constant: 7.2) occupying 0.805562 of unit cell:	Completed after 0 iterations at t[s]:    310.19
	Linear fluid (dielectric constant: 7.2) occupying 0.805562 of unit cell:	Completed after 0 iterations at t[s]:    311.03
	FillingsUpdate:  mu: -0.108081829  nElectrons: 498.000000
	SubspaceRotationAdjust: set factor to 8.51
ElecMinimize: Iter:  45  F: -1808.177303124621176  |grad|_K:  1.941e-07  alpha:  1.184e-03  linmin: -5.905e-04  t[s]:    312.25
ElecMinimize: Converged (|Delta F|<1.000000e-08 for 2 iters).
Setting wave functions to eigenvectors of Hamiltonian
Single-point solvation energy estimate, DeltaF = -0.080794247542144

# Ionic positions in cartesian coordinates:
ion Ti   0.000000174975000  -0.000000174975000   2.000000000000000 0
ion Ti   4.340445422775000   4.340445072825000   4.795024053800001 0
ion Ti   0.000000174975000   8.680909217924999   2.000000000000000 0
ion Ti   4.340445422775000  13.021354465725000   4.795024053800001 0
ion Ti   0.000000174975000  17.361818610825001   2.000000000000000 0
ion Ti   4.340445422775000  21.702263858624999   4.795024053800001 0
ion Ti   8.680909567874998  -0.000000174975000   2.000000000000000 0
ion Ti  13.021354815675002   4.340445072825000   4.795024053800001 0
ion Ti   8.680909567874998   8.680909217924999   2.000000000000000 0
ion Ti  13.021354815675002  13.021354465725000   4.795024053800001 0
ion Ti   8.680909567874998  17.361818610825001   2.000000000000000 0
ion Ti  13.021364264325003  21.702263858624999   4.795024053800001 0
ion Ti  17.361818960775000  -0.000000174975000   2.000000000000000 0
ion Ti  21.702264208574999   4.340445072825000   4.795024053800001 0
ion Ti  17.361818960775000   8.680909217924999   2.000000000000000 0
ion Ti  21.702264208574999  13.021363914375000   4.795024053800001 0
ion Ti  17.361818960775000  17.361818610825001   2.000000000000000 0
ion Ti  21.702264208574999  21.702263858624999   4.795024053800001 0
ion O   2.650289808075000   2.650289458125000   2.000000000000000 0
ion O   6.030619934775000   6.030619584825001   2.000000000000000 0
ion O   1.690174686975000   6.990734705924999   4.795024053800001 0
ion O   6.990735055874999   1.690174337025000   4.795024053800001 0
ion O   2.650289808075000  11.331198851025000   2.000000000000000 0
ion O   6.030619934775000  14.711528977725004   2.000000000000000 0
ion O   1.690174686975000  15.671644098825000   4.795024053800001 0
ion O   6.990735055874999  10.371083729925001   4.795024053800001 0
ion O   2.650289808075000  20.012108243924999   2.000000000000000 0
ion O   6.030619934775000  23.392438370625001   2.000000000000000 0
ion O   1.690174686975000  24.352553491725004   4.795024053800001 0
ion O   6.990735055874999  19.051993122824996   4.795024053800001 0
ion O  11.331199200975000   2.650289458125000   2.000000000000000 0
ion O  14.711529327675001   6.030619584825001   2.000000000000000 0
ion O  10.371084079875001   6.990734705924999   4.795024053800001 0
ion O  15.671644448774998   1.690174337025000   4.795024053800001 0
ion O  11.331199200975000  11.331198851025000   2.000000000000000 0
ion O  14.711529327675001  14.711528977725004   2.000000000000000 0
ion O  10.371084079875001  15.671644098825000   4.795024053800001 0
ion O  15.671644448774998  10.371083729925001   4.795024053800001 0
ion O  11.331199200975000  20.012108243924999   2.000000000000000 0
ion O  14.711529327675001  23.392438370625001   2.000000000000000 0
ion O  10.371084079875001  24.352553491725004   4.795024053800001 0
ion O  15.671644448774998  19.051993122824996   4.795024053800001 0
ion O  20.012108593874995   2.650289458125000   2.000000000000000 0
ion O  23.392438720575004   6.030619584825001   2.000000000000000 0
ion O  19.051993472774999   6.990734705924999   4.795024053800001 0
ion O  24.352553841675000   1.690174337025000   4.795024053800001 0
ion O  20.012108593874995  11.331198851025000   2.000000000000000 0
ion O  23.392438720575004  14.711528977725004   2.000000000000000 0
ion O  19.051993472774999  15.671644098825000   4.795024053800001 0
ion O  24.352553841675000  10.371083729925001   4.795024053800001 0
ion O  20.012108593874995  20.012108243924999   2.000000000000000 0
ion O  23.392438720575004  23.392438370625001   2.000000000000000 0
ion O  19.051993472774999  24.352553491725004   4.795024053800001 0
ion O  24.352553841675000  19.051993122824996   4.795024053800001 0
ion S  13.538499920481470   5.584493502627348   9.475425448748295 1
ion S  21.908361820846700  12.001391165521389   9.453678271473200 1
ion S  19.058030872976239  13.392393897669617  11.559583324250479 1
ion S  20.538490514791210  21.451576612252378   9.509570339643496 1
ion S  17.433843771031377  23.792386945937917   9.518225906404076 1
ion S  14.114800919934641  21.898529951305584   9.652872597057677 1
ion S  11.073944552615684   8.554479076256644   9.923631876678018 1
ion S  12.627823979094645  12.057572303415093   9.614977245030582 1
ion Na  17.362198135663544  17.405499594589010   8.433247529885506 1
ion Na  17.395861403953237   9.010594730846419   8.426992295739439 1

# Forces in Cartesian coordinates:
force Ti  -0.002404191420692  -0.003701927825324   0.122598350544453 0
force Ti   0.001712612623497  -0.000414196210518  -0.116614636500015 0
force Ti  -0.000761802986553   0.002433892219131   0.124954940215908 0
force Ti   0.001016770018945   0.000143179159711  -0.114493370184530 0
force Ti  -0.004619659364743  -0.002310734008084   0.124514095227363 0
force Ti   0.000556922427794  -0.000612719205493  -0.115563913351742 0
force Ti   0.005178427468307   0.001054680214105   0.124565060891206 0
force Ti   0.005446588761656   0.001792771390574  -0.091840204249325 0
force Ti   0.003092263092827  -0.000257688765475   0.124606817952505 0
force Ti  -0.016472781796338  -0.006184469095031  -0.096832016916787 0
force Ti   0.004040063758943   0.000928359300606   0.124377233110307 0
force Ti   0.000285948420607   0.011792869906797  -0.092904187622122 0
force Ti  -0.004784902295846  -0.001450782109661   0.123284961822955 0
force Ti   0.004740920219361  -0.006575455409315  -0.121731743806869 0
force Ti  -0.002929184270036   0.002304066479790   0.113441128074262 0
force Ti   0.003099509072312  -0.001182066253078  -0.095458411929606 0
force Ti  -0.001353644980198   0.000005648917206   0.115646182177309 0
force Ti   0.001039386430017  -0.007587473445314  -0.092791973399191 0
force O  -0.017416439769395  -0.017158235309957   0.014343267334952 0
force O   0.016275867337642   0.016879330982347   0.014955845841864 0
force O   0.017033852503567  -0.017332994492040  -0.019837966016744 0
force O  -0.018509851253488   0.017683182675459  -0.020017500209006 0
force O  -0.018206442033920  -0.018497740695477   0.013965597991965 0
force O   0.016896490300410   0.017194764986701   0.014396424162800 0
force O   0.017765556724343  -0.016898989247686  -0.020622447461913 0
force O  -0.018450688156664   0.016799524517379  -0.021163994809159 0
force O  -0.016606362667458  -0.016988071232761   0.014425379156594 0
force O   0.016330978474813   0.016832018869756   0.014437520864776 0
force O   0.016759817358197  -0.016193329606375  -0.020802882384369 0
force O  -0.017471960967570   0.017134407888018  -0.020361762935062 0
force O  -0.026379312345779  -0.024836919899404   0.005996031470092 0
force O   0.023552237788632   0.023482646111850   0.008969782769316 0
force O   0.006742554660295  -0.010727560826265  -0.033038271628008 0
force O  -0.012812466877210   0.013777257810136  -0.024384744730735 0
force O  -0.020173444816467  -0.020699586672609   0.010141241108914 0
force O   0.025446197901357   0.024573712263705   0.008174284643071 0
force O   0.014399046444394  -0.012140410521871  -0.025180419351664 0
force O  -0.007615993039473   0.011371181745085  -0.027609425160567 0
force O  -0.023539265688101  -0.024145090487955   0.008170316468833 0
force O   0.021536138302178   0.020143540270351   0.010083211150628 0
force O   0.012069129046334  -0.014110656216602  -0.025849239832570 0
force O  -0.010116565509806   0.006469805332485  -0.025940396685696 0
force O  -0.015047546967914  -0.014541522005608   0.016298432179279 0
force O   0.016339343876602   0.016791157603689   0.015364705781627 0
force O   0.017630417734554  -0.016842675300476  -0.010183395828060 0
force O  -0.018115756850980   0.019004125931645  -0.019153832807680 0
force O  -0.024568642595352  -0.025015192454990   0.008491733943936 0
force O   0.025326361830501   0.024823864003669   0.006339684067973 0
force O   0.011196824259960  -0.013091703248348  -0.018159841518576 0
force O  -0.009249055523327   0.010010855269672  -0.028268913270367 0
force O  -0.022736563233846  -0.022201415073759   0.009362270539123 0
force O   0.024591841071628   0.026476997808941   0.006478957456113 0
force O   0.011148227874311  -0.006420344086080  -0.032397005710133 0
force O  -0.013259837634720   0.014400629684960  -0.023601596405431 0
force S   0.000997031412865  -0.001562750079095   0.000648054537317 1
force S   0.003304473060651  -0.000831626391034  -0.002596363627514 1
force S  -0.003753159879218   0.001931726313737   0.003632188414072 1
force S   0.001778836391029  -0.001320901639803   0.000665045084248 1
force S   0.000325644769780   0.003231493710036   0.001207841093552 1
force S  -0.002718469019445  -0.001980524411845   0.000845066611171 1
force S  -0.002314720860244  -0.000010354673517   0.001020311518293 1
force S   0.001372597129829   0.001707680015937   0.000613375025911 1
force Na   0.000190937493962  -0.000631734505814  -0.001426345185683 1
force Na   0.000571342297360   0.000017335458799  -0.000810601435073 1

# Energy components:
   A_diel =       -0.1712999331702919
   Eewald =    10432.1964923737868958
       EH =    11955.9121305838962144
     Eloc =   -24478.8060155853490869
      Enl =       48.6203065933342771
      Exc =     -338.8338077317516763
 Exc_core =       40.0532571378999691
       KE =      532.9881120943341557
-------------------------------------
     Etot =    -1808.0408244670211388
       TS =        0.1364786575999837
-------------------------------------
        F =    -1808.1773031246211758

IonicMinimize: Iter:   0  F: -1808.177303124621176  |grad|_K:  1.804e-03  alpha:  1.000e+00

#--- Lowdin population analysis ---
# oxidation-state Ti +1.638 +1.682 +1.635 +1.691 +1.635 +1.692 +1.634 +1.579 +1.629 +1.568 +1.635 +1.581 +1.626 +1.677 +1.645 +1.568 +1.641 +1.575
# oxidation-state O -0.757 -0.756 -0.739 -0.732 -0.756 -0.757 -0.730 -0.727 -0.758 -0.758 -0.733 -0.733 -0.767 -0.759 -0.705 -0.719 -0.756 -0.769 -0.716 -0.776 -0.765 -0.757 -0.714 -0.776 -0.756 -0.755 -0.785 -0.733 -0.766 -0.768 -0.782 -0.712 -0.761 -0.766 -0.702 -0.719
# oxidation-state S -0.394 -0.257 -0.296 -0.399 +0.309 -0.352 +0.253 -0.343
# oxidation-state Na +0.675 +0.706


-------- Electronic minimization -----------
	Linear fluid (dielectric constant: 7.2) occupying 0.805542 of unit cell:	Completed after 2 iterations at t[s]:    314.56
	FillingsUpdate:  mu: -0.108186663  nElectrons: 498.000000
ElecMinimize: Iter:   0  F: -1808.177368391907521  |grad|_K:  1.462e-06  alpha:  1.000e+00
	Linear fluid (dielectric constant: 7.2) occupying 0.805657 of unit cell:	Completed after 10 iterations at t[s]:    316.86
	Linear fluid (dielectric constant: 7.2) occupying 0.805548 of unit cell:	Completed after 10 iterations at t[s]:    317.86
	FillingsUpdate:  mu: -0.108131460  nElectrons: 498.000000
	SubspaceRotationAdjust: set factor to 5.01
ElecMinimize: Iter:   1  F: -1808.177370656378116  |grad|_K:  1.747e-06  alpha:  2.535e-02  linmin:  3.103e-04  t[s]:    319.13
	Linear fluid (dielectric constant: 7.2) occupying 0.805542 of unit cell:	Completed after 2 iterations at t[s]:    320.02
	Linear fluid (dielectric constant: 7.2) occupying 0.805537 of unit cell:	Completed after 1 iterations at t[s]:    320.93
	FillingsUpdate:  mu: -0.108149374  nElectrons: 498.000000
	SubspaceRotationAdjust: set factor to 3.49
ElecMinimize: Iter:   2  F: -1808.177375797789409  |grad|_K:  1.059e-06  alpha:  4.635e-02  linmin: -3.319e-04  t[s]:    322.17
	Linear fluid (dielectric constant: 7.2) occupying 0.805532 of unit cell:	Completed after 4 iterations at t[s]:    323.09
	Linear fluid (dielectric constant: 7.2) occupying 0.805534 of unit cell:	Completed after 2 iterations at t[s]:    324.00
	FillingsUpdate:  mu: -0.108192046  nElectrons: 498.000000
	SubspaceRotationAdjust: set factor to 2.57
ElecMinimize: Iter:   3  F: -1808.177377209468659  |grad|_K:  7.211e-07  alpha:  2.913e-02  linmin: -2.073e-04  t[s]:    325.22
	Linear fluid (dielectric constant: 7.2) occupying 0.805534 of unit cell:	Completed after 2 iterations at t[s]:    326.11
	Linear fluid (dielectric constant: 7.2) occupying 0.805535 of unit cell:	Completed after 2 iterations at t[s]:    327.00
	FillingsUpdate:  mu: -0.108194322  nElectrons: 498.000000
	SubspaceRotationAdjust: set factor to 1.83
ElecMinimize: Iter:   4  F: -1808.177379148215095  |grad|_K:  7.881e-07  alpha:  7.594e-02  linmin: -4.725e-04  t[s]:    328.24
	Linear fluid (dielectric constant: 7.2) occupying 0.805534 of unit cell:	Completed after 3 iterations at t[s]:    329.14
	Linear fluid (dielectric constant: 7.2) occupying 0.805533 of unit cell:	Completed after 2 iterations at t[s]:    330.04
	FillingsUpdate:  mu: -0.108169538  nElectrons: 498.000000
	SubspaceRotationAdjust: set factor to 1.08
	SubspaceRotationAdjust: resetting CG because factor has changed by 0.126795
	Linear fluid (dielectric constant: 7.2) occupying 0.805533 of unit cell:	Completed after 0 iterations at t[s]:    331.71
ElecMinimize: 	State modified externally: resetting search direction.
ElecMinimize: Iter:   5  F: -1808.177382208993322  |grad|_K:  6.130e-07  alpha:  9.986e-02
	Linear fluid (dielectric constant: 7.2) occupying 0.805533 of unit cell:	Completed after 3 iterations at t[s]:    333.86
	Linear fluid (dielectric constant: 7.2) occupying 0.805533 of unit cell:	Completed after 0 iterations at t[s]:    334.71
	FillingsUpdate:  mu: -0.108194245  nElectrons: 498.000000
	SubspaceRotationAdjust: set factor to 1.07
ElecMinimize: Iter:   6  F: -1808.177383768485242  |grad|_K:  3.372e-07  alpha:  1.030e-01  linmin: -1.127e-03  t[s]:    335.94
	Linear fluid (dielectric constant: 7.2) occupying 0.805533 of unit cell:	Completed after 1 iterations at t[s]:    336.82
	Linear fluid (dielectric constant: 7.2) occupying 0.805533 of unit cell:	Completed after 1 iterations at t[s]:    337.72
	FillingsUpdate:  mu: -0.108189120  nElectrons: 498.000000
	SubspaceRotationAdjust: set factor to 1.12
ElecMinimize: Iter:   7  F: -1808.177384671387699  |grad|_K:  2.972e-07  alpha:  1.500e-01  linmin: -2.190e-03  t[s]:    338.93
	Linear fluid (dielectric constant: 7.2) occupying 0.805532 of unit cell:	Completed after 2 iterations at t[s]:    339.81
	Linear fluid (dielectric constant: 7.2) occupying 0.805532 of unit cell:	Completed after 0 iterations at t[s]:    340.64
	FillingsUpdate:  mu: -0.108179300  nElectrons: 498.000000
	SubspaceRotationAdjust: set factor to 1.02
ElecMinimize: Iter:   8  F: -1808.177385586911214  |grad|_K:  2.684e-07  alpha:  1.561e-01  linmin: -2.252e-03  t[s]:    341.86
	Linear fluid (dielectric constant: 7.2) occupying 0.805531 of unit cell:	Completed after 2 iterations at t[s]:    342.75
	Linear fluid (dielectric constant: 7.2) occupying 0.805531 of unit cell:	Completed after 0 iterations at t[s]:    343.59
	FillingsUpdate:  mu: -0.108193155  nElectrons: 498.000000
	SubspaceRotationAdjust: set factor to 1.47
ElecMinimize: Iter:   9  F: -1808.177386235257700  |grad|_K:  1.868e-07  alpha:  1.341e-01  linmin: -2.183e-03  t[s]:    344.82
	Linear fluid (dielectric constant: 7.2) occupying 0.805531 of unit cell:	Completed after 2 iterations at t[s]:    345.68
	Linear fluid (dielectric constant: 7.2) occupying 0.805531 of unit cell:	Completed after 0 iterations at t[s]:    346.54
	FillingsUpdate:  mu: -0.108203309  nElectrons: 498.000000
	SubspaceRotationAdjust: set factor to 1.49
ElecMinimize: Iter:  10  F: -1808.177386450502809  |grad|_K:  1.672e-07  alpha:  9.744e-02  linmin: -1.877e-03  t[s]:    347.79
	Linear fluid (dielectric constant: 7.2) occupying 0.805530 of unit cell:	Completed after 1 iterations at t[s]:    348.67
	Linear fluid (dielectric constant: 7.2) occupying 0.805530 of unit cell:	Completed after 0 iterations at t[s]:    349.51
	FillingsUpdate:  mu: -0.108203493  nElectrons: 498.000000
	SubspaceRotationAdjust: set factor to 1.9
ElecMinimize: Iter:  11  F: -1808.177386528751413  |grad|_K:  1.555e-07  alpha:  6.101e-02  linmin: -1.625e-03  t[s]:    350.75
	Linear fluid (dielectric constant: 7.2) occupying 0.805529 of unit cell:	Completed after 1 iterations at t[s]:    351.68
	Linear fluid (dielectric constant: 7.2) occupying 0.805530 of unit cell:	Completed after 0 iterations at t[s]:    352.51
	FillingsUpdate:  mu: -0.108201488  nElectrons: 498.000000
	SubspaceRotationAdjust: set factor to 2.2
ElecMinimize: Iter:  12  F: -1808.177386566719179  |grad|_K:  1.421e-07  alpha:  3.568e-02  linmin: -1.500e-03  t[s]:    353.75
	Linear fluid (dielectric constant: 7.2) occupying 0.805529 of unit cell:	Completed after 0 iterations at t[s]:    354.67
	Linear fluid (dielectric constant: 7.2) occupying 0.805529 of unit cell:	Completed after 0 iterations at t[s]:    355.55
	FillingsUpdate:  mu: -0.108200688  nElectrons: 498.000000
	SubspaceRotationAdjust: set factor to 2.44
ElecMinimize: Iter:  13  F: -1808.177386580427765  |grad|_K:  1.398e-07  alpha:  1.961e-02  linmin: -1.312e-03  t[s]:    356.78
	Linear fluid (dielectric constant: 7.2) occupying 0.805529 of unit cell:	Completed after 0 iterations at t[s]:    357.66
	Linear fluid (dielectric constant: 7.2) occupying 0.805529 of unit cell:	Completed after 0 iterations at t[s]:    358.50
	FillingsUpdate:  mu: -0.108200767  nElectrons: 498.000000
	SubspaceRotationAdjust: set factor to 2.78
ElecMinimize: Iter:  14  F: -1808.177386585544355  |grad|_K:  1.407e-07  alpha:  1.047e-02  linmin: -1.205e-03  t[s]:    359.73
	Linear fluid (dielectric constant: 7.2) occupying 0.805529 of unit cell:	Completed after 0 iterations at t[s]:    360.60
	Linear fluid (dielectric constant: 7.2) occupying 0.805529 of unit cell:	Completed after 0 iterations at t[s]:    361.45
	FillingsUpdate:  mu: -0.108199464  nElectrons: 498.000000
	SubspaceRotationAdjust: set factor to 3.15
ElecMinimize: Iter:  15  F: -1808.177386587542514  |grad|_K:  1.389e-07  alpha:  5.481e-03  linmin: -1.131e-03  t[s]:    362.67
ElecMinimize: Converged (|Delta F|<1.000000e-08 for 2 iters).
Setting wave functions to eigenvectors of Hamiltonian
IonicMinimize: 	Predicted alpha/alphaT>3.000000, increasing alphaT to 3.000000e+00.

-------- Electronic minimization -----------
	Linear fluid (dielectric constant: 7.2) occupying 0.805488 of unit cell:	Completed after 3 iterations at t[s]:    363.84
	FillingsUpdate:  mu: -0.108381469  nElectrons: 498.000000
ElecMinimize: Iter:   0  F: -1808.177395867592622  |grad|_K:  1.895e-06  alpha:  1.000e+00
	Linear fluid (dielectric constant: 7.2) occupying 0.805586 of unit cell:	Completed after 9 iterations at t[s]:    366.12
	Linear fluid (dielectric constant: 7.2) occupying 0.805508 of unit cell:	Completed after 9 iterations at t[s]:    367.07
	FillingsUpdate:  mu: -0.108271453  nElectrons: 498.000000
	SubspaceRotationAdjust: set factor to 1.82
ElecMinimize: Iter:   1  F: -1808.177412917010543  |grad|_K:  3.592e-06  alpha:  1.344e-01  linmin:  4.284e-04  t[s]:    368.32
	Linear fluid (dielectric constant: 7.2) occupying 0.805442 of unit cell:	Completed after 5 iterations at t[s]:    369.23
	Linear fluid (dielectric constant: 7.2) occupying 0.805473 of unit cell:	Completed after 4 iterations at t[s]:    370.12
	FillingsUpdate:  mu: -0.108332186  nElectrons: 498.000000
	SubspaceRotationAdjust: set factor to 1.05
ElecMinimize: Iter:   2  F: -1808.177443086774701  |grad|_K:  1.840e-06  alpha:  7.297e-02  linmin: -1.842e-04  t[s]:    371.38
	Linear fluid (dielectric constant: 7.2) occupying 0.805463 of unit cell:	Completed after 5 iterations at t[s]:    372.28
	Linear fluid (dielectric constant: 7.2) occupying 0.805467 of unit cell:	Completed after 3 iterations at t[s]:    373.20
	FillingsUpdate:  mu: -0.108409926  nElectrons: 498.000000
	SubspaceRotationAdjust: set factor to 0.898
ElecMinimize: Iter:   3  F: -1808.177449590661126  |grad|_K:  8.152e-07  alpha:  4.745e-02  linmin: -2.569e-04  t[s]:    374.42
	Linear fluid (dielectric constant: 7.2) occupying 0.805470 of unit cell:	Completed after 2 iterations at t[s]:    375.31
ElecMinimize: 	Predicted alpha/alphaT>3.000000, increasing alphaT to 1.423358e-01.
	Linear fluid (dielectric constant: 7.2) occupying 0.805476 of unit cell:	Completed after 3 iterations at t[s]:    376.14
	Linear fluid (dielectric constant: 7.2) occupying 0.805478 of unit cell:	Completed after 1 iterations at t[s]:    376.99
	FillingsUpdate:  mu: -0.108435440  nElectrons: 498.000000
	SubspaceRotationAdjust: set factor to 0.576
ElecMinimize: Iter:   4  F: -1808.177454155292708  |grad|_K:  9.252e-07  alpha:  1.642e-01  linmin:  7.369e-04  t[s]:    378.24
	Linear fluid (dielectric constant: 7.2) occupying 0.805478 of unit cell:	Completed after 4 iterations at t[s]:    379.17
	Linear fluid (dielectric constant: 7.2) occupying 0.805478 of unit cell:	Completed after 1 iterations at t[s]:    380.00
	FillingsUpdate:  mu: -0.108404251  nElectrons: 498.000000
	SubspaceRotationAdjust: set factor to 0.403
	SubspaceRotationAdjust: resetting CG because factor has changed by 0.128122
	Linear fluid (dielectric constant: 7.2) occupying 0.805478 of unit cell:	Completed after 0 iterations at t[s]:    381.68
ElecMinimize: 	State modified externally: resetting search direction.
ElecMinimize: Iter:   5  F: -1808.177458711404142  |grad|_K:  6.825e-07  alpha:  1.517e-01
	Linear fluid (dielectric constant: 7.2) occupying 0.805474 of unit cell:	Completed after 3 iterations at t[s]:    383.76
	Linear fluid (dielectric constant: 7.2) occupying 0.805473 of unit cell:	Completed after 2 iterations at t[s]:    384.61
	FillingsUpdate:  mu: -0.108392723  nElectrons: 498.000000
	SubspaceRotationAdjust: set factor to 0.489
ElecMinimize: Iter:   6  F: -1808.177462725047008  |grad|_K:  3.829e-07  alpha:  2.023e-01  linmin: -2.731e-03  t[s]:    385.85
	Linear fluid (dielectric constant: 7.2) occupying 0.805476 of unit cell:	Completed after 2 iterations at t[s]:    386.74
	Linear fluid (dielectric constant: 7.2) occupying 0.805477 of unit cell:	Completed after 1 iterations at t[s]:    387.57
	FillingsUpdate:  mu: -0.108385238  nElectrons: 498.000000
	SubspaceRotationAdjust: set factor to 0.458
ElecMinimize: Iter:   7  F: -1808.177464692420244  |grad|_K:  4.397e-07  alpha:  2.688e-01  linmin:  4.628e-05  t[s]:    388.81
	Linear fluid (dielectric constant: 7.2) occupying 0.805472 of unit cell:	Completed after 2 iterations at t[s]:    389.72
	Linear fluid (dielectric constant: 7.2) occupying 0.805473 of unit cell:	Completed after 1 iterations at t[s]:    390.56
	FillingsUpdate:  mu: -0.108379904  nElectrons: 498.000000
	SubspaceRotationAdjust: set factor to 0.4
ElecMinimize: Iter:   8  F: -1808.177466034987674  |grad|_K:  3.679e-07  alpha:  2.024e-01  linmin: -1.345e-03  t[s]:    391.80
	Linear fluid (dielectric constant: 7.2) occupying 0.805470 of unit cell:	Completed after 2 iterations at t[s]:    392.69
	Linear fluid (dielectric constant: 7.2) occupying 0.805471 of unit cell:	Completed after 1 iterations at t[s]:    393.53
	FillingsUpdate:  mu: -0.108386157  nElectrons: 498.000000
	SubspaceRotationAdjust: set factor to 0.496
ElecMinimize: Iter:   9  F: -1808.177467114975116  |grad|_K:  3.053e-07  alpha:  1.602e-01  linmin: -1.489e-03  t[s]:    394.78
	Linear fluid (dielectric constant: 7.2) occupying 0.805473 of unit cell:	Completed after 2 iterations at t[s]:    395.69
	Linear fluid (dielectric constant: 7.2) occupying 0.805473 of unit cell:	Completed after 0 iterations at t[s]:    396.54
	FillingsUpdate:  mu: -0.108394252  nElectrons: 498.000000
	SubspaceRotationAdjust: set factor to 0.546
ElecMinimize: Iter:  10  F: -1808.177468129096951  |grad|_K:  1.885e-07  alpha:  1.648e-01  linmin: -1.559e-03  t[s]:    397.74
	Linear fluid (dielectric constant: 7.2) occupying 0.805472 of unit cell:	Completed after 1 iterations at t[s]:    398.64
	Linear fluid (dielectric constant: 7.2) occupying 0.805472 of unit cell:	Completed after 0 iterations at t[s]:    399.47
	FillingsUpdate:  mu: -0.108397483  nElectrons: 498.000000
	SubspaceRotationAdjust: set factor to 0.688
ElecMinimize: Iter:  11  F: -1808.177468353631411  |grad|_K:  1.734e-07  alpha:  1.262e-01  linmin: -1.532e-03  t[s]:    400.68
	Linear fluid (dielectric constant: 7.2) occupying 0.805471 of unit cell:	Completed after 1 iterations at t[s]:    401.56
	Linear fluid (dielectric constant: 7.2) occupying 0.805471 of unit cell:	Completed after 0 iterations at t[s]:    402.41
	FillingsUpdate:  mu: -0.108398244  nElectrons: 498.000000
	SubspaceRotationAdjust: set factor to 0.936
ElecMinimize: Iter:  12  F: -1808.177468469649511  |grad|_K:  1.434e-07  alpha:  8.076e-02  linmin: -1.784e-03  t[s]:    403.63
	Linear fluid (dielectric constant: 7.2) occupying 0.805471 of unit cell:	Completed after 1 iterations at t[s]:    404.51
	Linear fluid (dielectric constant: 7.2) occupying 0.805471 of unit cell:	Completed after 0 iterations at t[s]:    405.36
	FillingsUpdate:  mu: -0.108397292  nElectrons: 498.000000
	SubspaceRotationAdjust: set factor to 1.18
ElecMinimize: Iter:  13  F: -1808.177468518318619  |grad|_K:  1.282e-07  alpha:  4.889e-02  linmin: -1.698e-03  t[s]:    406.59
	Linear fluid (dielectric constant: 7.2) occupying 0.805471 of unit cell:	Completed after 0 iterations at t[s]:    407.45
	Linear fluid (dielectric constant: 7.2) occupying 0.805471 of unit cell:	Completed after 0 iterations at t[s]:    408.27
	FillingsUpdate:  mu: -0.108397855  nElectrons: 498.000000
	SubspaceRotationAdjust: set factor to 1.46
[...]
	SubspaceRotationAdjust: set factor to 0.401
ElecMinimize: Iter:   8  F: -1808.177898387385085  |grad|_K:  7.961e-08  alpha:  1.415e-01  linmin: -1.308e-03  t[s]:   3451.09
	Linear fluid (dielectric constant: 7.2) occupying 0.805048 of unit cell:	Completed after 1 iterations at t[s]:   3451.97
	Linear fluid (dielectric constant: 7.2) occupying 0.805048 of unit cell:	Completed after 0 iterations at t[s]:   3452.83
	FillingsUpdate:  mu: -0.108980898  nElectrons: 498.000000
	SubspaceRotationAdjust: set factor to 0.46
ElecMinimize: Iter:   9  F: -1808.177898439228329  |grad|_K:  6.743e-08  alpha:  1.629e-01  linmin: -1.468e-03  t[s]:   3454.05
	Linear fluid (dielectric constant: 7.2) occupying 0.805048 of unit cell:	Completed after 1 iterations at t[s]:   3454.92
ElecMinimize: 	Predicted alpha/alphaT>3.000000, increasing alphaT to 4.888045e-01.
	Linear fluid (dielectric constant: 7.2) occupying 0.805048 of unit cell:	Completed after 1 iterations at t[s]:   3455.78
	Linear fluid (dielectric constant: 7.2) occupying 0.805048 of unit cell:	Completed after 1 iterations at t[s]:   3456.63
	FillingsUpdate:  mu: -0.108977737  nElectrons: 498.000000
	SubspaceRotationAdjust: set factor to 0.367
ElecMinimize: Iter:  10  F: -1808.177898511492231  |grad|_K:  6.587e-08  alpha:  2.067e-01  linmin:  2.534e-03  t[s]:   3457.84
	Linear fluid (dielectric constant: 7.2) occupying 0.805048 of unit cell:	Completed after 1 iterations at t[s]:   3458.74
	Linear fluid (dielectric constant: 7.2) occupying 0.805048 of unit cell:	Completed after 0 iterations at t[s]:   3459.61
ElecMinimize: 	Step increased F by 2.455636e-10, reducing alpha to 5.980563e-03.
	Linear fluid (dielectric constant: 7.2) occupying 0.805048 of unit cell:	Completed after 0 iterations at t[s]:   3461.46
	FillingsUpdate:  mu: -0.108978364  nElectrons: 498.000000
	SubspaceRotationAdjust: set factor to 0.365
ElecMinimize: Iter:  11  F: -1808.177898512315323  |grad|_K:  5.952e-08  alpha:  5.981e-03  linmin: -1.684e-03  t[s]:   3462.68
	Linear fluid (dielectric constant: 7.2) occupying 0.805048 of unit cell:	Completed after 0 iterations at t[s]:   3463.55
	Linear fluid (dielectric constant: 7.2) occupying 0.805048 of unit cell:	Completed after 0 iterations at t[s]:   3464.36
ElecMinimize: 	Step increased F by 1.705303e-11, reducing alpha to 2.913977e-04.
	Linear fluid (dielectric constant: 7.2) occupying 0.805048 of unit cell:	Completed after 0 iterations at t[s]:   3466.26
	FillingsUpdate:  mu: -0.108978363  nElectrons: 498.000000
	SubspaceRotationAdjust: set factor to 0.364
ElecMinimize: Iter:  12  F: -1808.177898512318507  |grad|_K:  5.936e-08  alpha:  2.914e-04  linmin: -3.875e-03  t[s]:   3467.49
ElecMinimize: Converged (|Delta F|<1.000000e-08 for 2 iters).
Setting wave functions to eigenvectors of Hamiltonian

-------- Electronic minimization -----------
	Linear fluid (dielectric constant: 7.2) occupying 0.805049 of unit cell:	Completed after 4 iterations at t[s]:   3468.66
	FillingsUpdate:  mu: -0.109014182  nElectrons: 498.000000
ElecMinimize: Iter:   0  F: -1808.177894006425277  |grad|_K:  6.585e-07  alpha:  1.000e+00
	Linear fluid (dielectric constant: 7.2) occupying 0.805086 of unit cell:	Completed after 7 iterations at t[s]:   3470.94
	Linear fluid (dielectric constant: 7.2) occupying 0.805057 of unit cell:	Completed after 6 iterations at t[s]:   3471.87
	FillingsUpdate:  mu: -0.108989990  nElectrons: 498.000000
	SubspaceRotationAdjust: set factor to 0.282
ElecMinimize: Iter:   1  F: -1808.177896668742505  |grad|_K:  5.388e-07  alpha:  1.796e-01  linmin:  1.255e-03  t[s]:   3473.11
	Linear fluid (dielectric constant: 7.2) occupying 0.805052 of unit cell:	Completed after 3 iterations at t[s]:   3474.01
	Linear fluid (dielectric constant: 7.2) occupying 0.805054 of unit cell:	Completed after 1 iterations at t[s]:   3474.87
	FillingsUpdate:  mu: -0.108966771  nElectrons: 498.000000
	SubspaceRotationAdjust: set factor to 0.342
ElecMinimize: Iter:   2  F: -1808.177897593194302  |grad|_K:  2.603e-07  alpha:  1.250e-01  linmin: -1.767e-03  t[s]:   3476.09
	Linear fluid (dielectric constant: 7.2) occupying 0.805051 of unit cell:	Completed after 1 iterations at t[s]:   3476.98
	Linear fluid (dielectric constant: 7.2) occupying 0.805052 of unit cell:	Completed after 0 iterations at t[s]:   3477.84
	FillingsUpdate:  mu: -0.108965550  nElectrons: 498.000000
	SubspaceRotationAdjust: set factor to 0.362
ElecMinimize: Iter:   3  F: -1808.177897820099133  |grad|_K:  1.767e-07  alpha:  8.610e-02  linmin: -1.770e-03  t[s]:   3479.06
	Linear fluid (dielectric constant: 7.2) occupying 0.805052 of unit cell:	Completed after 1 iterations at t[s]:   3479.93
	Linear fluid (dielectric constant: 7.2) occupying 0.805052 of unit cell:	Completed after 1 iterations at t[s]:   3480.83
	FillingsUpdate:  mu: -0.108974234  nElectrons: 498.000000
	SubspaceRotationAdjust: set factor to 0.363
ElecMinimize: Iter:   4  F: -1808.177898175079008  |grad|_K:  2.002e-07  alpha:  1.979e-01  linmin: -1.419e-03  t[s]:   3482.07
	Linear fluid (dielectric constant: 7.2) occupying 0.805055 of unit cell:	Completed after 2 iterations at t[s]:   3482.96
	Linear fluid (dielectric constant: 7.2) occupying 0.805054 of unit cell:	Completed after 1 iterations at t[s]:   3483.83
	FillingsUpdate:  mu: -0.108983639  nElectrons: 498.000000
	SubspaceRotationAdjust: set factor to 0.271
ElecMinimize: Iter:   5  F: -1808.177898500635592  |grad|_K:  1.623e-07  alpha:  1.586e-01  linmin:  2.143e-03  t[s]:   3485.05
	Linear fluid (dielectric constant: 7.2) occupying 0.805055 of unit cell:	Completed after 0 iterations at t[s]:   3485.91
	Linear fluid (dielectric constant: 7.2) occupying 0.805055 of unit cell:	Completed after 0 iterations at t[s]:   3486.74
	FillingsUpdate:  mu: -0.108983905  nElectrons: 498.000000
	SubspaceRotationAdjust: set factor to 0.259
ElecMinimize: Iter:   6  F: -1808.177898589883853  |grad|_K:  1.590e-07  alpha:  1.550e-01  linmin: -4.967e-05  t[s]:   3487.96
	Linear fluid (dielectric constant: 7.2) occupying 0.805054 of unit cell:	Completed after 2 iterations at t[s]:   3488.83
	Linear fluid (dielectric constant: 7.2) occupying 0.805054 of unit cell:	Completed after 0 iterations at t[s]:   3489.68
	FillingsUpdate:  mu: -0.108978981  nElectrons: 498.000000
	SubspaceRotationAdjust: set factor to 0.334
ElecMinimize: Iter:   7  F: -1808.177898665283010  |grad|_K:  9.499e-08  alpha:  9.545e-02  linmin: -4.773e-03  t[s]:   3490.90
	Linear fluid (dielectric constant: 7.2) occupying 0.805054 of unit cell:	Completed after 1 iterations at t[s]:   3491.76
	Linear fluid (dielectric constant: 7.2) occupying 0.805054 of unit cell:	Completed after 0 iterations at t[s]:   3492.59
	FillingsUpdate:  mu: -0.108976458  nElectrons: 498.000000
	SubspaceRotationAdjust: set factor to 0.416
ElecMinimize: Iter:   8  F: -1808.177898710430782  |grad|_K:  6.807e-08  alpha:  9.323e-02  linmin: -2.491e-03  t[s]:   3493.82
	Linear fluid (dielectric constant: 7.2) occupying 0.805054 of unit cell:	Completed after 1 iterations at t[s]:   3494.67
ElecMinimize: 	Wrong curvature in test step, increasing alphaT to 2.796953e-01.
	Linear fluid (dielectric constant: 7.2) occupying 0.805054 of unit cell:	Completed after 0 iterations at t[s]:   3495.24
	FillingsUpdate:  mu: -0.108974997  nElectrons: 498.000000
	SubspaceRotationAdjust: set factor to 0.463
ElecMinimize: Iter:   9  F: -1808.177898770946967  |grad|_K:  6.145e-08  alpha: -2.559e-01  linmin: -4.101e-03  t[s]:   3496.46
	Linear fluid (dielectric constant: 7.2) occupying 0.805056 of unit cell:	Completed after 3 iterations at t[s]:   3497.34
	Linear fluid (dielectric constant: 7.2) occupying 0.805054 of unit cell:	Completed after 1 iterations at t[s]:   3498.19
	FillingsUpdate:  mu: -0.108970798  nElectrons: 498.000000
	SubspaceRotationAdjust: set factor to 0.333
ElecMinimize: Iter:  10  F: -1808.177898914550042  |grad|_K:  9.203e-08  alpha:  2.471e-01  linmin:  2.967e-03  t[s]:   3499.44
	Linear fluid (dielectric constant: 7.2) occupying 0.805054 of unit cell:	Completed after 1 iterations at t[s]:   3500.31
	Linear fluid (dielectric constant: 7.2) occupying 0.805054 of unit cell:	Completed after 1 iterations at t[s]:   3501.15
	FillingsUpdate:  mu: -0.108970361  nElectrons: 498.000000
	SubspaceRotationAdjust: set factor to 0.28
ElecMinimize: Iter:  11  F: -1808.177898919054769  |grad|_K:  8.425e-08  alpha:  2.643e-02  linmin:  3.240e-04  t[s]:   3502.39
	Linear fluid (dielectric constant: 7.2) occupying 0.805054 of unit cell:	Completed after 0 iterations at t[s]:   3503.27
	Linear fluid (dielectric constant: 7.2) occupying 0.805054 of unit cell:	Completed after 0 iterations at t[s]:   3504.08
ElecMinimize: 	Step increased F by 6.309619e-10, reducing alpha to 1.101729e-03.
	Linear fluid (dielectric constant: 7.2) occupying 0.805054 of unit cell:	Completed after 0 iterations at t[s]:   3505.98
ElecMinimize: 	Step increased F by 1.091394e-11, reducing alpha to 1.101729e-04.
	Linear fluid (dielectric constant: 7.2) occupying 0.805054 of unit cell:	Completed after 0 iterations at t[s]:   3507.86
	FillingsUpdate:  mu: -0.108970360  nElectrons: 498.000000
	SubspaceRotationAdjust: set factor to 0.253
ElecMinimize: Iter:  12  F: -1808.177898919062045  |grad|_K:  8.007e-08  alpha:  1.102e-04  linmin: -3.465e-03  t[s]:   3509.07
ElecMinimize: Converged (|Delta F|<1.000000e-08 for 2 iters).
Setting wave functions to eigenvectors of Hamiltonian

# Ionic positions in cartesian coordinates:
ion Ti   0.000000174975000  -0.000000174975000   2.000000000000000 0
ion Ti   4.340445422775000   4.340445072825000   4.795024053800001 0
ion Ti   0.000000174975000   8.680909217924999   2.000000000000000 0
ion Ti   4.340445422775000  13.021354465725000   4.795024053800001 0
ion Ti   0.000000174975000  17.361818610825001   2.000000000000000 0
ion Ti   4.340445422775000  21.702263858624999   4.795024053800001 0
ion Ti   8.680909567874998  -0.000000174975000   2.000000000000000 0
ion Ti  13.021354815675002   4.340445072825000   4.795024053800001 0
ion Ti   8.680909567874998   8.680909217924999   2.000000000000000 0
ion Ti  13.021354815675002  13.021354465725000   4.795024053800001 0
ion Ti   8.680909567874998  17.361818610825001   2.000000000000000 0
ion Ti  13.021364264325003  21.702263858624999   4.795024053800001 0
ion Ti  17.361818960775000  -0.000000174975000   2.000000000000000 0
ion Ti  21.702264208574999   4.340445072825000   4.795024053800001 0
ion Ti  17.361818960775000   8.680909217924999   2.000000000000000 0
ion Ti  21.702264208574999  13.021363914375000   4.795024053800001 0
ion Ti  17.361818960775000  17.361818610825001   2.000000000000000 0
ion Ti  21.702264208574999  21.702263858624999   4.795024053800001 0
ion O   2.650289808075000   2.650289458125000   2.000000000000000 0
ion O   6.030619934775000   6.030619584825001   2.000000000000000 0
ion O   1.690174686975000   6.990734705924999   4.795024053800001 0
ion O   6.990735055874999   1.690174337025000   4.795024053800001 0
ion O   2.650289808075000  11.331198851025000   2.000000000000000 0
ion O   6.030619934775000  14.711528977725004   2.000000000000000 0
ion O   1.690174686975000  15.671644098825000   4.795024053800001 0
ion O   6.990735055874999  10.371083729925001   4.795024053800001 0
ion O   2.650289808075000  20.012108243924999   2.000000000000000 0
ion O   6.030619934775000  23.392438370625001   2.000000000000000 0
ion O   1.690174686975000  24.352553491725004   4.795024053800001 0
ion O   6.990735055874999  19.051993122824996   4.795024053800001 0
ion O  11.331199200975000   2.650289458125000   2.000000000000000 0
ion O  14.711529327675001   6.030619584825001   2.000000000000000 0
ion O  10.371084079875001   6.990734705924999   4.795024053800001 0
ion O  15.671644448774998   1.690174337025000   4.795024053800001 0
ion O  11.331199200975000  11.331198851025000   2.000000000000000 0
ion O  14.711529327675001  14.711528977725004   2.000000000000000 0
ion O  10.371084079875001  15.671644098825000   4.795024053800001 0
ion O  15.671644448774998  10.371083729925001   4.795024053800001 0
ion O  11.331199200975000  20.012108243924999   2.000000000000000 0
ion O  14.711529327675001  23.392438370625001   2.000000000000000 0
ion O  10.371084079875001  24.352553491725004   4.795024053800001 0
ion O  15.671644448774998  19.051993122824996   4.795024053800001 0
ion O  20.012108593874995   2.650289458125000   2.000000000000000 0
ion O  23.392438720575004   6.030619584825001   2.000000000000000 0
ion O  19.051993472774999   6.990734705924999   4.795024053800001 0
ion O  24.352553841675000   1.690174337025000   4.795024053800001 0
ion O  20.012108593874995  11.331198851025000   2.000000000000000 0
ion O  23.392438720575004  14.711528977725004   2.000000000000000 0
ion O  19.051993472774999  15.671644098825000   4.795024053800001 0
ion O  24.352553841675000  10.371083729925001   4.795024053800001 0
ion O  20.012108593874995  20.012108243924999   2.000000000000000 0
ion O  23.392438720575004  23.392438370625001   2.000000000000000 0
ion O  19.051993472774999  24.352553491725004   4.795024053800001 0
ion O  24.352553841675000  19.051993122824996   4.795024053800001 0
ion S  13.553010800693379   5.575947036604502   9.500986577573098 1
ion S  21.869300204166759  12.073780018205287   9.480067553174269 1
ion S  19.049015419215891  13.516398176707551  11.636288471745361 1
ion S  20.544140038314474  21.397562640717453   9.535480815215811 1
ion S  17.406129103681078  23.696083859390889   9.830444202572213 1
ion S  14.054512937077853  21.801291834458119   9.682900957403302 1
ion S  11.147427477935988   8.581690951581045  10.088617946330436 1
ion S  12.705668103818036  12.087155872742315   9.652797015630604 1
ion Na  17.346901209781180  17.377037513019790   8.386129929823452 1
ion Na  17.438477669337566   9.021252448036936   8.409328689633297 1

# Forces in Cartesian coordinates:
force Ti  -0.002850573699580  -0.004011873360274   0.122006472358041 0
force Ti   0.001738462562838  -0.000433650925390  -0.116218416479581 0
force Ti  -0.000783563472093   0.002325191053681   0.124560282691539 0
force Ti   0.001023574214737   0.000125535809459  -0.114100405339127 0
force Ti  -0.004721807575393  -0.002177113313995   0.124191609587830 0
force Ti   0.000481760199775  -0.000577505265383  -0.115204309008805 0
force Ti   0.005150191741455   0.001080216002648   0.124069939173533 0
force Ti   0.004858268214284   0.002691316411664  -0.090535928897794 0
force Ti   0.003452060937668  -0.000709272197619   0.124781158669641 0
force Ti  -0.016323000103597  -0.006271058709517  -0.096085295800980 0
force Ti   0.003922172233602   0.000999229330227   0.123909108551722 0
force Ti   0.001040560837710   0.011914089787980  -0.091476887071358 0
force Ti  -0.003291529508327  -0.002991792594719   0.124954516922499 0
force Ti   0.004640525793310  -0.007136521754884  -0.121375738370881 0
force Ti  -0.003004402115945   0.002214524298164   0.112973504339117 0
force Ti   0.003459206726674  -0.000937875194848  -0.095243774001824 0
force Ti  -0.001170609232131   0.000455170627570   0.114939342427345 0
force Ti  -0.002377291417500  -0.005208062416686  -0.090837859501984 0
force O  -0.017308038519000  -0.017050888406220   0.014386178756675 0
force O   0.016196025344819   0.016871514721685   0.014906359294677 0
force O   0.016927239322999  -0.017233149862813  -0.019952158011914 0
force O  -0.018481889197605   0.017622643194088  -0.020150415107111 0
force O  -0.018236850807820  -0.018508965751042   0.013976447929643 0
force O   0.016889316488295   0.017177214135914   0.014376724398496 0
force O   0.017697978411081  -0.016898991564465  -0.020721400477152 0
force O  -0.018495119584690   0.016890039039702  -0.021261104822925 0
force O  -0.016564790302532  -0.016996897237295   0.014424463118374 0
force O   0.016332612779523   0.016824342900339   0.014416936962045 0
force O   0.016798573632649  -0.016206129658299  -0.020813387488605 0
force O  -0.017404628469030   0.017026315927229  -0.020539658194770 0
force O  -0.026293130315440  -0.024948632988242   0.005951672143190 0
force O   0.023676617262214   0.023540050398624   0.008936587343353 0
force O   0.006949196775457  -0.010589052676051  -0.033168513852456 0
force O  -0.013238043565719   0.014310987134289  -0.024526361821680 0
force O  -0.020088093385243  -0.020549065810242   0.010173483415568 0
force O   0.025121221074516   0.024196219250727   0.008503704652929 0
force O   0.014530237521165  -0.012424949588119  -0.025066911439984 0
force O  -0.007553715634830   0.011377877962781  -0.027732360894804 0
force O  -0.023561157574815  -0.024206658212541   0.008134287252793 0
force O   0.021132555014594   0.019946176702779   0.009909454250069 0
force O   0.012040857508495  -0.014073558519053  -0.025903818153725 0
force O  -0.010147660501395   0.006417991142320  -0.027285602838740 0
force O  -0.014847131052971  -0.014064979091483   0.016281573078408 0
force O   0.016390421080829   0.016871551627377   0.015354562282647 0
force O   0.017755001878826  -0.016670061155024  -0.010387980848278 0
force O  -0.017973350237413   0.019035086857874  -0.019294276078597 0
force O  -0.024543820882666  -0.024934791728081   0.008607150039413 0
force O   0.025119882282999   0.024699469749885   0.006473833633756 0
force O   0.011374893942682  -0.013476754122394  -0.019140486554840 0
force O  -0.009907139168029   0.010364599399093  -0.027656183097276 0
force O  -0.022821767085973  -0.022580925083086   0.009162377126530 0
force O   0.025408737994816   0.026646706978642   0.006035255039362 0
force O   0.010886087686672  -0.006982683834213  -0.033366280053394 0
force O  -0.012807404447954   0.013968566450363  -0.023873399003207 0
force S   0.000147527605666   0.000028349845668   0.000009065794982 1
force S   0.000138619796042  -0.000042980191408   0.000055281139851 1
force S  -0.000048404228503  -0.000091089014065  -0.000061119318464 1
force S  -0.000113042430929  -0.000070645253827   0.000067688385064 1
force S  -0.000014580469967  -0.000042739740668  -0.000038069230732 1
force S   0.000182249342538   0.000041914068540   0.000038687248433 1
force S   0.000063235057140   0.000075077260799   0.000121878448543 1
force S   0.000081408451942  -0.000027724156185  -0.000189190421971 1
force Na   0.000082901546852   0.000028095214203   0.000033210502093 1
force Na  -0.000065825082305   0.000007468606497   0.000015095031942 1

# Energy components:
   A_diel =       -0.1739207722881062
   Eewald =    10420.2745578794492758
       EH =    11943.5546626927534817
     Eloc =   -24454.4604700749514450
      Enl =       48.6012351084466445
      Exc =     -338.8007607428101551
 Exc_core =       40.0532610988542856
       KE =      532.9114984644468223
-------------------------------------
     Etot =    -1808.0399363460967379
       TS =        0.1379625729652377
-------------------------------------
        F =    -1808.1778989190620450

IonicMinimize: Iter:  25  F: -1808.177898919062045  |grad|_K:  8.257e-05  alpha:  3.825e+00  linmin: -2.618e-04  t[s]:   3510.26
IonicMinimize: Converged (|grad|_K<1.000000e-04).

#--- Lowdin population analysis ---
# oxidation-state Ti +1.638 +1.683 +1.636 +1.693 +1.635 +1.693 +1.634 +1.580 +1.630 +1.569 +1.635 +1.584 +1.627 +1.679 +1.646 +1.569 +1.641 +1.576
# oxidation-state O -0.757 -0.756 -0.739 -0.731 -0.756 -0.757 -0.729 -0.726 -0.758 -0.758 -0.733 -0.732 -0.767 -0.758 -0.705 -0.715 -0.755 -0.769 -0.716 -0.776 -0.765 -0.757 -0.713 -0.774 -0.755 -0.755 -0.786 -0.732 -0.766 -0.767 -0.782 -0.713 -0.760 -0.766 -0.703 -0.718
# oxidation-state S -0.391 -0.265 -0.287 -0.393 +0.270 -0.358 +0.238 -0.343
# oxidation-state Na +0.672 +0.708


Dumping 'Na2S8@TiO2-glyme.fillings' ... done
Dumping 'Na2S8@TiO2-glyme.wfns' ... done
Dumping 'Na2S8@TiO2-glyme.fluidState' ... done
Dumping 'Na2S8@TiO2-glyme.ionpos' ... done
Dumping 'Na2S8@TiO2-glyme.eigenvals' ... done
End date and time: Fri Sep 27 19:23:39 2024  (Duration: 0-0:58:32.47)
Done!
