
*************** JDFTx 1.7.0  ***************

Start date and time: Tue May 21 11:45:03 2024
Executable jdftx with command-line: -i Na2S@TiO2-glyme.in -o Na2S@TiO2-glyme.out
Running on hosts (process indices):  rqtUbuntuMac (0)
Divided in process groups (process indices):  0 (0)
Resource initialization completed at t[s]:      0.00
Run totals: 1 processes, 8 threads, 0 GPUs


Input parsed successfully to the following command list (including defaults):

basis kpoint-dependent
coords-type Cartesian
core-overlap-check vector
coulomb-interaction Slab 001
coulomb-truncation-embed 0 0 8
davidson-band-ratio 1.1
dump End State
dump-name Na2S@TiO2-glyme.$VAR
elec-cutoff 20 100
elec-eigen-algo Davidson
elec-ex-corr gga-PBE
elec-smearing Fermi 0.01
electronic-minimize  \
	dirUpdateScheme      FletcherReeves \
	linminMethod         DirUpdateRecommended \
	nIterations          100 \
	history              15 \
	knormThreshold       0 \
	energyDiffThreshold  1e-08 \
	nEnergyDiff          2 \
	alphaTstart          1 \
	alphaTmin            1e-10 \
	updateTestStepSize   yes \
	alphaTreduceFactor   0.1 \
	alphaTincreaseFactor 3 \
	nAlphaAdjustMax      3 \
	wolfeEnergy          0.0001 \
	wolfeGradient        0.9 \
	fdTest               no
electronic-scf  \
	nIterations	50 \
	energyDiffThreshold	1e-08 \
	residualThreshold	1e-07 \
	mixFraction	0.5 \
	qMetric	0.8 \
	history	10 \
	nEigSteps	2 \
	eigDiffThreshold	1e-08 \
	mixedVariable	Density \
	qKerker	0.8 \
	qKappa	-1 \
	verbose	no \
	mixFractionMag	1.5
exchange-regularization WignerSeitzTruncated
fluid LinearPCM 298.000000 1.013250
fluid-ex-corr lda-TF lda-PZ
fluid-gummel-loop 10 1.000000e-05
fluid-minimize  \
	dirUpdateScheme      PolakRibiere \
	linminMethod         DirUpdateRecommended \
	nIterations          400 \
	history              15 \
	knormThreshold       1e-11 \
	energyDiffThreshold  0 \
	nEnergyDiff          2 \
	alphaTstart          1 \
	alphaTmin            1e-10 \
	updateTestStepSize   yes \
	alphaTreduceFactor   0.1 \
	alphaTincreaseFactor 3 \
	nAlphaAdjustMax      6 \
	wolfeEnergy          0.0001 \
	wolfeGradient        0.9 \
	fdTest               no
fluid-solvent Glyme 9.62137 ScalarEOS \
	epsBulk 7.2 \
	pMol 0 \
	epsInf 1.9 \
	Pvap 0 \
	sigmaBulk 0 \
	Rvdw 0 \
	Res 0 \
	tauNuc 343133
forces-output-coords Positions
ion Ti   0.000000174975000  -0.000000174975000   2.000000000000000 0
ion Ti   4.340445422775000   4.340445072825000   4.795024053800001 0
ion Ti   0.000000174975000   8.680909217924999   2.000000000000000 0
ion Ti   4.340445422775000  13.021354465725000   4.795024053800001 0
ion Ti   0.000000174975000  17.361818610825001   2.000000000000000 0
ion Ti   4.340445422775000  21.702263858624999   4.795024053800001 0
ion Ti   8.680909567874998  -0.000000174975000   2.000000000000000 0
ion Ti  13.021354815675002   4.340445072825000   4.795024053800001 0
ion Ti   8.680909567874998   8.680909217924999   2.000000000000000 0
ion Ti  13.021354815675002  13.021354465725000   4.795024053800001 0
ion Ti   8.680909567874998  17.361818610825001   2.000000000000000 0
ion Ti  13.021364264325003  21.702263858624999   4.795024053800001 0
ion Ti  17.361818960775000  -0.000000174975000   2.000000000000000 0
ion Ti  21.702264208574999   4.340445072825000   4.795024053800001 0
ion Ti  17.361818960775000   8.680909217924999   2.000000000000000 0
ion Ti  21.702264208574999  13.021363914375000   4.795024053800001 0
ion Ti  17.361818960775000  17.361818610825001   2.000000000000000 0
ion Ti  21.702264208574999  21.702263858624999   4.795024053800001 0
ion O   2.650289808075000   2.650289458125000   2.000000000000000 0
ion O   6.030619934775000   6.030619584825001   2.000000000000000 0
ion O   1.690174686975000   6.990734705924999   4.795024053800001 0
ion O   6.990735055874999   1.690174337025000   4.795024053800001 0
ion O   2.650289808075000  11.331198851025000   2.000000000000000 0
ion O   6.030619934775000  14.711528977725004   2.000000000000000 0
ion O   1.690174686975000  15.671644098825000   4.795024053800001 0
ion O   6.990735055874999  10.371083729925001   4.795024053800001 0
ion O   2.650289808075000  20.012108243924999   2.000000000000000 0
ion O   6.030619934775000  23.392438370625001   2.000000000000000 0
ion O   1.690174686975000  24.352553491725004   4.795024053800001 0
ion O   6.990735055874999  19.051993122824996   4.795024053800001 0
ion O  11.331199200975000   2.650289458125000   2.000000000000000 0
ion O  14.711529327675001   6.030619584825001   2.000000000000000 0
ion O  10.371084079875001   6.990734705924999   4.795024053800001 0
ion O  15.671644448774998   1.690174337025000   4.795024053800001 0
ion O  11.331199200975000  11.331198851025000   2.000000000000000 0
ion O  14.711529327675001  14.711528977725004   2.000000000000000 0
ion O  10.371084079875001  15.671644098825000   4.795024053800001 0
ion O  15.671644448774998  10.371083729925001   4.795024053800001 0
ion O  11.331199200975000  20.012108243924999   2.000000000000000 0
ion O  14.711529327675001  23.392438370625001   2.000000000000000 0
ion O  10.371084079875001  24.352553491725004   4.795024053800001 0
ion O  15.671644448774998  19.051993122824996   4.795024053800001 0
ion O  20.012108593874995   2.650289458125000   2.000000000000000 0
ion O  23.392438720575004   6.030619584825001   2.000000000000000 0
ion O  19.051993472774999   6.990734705924999   4.795024053800001 0
ion O  24.352553841675000   1.690174337025000   4.795024053800001 0
ion O  20.012108593874995  11.331198851025000   2.000000000000000 0
ion O  23.392438720575004  14.711528977725004   2.000000000000000 0
ion O  19.051993472774999  15.671644098825000   4.795024053800001 0
ion O  24.352553841675000  10.371083729925001   4.795024053800001 0
ion O  20.012108593874995  20.012108243924999   2.000000000000000 0
ion O  23.392438720575004  23.392438370625001   2.000000000000000 0
ion O  19.051993472774999  24.352553491725004   4.795024053800001 0
ion O  24.352553841675000  19.051993122824996   4.795024053800001 0
ion S  13.002479456895969  13.702212640181052   9.355668309214190 1
ion Na   9.077171400009375  16.859845993377192   8.421310210701535 1
ion Na  16.746175056555415  16.670796536559944   8.174419357007713 1
ion-species GBRV/$ID_pbe.uspp
ion-width Ecut
ionic-minimize  \
	dirUpdateScheme      FletcherReeves \
	linminMethod         DirUpdateRecommended \
	nIterations          200 \
	history              15 \
	knormThreshold       0.0001 \
	energyDiffThreshold  1e-06 \
	nEnergyDiff          2 \
	alphaTstart          1 \
	alphaTmin            1e-10 \
	updateTestStepSize   yes \
	alphaTreduceFactor   0.1 \
	alphaTincreaseFactor 3 \
	nAlphaAdjustMax      3 \
	wolfeEnergy          0.0001 \
	wolfeGradient        0.9 \
	fdTest               no
kpoint   0.000000000000   0.000000000000   0.000000000000  1.00000000000000
kpoint-folding 1 1 1 
latt-move-scale 1 1 1
latt-scale 1 1 1 
lattice Tetragonal 26.04 37.7946
lattice-minimize  \
	dirUpdateScheme      L-BFGS \
	linminMethod         DirUpdateRecommended \
	nIterations          0 \
	history              15 \
	knormThreshold       0 \
	energyDiffThreshold  1e-06 \
	nEnergyDiff          2 \
	alphaTstart          1 \
	alphaTmin            1e-10 \
	updateTestStepSize   yes \
	alphaTreduceFactor   0.1 \
	alphaTincreaseFactor 3 \
	nAlphaAdjustMax      3 \
	wolfeEnergy          0.0001 \
	wolfeGradient        0.9 \
	fdTest               no
lcao-params -1 1e-06 0.01
pcm-variant GLSSA13
spintype no-spin
subspace-rotation-factor 1 yes
symmetries automatic
symmetry-threshold 0.0001



---------- Setting up symmetries ----------

Found 16 point-group symmetries of the bravais lattice
Found 1 space-group symmetries with basis
Applied RMS atom displacement 0 bohrs to make symmetries exact.

---------- Initializing the Grid ----------
R = 
[        26.04            0            0  ]
[            0        26.04            0  ]
[            0            0      37.7946  ]
unit cell volume = 25627.8
G =
[    0.24129          0          0  ]
[          0    0.24129          0  ]
[          0          0   0.166246  ]
Minimum fftbox size, Smin = [  120  120  172  ]
Chosen fftbox size, S = [  120  120  180  ]

---------- Initializing tighter grid for wavefunction operations ----------
R = 
[        26.04            0            0  ]
[            0        26.04            0  ]
[            0            0      37.7946  ]
unit cell volume = 25627.8
G =
[    0.24129          0          0  ]
[          0    0.24129          0  ]
[          0          0   0.166246  ]
Minimum fftbox size, Smin = [  108  108  156  ]
Chosen fftbox size, S = [  108  108  160  ]

---------- Exchange Correlation functional ----------
Initalized PBE GGA exchange.
Initalized PBE GGA correlation.

---------- Setting up pseudopotentials ----------
Width of ionic core gaussian charges (only for fluid interactions / plotting) set to 0.397384

Reading pseudopotential file '/home/andrewkim/jdftx_install/build/pseudopotentials/GBRV/ti_pbe.uspp':
  Title: Ti.  Created by USPP 7.3.6 on 31-3-15
  Reference state energy: -59.020943.  12 valence electrons in orbitals:
    |300>  occupation: 2  eigenvalue: -2.777623
    |310>  occupation: 6  eigenvalue: -1.894596
    |400>  occupation: 2  eigenvalue: -0.438610
    |320>  occupation: 1  eigenvalue: -0.583119
  lMax: 2  lLocal: 3  QijEcut: 6
  6 projectors sampled on a log grid with 597 points:
    l: 0  eig: -2.777624  rCut: 1.8
    l: 0  eig: -0.438611  rCut: 1.8
    l: 1  eig: -1.894596  rCut: 1.8
    l: 1  eig: 0.500000  rCut: 1.8
    l: 2  eig: -0.583118  rCut: 1.8
    l: 2  eig: 0.150000  rCut: 1.8
  Partial core density with radius 0.8
  Transforming core density to a uniform radial grid of dG=0.02 with 1273 points.
  Transforming local potential to a uniform radial grid of dG=0.02 with 1273 points.
  Transforming nonlocal projectors to a uniform radial grid of dG=0.02 with 432 points.
  Transforming density augmentations to a uniform radial grid of dG=0.02 with 1273 points.
  Transforming atomic orbitals to a uniform radial grid of dG=0.02 with 432 points.
  Core radius for overlap checks: 1.80 bohrs.

Reading pseudopotential file '/home/andrewkim/jdftx_install/build/pseudopotentials/GBRV/o_pbe.uspp':
  Title: O.  Created by USPP 7.3.6 on 3-2-2014
  Reference state energy: -15.894388.  6 valence electrons in orbitals:
    |200>  occupation: 2  eigenvalue: -0.878823
    |210>  occupation: 4  eigenvalue: -0.332131
  lMax: 2  lLocal: 2  QijEcut: 6
  5 projectors sampled on a log grid with 511 points:
    l: 0  eig: -0.878823  rCut: 1.25
    l: 0  eig: 0.000000  rCut: 1.25
    l: 1  eig: -0.332132  rCut: 1.25
    l: 1  eig: 0.000000  rCut: 1.25
    l: 2  eig: 1.000000  rCut: 1.25
  Partial core density with radius 0.7
  Transforming core density to a uniform radial grid of dG=0.02 with 1273 points.
  Transforming local potential to a uniform radial grid of dG=0.02 with 1273 points.
  Transforming nonlocal projectors to a uniform radial grid of dG=0.02 with 432 points.
  Transforming density augmentations to a uniform radial grid of dG=0.02 with 1273 points.
  Transforming atomic orbitals to a uniform radial grid of dG=0.02 with 432 points.
  Core radius for overlap checks: 1.25 bohrs.

Reading pseudopotential file '/home/andrewkim/jdftx_install/build/pseudopotentials/GBRV/s_pbe.uspp':
  Title: S.  Created by USPP 7.3.6 on 1-4-15
  Reference state energy: -11.898476.  6 valence electrons in orbitals:
    |300>  occupation: 2  eigenvalue: -0.634167
    |310>  occupation: 4  eigenvalue: -0.257568
  lMax: 2  lLocal: 3  QijEcut: 6
  6 projectors sampled on a log grid with 635 points:
    l: 0  eig: -0.634161  rCut: 1.5
    l: 0  eig: 1.500000  rCut: 1.5
    l: 1  eig: -0.257567  rCut: 1.5
    l: 1  eig: 1.500000  rCut: 1.5
    l: 2  eig: -1.000000  rCut: 1.5
    l: 2  eig: 1.500000  rCut: 1.5
  Partial core density with radius 1.15
  Transforming core density to a uniform radial grid of dG=0.02 with 1273 points.
  Transforming local potential to a uniform radial grid of dG=0.02 with 1273 points.
  Transforming nonlocal projectors to a uniform radial grid of dG=0.02 with 432 points.
  Transforming density augmentations to a uniform radial grid of dG=0.02 with 1273 points.
  Transforming atomic orbitals to a uniform radial grid of dG=0.02 with 432 points.
  Core radius for overlap checks: 1.50 bohrs.

Reading pseudopotential file '/home/andrewkim/jdftx_install/build/pseudopotentials/GBRV/na_pbe.uspp':
  Title: Na.  Created by USPP 7.3.6 on 23-9-15
  Reference state energy: -47.625620.  9 valence electrons in orbitals:
    |200>  occupation: 2  eigenvalue: -2.085638
    |210>  occupation: 6  eigenvalue: -1.053708
    |300>  occupation: 1  eigenvalue: -0.100838
  lMax: 2  lLocal: 0  QijEcut: 6
  5 projectors sampled on a log grid with 657 points:
    l: 0  eig: -2.085640  rCut: 1.37
    l: 0  eig: -0.100839  rCut: 1.37
    l: 1  eig: -1.053708  rCut: 1.47
    l: 1  eig: 0.500000  rCut: 1.47
    l: 2  eig: 0.750000  rCut: 2
  Transforming local potential to a uniform radial grid of dG=0.02 with 1273 points.
  Transforming nonlocal projectors to a uniform radial grid of dG=0.02 with 432 points.
  Transforming density augmentations to a uniform radial grid of dG=0.02 with 1273 points.
  Transforming atomic orbitals to a uniform radial grid of dG=0.02 with 432 points.
  Core radius for overlap checks: 2.00 bohrs.

Initialized 4 species with 57 total atoms.

Folded 1 k-points by 1x1x1 to 1 k-points.

---------- Setting up k-points, bands, fillings ----------
No reducable k-points. 
Computing the number of bands and number of electrons
Calculating initial fillings.
nElectrons: 456.000000   nBands: 338   nStates: 1

----- Setting up reduced wavefunction bases (one per k-point) -----
average nbasis = 109517.000 , ideal nbasis = 109484.012

---------- Setting up coulomb interaction ----------
Fluid mode embedding: using embedded box, but periodic Coulomb kernel.
(Fluid response is responsible for (approximate) separation between periodic images.)
Setting up double-sized grid for truncated Coulomb potentials:
R = 
[        26.04            0            0  ]
[            0        26.04            0  ]
[            0            0      75.5892  ]
unit cell volume = 51255.6
G =
[    0.24129          0          0  ]
[          0    0.24129          0  ]
[          0          0  0.0831228  ]
Chosen fftbox size, S = [  120  120  360  ]
Integer grid location selected as the embedding center:
   Grid: [  0  0  38  ]
   Lattice: [  0  0  0.21167  ]
   Cartesian: [  0  0  8  ]
Constructing Wigner-Seitz cell: 6 faces (6 quadrilaterals, 0 hexagons)
Range-separation parameter for embedded mesh potentials due to point charges: 0.587679 bohrs.

---------- Setting up ewald sum ----------
Optimum gaussian width for ewald sums = 7.554021 bohr.
Real space sum over 405 unit cells with max indices [  4  4  2  ]
Reciprocal space sum over 7875 terms with max indices [  7  7  17  ]

---------- Allocating electronic variables ----------
Initializing wave functions:  linear combination of atomic orbitals
Ti pseudo-atom occupations:   s ( 2 0 )  p ( 6 )  d ( 4 )
O pseudo-atom occupations:   s ( 2 )  p ( 4 )
S pseudo-atom occupations:   s ( 2 )  p ( 4 )
Na pseudo-atom occupations:   s ( 2 1 )  p ( 6 )
	FillingsUpdate:  mu: +0.204226315  nElectrons: 456.000000
LCAOMinimize: Iter:   0  F: -1706.8329682101111757  |grad|_K:  1.620e-02  alpha:  1.000e+00
	FillingsUpdate:  mu: +0.198370248  nElectrons: 456.000000
LCAOMinimize: Iter:   1  F: -1708.1499294055206519  |grad|_K:  1.609e-02  alpha:  4.283e-02  linmin: -1.941e-01  cgtest:  9.521e-01  t[s]:    558.07
LCAOMinimize: 	Wrong curvature in test step, increasing alphaT to 1.284792e-01.
	FillingsUpdate:  mu: +0.191424100  nElectrons: 456.000000
LCAOMinimize: Iter:   2  F: -1709.5220298167816964  |grad|_K:  1.615e-02  alpha: -6.679e-01  linmin: -1.905e-01  cgtest:  9.386e-01  t[s]:    714.51
	FillingsUpdate:  mu: +0.182952113  nElectrons: 456.000000
LCAOMinimize: Iter:   3  F: -1711.0168103412349865  |grad|_K:  1.634e-02  alpha:  4.456e-02  linmin: -1.908e-01  cgtest:  9.245e-01  t[s]:    887.19
LCAOMinimize: 	Wrong curvature in test step, increasing alphaT to 1.336670e-01.
	FillingsUpdate:  mu: +0.173030558  nElectrons: 456.000000
LCAOMinimize: Iter:   4  F: -1712.6050253119303761  |grad|_K:  1.665e-02  alpha: -4.083e-01  linmin: -1.947e-01  cgtest:  9.136e-01  t[s]:   1046.92
	FillingsUpdate:  mu: +0.160266939  nElectrons: 456.000000
LCAOMinimize: Iter:   5  F: -1714.4817261154880725  |grad|_K:  1.709e-02  alpha:  4.887e-02  linmin: -2.033e-01  cgtest:  8.941e-01  t[s]:   1218.87
LCAOMinimize: 	Wrong curvature in test step, increasing alphaT to 1.466167e-01.
	FillingsUpdate:  mu: +0.145093164  nElectrons: 456.000000
LCAOMinimize: Iter:   6  F: -1716.5465009231563727  |grad|_K:  1.759e-02  alpha: -3.076e-01  linmin: -2.148e-01  cgtest:  8.817e-01  t[s]:   1374.89
	FillingsUpdate:  mu: +0.123404620  nElectrons: 456.000000
LCAOMinimize: Iter:   7  F: -1719.1965393387845324  |grad|_K:  1.815e-02  alpha:  5.662e-02  linmin: -2.315e-01  cgtest:  8.505e-01  t[s]:   1547.36
LCAOMinimize: 	Wrong curvature in test step, increasing alphaT to 1.698702e-01.
	FillingsUpdate:  mu: +0.094222126  nElectrons: 456.000000
LCAOMinimize: Iter:   8  F: -1722.1613528865864282  |grad|_K:  1.844e-02  alpha: -2.760e-01  linmin: -2.502e-01  cgtest:  8.362e-01  t[s]:   1703.78
	FillingsUpdate:  mu: +0.050292046  nElectrons: 456.000000
LCAOMinimize: Iter:   9  F: -1725.7171717938310849  |grad|_K:  1.796e-02  alpha:  6.514e-02  linmin: -2.758e-01  cgtest:  8.060e-01  t[s]:   1876.12
LCAOMinimize: 	Wrong curvature in test step, increasing alphaT to 1.954161e-01.
	FillingsUpdate:  mu: +0.003224402  nElectrons: 456.000000
LCAOMinimize: Iter:  10  F: -1728.9372033103559261  |grad|_K:  1.613e-02  alpha: -5.775e-01  linmin: -2.978e-01  cgtest:  8.125e-01  t[s]:   2034.02
	FillingsUpdate:  mu: -0.022784557  nElectrons: 456.000000
LCAOMinimize: Iter:  11  F: -1730.6821565797476978  |grad|_K:  1.401e-02  alpha:  5.167e-02  linmin: -3.058e-01  cgtest:  8.815e-01  t[s]:   2206.10
LCAOMinimize: Encountered beta<0, resetting CG.
LCAOMinimize: 	Predicted alpha/alphaT>3.000000, increasing alphaT to 1.549992e-01.
LCAOMinimize: 	Step increased F by 1.668188e+01, reducing alpha to 3.512250e-02.
	FillingsUpdate:  mu: -0.033626474  nElectrons: 456.000000
LCAOMinimize: Iter:  12  F: -1731.4586587355142910  |grad|_K:  1.256e-02  alpha:  3.512e-02  linmin: -3.083e-01  cgtest:  9.381e-01  t[s]:   2551.42
LCAOMinimize: Encountered beta<0, resetting CG.
LCAOMinimize: 	Predicted alpha/alphaT>3.000000, increasing alphaT to 1.053675e-01.
LCAOMinimize: 	Predicted alpha/alphaT>3.000000, increasing alphaT to 3.161025e-01.
	FillingsUpdate:  mu: -0.049193691  nElectrons: 456.000000
LCAOMinimize: Iter:  13  F: -1732.7653087618048176  |grad|_K:  8.505e-03  alpha:  7.945e-02  linmin: -3.255e-01  cgtest:  8.626e-01  t[s]:   2807.93
LCAOMinimize: Encountered beta<0, resetting CG.
LCAOMinimize: 	Predicted alpha/alphaT>3.000000, increasing alphaT to 2.383487e-01.
	FillingsUpdate:  mu: -0.025941793  nElectrons: 456.000000
LCAOMinimize: Iter:  14  F: -1733.5158249468743179  |grad|_K:  2.060e-03  alpha:  1.352e-01  linmin: -1.938e-01  cgtest:  4.623e-01  t[s]:   3021.24
LCAOMinimize: Encountered beta<0, resetting CG.
	FillingsUpdate:  mu: -0.014135799  nElectrons: 456.000000
LCAOMinimize: Iter:  15  F: -1733.5627878855959807  |grad|_K:  1.017e-03  alpha:  1.986e-01  linmin:  5.934e-02  cgtest: -9.898e-02  t[s]:   3192.15
	FillingsUpdate:  mu: -0.002752462  nElectrons: 456.000000
LCAOMinimize: Iter:  16  F: -1733.5754286290459731  |grad|_K:  8.318e-04  alpha:  2.390e-01  linmin:  9.894e-03  cgtest:  1.723e-01  t[s]:   3366.76
	FillingsUpdate:  mu: -0.001014749  nElectrons: 456.000000
LCAOMinimize: Iter:  17  F: -1733.5833672854646466  |grad|_K:  3.274e-04  alpha:  2.062e-01  linmin: -1.690e-02  cgtest: -6.155e-03  t[s]:   3539.08
	FillingsUpdate:  mu: -0.000433036  nElectrons: 456.000000
LCAOMinimize: Iter:  18  F: -1733.5844097582833001  |grad|_K:  1.552e-04  alpha:  1.649e-01  linmin:  4.405e-03  cgtest: -7.969e-02  t[s]:   3710.64
	FillingsUpdate:  mu: +0.000044949  nElectrons: 456.000000
LCAOMinimize: Iter:  19  F: -1733.5848227431713440  |grad|_K:  1.338e-04  alpha:  3.027e-01  linmin:  3.238e-03  cgtest:  3.088e-02  t[s]:   3882.95
	FillingsUpdate:  mu: -0.000150245  nElectrons: 456.000000
LCAOMinimize: Iter:  20  F: -1733.5850152391280972  |grad|_K:  5.565e-05  alpha:  1.894e-01  linmin:  4.688e-06  cgtest:  2.498e-02  t[s]:   4054.55
	FillingsUpdate:  mu: -0.000178014  nElectrons: 456.000000
LCAOMinimize: Iter:  21  F: -1733.5850431488452159  |grad|_K:  1.522e-05  alpha:  1.568e-01  linmin:  2.227e-04  cgtest: -3.079e-03  t[s]:   4226.42
	FillingsUpdate:  mu: -0.000210504  nElectrons: 456.000000
LCAOMinimize: Iter:  22  F: -1733.5850455280044571  |grad|_K:  9.526e-06  alpha:  1.789e-01  linmin:  6.410e-05  cgtest:  6.023e-04  t[s]:   4400.02
	FillingsUpdate:  mu: -0.000269536  nElectrons: 456.000000
LCAOMinimize: Iter:  23  F: -1733.5850468904452555  |grad|_K:  6.917e-06  alpha:  2.613e-01  linmin: -9.762e-05  cgtest:  9.691e-04  t[s]:   4572.13
	FillingsUpdate:  mu: -0.000287170  nElectrons: 456.000000
LCAOMinimize: Iter:  24  F: -1733.5850473769742166  |grad|_K:  2.685e-06  alpha:  1.773e-01  linmin:  5.003e-04  cgtest: -3.281e-03  t[s]:   4743.66
	FillingsUpdate:  mu: -0.000284290  nElectrons: 456.000000
LCAOMinimize: Iter:  25  F: -1733.5850474568890149  |grad|_K:  1.424e-06  alpha:  1.945e-01  linmin:  1.038e-02  cgtest: -3.653e-02  t[s]:   4917.08
LCAOMinimize: Converged (|Delta F|<1.000000e-06 for 2 iters).
----- createFluidSolver() ----- (Fluid-side solver setup)
   Initializing fluid molecule 'Glyme'
     Net charge: 0   dipole magnitude: 0
     Initializing spherical shell mfKernel with radius 0 Bohr
     deltaS corrections:

Correction to mu due to finite nuclear width = -0.0088272
   Cavity determined by nc: 8.36e-05 and sigma: 0.6
   Effective cavity tension: -8.03e-06 Eh/bohr^2 to account for cavitation and dispersion.


---- Citations for features of the code used in this run ----

   Software package:
      R. Sundararaman, K. Letchworth-Weaver, K.A. Schwarz, D. Gunceler, Y. Ozhabes and T.A. Arias, 'JDFTx: software for joint density-functional theory', SoftwareX 6, 278 (2017)

   gga-PBE exchange-correlation functional:
      J.P. Perdew, K. Burke and M. Ernzerhof, Phys. Rev. Lett. 77, 3865 (1996)

   Pseudopotentials:
      KF Garrity, JW Bennett, KM Rabe and D Vanderbilt, Comput. Mater. Sci. 81, 446 (2014)

   Truncated Coulomb potentials:
      R. Sundararaman and T.A. Arias, Phys. Rev. B 87, 165122 (2013)

   Linear/nonlinear dielectric/ionic fluid model with effective cavity tension:
      D. Gunceler, K. Letchworth-Weaver, R. Sundararaman, K.A. Schwarz and T.A. Arias, Modelling Simul. Mater. Sci. Eng. 21, 074005 (2013)

This list may not be complete. Please suggest additional citations or
report any other bugs at https://github.com/shankar1729/jdftx/issues

Initialization completed successfully at t[s]:   5048.05

Fluid solver invoked on fresh (random / LCAO) wavefunctions
Running a vacuum solve first:

-------- Initial electronic minimization -----------
Will mix electronic density at each iteration.
	FillingsUpdate:  mu: -0.000284290  nElectrons: 456.000000
	FillingsUpdate:  mu: -0.024196362  nElectrons: 456.000000
SCF: Cycle:  0   F: -1733.518466285358954   dF: +6.658e-02   |Residual|: 1.746e+00   |deigs|: 3.208e-02  t[s]:   5957.95
	FillingsUpdate:  mu: -0.067118223  nElectrons: 456.000000
SCF: Cycle:  1   F: -1734.404621361977206   dF: -8.862e-01   |Residual|: 8.270e-01   |deigs|: 5.788e-02  t[s]:   6773.62
	FillingsUpdate:  mu: -0.085949286  nElectrons: 456.000000
SCF: Cycle:  2   F: -1734.195724488119822   dF: +2.089e-01   |Residual|: 8.672e-01   |deigs|: 3.746e-02  t[s]:   7589.77
	FillingsUpdate:  mu: -0.086442915  nElectrons: 456.000000
SCF: Cycle:  3   F: -1735.906721506260737   dF: -1.711e+00   |Residual|: 1.890e-01   |deigs|: 1.568e-02  t[s]:   8409.55
	FillingsUpdate:  mu: -0.088438284  nElectrons: 456.000000
SCF: Cycle:  4   F: -1735.994373951979242   dF: -8.765e-02   |Residual|: 5.817e-02   |deigs|: 4.927e-03  t[s]:   9230.57
	FillingsUpdate:  mu: -0.089837887  nElectrons: 456.000000
SCF: Cycle:  5   F: -1735.996862781479877   dF: -2.489e-03   |Residual|: 4.775e-02   |deigs|: 2.627e-03  t[s]:  10039.89
	FillingsUpdate:  mu: -0.090456305  nElectrons: 456.000000
SCF: Cycle:  6   F: -1735.998353944888095   dF: -1.491e-03   |Residual|: 3.759e-02   |deigs|: 8.883e-04  t[s]:  10781.52
	FillingsUpdate:  mu: -0.090683699  nElectrons: 456.000000
SCF: Cycle:  7   F: -1736.001946843740143   dF: -3.593e-03   |Residual|: 1.522e-02   |deigs|: 5.684e-04  t[s]:  11521.88
	FillingsUpdate:  mu: -0.090871932  nElectrons: 456.000000
SCF: Cycle:  8   F: -1736.003025375795914   dF: -1.079e-03   |Residual|: 8.342e-03   |deigs|: 4.341e-04  t[s]:  12179.37
	FillingsUpdate:  mu: -0.091594245  nElectrons: 456.000000
SCF: Cycle:  9   F: -1736.003621214752684   dF: -5.958e-04   |Residual|: 8.579e-03   |deigs|: 8.883e-04  t[s]:  12851.45
	FillingsUpdate:  mu: -0.092338492  nElectrons: 456.000000
SCF: Cycle: 10   F: -1736.004089640631491   dF: -4.684e-04   |Residual|: 8.322e-03   |deigs|: 9.967e-04  t[s]:  13522.58
	FillingsUpdate:  mu: -0.092652070  nElectrons: 456.000000
SCF: Cycle: 11   F: -1736.004368917012471   dF: -2.793e-04   |Residual|: 5.362e-03   |deigs|: 4.328e-04  t[s]:  14184.00
	FillingsUpdate:  mu: -0.092941340  nElectrons: 456.000000
SCF: Cycle: 12   F: -1736.004457938359110   dF: -8.902e-05   |Residual|: 3.762e-03   |deigs|: 3.625e-04  t[s]:  14832.28
	FillingsUpdate:  mu: -0.093235430  nElectrons: 456.000000
SCF: Cycle: 13   F: -1736.004541309110664   dF: -8.337e-05   |Residual|: 3.409e-03   |deigs|: 4.374e-04  t[s]:  15498.48
	FillingsUpdate:  mu: -0.093485796  nElectrons: 456.000000
SCF: Cycle: 14   F: -1736.004578246661140   dF: -3.694e-05   |Residual|: 2.744e-03   |deigs|: 3.468e-04  t[s]:  16150.09
	FillingsUpdate:  mu: -0.093685743  nElectrons: 456.000000
SCF: Cycle: 15   F: -1736.004589794707044   dF: -1.155e-05   |Residual|: 2.563e-03   |deigs|: 2.958e-04  t[s]:  16794.85
	FillingsUpdate:  mu: -0.094054702  nElectrons: 456.000000
SCF: Cycle: 16   F: -1736.004613502210304   dF: -2.371e-05   |Residual|: 2.049e-03   |deigs|: 4.324e-04  t[s]:  17476.82
	FillingsUpdate:  mu: -0.094370599  nElectrons: 456.000000
SCF: Cycle: 17   F: -1736.004615280511644   dF: -1.778e-06   |Residual|: 2.170e-03   |deigs|: 3.322e-04  t[s]:  18131.78
	FillingsUpdate:  mu: -0.094625840  nElectrons: 456.000000
SCF: Cycle: 18   F: -1736.004620888498494   dF: -5.608e-06   |Residual|: 1.692e-03   |deigs|: 2.777e-04  t[s]:  18800.41
	FillingsUpdate:  mu: -0.094872760  nElectrons: 456.000000
SCF: Cycle: 19   F: -1736.004625962978707   dF: -5.074e-06   |Residual|: 1.374e-03   |deigs|: 2.694e-04  t[s]:  19434.74
	FillingsUpdate:  mu: -0.095262968  nElectrons: 456.000000
SCF: Cycle: 20   F: -1736.004629163614482   dF: -3.201e-06   |Residual|: 9.318e-04   |deigs|: 4.223e-04  t[s]:  20076.23
	FillingsUpdate:  mu: -0.095509086  nElectrons: 456.000000
SCF: Cycle: 21   F: -1736.004629783117707   dF: -6.195e-07   |Residual|: 9.776e-04   |deigs|: 2.561e-04  t[s]:  20713.91
	FillingsUpdate:  mu: -0.095748841  nElectrons: 456.000000
SCF: Cycle: 22   F: -1736.004629482596783   dF: +3.005e-07   |Residual|: 9.898e-04   |deigs|: 2.524e-04  t[s]:  21380.77
	FillingsUpdate:  mu: -0.096007913  nElectrons: 456.000000
SCF: Cycle: 23   F: -1736.004632366071746   dF: -2.883e-06   |Residual|: 8.598e-04   |deigs|: 2.758e-04  t[s]:  22049.68
	FillingsUpdate:  mu: -0.096244690  nElectrons: 456.000000
SCF: Cycle: 24   F: -1736.004634590535943   dF: -2.224e-06   |Residual|: 6.504e-04   |deigs|: 2.679e-04  t[s]:  22694.47
	FillingsUpdate:  mu: -0.096367787  nElectrons: 456.000000
SCF: Cycle: 25   F: -1736.004635171962946   dF: -5.814e-07   |Residual|: 5.681e-04   |deigs|: 1.371e-04  t[s]:  23321.51
	FillingsUpdate:  mu: -0.096510221  nElectrons: 456.000000
SCF: Cycle: 26   F: -1736.004635715987206   dF: -5.440e-07   |Residual|: 5.441e-04   |deigs|: 1.526e-04  t[s]:  23966.22
	FillingsUpdate:  mu: -0.096677273  nElectrons: 456.000000
SCF: Cycle: 27   F: -1736.004636271276240   dF: -5.553e-07   |Residual|: 4.564e-04   |deigs|: 1.906e-04  t[s]:  24611.19
	FillingsUpdate:  mu: -0.096798384  nElectrons: 456.000000
SCF: Cycle: 28   F: -1736.004636426059051   dF: -1.548e-07   |Residual|: 4.565e-04   |deigs|: 1.324e-04  t[s]:  25252.19
	FillingsUpdate:  mu: -0.096921690  nElectrons: 456.000000
SCF: Cycle: 29   F: -1736.004636633743530   dF: -2.077e-07   |Residual|: 3.695e-04   |deigs|: 1.385e-04  t[s]:  25914.69
	FillingsUpdate:  mu: -0.097022398  nElectrons: 456.000000
SCF: Cycle: 30   F: -1736.004636676271048   dF: -4.253e-08   |Residual|: 3.657e-04   |deigs|: 1.096e-04  t[s]:  26567.46
	FillingsUpdate:  mu: -0.097124777  nElectrons: 456.000000
SCF: Cycle: 31   F: -1736.004636924208626   dF: -2.479e-07   |Residual|: 2.282e-04   |deigs|: 1.143e-04  t[s]:  27236.55
	FillingsUpdate:  mu: -0.097171631  nElectrons: 456.000000
SCF: Cycle: 32   F: -1736.004637082769932   dF: -1.586e-07   |Residual|: 1.807e-04   |deigs|: 4.983e-05  t[s]:  27862.38
	FillingsUpdate:  mu: -0.097228224  nElectrons: 456.000000
SCF: Cycle: 33   F: -1736.004637088882646   dF: -6.113e-09   |Residual|: 1.633e-04   |deigs|: 6.156e-05  t[s]:  28527.01
	FillingsUpdate:  mu: -0.097249191  nElectrons: 456.000000
SCF: Cycle: 34   F: -1736.004637138999669   dF: -5.012e-08   |Residual|: 1.380e-04   |deigs|: 2.736e-05  t[s]:  29191.17
	FillingsUpdate:  mu: -0.097276353  nElectrons: 456.000000
SCF: Cycle: 35   F: -1736.004637205579684   dF: -6.658e-08   |Residual|: 1.177e-04   |deigs|: 3.052e-05  t[s]:  29836.43
	FillingsUpdate:  mu: -0.097297128  nElectrons: 456.000000
SCF: Cycle: 36   F: -1736.004637264129769   dF: -5.855e-08   |Residual|: 1.203e-04   |deigs|: 2.518e-05  t[s]:  30475.63
	FillingsUpdate:  mu: -0.097326929  nElectrons: 456.000000
SCF: Cycle: 37   F: -1736.004637315500986   dF: -5.137e-08   |Residual|: 1.432e-04   |deigs|: 3.982e-05  t[s]:  31119.06
	FillingsUpdate:  mu: -0.097345624  nElectrons: 456.000000
SCF: Cycle: 38   F: -1736.004637413388309   dF: -9.789e-08   |Residual|: 9.543e-05   |deigs|: 3.870e-05  t[s]:  31763.63
	FillingsUpdate:  mu: -0.097355697  nElectrons: 456.000000
SCF: Cycle: 39   F: -1736.004637470060288   dF: -5.667e-08   |Residual|: 1.051e-04   |deigs|: 3.992e-05  t[s]:  32396.87
	FillingsUpdate:  mu: -0.097367827  nElectrons: 456.000000
SCF: Cycle: 40   F: -1736.004637508994392   dF: -3.893e-08   |Residual|: 8.511e-05   |deigs|: 4.654e-05  t[s]:  33035.80
	FillingsUpdate:  mu: -0.097370004  nElectrons: 456.000000
SCF: Cycle: 41   F: -1736.004637563156848   dF: -5.416e-08   |Residual|: 7.306e-05   |deigs|: 4.458e-05  t[s]:  33684.94
	FillingsUpdate:  mu: -0.097370924  nElectrons: 456.000000
SCF: Cycle: 42   F: -1736.004637610439431   dF: -4.728e-08   |Residual|: 5.986e-05   |deigs|: 3.108e-05  t[s]:  34326.74
	FillingsUpdate:  mu: -0.097374092  nElectrons: 456.000000
SCF: Cycle: 43   F: -1736.004637648746893   dF: -3.831e-08   |Residual|: 5.315e-05   |deigs|: 2.146e-05  t[s]:  34970.44
	FillingsUpdate:  mu: -0.097373501  nElectrons: 456.000000
SCF: Cycle: 44   F: -1736.004637672843728   dF: -2.410e-08   |Residual|: 4.200e-05   |deigs|: 2.216e-05  t[s]:  35613.14
	FillingsUpdate:  mu: -0.097374612  nElectrons: 456.000000
SCF: Cycle: 45   F: -1736.004637686220349   dF: -1.338e-08   |Residual|: 3.819e-05   |deigs|: 1.243e-05  t[s]:  36247.16
	FillingsUpdate:  mu: -0.097375512  nElectrons: 456.000000
SCF: Cycle: 46   F: -1736.004637696217060   dF: -9.997e-09   |Residual|: 3.072e-05   |deigs|: 1.381e-05  t[s]:  36899.29
	FillingsUpdate:  mu: -0.097376487  nElectrons: 456.000000
SCF: Cycle: 47   F: -1736.004637701324555   dF: -5.107e-09   |Residual|: 2.596e-05   |deigs|: 9.745e-06  t[s]:  37546.30
SCF: Converged (|Delta E|<1.000000e-08 for 2 iters).

Setting wave functions to eigenvectors of Hamiltonian
Vacuum energy after initial minimize, F = -1736.004637701324555


-------- Electronic minimization -----------
Will mix electronic density at each iteration.
	FillingsUpdate:  mu: -0.097376487  nElectrons: 456.000000
	Linear fluid (dielectric constant: 7.2) occupying 0.823031 of unit cell:	Completed after 13 iterations at t[s]:  37621.66
	FillingsUpdate:  mu: -0.103413998  nElectrons: 456.000000
	Linear fluid (dielectric constant: 7.2) occupying 0.829116 of unit cell:	Completed after 11 iterations at t[s]:  38456.56
SCF: Cycle:  0   F: -1736.058183539173797   dF: -2.140e-04   |Residual|: 5.393e-02   |deigs|: 2.279e-03  t[s]:  38458.43
	Linear fluid (dielectric constant: 7.2) occupying 0.822688 of unit cell:	Completed after 11 iterations at t[s]:  38464.54
	FillingsUpdate:  mu: -0.102973381  nElectrons: 456.000000
	Linear fluid (dielectric constant: 7.2) occupying 0.829271 of unit cell:	Completed after 11 iterations at t[s]:  39279.17
SCF: Cycle:  1   F: -1736.054720096318988   dF: +3.463e-03   |Residual|: 8.642e-02   |deigs|: 2.424e-03  t[s]:  39281.06
	Linear fluid (dielectric constant: 7.2) occupying 0.822755 of unit cell:	Completed after 10 iterations at t[s]:  39286.73
	FillingsUpdate:  mu: -0.102088814  nElectrons: 456.000000
	Linear fluid (dielectric constant: 7.2) occupying 0.829821 of unit cell:	Completed after 11 iterations at t[s]:  40093.89
SCF: Cycle:  2   F: -1736.071471769693517   dF: -1.675e-02   |Residual|: 1.901e-02   |deigs|: 2.020e-03  t[s]:  40095.89
	Linear fluid (dielectric constant: 7.2) occupying 0.822831 of unit cell:	Completed after 10 iterations at t[s]:  40101.59
	FillingsUpdate:  mu: -0.101374954  nElectrons: 456.000000
	Linear fluid (dielectric constant: 7.2) occupying 0.830206 of unit cell:	Completed after 11 iterations at t[s]:  40811.70
SCF: Cycle:  3   F: -1736.072531797473857   dF: -1.060e-03   |Residual|: 8.885e-03   |deigs|: 8.190e-04  t[s]:  40813.55
	Linear fluid (dielectric constant: 7.2) occupying 0.823270 of unit cell:	Completed after 10 iterations at t[s]:  40819.38
	FillingsUpdate:  mu: -0.099797274  nElectrons: 456.000000
	Linear fluid (dielectric constant: 7.2) occupying 0.830793 of unit cell:	Completed after 11 iterations at t[s]:  41592.29
SCF: Cycle:  4   F: -1736.073793227856186   dF: -1.261e-03   |Residual|: 8.794e-03   |deigs|: 1.568e-03  t[s]:  41594.14
	Linear fluid (dielectric constant: 7.2) occupying 0.823933 of unit cell:	Completed after 10 iterations at t[s]:  41600.01
	FillingsUpdate:  mu: -0.098196744  nElectrons: 456.000000
	Linear fluid (dielectric constant: 7.2) occupying 0.831297 of unit cell:	Completed after 11 iterations at t[s]:  42376.98
SCF: Cycle:  5   F: -1736.075358340571711   dF: -1.565e-03   |Residual|: 6.012e-03   |deigs|: 1.539e-03  t[s]:  42378.90
	Linear fluid (dielectric constant: 7.2) occupying 0.825132 of unit cell:	Completed after 10 iterations at t[s]:  42384.99
	FillingsUpdate:  mu: -0.096114466  nElectrons: 456.000000
	Linear fluid (dielectric constant: 7.2) occupying 0.831597 of unit cell:	Completed after 11 iterations at t[s]:  43152.21
SCF: Cycle:  6   F: -1736.077097800324964   dF: -1.739e-03   |Residual|: 5.965e-03   |deigs|: 1.997e-03  t[s]:  43154.21
	Linear fluid (dielectric constant: 7.2) occupying 0.827254 of unit cell:	Completed after 10 iterations at t[s]:  43160.64
	FillingsUpdate:  mu: -0.093012872  nElectrons: 456.000000
	Linear fluid (dielectric constant: 7.2) occupying 0.831376 of unit cell:	Completed after 10 iterations at t[s]:  43967.59
SCF: Cycle:  7   F: -1736.078914878825572   dF: -1.817e-03   |Residual|: 5.526e-03   |deigs|: 2.852e-03  t[s]:  43969.41
	Linear fluid (dielectric constant: 7.2) occupying 0.828397 of unit cell:	Completed after 10 iterations at t[s]:  43976.20
	FillingsUpdate:  mu: -0.091499854  nElectrons: 456.000000
	Linear fluid (dielectric constant: 7.2) occupying 0.832169 of unit cell:	Completed after 10 iterations at t[s]:  44753.00
SCF: Cycle:  8   F: -1736.080105399357080   dF: -1.191e-03   |Residual|: 4.301e-03   |deigs|: 1.661e-03  t[s]:  44754.88
	Linear fluid (dielectric constant: 7.2) occupying 0.829653 of unit cell:	Completed after 9 iterations at t[s]:  44761.22
	FillingsUpdate:  mu: -0.089935388  nElectrons: 456.000000
	Linear fluid (dielectric constant: 7.2) occupying 0.831674 of unit cell:	Completed after 9 iterations at t[s]:  45559.97
SCF: Cycle:  9   F: -1736.081337526644802   dF: -1.232e-03   |Residual|: 2.993e-03   |deigs|: 1.525e-03  t[s]:  45561.85
	Linear fluid (dielectric constant: 7.2) occupying 0.831163 of unit cell:	Completed after 9 iterations at t[s]:  45567.46
	FillingsUpdate:  mu: -0.087894231  nElectrons: 456.000000
	Linear fluid (dielectric constant: 7.2) occupying 0.830048 of unit cell:	Completed after 9 iterations at t[s]:  46365.82
SCF: Cycle: 10   F: -1736.081361941322939   dF: -2.441e-05   |Residual|: 2.827e-03   |deigs|: 2.038e-03  t[s]:  46367.69
	Linear fluid (dielectric constant: 7.2) occupying 0.830716 of unit cell:	Completed after 9 iterations at t[s]:  46373.97
	FillingsUpdate:  mu: -0.088166877  nElectrons: 456.000000
	Linear fluid (dielectric constant: 7.2) occupying 0.832815 of unit cell:	Completed after 10 iterations at t[s]:  47112.78
SCF: Cycle: 11   F: -1736.082203126504737   dF: -8.412e-04   |Residual|: 2.707e-03   |deigs|: 1.202e-03  t[s]:  47114.89
	Linear fluid (dielectric constant: 7.2) occupying 0.831457 of unit cell:	Completed after 9 iterations at t[s]:  47121.34
	FillingsUpdate:  mu: -0.086681865  nElectrons: 456.000000
	Linear fluid (dielectric constant: 7.2) occupying 0.831370 of unit cell:	Completed after 9 iterations at t[s]:  47929.41
SCF: Cycle: 12   F: -1736.082325424348710   dF: -1.223e-04   |Residual|: 2.410e-03   |deigs|: 1.482e-03  t[s]:  47931.42
	Linear fluid (dielectric constant: 7.2) occupying 0.831705 of unit cell:	Completed after 9 iterations at t[s]:  47937.15
	FillingsUpdate:  mu: -0.085965649  nElectrons: 456.000000
	Linear fluid (dielectric constant: 7.2) occupying 0.832228 of unit cell:	Completed after 9 iterations at t[s]:  48736.89
SCF: Cycle: 13   F: -1736.083628677203478   dF: -1.303e-03   |Residual|: 2.146e-03   |deigs|: 8.746e-04  t[s]:  48738.91
	Linear fluid (dielectric constant: 7.2) occupying 0.831844 of unit cell:	Completed after 9 iterations at t[s]:  48745.08
	FillingsUpdate:  mu: -0.085873333  nElectrons: 456.000000
	Linear fluid (dielectric constant: 7.2) occupying 0.830757 of unit cell:	Completed after 9 iterations at t[s]:  49446.56
SCF: Cycle: 14   F: -1736.083108725058764   dF: +5.200e-04   |Residual|: 1.711e-03   |deigs|: 5.853e-04  t[s]:  49448.43
	Linear fluid (dielectric constant: 7.2) occupying 0.831677 of unit cell:	Completed after 9 iterations at t[s]:  49454.43
	FillingsUpdate:  mu: -0.086038633  nElectrons: 456.000000
	Linear fluid (dielectric constant: 7.2) occupying 0.830457 of unit cell:	Completed after 10 iterations at t[s]:  50157.10
SCF: Cycle: 15   F: -1736.081484384851365   dF: +1.624e-03   |Residual|: 1.996e-03   |deigs|: 3.284e-04  t[s]:  50159.17
	Linear fluid (dielectric constant: 7.2) occupying 0.831670 of unit cell:	Completed after 9 iterations at t[s]:  50165.73
	FillingsUpdate:  mu: -0.085961899  nElectrons: 456.000000
	Linear fluid (dielectric constant: 7.2) occupying 0.828277 of unit cell:	Completed after 10 iterations at t[s]:  50873.10
SCF: Cycle: 16   F: -1736.074424218934610   dF: +7.060e-03   |Residual|: 4.287e-03   |deigs|: 4.523e-04  t[s]:  50874.99
	Linear fluid (dielectric constant: 7.2) occupying 0.831575 of unit cell:	Completed after 10 iterations at t[s]:  50881.18
	FillingsUpdate:  mu: -0.085766763  nElectrons: 456.000000
	Linear fluid (dielectric constant: 7.2) occupying 0.831545 of unit cell:	Completed after 9 iterations at t[s]:  51615.82
SCF: Cycle: 17   F: -1736.083801528626282   dF: -9.377e-03   |Residual|: 1.443e-03   |deigs|: 4.595e-04  t[s]:  51617.71
	Linear fluid (dielectric constant: 7.2) occupying 0.831578 of unit cell:	Completed after 9 iterations at t[s]:  51623.25
	FillingsUpdate:  mu: -0.085622393  nElectrons: 456.000000
	Linear fluid (dielectric constant: 7.2) occupying 0.829846 of unit cell:	Completed after 10 iterations at t[s]:  52331.20
SCF: Cycle: 18   F: -1736.080295235345147   dF: +3.506e-03   |Residual|: 2.114e-03   |deigs|: 4.280e-04  t[s]:  52333.19
	Linear fluid (dielectric constant: 7.2) occupying 0.831568 of unit cell:	Completed after 10 iterations at t[s]:  52341.01
	FillingsUpdate:  mu: -0.085464992  nElectrons: 456.000000
	Linear fluid (dielectric constant: 7.2) occupying 0.831941 of unit cell:	Completed after 9 iterations at t[s]:  53013.47
SCF: Cycle: 19   F: -1736.084158977312654   dF: -3.864e-03   |Residual|: 1.139e-03   |deigs|: 2.958e-04  t[s]:  53015.32
	Linear fluid (dielectric constant: 7.2) occupying 0.831689 of unit cell:	Completed after 8 iterations at t[s]:  53021.19
	FillingsUpdate:  mu: -0.084706461  nElectrons: 456.000000
	Linear fluid (dielectric constant: 7.2) occupying 0.831752 of unit cell:	Completed after 9 iterations at t[s]:  53811.32
SCF: Cycle: 20   F: -1736.084463216961467   dF: -3.042e-04   |Residual|: 2.139e-03   |deigs|: 9.332e-04  t[s]:  53813.24
	Linear fluid (dielectric constant: 7.2) occupying 0.831728 of unit cell:	Completed after 8 iterations at t[s]:  53819.73
	FillingsUpdate:  mu: -0.084413257  nElectrons: 456.000000
	Linear fluid (dielectric constant: 7.2) occupying 0.831729 of unit cell:	Completed after 9 iterations at t[s]:  54489.13
SCF: Cycle: 21   F: -1736.084617834847677   dF: -1.546e-04   |Residual|: 2.433e-03   |deigs|: 2.780e-04  t[s]:  54491.13
	Linear fluid (dielectric constant: 7.2) occupying 0.831662 of unit cell:	Completed after 9 iterations at t[s]:  54498.17
	FillingsUpdate:  mu: -0.084592357  nElectrons: 456.000000
	Linear fluid (dielectric constant: 7.2) occupying 0.831760 of unit cell:	Completed after 9 iterations at t[s]:  55169.73
SCF: Cycle: 22   F: -1736.084615857650078   dF: +1.977e-06   |Residual|: 2.012e-03   |deigs|: 1.903e-04  t[s]:  55171.76
	Linear fluid (dielectric constant: 7.2) occupying 0.831505 of unit cell:	Completed after 9 iterations at t[s]:  55178.99
	FillingsUpdate:  mu: -0.084727045  nElectrons: 456.000000
	Linear fluid (dielectric constant: 7.2) occupying 0.831715 of unit cell:	Completed after 9 iterations at t[s]:  55912.84
SCF: Cycle: 23   F: -1736.084120446458201   dF: +4.954e-04   |Residual|: 2.237e-03   |deigs|: 3.418e-04  t[s]:  55914.76
	Linear fluid (dielectric constant: 7.2) occupying 0.831441 of unit cell:	Completed after 10 iterations at t[s]:  55921.24
	FillingsUpdate:  mu: -0.085228200  nElectrons: 456.000000
	Linear fluid (dielectric constant: 7.2) occupying 0.831316 of unit cell:	Completed after 9 iterations at t[s]:  56628.65
SCF: Cycle: 24   F: -1736.084297714638296   dF: -1.773e-04   |Residual|: 1.743e-03   |deigs|: 5.699e-04  t[s]:  56630.59
	Linear fluid (dielectric constant: 7.2) occupying 0.831317 of unit cell:	Completed after 10 iterations at t[s]:  56637.60
	FillingsUpdate:  mu: -0.085598361  nElectrons: 456.000000
	Linear fluid (dielectric constant: 7.2) occupying 0.830849 of unit cell:	Completed after 10 iterations at t[s]:  57345.62
SCF: Cycle: 25   F: -1736.080357025096873   dF: +3.941e-03   |Residual|: 2.427e-03   |deigs|: 4.533e-04  t[s]:  57347.57
	Linear fluid (dielectric constant: 7.2) occupying 0.831339 of unit cell:	Completed after 10 iterations at t[s]:  57354.64
	FillingsUpdate:  mu: -0.085458825  nElectrons: 456.000000
	Linear fluid (dielectric constant: 7.2) occupying 0.832211 of unit cell:	Completed after 9 iterations at t[s]:  58054.07
SCF: Cycle: 26   F: -1736.084142827262440   dF: -3.786e-03   |Residual|: 1.818e-03   |deigs|: 3.568e-04  t[s]:  58055.97
	Linear fluid (dielectric constant: 7.2) occupying 0.831406 of unit cell:	Completed after 9 iterations at t[s]:  58061.64
	FillingsUpdate:  mu: -0.086115571  nElectrons: 456.000000
	Linear fluid (dielectric constant: 7.2) occupying 0.826881 of unit cell:	Completed after 10 iterations at t[s]:  58767.86
SCF: Cycle: 27   F: -1736.046090309190276   dF: +3.805e-02   |Residual|: 1.711e-02   |deigs|: 7.238e-04  t[s]:  58769.75
	Linear fluid (dielectric constant: 7.2) occupying 0.831416 of unit cell:	Completed after 11 iterations at t[s]:  58777.58
	FillingsUpdate:  mu: -0.085202460  nElectrons: 456.000000
	Linear fluid (dielectric constant: 7.2) occupying 0.832329 of unit cell:	Completed after 9 iterations at t[s]:  59511.51
SCF: Cycle: 28   F: -1736.084185219546953   dF: -3.809e-02   |Residual|: 2.017e-03   |deigs|: 9.433e-04  t[s]:  59513.39
	Linear fluid (dielectric constant: 7.2) occupying 0.831439 of unit cell:	Completed after 9 iterations at t[s]:  59519.96
	FillingsUpdate:  mu: -0.085155505  nElectrons: 456.000000
	Linear fluid (dielectric constant: 7.2) occupying 0.832284 of unit cell:	Completed after 9 iterations at t[s]:  60190.17
SCF: Cycle: 29   F: -1736.084348191253412   dF: -1.630e-04   |Residual|: 1.955e-03   |deigs|: 3.389e-04  t[s]:  60192.19
	Linear fluid (dielectric constant: 7.2) occupying 0.831341 of unit cell:	Completed after 9 iterations at t[s]:  60198.43
	FillingsUpdate:  mu: -0.085217199  nElectrons: 456.000000
	Linear fluid (dielectric constant: 7.2) occupying 0.832558 of unit cell:	Completed after 9 iterations at t[s]:  60866.52
SCF: Cycle: 30   F: -1736.084181687487444   dF: +1.665e-04   |Residual|: 2.019e-03   |deigs|: 1.352e-04  t[s]:  60868.52
	Linear fluid (dielectric constant: 7.2) occupying 0.831235 of unit cell:	Completed after 9 iterations at t[s]:  60874.48
	FillingsUpdate:  mu: -0.085407461  nElectrons: 456.000000
	Linear fluid (dielectric constant: 7.2) occupying 0.832499 of unit cell:	Completed after 9 iterations at t[s]:  61580.47
SCF: Cycle: 31   F: -1736.084137241558665   dF: +4.445e-05   |Residual|: 1.818e-03   |deigs|: 2.639e-04  t[s]:  61582.44
	Linear fluid (dielectric constant: 7.2) occupying 0.831330 of unit cell:	Completed after 9 iterations at t[s]:  61588.91
	FillingsUpdate:  mu: -0.085218730  nElectrons: 456.000000
	Linear fluid (dielectric constant: 7.2) occupying 0.832647 of unit cell:	Completed after 9 iterations at t[s]:  62291.19
SCF: Cycle: 32   F: -1736.084027679666860   dF: +1.096e-04   |Residual|: 1.647e-03   |deigs|: 3.192e-04  t[s]:  62293.11
	Linear fluid (dielectric constant: 7.2) occupying 0.831387 of unit cell:	Completed after 8 iterations at t[s]:  62298.98
	FillingsUpdate:  mu: -0.084922527  nElectrons: 456.000000
	Linear fluid (dielectric constant: 7.2) occupying 0.832596 of unit cell:	Completed after 9 iterations at t[s]:  63001.69
SCF: Cycle: 33   F: -1736.084199067614918   dF: -1.714e-04   |Residual|: 1.646e-03   |deigs|: 3.013e-04  t[s]:  63003.64
	Linear fluid (dielectric constant: 7.2) occupying 0.831488 of unit cell:	Completed after 8 iterations at t[s]:  63009.40
	FillingsUpdate:  mu: -0.084405179  nElectrons: 456.000000
	Linear fluid (dielectric constant: 7.2) occupying 0.832415 of unit cell:	Completed after 9 iterations at t[s]:  63714.05
SCF: Cycle: 34   F: -1736.084500136142424   dF: -3.011e-04   |Residual|: 1.567e-03   |deigs|: 4.983e-04  t[s]:  63715.92
	Linear fluid (dielectric constant: 7.2) occupying 0.831529 of unit cell:	Completed after 9 iterations at t[s]:  63722.24
	FillingsUpdate:  mu: -0.084740223  nElectrons: 456.000000
	Linear fluid (dielectric constant: 7.2) occupying 0.829902 of unit cell:	Completed after 9 iterations at t[s]:  64429.32
SCF: Cycle: 35   F: -1736.083318898164634   dF: +1.181e-03   |Residual|: 1.626e-03   |deigs|: 6.875e-04  t[s]:  64431.25
	Linear fluid (dielectric constant: 7.2) occupying 0.831438 of unit cell:	Completed after 9 iterations at t[s]:  64437.09
	FillingsUpdate:  mu: -0.084739552  nElectrons: 456.000000
	Linear fluid (dielectric constant: 7.2) occupying 0.832611 of unit cell:	Completed after 9 iterations at t[s]:  65146.86
SCF: Cycle: 36   F: -1736.084358936907620   dF: -1.040e-03   |Residual|: 1.288e-03   |deigs|: 5.718e-04  t[s]:  65148.77
	Linear fluid (dielectric constant: 7.2) occupying 0.831493 of unit cell:	Completed after 9 iterations at t[s]:  65154.33
	FillingsUpdate:  mu: -0.084576851  nElectrons: 456.000000
	Linear fluid (dielectric constant: 7.2) occupying 0.831654 of unit cell:	Completed after 9 iterations at t[s]:  65854.58
SCF: Cycle: 37   F: -1736.083845061056309   dF: +5.139e-04   |Residual|: 1.255e-03   |deigs|: 3.827e-04  t[s]:  65856.41
	Linear fluid (dielectric constant: 7.2) occupying 0.831502 of unit cell:	Completed after 9 iterations at t[s]:  65861.92
	FillingsUpdate:  mu: -0.084562748  nElectrons: 456.000000
	Linear fluid (dielectric constant: 7.2) occupying 0.832099 of unit cell:	Completed after 9 iterations at t[s]:  66565.11
SCF: Cycle: 38   F: -1736.084627611342512   dF: -7.826e-04   |Residual|: 1.230e-03   |deigs|: 2.093e-04  t[s]:  66566.98
	Linear fluid (dielectric constant: 7.2) occupying 0.831527 of unit cell:	Completed after 9 iterations at t[s]:  66572.69
	FillingsUpdate:  mu: -0.085320614  nElectrons: 456.000000
	Linear fluid (dielectric constant: 7.2) occupying 0.825670 of unit cell:	Completed after 11 iterations at t[s]:  67272.18
SCF: Cycle: 39   F: -1736.048622771031432   dF: +3.600e-02   |Residual|: 1.661e-02   |deigs|: 7.478e-04  t[s]:  67274.04
	Linear fluid (dielectric constant: 7.2) occupying 0.831527 of unit cell:	Completed after 11 iterations at t[s]:  67281.17
	FillingsUpdate:  mu: -0.085629147  nElectrons: 456.000000
	Linear fluid (dielectric constant: 7.2) occupying 0.825066 of unit cell:	Completed after 11 iterations at t[s]:  67950.29
SCF: Cycle: 40   F: -1736.036463460249479   dF: +1.216e-02   |Residual|: 2.228e-02   |deigs|: 1.578e-04  t[s]:  67952.14
	Linear fluid (dielectric constant: 7.2) occupying 0.831524 of unit cell:	Completed after 11 iterations at t[s]:  67959.39
	FillingsUpdate:  mu: -0.085569548  nElectrons: 456.000000
	Linear fluid (dielectric constant: 7.2) occupying 0.825248 of unit cell:	Completed after 11 iterations at t[s]:  68632.10
SCF: Cycle: 41   F: -1736.039708754464982   dF: -3.245e-03   |Residual|: 2.081e-02   |deigs|: 3.913e-05  t[s]:  68634.03
	Linear fluid (dielectric constant: 7.2) occupying 0.831531 of unit cell:	Completed after 11 iterations at t[s]:  68641.28
	FillingsUpdate:  mu: -0.085267912  nElectrons: 456.000000
	Linear fluid (dielectric constant: 7.2) occupying 0.825947 of unit cell:	Completed after 11 iterations at t[s]:  69323.87
SCF: Cycle: 42   F: -1736.051794170924040   dF: -1.209e-02   |Residual|: 1.510e-02   |deigs|: 1.628e-04  t[s]:  69325.78
	Linear fluid (dielectric constant: 7.2) occupying 0.831537 of unit cell:	Completed after 11 iterations at t[s]:  69333.35
	FillingsUpdate:  mu: -0.084603640  nElectrons: 456.000000
	Linear fluid (dielectric constant: 7.2) occupying 0.828916 of unit cell:	Completed after 10 iterations at t[s]:  70005.31
SCF: Cycle: 43   F: -1736.076596745696406   dF: -2.480e-02   |Residual|: 3.823e-03   |deigs|: 4.872e-04  t[s]:  70007.17
	Linear fluid (dielectric constant: 7.2) occupying 0.831499 of unit cell:	Completed after 10 iterations at t[s]:  70014.20
	FillingsUpdate:  mu: -0.084569552  nElectrons: 456.000000
	Linear fluid (dielectric constant: 7.2) occupying 0.832205 of unit cell:	Completed after 9 iterations at t[s]:  70720.49
SCF: Cycle: 44   F: -1736.084696105782086   dF: -8.099e-03   |Residual|: 1.282e-03   |deigs|: 4.673e-04  t[s]:  70722.38
	Linear fluid (dielectric constant: 7.2) occupying 0.831524 of unit cell:	Completed after 9 iterations at t[s]:  70728.38
	FillingsUpdate:  mu: -0.084459159  nElectrons: 456.000000
	Linear fluid (dielectric constant: 7.2) occupying 0.832251 of unit cell:	Completed after 9 iterations at t[s]:  71432.26
SCF: Cycle: 45   F: -1736.084673606600063   dF: +2.250e-05   |Residual|: 1.074e-03   |deigs|: 1.161e-04  t[s]:  71434.12
	Linear fluid (dielectric constant: 7.2) occupying 0.831625 of unit cell:	Completed after 9 iterations at t[s]:  71440.24
	FillingsUpdate:  mu: -0.084494349  nElectrons: 456.000000
	Linear fluid (dielectric constant: 7.2) occupying 0.827447 of unit cell:	Completed after 10 iterations at t[s]:  72153.01
SCF: Cycle: 46   F: -1736.079574699640716   dF: +5.099e-03   |Residual|: 2.432e-03   |deigs|: 8.230e-04  t[s]:  72155.01
	Linear fluid (dielectric constant: 7.2) occupying 0.831574 of unit cell:	Completed after 10 iterations at t[s]:  72162.13
	FillingsUpdate:  mu: -0.084205791  nElectrons: 456.000000
	Linear fluid (dielectric constant: 7.2) occupying 0.832031 of unit cell:	Completed after 9 iterations at t[s]:  72862.07
SCF: Cycle: 47   F: -1736.084917677083013   dF: -5.343e-03   |Residual|: 1.100e-03   |deigs|: 1.075e-03  t[s]:  72863.94
	Linear fluid (dielectric constant: 7.2) occupying 0.831610 of unit cell:	Completed after 9 iterations at t[s]:  72870.21
	FillingsUpdate:  mu: -0.083987621  nElectrons: 456.000000
	Linear fluid (dielectric constant: 7.2) occupying 0.832104 of unit cell:	Completed after 9 iterations at t[s]:  73539.98
SCF: Cycle: 48   F: -1736.084921808464514   dF: -4.131e-06   |Residual|: 1.113e-03   |deigs|: 5.011e-04  t[s]:  73541.95
	Linear fluid (dielectric constant: 7.2) occupying 0.831593 of unit cell:	Completed after 9 iterations at t[s]:  73548.57
	FillingsUpdate:  mu: -0.084170201  nElectrons: 456.000000
	Linear fluid (dielectric constant: 7.2) occupying 0.831879 of unit cell:	Completed after 9 iterations at t[s]:  74219.16
SCF: Cycle: 49   F: -1736.084963631549954   dF: -4.182e-05   |Residual|: 1.028e-03   |deigs|: 2.605e-04  t[s]:  74221.15
	Linear fluid (dielectric constant: 7.2) occupying 0.831602 of unit cell:	Completed after 9 iterations at t[s]:  74226.36
Setting wave functions to eigenvectors of Hamiltonian
Single-point solvation energy estimate, DeltaF = -0.066537457317054

# Ionic positions in cartesian coordinates:
ion Ti   0.000000174975000  -0.000000174975000   2.000000000000000 0
ion Ti   4.340445422775000   4.340445072825000   4.795024053800001 0
ion Ti   0.000000174975000   8.680909217924999   2.000000000000000 0
ion Ti   4.340445422775000  13.021354465725000   4.795024053800001 0
ion Ti   0.000000174975000  17.361818610825001   2.000000000000000 0
ion Ti   4.340445422775000  21.702263858624999   4.795024053800001 0
ion Ti   8.680909567874998  -0.000000174975000   2.000000000000000 0
ion Ti  13.021354815675002   4.340445072825000   4.795024053800001 0
ion Ti   8.680909567874998   8.680909217924999   2.000000000000000 0
ion Ti  13.021354815675002  13.021354465725000   4.795024053800001 0
ion Ti   8.680909567874998  17.361818610825001   2.000000000000000 0
ion Ti  13.021364264325003  21.702263858624999   4.795024053800001 0
ion Ti  17.361818960775000  -0.000000174975000   2.000000000000000 0
ion Ti  21.702264208574999   4.340445072825000   4.795024053800001 0
ion Ti  17.361818960775000   8.680909217924999   2.000000000000000 0
ion Ti  21.702264208574999  13.021363914375000   4.795024053800001 0
ion Ti  17.361818960775000  17.361818610825001   2.000000000000000 0
ion Ti  21.702264208574999  21.702263858624999   4.795024053800001 0
ion O   2.650289808075000   2.650289458125000   2.000000000000000 0
ion O   6.030619934775000   6.030619584825001   2.000000000000000 0
ion O   1.690174686975000   6.990734705924999   4.795024053800001 0
ion O   6.990735055874999   1.690174337025000   4.795024053800001 0
ion O   2.650289808075000  11.331198851025000   2.000000000000000 0
ion O   6.030619934775000  14.711528977725004   2.000000000000000 0
ion O   1.690174686975000  15.671644098825000   4.795024053800001 0
ion O   6.990735055874999  10.371083729925001   4.795024053800001 0
ion O   2.650289808075000  20.012108243924999   2.000000000000000 0
ion O   6.030619934775000  23.392438370625001   2.000000000000000 0
ion O   1.690174686975000  24.352553491725004   4.795024053800001 0
ion O   6.990735055874999  19.051993122824996   4.795024053800001 0
ion O  11.331199200975000   2.650289458125000   2.000000000000000 0
ion O  14.711529327675001   6.030619584825001   2.000000000000000 0
ion O  10.371084079875001   6.990734705924999   4.795024053800001 0
ion O  15.671644448774998   1.690174337025000   4.795024053800001 0
ion O  11.331199200975000  11.331198851025000   2.000000000000000 0
ion O  14.711529327675001  14.711528977725004   2.000000000000000 0
ion O  10.371084079875001  15.671644098825000   4.795024053800001 0
ion O  15.671644448774998  10.371083729925001   4.795024053800001 0
ion O  11.331199200975000  20.012108243924999   2.000000000000000 0
ion O  14.711529327675001  23.392438370625001   2.000000000000000 0
ion O  10.371084079875001  24.352553491725004   4.795024053800001 0
ion O  15.671644448774998  19.051993122824996   4.795024053800001 0
ion O  20.012108593874995   2.650289458125000   2.000000000000000 0
ion O  23.392438720575004   6.030619584825001   2.000000000000000 0
ion O  19.051993472774999   6.990734705924999   4.795024053800001 0
ion O  24.352553841675000   1.690174337025000   4.795024053800001 0
ion O  20.012108593874995  11.331198851025000   2.000000000000000 0
ion O  23.392438720575004  14.711528977725004   2.000000000000000 0
ion O  19.051993472774999  15.671644098825000   4.795024053800001 0
ion O  24.352553841675000  10.371083729925001   4.795024053800001 0
ion O  20.012108593874995  20.012108243924999   2.000000000000000 0
ion O  23.392438720575004  23.392438370625001   2.000000000000000 0
ion O  19.051993472774999  24.352553491725004   4.795024053800001 0
ion O  24.352553841675000  19.051993122824996   4.795024053800001 0
ion S  13.002479456895969  13.702212640181052   9.355668309214190 1
ion Na   9.077171400009375  16.859845993377192   8.421310210701535 1
ion Na  16.746175056555415  16.670796536559944   8.174419357007713 1

# Forces in Cartesian coordinates:
force Ti   0.000065942555107   0.002169603907058   0.128401773694585 0
force Ti   0.001063788682942   0.001704736292903  -0.133580821922981 0
force Ti   0.000232328817151  -0.001409848623323   0.128273796279493 0
force Ti  -0.001067768657937  -0.007655796845942  -0.137515598846770 0
force Ti   0.000184935351304  -0.000688727896829   0.128198591309499 0
force Ti  -0.006704972020421   0.006966559008523  -0.139149357916361 0
force Ti  -0.000002518333503   0.003756933468643   0.127680661343052 0
force Ti  -0.000775645245347   0.005305193681859  -0.129111949562064 0
force Ti   0.008283427828280   0.005684877266057   0.129487112910728 0
force Ti   0.005466410208095  -0.012767469391450  -0.067675919512221 0
force Ti   0.005319155917898  -0.008615028531937   0.120074451358577 0
force Ti  -0.004112556970285   0.010637831379610  -0.143031989136537 0
force Ti   0.000196372539746   0.003529289610275   0.128820353135664 0
force Ti  -0.002099882051733   0.002104245194346  -0.131488257435552 0
force Ti  -0.007964324280279   0.004307897272466   0.134587717361939 0
force Ti   0.005885232709090  -0.010920714292276  -0.137918676706432 0
force Ti  -0.005749214456591  -0.007108554095302   0.111973318739229 0
force Ti   0.002529340881379   0.003529465761009  -0.137503367640474 0
force O  -0.019578263914917  -0.019889704267975   0.015685674288378 0
force O   0.015946317510017   0.016280676698734   0.017105946708655 0
force O   0.018488500970771  -0.018748585758355  -0.017125655564549 0
force O  -0.018434454952681   0.017703736285367  -0.018127752171428 0
force O  -0.018780335128363  -0.018190003612384   0.016089187440354 0
force O   0.018774921520528   0.020748523979300   0.016555005853702 0
force O   0.019480155866915  -0.018306660514345  -0.016904399617783 0
force O  -0.022978338514769   0.021688871482048  -0.017115436605169 0
force O  -0.017640425326030  -0.018368980158627   0.017222466888814 0
force O   0.017983752973567   0.016667284027265   0.017542938411247 0
force O   0.020996387171674  -0.021284206378248  -0.016657845756134 0
force O  -0.017848152026141   0.017711340637739  -0.001521182918635 0
force O  -0.020193028957230  -0.020998068833690   0.015190669152219 0
force O   0.018083385992919   0.016459693946000   0.016154515033866 0
force O   0.018408351614558  -0.021247088598886  -0.019929037820621 0
force O  -0.017741796206206   0.016956001848060  -0.018262026695961 0
force O  -0.033134499613138  -0.030811257712709   0.002590168431409 0
force O   0.032914990094363   0.034752881399269   0.005449212190607 0
force O  -0.000497436069867  -0.000378999743611  -0.043628358840711 0
force O  -0.005836557539844   0.007101400232971  -0.034303674596929 0
force O  -0.017768841799716  -0.017235845403217   0.017857979506166 0
force O   0.017414905609056   0.016166483180365   0.017511046925229 0
force O   0.021396054523811  -0.022683452309016  -0.014586339542442 0
force O  -0.018293836472781   0.021710722015144  -0.007961739548609 0
force O  -0.019428113255706  -0.020022361097230   0.015604812029438 0
force O   0.019199220517053   0.019245150007661   0.015778158988115 0
force O   0.021848575053297  -0.021651073800457  -0.016073203960667 0
force O  -0.018421248344624   0.018131146795505  -0.017856964913611 0
force O  -0.014624281876614  -0.014776376137079   0.017976809873946 0
force O   0.018101631817977   0.019199699562151   0.016910051744808 0
force O   0.021042048529307  -0.016862658051464  -0.010428483530129 0
force O  -0.020492701253580   0.021024943845197  -0.015547540326027 0
force O  -0.019490898201889  -0.019339583023494   0.017158732333230 0
force O   0.018218872205434   0.017890314321032   0.016572758645501 0
force O   0.019746592145864  -0.021040056160508  -0.016214489388754 0
force O  -0.020170985039797   0.019244798490718  -0.017076375822986 0
force S   0.000506937187057  -0.003249236930526   0.001295922825965 1
force Na  -0.002590790428915   0.001964023985720   0.002999145307638 1
force Na   0.002126669758341   0.001834200896357   0.001513000193382 1

# Energy components:
   A_diel =       -0.1344509390971586
   Eewald =     9126.9450621275755111
       EH =    10598.8738988872191840
     Eloc =   -21722.8510812068961968
      Enl =       36.5196762677139759
      Exc =     -309.5812322402807695
 Exc_core =       27.6791600437867586
       KE =      506.5656298580888688
-------------------------------------
     Etot =    -1735.9833372018888440
       TS =        0.0878379567527903
-------------------------------------
        F =    -1736.0711751586416085

IonicMinimize: Iter:   0  F: -1736.071175158641609  |grad|_K:  2.166e-03  alpha:  1.000e+00

#--- Lowdin population analysis ---
# oxidation-state Ti +1.616 +1.614 +1.619 +1.587 +1.617 +1.595 +1.618 +1.627 +1.614 +1.568 +1.614 +1.572 +1.617 +1.615 +1.608 +1.609 +1.625 +1.586
# oxidation-state O -0.759 -0.762 -0.760 -0.760 -0.754 -0.758 -0.767 -0.748 -0.757 -0.757 -0.760 -0.817 -0.760 -0.758 -0.743 -0.761 -0.789 -0.784 -0.794 -0.717 -0.757 -0.752 -0.763 -0.818 -0.758 -0.758 -0.759 -0.761 -0.757 -0.758 -0.820 -0.758 -0.762 -0.755 -0.764 -0.765
# oxidation-state S -1.000
# oxidation-state Na +0.782 +0.749


-------- Electronic minimization -----------
Will mix electronic density at each iteration.
	FillingsUpdate:  mu: -0.084170201  nElectrons: 456.000000
	Linear fluid (dielectric constant: 7.2) occupying 0.831870 of unit cell:	Completed after 9 iterations at t[s]:  74710.80
	FillingsUpdate:  mu: -0.084265804  nElectrons: 456.000000
	Linear fluid (dielectric constant: 7.2) occupying 0.819759 of unit cell:	Completed after 11 iterations at t[s]:  75520.75
SCF: Cycle:  0   F: -1736.023615072747134   dF: +6.139e-02   |Residual|: 2.481e-02   |deigs|: 1.278e-03  t[s]:  75522.83
	Linear fluid (dielectric constant: 7.2) occupying 0.830759 of unit cell:	Completed after 12 iterations at t[s]:  75529.15
	FillingsUpdate:  mu: -0.083733189  nElectrons: 456.000000
	Linear fluid (dielectric constant: 7.2) occupying 0.833472 of unit cell:	Completed after 10 iterations at t[s]:  76321.49
SCF: Cycle:  1   F: -1736.083581467893509   dF: -5.997e-02   |Residual|: 1.567e-02   |deigs|: 3.037e-03  t[s]:  76323.38
	Linear fluid (dielectric constant: 7.2) occupying 0.830828 of unit cell:	Completed after 10 iterations at t[s]:  76329.15
	FillingsUpdate:  mu: -0.083456482  nElectrons: 456.000000
	Linear fluid (dielectric constant: 7.2) occupying 0.832192 of unit cell:	Completed after 10 iterations at t[s]:  77043.40
SCF: Cycle:  2   F: -1736.084031499249932   dF: -4.500e-04   |Residual|: 1.209e-02   |deigs|: 9.598e-04  t[s]:  77045.39
	Linear fluid (dielectric constant: 7.2) occupying 0.830753 of unit cell:	Completed after 10 iterations at t[s]:  77051.02
	FillingsUpdate:  mu: -0.083338904  nElectrons: 456.000000
	Linear fluid (dielectric constant: 7.2) occupying 0.833284 of unit cell:	Completed after 10 iterations at t[s]:  77758.66
SCF: Cycle:  3   F: -1736.084522487166169   dF: -4.910e-04   |Residual|: 5.724e-03   |deigs|: 3.499e-04  t[s]:  77760.55
	Linear fluid (dielectric constant: 7.2) occupying 0.830749 of unit cell:	Completed after 10 iterations at t[s]:  77766.63
	FillingsUpdate:  mu: -0.083317603  nElectrons: 456.000000
	Linear fluid (dielectric constant: 7.2) occupying 0.831690 of unit cell:	Completed after 10 iterations at t[s]:  78473.42
SCF: Cycle:  4   F: -1736.084417207258866   dF: +1.053e-04   |Residual|: 4.361e-03   |deigs|: 4.147e-04  t[s]:  78475.29
	Linear fluid (dielectric constant: 7.2) occupying 0.830651 of unit cell:	Completed after 9 iterations at t[s]:  78480.77
	FillingsUpdate:  mu: -0.083085820  nElectrons: 456.000000
	Linear fluid (dielectric constant: 7.2) occupying 0.833704 of unit cell:	Completed after 10 iterations at t[s]:  79158.87
SCF: Cycle:  5   F: -1736.084225301879087   dF: +1.919e-04   |Residual|: 3.825e-03   |deigs|: 4.195e-04  t[s]:  79160.80
	Linear fluid (dielectric constant: 7.2) occupying 0.830761 of unit cell:	Completed after 9 iterations at t[s]:  79166.34
	FillingsUpdate:  mu: -0.083017591  nElectrons: 456.000000
	Linear fluid (dielectric constant: 7.2) occupying 0.832620 of unit cell:	Completed after 9 iterations at t[s]:  79841.01
SCF: Cycle:  6   F: -1736.084915078213271   dF: -6.898e-04   |Residual|: 2.758e-03   |deigs|: 4.608e-04  t[s]:  79842.89
	Linear fluid (dielectric constant: 7.2) occupying 0.830813 of unit cell:	Completed after 9 iterations at t[s]:  79848.48
	FillingsUpdate:  mu: -0.082937727  nElectrons: 456.000000
	Linear fluid (dielectric constant: 7.2) occupying 0.832701 of unit cell:	Completed after 9 iterations at t[s]:  80524.61
SCF: Cycle:  7   F: -1736.084915361335561   dF: -2.831e-07   |Residual|: 2.434e-03   |deigs|: 1.197e-04  t[s]:  80526.57
	Linear fluid (dielectric constant: 7.2) occupying 0.830927 of unit cell:	Completed after 9 iterations at t[s]:  80532.19
	FillingsUpdate:  mu: -0.082825915  nElectrons: 456.000000
	Linear fluid (dielectric constant: 7.2) occupying 0.832481 of unit cell:	Completed after 9 iterations at t[s]:  81328.72
SCF: Cycle:  8   F: -1736.084996979353491   dF: -8.162e-05   |Residual|: 2.072e-03   |deigs|: 2.062e-04  t[s]:  81330.57
	Linear fluid (dielectric constant: 7.2) occupying 0.831027 of unit cell:	Completed after 9 iterations at t[s]:  81336.91
	FillingsUpdate:  mu: -0.082745135  nElectrons: 456.000000
	Linear fluid (dielectric constant: 7.2) occupying 0.832286 of unit cell:	Completed after 9 iterations at t[s]:  82008.99
SCF: Cycle:  9   F: -1736.085223422568106   dF: -2.264e-04   |Residual|: 1.694e-03   |deigs|: 1.821e-04  t[s]:  82010.90
	Linear fluid (dielectric constant: 7.2) occupying 0.831085 of unit cell:	Completed after 9 iterations at t[s]:  82016.86
	FillingsUpdate:  mu: -0.082690745  nElectrons: 456.000000
	Linear fluid (dielectric constant: 7.2) occupying 0.832242 of unit cell:	Completed after 9 iterations at t[s]:  82691.68
SCF: Cycle: 10   F: -1736.085176621348410   dF: +4.680e-05   |Residual|: 1.569e-03   |deigs|: 1.105e-04  t[s]:  82693.70
	Linear fluid (dielectric constant: 7.2) occupying 0.831732 of unit cell:	Completed after 7 iterations at t[s]:  82699.42
	FillingsUpdate:  mu: -0.082448326  nElectrons: 456.000000
	Linear fluid (dielectric constant: 7.2) occupying 0.827611 of unit cell:	Completed after 9 iterations at t[s]:  83439.76
SCF: Cycle: 11   F: -1736.080522711187541   dF: +4.654e-03   |Residual|: 2.400e-03   |deigs|: 8.843e-04  t[s]:  83441.65
	Linear fluid (dielectric constant: 7.2) occupying 0.831600 of unit cell:	Completed after 9 iterations at t[s]:  83447.42
	FillingsUpdate:  mu: -0.082226068  nElectrons: 456.000000
	Linear fluid (dielectric constant: 7.2) occupying 0.832351 of unit cell:	Completed after 8 iterations at t[s]:  84189.24
SCF: Cycle: 12   F: -1736.085227072779389   dF: -4.704e-03   |Residual|: 9.803e-04   |deigs|: 8.756e-04  t[s]:  84191.14
	Linear fluid (dielectric constant: 7.2) occupying 0.831612 of unit cell:	Completed after 7 iterations at t[s]:  84196.57
	FillingsUpdate:  mu: -0.082219251  nElectrons: 456.000000
	Linear fluid (dielectric constant: 7.2) occupying 0.832138 of unit cell:	Completed after 8 iterations at t[s]:  84869.85
SCF: Cycle: 13   F: -1736.085317461082695   dF: -9.039e-05   |Residual|: 7.019e-04   |deigs|: 1.673e-04  t[s]:  84871.72
	Linear fluid (dielectric constant: 7.2) occupying 0.831601 of unit cell:	Completed after 7 iterations at t[s]:  84877.20
	FillingsUpdate:  mu: -0.082229444  nElectrons: 456.000000
	Linear fluid (dielectric constant: 7.2) occupying 0.831387 of unit cell:	Completed after 8 iterations at t[s]:  85548.99
SCF: Cycle: 14   F: -1736.085207642189971   dF: +1.098e-04   |Residual|: 6.667e-04   |deigs|: 1.527e-04  t[s]:  85550.85
	Linear fluid (dielectric constant: 7.2) occupying 0.831592 of unit cell:	Completed after 7 iterations at t[s]:  85556.37
	FillingsUpdate:  mu: -0.082168978  nElectrons: 456.000000
	Linear fluid (dielectric constant: 7.2) occupying 0.832035 of unit cell:	Completed after 8 iterations at t[s]:  86223.92
SCF: Cycle: 15   F: -1736.085388601062277   dF: -1.810e-04   |Residual|: 5.342e-04   |deigs|: 9.971e-05  t[s]:  86225.81
	Linear fluid (dielectric constant: 7.2) occupying 0.831645 of unit cell:	Completed after 6 iterations at t[s]:  86230.96
	FillingsUpdate:  mu: -0.082180307  nElectrons: 456.000000
	Linear fluid (dielectric constant: 7.2) occupying 0.830727 of unit cell:	Completed after 7 iterations at t[s]:  86931.38
SCF: Cycle: 16   F: -1736.085350200337416   dF: +3.840e-05   |Residual|: 6.318e-04   |deigs|: 3.804e-04  t[s]:  86933.26
	Linear fluid (dielectric constant: 7.2) occupying 0.831631 of unit cell:	Completed after 7 iterations at t[s]:  86938.23
	FillingsUpdate:  mu: -0.082155542  nElectrons: 456.000000
	Linear fluid (dielectric constant: 7.2) occupying 0.830953 of unit cell:	Completed after 7 iterations at t[s]:  87608.47
SCF: Cycle: 17   F: -1736.085397992141907   dF: -4.779e-05   |Residual|: 5.484e-04   |deigs|: 9.567e-05  t[s]:  87610.42
	Linear fluid (dielectric constant: 7.2) occupying 0.831660 of unit cell:	Completed after 7 iterations at t[s]:  87615.44
	FillingsUpdate:  mu: -0.084284919  nElectrons: 456.000000
	Linear fluid (dielectric constant: 7.2) occupying 0.819677 of unit cell:	Completed after 12 iterations at t[s]:  88356.30
SCF: Cycle: 18   F: -1736.005185550278384   dF: +8.021e-02   |Residual|: 3.580e-02   |deigs|: 1.287e-03  t[s]:  88358.39
	Linear fluid (dielectric constant: 7.2) occupying 0.831472 of unit cell:	Completed after 12 iterations at t[s]:  88365.68
	FillingsUpdate:  mu: -0.082244628  nElectrons: 456.000000
	Linear fluid (dielectric constant: 7.2) occupying 0.830946 of unit cell:	Completed after 8 iterations at t[s]:  89099.52
SCF: Cycle: 19   F: -1736.085291330778773   dF: -8.011e-02   |Residual|: 6.999e-04   |deigs|: 1.306e-03  t[s]:  89101.40
	Linear fluid (dielectric constant: 7.2) occupying 0.831521 of unit cell:	Completed after 7 iterations at t[s]:  89106.66
	FillingsUpdate:  mu: -0.082220568  nElectrons: 456.000000
	Linear fluid (dielectric constant: 7.2) occupying 0.830898 of unit cell:	Completed after 8 iterations at t[s]:  89778.02
SCF: Cycle: 20   F: -1736.085136979261279   dF: +1.544e-04   |Residual|: 6.972e-04   |deigs|: 2.130e-04  t[s]:  89779.94
	Linear fluid (dielectric constant: 7.2) occupying 0.831534 of unit cell:	Completed after 7 iterations at t[s]:  89784.77
	FillingsUpdate:  mu: -0.082222994  nElectrons: 456.000000
	Linear fluid (dielectric constant: 7.2) occupying 0.830287 of unit cell:	Completed after 8 iterations at t[s]:  90455.29
SCF: Cycle: 21   F: -1736.084629962224199   dF: +5.070e-04   |Residual|: 8.833e-04   |deigs|: 2.405e-04  t[s]:  90457.32
	Linear fluid (dielectric constant: 7.2) occupying 0.831510 of unit cell:	Completed after 8 iterations at t[s]:  90463.17
	FillingsUpdate:  mu: -0.082302997  nElectrons: 456.000000
	Linear fluid (dielectric constant: 7.2) occupying 0.829031 of unit cell:	Completed after 9 iterations at t[s]:  91136.99
SCF: Cycle: 22   F: -1736.082890527256041   dF: +1.739e-03   |Residual|: 1.449e-03   |deigs|: 2.958e-04  t[s]:  91138.81
	Linear fluid (dielectric constant: 7.2) occupying 0.831520 of unit cell:	Completed after 9 iterations at t[s]:  91144.69
	FillingsUpdate:  mu: -0.082314064  nElectrons: 456.000000
	Linear fluid (dielectric constant: 7.2) occupying 0.828684 of unit cell:	Completed after 9 iterations at t[s]:  91817.67
SCF: Cycle: 23   F: -1736.082151756005942   dF: +7.388e-04   |Residual|: 1.678e-03   |deigs|: 7.444e-05  t[s]:  91819.65
	Linear fluid (dielectric constant: 7.2) occupying 0.831499 of unit cell:	Completed after 9 iterations at t[s]:  91825.58
	FillingsUpdate:  mu: -0.082370167  nElectrons: 456.000000
	Linear fluid (dielectric constant: 7.2) occupying 0.827479 of unit cell:	Completed after 9 iterations at t[s]:  92495.49
SCF: Cycle: 24   F: -1736.080506919913660   dF: +1.645e-03   |Residual|: 2.192e-03   |deigs|: 2.514e-04  t[s]:  92497.44
	Linear fluid (dielectric constant: 7.2) occupying 0.831460 of unit cell:	Completed after 9 iterations at t[s]:  92503.37
	FillingsUpdate:  mu: -0.082806407  nElectrons: 456.000000
	Linear fluid (dielectric constant: 7.2) occupying 0.824705 of unit cell:	Completed after 10 iterations at t[s]:  93173.35
SCF: Cycle: 25   F: -1736.064428890497993   dF: +1.608e-02   |Residual|: 8.433e-03   |deigs|: 3.269e-04  t[s]:  93175.25
	Linear fluid (dielectric constant: 7.2) occupying 0.831488 of unit cell:	Completed after 11 iterations at t[s]:  93181.80
	FillingsUpdate:  mu: -0.082666420  nElectrons: 456.000000
	Linear fluid (dielectric constant: 7.2) occupying 0.824010 of unit cell:	Completed after 10 iterations at t[s]:  93856.14
SCF: Cycle: 26   F: -1736.069014117024153   dF: -4.585e-03   |Residual|: 5.056e-03   |deigs|: 3.492e-04  t[s]:  93858.03
	Linear fluid (dielectric constant: 7.2) occupying 0.831612 of unit cell:	Completed after 10 iterations at t[s]:  93863.94
	FillingsUpdate:  mu: -0.083192230  nElectrons: 456.000000
	Linear fluid (dielectric constant: 7.2) occupying 0.822777 of unit cell:	Completed after 11 iterations at t[s]:  94603.94
SCF: Cycle: 27   F: -1736.052257823084119   dF: +1.676e-02   |Residual|: 1.506e-02   |deigs|: 7.414e-04  t[s]:  94605.80
	Linear fluid (dielectric constant: 7.2) occupying 0.831453 of unit cell:	Completed after 11 iterations at t[s]:  94611.85
	FillingsUpdate:  mu: -0.082308800  nElectrons: 456.000000
	Linear fluid (dielectric constant: 7.2) occupying 0.829977 of unit cell:	Completed after 9 iterations at t[s]:  95346.77
SCF: Cycle: 28   F: -1736.079749104787197   dF: -2.749e-02   |Residual|: 2.286e-03   |deigs|: 8.997e-04  t[s]:  95348.74
	Linear fluid (dielectric constant: 7.2) occupying 0.831419 of unit cell:	Completed after 9 iterations at t[s]:  95355.41
	FillingsUpdate:  mu: -0.082117525  nElectrons: 456.000000
	Linear fluid (dielectric constant: 7.2) occupying 0.832656 of unit cell:	Completed after 8 iterations at t[s]:  96062.98
SCF: Cycle: 29   F: -1736.084912682362528   dF: -5.164e-03   |Residual|: 9.307e-04   |deigs|: 7.821e-04  t[s]:  96064.85
	Linear fluid (dielectric constant: 7.2) occupying 0.831458 of unit cell:	Completed after 8 iterations at t[s]:  96070.71
	FillingsUpdate:  mu: -0.082128731  nElectrons: 456.000000
	Linear fluid (dielectric constant: 7.2) occupying 0.832468 of unit cell:	Completed after 8 iterations at t[s]:  96747.76
SCF: Cycle: 30   F: -1736.085216489000459   dF: -3.038e-04   |Residual|: 7.297e-04   |deigs|: 3.436e-04  t[s]:  96749.71
	Linear fluid (dielectric constant: 7.2) occupying 0.831493 of unit cell:	Completed after 7 iterations at t[s]:  96755.28
	FillingsUpdate:  mu: -0.082143598  nElectrons: 456.000000
	Linear fluid (dielectric constant: 7.2) occupying 0.831691 of unit cell:	Completed after 8 iterations at t[s]:  97461.13
SCF: Cycle: 31   F: -1736.085133539080971   dF: +8.295e-05   |Residual|: 5.899e-04   |deigs|: 5.083e-04  t[s]:  97463.04
	Linear fluid (dielectric constant: 7.2) occupying 0.831503 of unit cell:	Completed after 7 iterations at t[s]:  97468.22
	FillingsUpdate:  mu: -0.082169824  nElectrons: 456.000000
	Linear fluid (dielectric constant: 7.2) occupying 0.830835 of unit cell:	Completed after 8 iterations at t[s]:  98138.51
SCF: Cycle: 32   F: -1736.084437039271279   dF: +6.965e-04   |Residual|: 8.115e-04   |deigs|: 1.989e-04  t[s]:  98140.36
	Linear fluid (dielectric constant: 7.2) occupying 0.831494 of unit cell:	Completed after 8 iterations at t[s]:  98145.95
	FillingsUpdate:  mu: -0.082130567  nElectrons: 456.000000
	Linear fluid (dielectric constant: 7.2) occupying 0.831440 of unit cell:	Completed after 8 iterations at t[s]:  98823.30
SCF: Cycle: 33   F: -1736.084852019173923   dF: -4.150e-04   |Residual|: 6.692e-04   |deigs|: 1.543e-04  t[s]:  98825.30
	Linear fluid (dielectric constant: 7.2) occupying 0.831503 of unit cell:	Completed after 7 iterations at t[s]:  98830.23
	FillingsUpdate:  mu: -0.082138080  nElectrons: 456.000000
	Linear fluid (dielectric constant: 7.2) occupying 0.830863 of unit cell:	Completed after 8 iterations at t[s]:  99507.73
SCF: Cycle: 34   F: -1736.084430922862794   dF: +4.211e-04   |Residual|: 8.121e-04   |deigs|: 1.227e-04  t[s]:  99509.75
	Linear fluid (dielectric constant: 7.2) occupying 0.831512 of unit cell:	Completed after 7 iterations at t[s]:  99515.12
	FillingsUpdate:  mu: -0.082109325  nElectrons: 456.000000
	Linear fluid (dielectric constant: 7.2) occupying 0.831051 of unit cell:	Completed after 8 iterations at t[s]: 100192.78
SCF: Cycle: 35   F: -1736.084763469716790   dF: -3.325e-04   |Residual|: 7.133e-04   |deigs|: 1.821e-04  t[s]: 100194.75
	Linear fluid (dielectric constant: 7.2) occupying 0.831509 of unit cell:	Completed after 7 iterations at t[s]: 100199.86
	FillingsUpdate:  mu: -0.082006293  nElectrons: 456.000000
	Linear fluid (dielectric constant: 7.2) occupying 0.831873 of unit cell:	Completed after 7 iterations at t[s]: 100904.77
SCF: Cycle: 36   F: -1736.085230938764425   dF: -4.675e-04   |Residual|: 6.388e-04   |deigs|: 4.815e-04  t[s]: 100906.72
	Linear fluid (dielectric constant: 7.2) occupying 0.831538 of unit cell:	Completed after 7 iterations at t[s]: 100911.85
	FillingsUpdate:  mu: -0.082069026  nElectrons: 456.000000
	Linear fluid (dielectric constant: 7.2) occupying 0.831139 of unit cell:	Completed after 7 iterations at t[s]: 101616.99
SCF: Cycle: 37   F: -1736.084763457218060   dF: +4.675e-04   |Residual|: 7.680e-04   |deigs|: 3.876e-04  t[s]: 101619.02
	Linear fluid (dielectric constant: 7.2) occupying 0.831598 of unit cell:	Completed after 7 iterations at t[s]: 101624.50
	FillingsUpdate:  mu: -0.082193075  nElectrons: 456.000000
	Linear fluid (dielectric constant: 7.2) occupying 0.829104 of unit cell:	Completed after 8 iterations at t[s]: 102332.46
SCF: Cycle: 38   F: -1736.082654100951004   dF: +2.109e-03   |Residual|: 1.768e-03   |deigs|: 4.473e-04  t[s]: 102334.41
	Linear fluid (dielectric constant: 7.2) occupying 0.831612 of unit cell:	Completed after 8 iterations at t[s]: 102340.51
	FillingsUpdate:  mu: -0.081914354  nElectrons: 456.000000
	Linear fluid (dielectric constant: 7.2) occupying 0.832309 of unit cell:	Completed after 7 iterations at t[s]: 103049.69
[...]
SCF: Cycle: 17   F: -1736.086511472427901   dF: +2.467e-09   |Residual|: 2.046e-05   |deigs|: 1.606e-06  t[s]: 1371005.49
	Linear fluid (dielectric constant: 7.2) occupying 0.830063 of unit cell:	Completed after 0 iterations at t[s]: 1371007.70
	FillingsUpdate:  mu: -0.081915529  nElectrons: 456.000000
	Linear fluid (dielectric constant: 7.2) occupying 0.830064 of unit cell:	Completed after 0 iterations at t[s]: 1371476.37
SCF: Cycle: 18   F: -1736.086511452788727   dF: +1.964e-08   |Residual|: 7.998e-05   |deigs|: 2.849e-06  t[s]: 1371478.30
	Linear fluid (dielectric constant: 7.2) occupying 0.830063 of unit cell:	Completed after 1 iterations at t[s]: 1371480.95
	FillingsUpdate:  mu: -0.081916650  nElectrons: 456.000000
	Linear fluid (dielectric constant: 7.2) occupying 0.830063 of unit cell:	Completed after 0 iterations at t[s]: 1371947.20
SCF: Cycle: 19   F: -1736.086511476644773   dF: -2.386e-08   |Residual|: 2.776e-05   |deigs|: 1.963e-06  t[s]: 1371949.30
	Linear fluid (dielectric constant: 7.2) occupying 0.830063 of unit cell:	Completed after 0 iterations at t[s]: 1371951.64
	FillingsUpdate:  mu: -0.081916377  nElectrons: 456.000000
	Linear fluid (dielectric constant: 7.2) occupying 0.830063 of unit cell:	Completed after 0 iterations at t[s]: 1372418.98
SCF: Cycle: 20   F: -1736.086511477106797   dF: -4.620e-10   |Residual|: 1.535e-05   |deigs|: 1.330e-06  t[s]: 1372421.14
	Linear fluid (dielectric constant: 7.2) occupying 0.830063 of unit cell:	Completed after 0 iterations at t[s]: 1372422.95
	FillingsUpdate:  mu: -0.081916301  nElectrons: 456.000000
	Linear fluid (dielectric constant: 7.2) occupying 0.830062 of unit cell:	Completed after 1 iterations at t[s]: 1373099.52
SCF: Cycle: 21   F: -1736.086511432205043   dF: +4.490e-08   |Residual|: 9.166e-05   |deigs|: 3.856e-06  t[s]: 1373101.37
	Linear fluid (dielectric constant: 7.2) occupying 0.830063 of unit cell:	Completed after 1 iterations at t[s]: 1373103.76
	FillingsUpdate:  mu: -0.081916079  nElectrons: 456.000000
	Linear fluid (dielectric constant: 7.2) occupying 0.830061 of unit cell:	Completed after 0 iterations at t[s]: 1373567.93
SCF: Cycle: 22   F: -1736.086511475213911   dF: -4.301e-08   |Residual|: 2.694e-05   |deigs|: 3.138e-06  t[s]: 1373569.81
	Linear fluid (dielectric constant: 7.2) occupying 0.830063 of unit cell:	Completed after 0 iterations at t[s]: 1373571.54
	FillingsUpdate:  mu: -0.081916835  nElectrons: 456.000000
	Linear fluid (dielectric constant: 7.2) occupying 0.830062 of unit cell:	Completed after 1 iterations at t[s]: 1374036.45
SCF: Cycle: 23   F: -1736.086511454775746   dF: +2.044e-08   |Residual|: 6.168e-05   |deigs|: 2.465e-06  t[s]: 1374038.41
	Linear fluid (dielectric constant: 7.2) occupying 0.830063 of unit cell:	Completed after 1 iterations at t[s]: 1374041.14
	FillingsUpdate:  mu: -0.081916156  nElectrons: 456.000000
	Linear fluid (dielectric constant: 7.2) occupying 0.830064 of unit cell:	Completed after 1 iterations at t[s]: 1374506.45
SCF: Cycle: 24   F: -1736.086511464994828   dF: -1.022e-08   |Residual|: 6.298e-05   |deigs|: 3.133e-06  t[s]: 1374508.40
	Linear fluid (dielectric constant: 7.2) occupying 0.830063 of unit cell:	Completed after 0 iterations at t[s]: 1374510.86
	FillingsUpdate:  mu: -0.081916133  nElectrons: 456.000000
	Linear fluid (dielectric constant: 7.2) occupying 0.830063 of unit cell:	Completed after 0 iterations at t[s]: 1374974.70
SCF: Cycle: 25   F: -1736.086511472046368   dF: -7.052e-09   |Residual|: 2.595e-05   |deigs|: 1.475e-06  t[s]: 1374976.83
	Linear fluid (dielectric constant: 7.2) occupying 0.830063 of unit cell:	Completed after 0 iterations at t[s]: 1374979.13
	FillingsUpdate:  mu: -0.081915978  nElectrons: 456.000000
	Linear fluid (dielectric constant: 7.2) occupying 0.830062 of unit cell:	Completed after 1 iterations at t[s]: 1375452.29
SCF: Cycle: 26   F: -1736.086511468891558   dF: +3.155e-09   |Residual|: 4.746e-05   |deigs|: 2.239e-06  t[s]: 1375454.20
	Linear fluid (dielectric constant: 7.2) occupying 0.830063 of unit cell:	Completed after 0 iterations at t[s]: 1375456.30
	FillingsUpdate:  mu: -0.081915499  nElectrons: 456.000000
	Linear fluid (dielectric constant: 7.2) occupying 0.830063 of unit cell:	Completed after 0 iterations at t[s]: 1376127.79
SCF: Cycle: 27   F: -1736.086511472361735   dF: -3.470e-09   |Residual|: 4.002e-05   |deigs|: 2.189e-06  t[s]: 1376129.88
	Linear fluid (dielectric constant: 7.2) occupying 0.830063 of unit cell:	Completed after 0 iterations at t[s]: 1376132.34
	FillingsUpdate:  mu: -0.081914454  nElectrons: 456.000000
	Linear fluid (dielectric constant: 7.2) occupying 0.830063 of unit cell:	Completed after 1 iterations at t[s]: 1376764.03
SCF: Cycle: 28   F: -1736.086511455983327   dF: +1.638e-08   |Residual|: 6.502e-05   |deigs|: 3.206e-06  t[s]: 1376765.90
	Linear fluid (dielectric constant: 7.2) occupying 0.830063 of unit cell:	Completed after 0 iterations at t[s]: 1376768.19
	FillingsUpdate:  mu: -0.081914849  nElectrons: 456.000000
	Linear fluid (dielectric constant: 7.2) occupying 0.830063 of unit cell:	Completed after 1 iterations at t[s]: 1377231.46
SCF: Cycle: 29   F: -1736.086511455976961   dF: +6.366e-12   |Residual|: 7.102e-05   |deigs|: 3.671e-06  t[s]: 1377233.34
	Linear fluid (dielectric constant: 7.2) occupying 0.830063 of unit cell:	Completed after 0 iterations at t[s]: 1377235.49
	FillingsUpdate:  mu: -0.081915892  nElectrons: 456.000000
	Linear fluid (dielectric constant: 7.2) occupying 0.830062 of unit cell:	Completed after 1 iterations at t[s]: 1378036.82
SCF: Cycle: 30   F: -1736.086511468418621   dF: -1.244e-08   |Residual|: 4.469e-05   |deigs|: 2.505e-06  t[s]: 1378038.70
	Linear fluid (dielectric constant: 7.2) occupying 0.830063 of unit cell:	Completed after 0 iterations at t[s]: 1378041.35
	FillingsUpdate:  mu: -0.081916104  nElectrons: 456.000000
	Linear fluid (dielectric constant: 7.2) occupying 0.830063 of unit cell:	Completed after 1 iterations at t[s]: 1378505.11
SCF: Cycle: 31   F: -1736.086511446811073   dF: +2.161e-08   |Residual|: 8.967e-05   |deigs|: 3.293e-06  t[s]: 1378506.97
	Linear fluid (dielectric constant: 7.2) occupying 0.830063 of unit cell:	Completed after 0 iterations at t[s]: 1378509.09
	FillingsUpdate:  mu: -0.081916026  nElectrons: 456.000000
	Linear fluid (dielectric constant: 7.2) occupying 0.830064 of unit cell:	Completed after 1 iterations at t[s]: 1378976.24
SCF: Cycle: 32   F: -1736.086511462990529   dF: -1.618e-08   |Residual|: 6.366e-05   |deigs|: 3.275e-06  t[s]: 1378978.18
	Linear fluid (dielectric constant: 7.2) occupying 0.830063 of unit cell:	Completed after 1 iterations at t[s]: 1378981.01
	FillingsUpdate:  mu: -0.081916240  nElectrons: 456.000000
	Linear fluid (dielectric constant: 7.2) occupying 0.830061 of unit cell:	Completed after 0 iterations at t[s]: 1379610.43
SCF: Cycle: 33   F: -1736.086511471974973   dF: -8.984e-09   |Residual|: 3.667e-05   |deigs|: 1.669e-06  t[s]: 1379612.42
	Linear fluid (dielectric constant: 7.2) occupying 0.830063 of unit cell:	Completed after 0 iterations at t[s]: 1379614.46
	FillingsUpdate:  mu: -0.081915905  nElectrons: 456.000000
	Linear fluid (dielectric constant: 7.2) occupying 0.830060 of unit cell:	Completed after 1 iterations at t[s]: 1380086.00
SCF: Cycle: 34   F: -1736.086511456675225   dF: +1.530e-08   |Residual|: 5.669e-05   |deigs|: 2.662e-06  t[s]: 1380087.86
	Linear fluid (dielectric constant: 7.2) occupying 0.830063 of unit cell:	Completed after 0 iterations at t[s]: 1380089.98
	FillingsUpdate:  mu: -0.081915205  nElectrons: 456.000000
	Linear fluid (dielectric constant: 7.2) occupying 0.830064 of unit cell:	Completed after 1 iterations at t[s]: 1380741.56
SCF: Cycle: 35   F: -1736.086511450518174   dF: +6.157e-09   |Residual|: 8.536e-05   |deigs|: 3.845e-06  t[s]: 1380743.46
	Linear fluid (dielectric constant: 7.2) occupying 0.830063 of unit cell:	Completed after 0 iterations at t[s]: 1380745.52
	FillingsUpdate:  mu: -0.081916339  nElectrons: 456.000000
	Linear fluid (dielectric constant: 7.2) occupying 0.830063 of unit cell:	Completed after 0 iterations at t[s]: 1381369.36
SCF: Cycle: 36   F: -1736.086511475358066   dF: -2.484e-08   |Residual|: 3.794e-05   |deigs|: 2.246e-06  t[s]: 1381371.25
	Linear fluid (dielectric constant: 7.2) occupying 0.830063 of unit cell:	Completed after 0 iterations at t[s]: 1381373.59
	FillingsUpdate:  mu: -0.081916437  nElectrons: 456.000000
	Linear fluid (dielectric constant: 7.2) occupying 0.830063 of unit cell:	Completed after 1 iterations at t[s]: 1381838.79
SCF: Cycle: 37   F: -1736.086511463470742   dF: +1.189e-08   |Residual|: 5.395e-05   |deigs|: 2.307e-06  t[s]: 1381840.69
	Linear fluid (dielectric constant: 7.2) occupying 0.830063 of unit cell:	Completed after 0 iterations at t[s]: 1381842.97
	FillingsUpdate:  mu: -0.081915852  nElectrons: 456.000000
	Linear fluid (dielectric constant: 7.2) occupying 0.830065 of unit cell:	Completed after 1 iterations at t[s]: 1382307.13
SCF: Cycle: 38   F: -1736.086511443733571   dF: +1.974e-08   |Residual|: 1.001e-04   |deigs|: 3.775e-06  t[s]: 1382308.85
	Linear fluid (dielectric constant: 7.2) occupying 0.830063 of unit cell:	Completed after 1 iterations at t[s]: 1382311.83
	FillingsUpdate:  mu: -0.081915963  nElectrons: 456.000000
	Linear fluid (dielectric constant: 7.2) occupying 0.830062 of unit cell:	Completed after 0 iterations at t[s]: 1382773.55
SCF: Cycle: 39   F: -1736.086511473443352   dF: -2.971e-08   |Residual|: 4.474e-05   |deigs|: 1.931e-06  t[s]: 1382775.44
	Linear fluid (dielectric constant: 7.2) occupying 0.830063 of unit cell:	Completed after 1 iterations at t[s]: 1382778.08
	FillingsUpdate:  mu: -0.081916186  nElectrons: 456.000000
	Linear fluid (dielectric constant: 7.2) occupying 0.830063 of unit cell:	Completed after 0 iterations at t[s]: 1383242.68
SCF: Cycle: 40   F: -1736.086511478326656   dF: -4.883e-09   |Residual|: 2.314e-05   |deigs|: 6.493e-07  t[s]: 1383244.69
	Linear fluid (dielectric constant: 7.2) occupying 0.830063 of unit cell:	Completed after 0 iterations at t[s]: 1383247.17
	FillingsUpdate:  mu: -0.081916167  nElectrons: 456.000000
	Linear fluid (dielectric constant: 7.2) occupying 0.830061 of unit cell:	Completed after 0 iterations at t[s]: 1383713.12
SCF: Cycle: 41   F: -1736.086511480287527   dF: -1.961e-09   |Residual|: 9.770e-06   |deigs|: 1.003e-06  t[s]: 1383715.22
SCF: Converged (|Delta E|<1.000000e-08 for 2 iters).

Setting wave functions to eigenvectors of Hamiltonian

# Ionic positions in cartesian coordinates:
ion Ti   0.000000174975000  -0.000000174975000   2.000000000000000 0
ion Ti   4.340445422775000   4.340445072825000   4.795024053800001 0
ion Ti   0.000000174975000   8.680909217924999   2.000000000000000 0
ion Ti   4.340445422775000  13.021354465725000   4.795024053800001 0
ion Ti   0.000000174975000  17.361818610825001   2.000000000000000 0
ion Ti   4.340445422775000  21.702263858624999   4.795024053800001 0
ion Ti   8.680909567874998  -0.000000174975000   2.000000000000000 0
ion Ti  13.021354815675002   4.340445072825000   4.795024053800001 0
ion Ti   8.680909567874998   8.680909217924999   2.000000000000000 0
ion Ti  13.021354815675002  13.021354465725000   4.795024053800001 0
ion Ti   8.680909567874998  17.361818610825001   2.000000000000000 0
ion Ti  13.021364264325003  21.702263858624999   4.795024053800001 0
ion Ti  17.361818960775000  -0.000000174975000   2.000000000000000 0
ion Ti  21.702264208574999   4.340445072825000   4.795024053800001 0
ion Ti  17.361818960775000   8.680909217924999   2.000000000000000 0
ion Ti  21.702264208574999  13.021363914375000   4.795024053800001 0
ion Ti  17.361818960775000  17.361818610825001   2.000000000000000 0
ion Ti  21.702264208574999  21.702263858624999   4.795024053800001 0
ion O   2.650289808075000   2.650289458125000   2.000000000000000 0
ion O   6.030619934775000   6.030619584825001   2.000000000000000 0
ion O   1.690174686975000   6.990734705924999   4.795024053800001 0
ion O   6.990735055874999   1.690174337025000   4.795024053800001 0
ion O   2.650289808075000  11.331198851025000   2.000000000000000 0
ion O   6.030619934775000  14.711528977725004   2.000000000000000 0
ion O   1.690174686975000  15.671644098825000   4.795024053800001 0
ion O   6.990735055874999  10.371083729925001   4.795024053800001 0
ion O   2.650289808075000  20.012108243924999   2.000000000000000 0
ion O   6.030619934775000  23.392438370625001   2.000000000000000 0
ion O   1.690174686975000  24.352553491725004   4.795024053800001 0
ion O   6.990735055874999  19.051993122824996   4.795024053800001 0
ion O  11.331199200975000   2.650289458125000   2.000000000000000 0
ion O  14.711529327675001   6.030619584825001   2.000000000000000 0
ion O  10.371084079875001   6.990734705924999   4.795024053800001 0
ion O  15.671644448774998   1.690174337025000   4.795024053800001 0
ion O  11.331199200975000  11.331198851025000   2.000000000000000 0
ion O  14.711529327675001  14.711528977725004   2.000000000000000 0
ion O  10.371084079875001  15.671644098825000   4.795024053800001 0
ion O  15.671644448774998  10.371083729925001   4.795024053800001 0
ion O  11.331199200975000  20.012108243924999   2.000000000000000 0
ion O  14.711529327675001  23.392438370625001   2.000000000000000 0
ion O  10.371084079875001  24.352553491725004   4.795024053800001 0
ion O  15.671644448774998  19.051993122824996   4.795024053800001 0
ion O  20.012108593874995   2.650289458125000   2.000000000000000 0
ion O  23.392438720575004   6.030619584825001   2.000000000000000 0
ion O  19.051993472774999   6.990734705924999   4.795024053800001 0
ion O  24.352553841675000   1.690174337025000   4.795024053800001 0
ion O  20.012108593874995  11.331198851025000   2.000000000000000 0
ion O  23.392438720575004  14.711528977725004   2.000000000000000 0
ion O  19.051993472774999  15.671644098825000   4.795024053800001 0
ion O  24.352553841675000  10.371083729925001   4.795024053800001 0
ion O  20.012108593874995  20.012108243924999   2.000000000000000 0
ion O  23.392438720575004  23.392438370625001   2.000000000000000 0
ion O  19.051993472774999  24.352553491725004   4.795024053800001 0
ion O  24.352553841675000  19.051993122824996   4.795024053800001 0
ion S  13.019012145954633  13.634413958275653   9.377647409679334 1
ion Na   9.034014938431918  16.891696498215236   8.468075434623048 1
ion Na  16.780654914390613  16.705495767603356   8.206069633339652 1

# Forces in Cartesian coordinates:
force Ti   0.000191334415370   0.002265996614910   0.128416476452572 0
force Ti   0.001057199779948   0.001731847568834  -0.134290284613696 0
force Ti   0.000321454864216  -0.001184304220638   0.128653985922770 0
force Ti  -0.000879558240096  -0.007749029436876  -0.137373035439992 0
force Ti   0.000241540681124  -0.000827173920975   0.127915895526317 0
force Ti  -0.006754723886859   0.007025249313930  -0.139560947619397 0
force Ti   0.000163383423980   0.003958266544208   0.127775380115951 0
force Ti  -0.000693355245794   0.005599580560585  -0.131786568419474 0
force Ti   0.008249069834294   0.005735298926458   0.129674601335589 0
force Ti   0.005242727253055  -0.012702131195585  -0.066528515200184 0
force Ti   0.005294528979228  -0.008774097789998   0.120352394821961 0
force Ti  -0.004155199179175   0.010519927873696  -0.143362825164216 0
force Ti   0.000273958526242   0.003702118073942   0.128925053468885 0
force Ti  -0.002180772830252   0.002166100277199  -0.132366861499072 0
force Ti  -0.007860211736339   0.004450517398128   0.135016591142209 0
force Ti   0.005690321152094  -0.010990425489491  -0.138913822034243 0
force Ti  -0.005793482425782  -0.007354234470146   0.112002934231123 0
force Ti   0.002601130504636   0.003590395396115  -0.138037409688997 0
force O  -0.019515826132311  -0.019850940912468   0.015577038424451 0
force O   0.015937370762839   0.016270151880357   0.017105632909361 0
force O   0.018366225248906  -0.018623536020160  -0.019241607064537 0
force O  -0.018259474753434   0.017567972926247  -0.019508205823876 0
force O  -0.018757466647533  -0.018156489449649   0.016004352135089 0
force O   0.018784811342209   0.020750426040021   0.016399278964732 0
force O   0.019195953498326  -0.018005687161355  -0.017596060946627 0
force O  -0.022706894316685   0.021355193630096  -0.018285280301223 0
force O  -0.017513748419047  -0.018227975142062   0.017094941655670 0
force O   0.017905108801059   0.016556601301624   0.017350584668462 0
force O   0.020817213291131  -0.021120901019783  -0.017265510139238 0
force O  -0.017832778821306   0.017692322783747  -0.001266782108783 0
force O  -0.020293935164290  -0.021145737027422   0.015063995532138 0
force O   0.018069908402444   0.016433087328897   0.016107724118582 0
force O   0.018222425323113  -0.021175797064612  -0.021203857354540 0
force O  -0.017561474382207   0.016752879952665  -0.020049500438165 0
force O  -0.032817623667941  -0.030614373702993   0.002472079039104 0
force O   0.032879236850776   0.034704667900263   0.005138508467768 0
force O  -0.000778360802347   0.000182144723841  -0.040145879133677 0
force O  -0.005648190095520   0.006892258239293  -0.034796976641133 0
force O  -0.017592072379808  -0.017048119543119   0.017741956507015 0
force O   0.017293547949982   0.016015197968186   0.017389098667702 0
force O   0.021292927476638  -0.022572708219724  -0.015083134474659 0
force O  -0.018172783390733   0.021437306558414  -0.007500913691074 0
force O  -0.019383484814178  -0.020008855842320   0.015531836636322 0
force O   0.019166496593405   0.019189319544617   0.015758802894869 0
force O   0.021786961705170  -0.021598756133179  -0.017761717523177 0
force O  -0.018286562259160   0.018007727794405  -0.019500015938863 0
force O  -0.014615542677414  -0.014756687316275   0.017803674301572 0
force O   0.018039092946007   0.019142270696790   0.016852961358019 0
force O   0.020582225994776  -0.016437369814194  -0.010454443239966 0
force O  -0.020170961200026   0.020772629145904  -0.017742991007501 0
force O  -0.019371516513257  -0.019178771270302   0.017033763125334 0
force O   0.018113712879511   0.017773052248010   0.016371451008046 0
force O   0.019642376653440  -0.020941251037855  -0.016928030537997 0
force O  -0.020141118428775   0.019211973684248  -0.017110713981058 0
force S   0.000475256802487  -0.000753122155196  -0.000325159553580 1
force Na  -0.000017800979632  -0.000143253646188   0.000040810721234 1
force Na   0.000164501778181   0.000328749966972   0.000756277535760 1

# Energy components:
   A_diel =       -0.1546699661591139
   Eewald =     9123.6430927678047738
       EH =    10595.1761519726314873
     Eloc =   -21715.8215507448658173
      Enl =       36.5211024071113570
      Exc =     -309.5754536381725188
 Exc_core =       27.6791599916147284
       KE =      506.5347845720734199
-------------------------------------
     Etot =    -1735.9973826379618913
       TS =        0.0891288423256737
-------------------------------------
        F =    -1736.0865114802875269

IonicMinimize: Iter:  17  F: -1736.086511480287527  |grad|_K:  4.254e-04  alpha: -2.645e-01  linmin: -2.171e-03  t[s]: 1383918.31
IonicMinimize: Converged (|Delta F|<1.000000e-06 for 2 iters).

#--- Lowdin population analysis ---
# oxidation-state Ti +1.619 +1.620 +1.620 +1.599 +1.621 +1.602 +1.621 +1.634 +1.617 +1.570 +1.619 +1.577 +1.620 +1.620 +1.608 +1.620 +1.630 +1.591
# oxidation-state O -0.761 -0.764 -0.761 -0.761 -0.756 -0.760 -0.768 -0.747 -0.759 -0.759 -0.761 -0.819 -0.763 -0.759 -0.743 -0.761 -0.789 -0.785 -0.793 -0.716 -0.759 -0.754 -0.764 -0.819 -0.760 -0.760 -0.759 -0.762 -0.759 -0.761 -0.821 -0.759 -0.763 -0.757 -0.765 -0.767
# oxidation-state S -0.997
# oxidation-state Na +0.785 +0.750


Dumping 'Na2S@TiO2-glyme.fillings' ... done
Dumping 'Na2S@TiO2-glyme.wfns' ... done
Dumping 'Na2S@TiO2-glyme.fluidState' ... done
Dumping 'Na2S@TiO2-glyme.ionpos' ... done
Dumping 'Na2S@TiO2-glyme.eigenvals' ... done
End date and time: Thu Jun  6 12:12:02 2024  (Duration: 16-0:26:58.89)
Done!
