
*************** JDFTx 1.7.0  ***************

Start date and time: Wed Sep 25 04:22:30 2024
Executable jdftx_gpu with command-line: -i /home/akim2/JDFTx/Na2S4@TiO2/Na2S4@TiO2.in -o /home/akim2/JDFTx/Na2S4@TiO2/Na2S4@TiO2.out
Running on hosts (process indices):  exp-2-60 (0)
Divided in process groups (process indices):  0 (0)
gpuInit: Found compatible cuda device 0 'Tesla V100-SXM2-32GB'
gpuInit: Selected device 0
Resource initialization completed at t[s]:      0.40
Run totals: 1 processes, 1 threads, 1 GPUs


Input parsed successfully to the following command list (including defaults):

basis kpoint-dependent
coords-type Cartesian
core-overlap-check vector
coulomb-interaction Slab 001
coulomb-truncation-embed 0 0 8
davidson-band-ratio 1.1
dump End State
dump Ionic State
dump-interval Ionic 5
dump-name Na2S4@TiO2.$VAR
elec-cutoff 20 100
elec-eigen-algo Davidson
elec-ex-corr gga-PBE
elec-smearing Fermi 0.01
electronic-minimize  \
	dirUpdateScheme      FletcherReeves \
	linminMethod         DirUpdateRecommended \
	nIterations          100 \
	history              15 \
	knormThreshold       0 \
	energyDiffThreshold  1e-08 \
	nEnergyDiff          2 \
	alphaTstart          1 \
	alphaTmin            1e-10 \
	updateTestStepSize   yes \
	alphaTreduceFactor   0.1 \
	alphaTincreaseFactor 3 \
	nAlphaAdjustMax      3 \
	wolfeEnergy          0.0001 \
	wolfeGradient        0.9 \
	fdTest               no
electronic-scf  \
	nIterations	50 \
	energyDiffThreshold	1e-08 \
	residualThreshold	1e-07 \
	mixFraction	0.5 \
	qMetric	0.8 \
	history	10 \
	nEigSteps	2 \
	eigDiffThreshold	1e-08 \
	mixedVariable	Density \
	qKerker	0.8 \
	qKappa	-1 \
	verbose	no \
	mixFractionMag	1.5
exchange-regularization WignerSeitzTruncated
fluid None
fluid-ex-corr lda-TF lda-PZ
fluid-gummel-loop 10 1.000000e-05
fluid-minimize  \
	dirUpdateScheme      PolakRibiere \
	linminMethod         DirUpdateRecommended \
	nIterations          100 \
	history              15 \
	knormThreshold       0 \
	energyDiffThreshold  0 \
	nEnergyDiff          2 \
	alphaTstart          1 \
	alphaTmin            1e-10 \
	updateTestStepSize   yes \
	alphaTreduceFactor   0.1 \
	alphaTincreaseFactor 3 \
	nAlphaAdjustMax      3 \
	wolfeEnergy          0.0001 \
	wolfeGradient        0.9 \
	fdTest               no
fluid-solvent H2O 55.338 ScalarEOS \
	epsBulk 78.4 \
	pMol 0.92466 \
	epsInf 1.77 \
	Pvap 1.06736e-10 \
	sigmaBulk 4.62e-05 \
	Rvdw 2.61727 \
	Res 1.42 \
	tauNuc 343133 \
	poleEl 15 7 1
forces-output-coords Positions
initial-state Na2S4@TiO2.$VAR
ion Ti   0.000000174975000  -0.000000174975000   2.000000000000000 0
ion Ti   4.340445422775000   4.340445072825000   4.795024053800001 0
ion Ti   0.000000174975000   8.680909217924999   2.000000000000000 0
ion Ti   4.340445422775000  13.021354465725000   4.795024053800001 0
ion Ti   0.000000174975000  17.361818610825001   2.000000000000000 0
ion Ti   4.340445422775000  21.702263858624999   4.795024053800001 0
ion Ti   8.680909567874998  -0.000000174975000   2.000000000000000 0
ion Ti  13.021354815675002   4.340445072825000   4.795024053800001 0
ion Ti   8.680909567874998   8.680909217924999   2.000000000000000 0
ion Ti  13.021354815675002  13.021354465725000   4.795024053800001 0
ion Ti   8.680909567874998  17.361818610825001   2.000000000000000 0
ion Ti  13.021364264325003  21.702263858624999   4.795024053800001 0
ion Ti  17.361818960775000  -0.000000174975000   2.000000000000000 0
ion Ti  21.702264208574999   4.340445072825000   4.795024053800001 0
ion Ti  17.361818960775000   8.680909217924999   2.000000000000000 0
ion Ti  21.702264208574999  13.021363914375000   4.795024053800001 0
ion Ti  17.361818960775000  17.361818610825001   2.000000000000000 0
ion Ti  21.702264208574999  21.702263858624999   4.795024053800001 0
ion O   2.650289808075000   2.650289458125000   2.000000000000000 0
ion O   6.030619934775000   6.030619584825001   2.000000000000000 0
ion O   1.690174686975000   6.990734705924999   4.795024053800001 0
ion O   6.990735055874999   1.690174337025000   4.795024053800001 0
ion O   2.650289808075000  11.331198851025000   2.000000000000000 0
ion O   6.030619934775000  14.711528977725004   2.000000000000000 0
ion O   1.690174686975000  15.671644098825000   4.795024053800001 0
ion O   6.990735055874999  10.371083729925001   4.795024053800001 0
ion O   2.650289808075000  20.012108243924999   2.000000000000000 0
ion O   6.030619934775000  23.392438370625001   2.000000000000000 0
ion O   1.690174686975000  24.352553491725004   4.795024053800001 0
ion O   6.990735055874999  19.051993122824996   4.795024053800001 0
ion O  11.331199200975000   2.650289458125000   2.000000000000000 0
ion O  14.711529327675001   6.030619584825001   2.000000000000000 0
ion O  10.371084079875001   6.990734705924999   4.795024053800001 0
ion O  15.671644448774998   1.690174337025000   4.795024053800001 0
ion O  11.331199200975000  11.331198851025000   2.000000000000000 0
ion O  14.711529327675001  14.711528977725004   2.000000000000000 0
ion O  10.371084079875001  15.671644098825000   4.795024053800001 0
ion O  15.671644448774998  10.371083729925001   4.795024053800001 0
ion O  11.331199200975000  20.012108243924999   2.000000000000000 0
ion O  14.711529327675001  23.392438370625001   2.000000000000000 0
ion O  10.371084079875001  24.352553491725004   4.795024053800001 0
ion O  15.671644448774998  19.051993122824996   4.795024053800001 0
ion O  20.012108593874995   2.650289458125000   2.000000000000000 0
ion O  23.392438720575004   6.030619584825001   2.000000000000000 0
ion O  19.051993472774999   6.990734705924999   4.795024053800001 0
ion O  24.352553841675000   1.690174337025000   4.795024053800001 0
ion O  20.012108593874995  11.331198851025000   2.000000000000000 0
ion O  23.392438720575004  14.711528977725004   2.000000000000000 0
ion O  19.051993472774999  15.671644098825000   4.795024053800001 0
ion O  24.352553841675000  10.371083729925001   4.795024053800001 0
ion O  20.012108593874995  20.012108243924999   2.000000000000000 0
ion O  23.392438720575004  23.392438370625001   2.000000000000000 0
ion O  19.051993472774999  24.352553491725004   4.795024053800001 0
ion O  24.352553841675000  19.051993122824996   4.795024053800001 0
ion S  24.162501611348411  14.645365991061533   8.835241040078971 1
ion S  23.095313029871154  16.959394971523484  12.179842647506435 1
ion S  23.932409192797909  20.682856515485710  12.009978295577918 1
ion S  21.193976310402061  22.364730843499046   9.871244301760568 1
ion Na  18.447569991475831  17.424037787652605   8.252565728005409 1
ion Na  27.649936327451503  17.276956052408860   9.117206564739371 1
ion-species GBRV/$ID_pbe.uspp
ion-width 0
ionic-minimize  \
	dirUpdateScheme      FletcherReeves \
	linminMethod         DirUpdateRecommended \
	nIterations          200 \
	history              15 \
	knormThreshold       0.0001 \
	energyDiffThreshold  1e-06 \
	nEnergyDiff          2 \
	alphaTstart          1 \
	alphaTmin            1e-10 \
	updateTestStepSize   yes \
	alphaTreduceFactor   0.1 \
	alphaTincreaseFactor 3 \
	nAlphaAdjustMax      3 \
	wolfeEnergy          0.0001 \
	wolfeGradient        0.9 \
	fdTest               no
kpoint   0.000000000000   0.000000000000   0.000000000000  1.00000000000000
kpoint-folding 1 1 1 
latt-move-scale 1 1 1
latt-scale 1 1 1 
lattice Tetragonal 26.04 37.7946
lattice-minimize  \
	dirUpdateScheme      L-BFGS \
	linminMethod         DirUpdateRecommended \
	nIterations          0 \
	history              15 \
	knormThreshold       0 \
	energyDiffThreshold  1e-06 \
	nEnergyDiff          2 \
	alphaTstart          1 \
	alphaTmin            1e-10 \
	updateTestStepSize   yes \
	alphaTreduceFactor   0.1 \
	alphaTincreaseFactor 3 \
	nAlphaAdjustMax      3 \
	wolfeEnergy          0.0001 \
	wolfeGradient        0.9 \
	fdTest               no
lcao-params -1 1e-06 0.01
pcm-variant GLSSA13
spintype no-spin
subspace-rotation-factor 1 yes
symmetries automatic
symmetry-threshold 0.0001



---------- Setting up symmetries ----------

Found 16 point-group symmetries of the bravais lattice
Found 1 space-group symmetries with basis
Applied RMS atom displacement 0 bohrs to make symmetries exact.

---------- Initializing the Grid ----------
R = 
[        26.04            0            0  ]
[            0        26.04            0  ]
[            0            0      37.7946  ]
unit cell volume = 25627.8
G =
[    0.24129          0          0  ]
[          0    0.24129          0  ]
[          0          0   0.166246  ]
Minimum fftbox size, Smin = [  120  120  172  ]
Chosen fftbox size, S = [  120  120  180  ]

---------- Initializing tighter grid for wavefunction operations ----------
R = 
[        26.04            0            0  ]
[            0        26.04            0  ]
[            0            0      37.7946  ]
unit cell volume = 25627.8
G =
[    0.24129          0          0  ]
[          0    0.24129          0  ]
[          0          0   0.166246  ]
Minimum fftbox size, Smin = [  108  108  156  ]
Chosen fftbox size, S = [  108  108  160  ]

---------- Exchange Correlation functional ----------
Initalized PBE GGA exchange.
Initalized PBE GGA correlation.

---------- Setting up pseudopotentials ----------
Width of ionic core gaussian charges (only for fluid interactions / plotting) set to 0

Reading pseudopotential file '/home/akim2/jdftx_install/build/pseudopotentials/GBRV/ti_pbe.uspp':
  Title: Ti.  Created by USPP 7.3.6 on 31-3-15
  Reference state energy: -59.020943.  12 valence electrons in orbitals:
    |300>  occupation: 2  eigenvalue: -2.777623
    |310>  occupation: 6  eigenvalue: -1.894596
    |400>  occupation: 2  eigenvalue: -0.438610
    |320>  occupation: 1  eigenvalue: -0.583119
  lMax: 2  lLocal: 3  QijEcut: 6
  6 projectors sampled on a log grid with 597 points:
    l: 0  eig: -2.777624  rCut: 1.8
    l: 0  eig: -0.438611  rCut: 1.8
    l: 1  eig: -1.894596  rCut: 1.8
    l: 1  eig: 0.500000  rCut: 1.8
    l: 2  eig: -0.583118  rCut: 1.8
    l: 2  eig: 0.150000  rCut: 1.8
  Partial core density with radius 0.8
  Transforming core density to a uniform radial grid of dG=0.02 with 1273 points.
  Transforming local potential to a uniform radial grid of dG=0.02 with 1273 points.
  Transforming nonlocal projectors to a uniform radial grid of dG=0.02 with 432 points.
  Transforming density augmentations to a uniform radial grid of dG=0.02 with 1273 points.
  Transforming atomic orbitals to a uniform radial grid of dG=0.02 with 432 points.
  Core radius for overlap checks: 1.80 bohrs.

Reading pseudopotential file '/home/akim2/jdftx_install/build/pseudopotentials/GBRV/o_pbe.uspp':
  Title: O.  Created by USPP 7.3.6 on 3-2-2014
  Reference state energy: -15.894388.  6 valence electrons in orbitals:
    |200>  occupation: 2  eigenvalue: -0.878823
    |210>  occupation: 4  eigenvalue: -0.332131
  lMax: 2  lLocal: 2  QijEcut: 6
  5 projectors sampled on a log grid with 511 points:
    l: 0  eig: -0.878823  rCut: 1.25
    l: 0  eig: 0.000000  rCut: 1.25
    l: 1  eig: -0.332132  rCut: 1.25
    l: 1  eig: 0.000000  rCut: 1.25
    l: 2  eig: 1.000000  rCut: 1.25
  Partial core density with radius 0.7
  Transforming core density to a uniform radial grid of dG=0.02 with 1273 points.
  Transforming local potential to a uniform radial grid of dG=0.02 with 1273 points.
  Transforming nonlocal projectors to a uniform radial grid of dG=0.02 with 432 points.
  Transforming density augmentations to a uniform radial grid of dG=0.02 with 1273 points.
  Transforming atomic orbitals to a uniform radial grid of dG=0.02 with 432 points.
  Core radius for overlap checks: 1.25 bohrs.

Reading pseudopotential file '/home/akim2/jdftx_install/build/pseudopotentials/GBRV/s_pbe.uspp':
  Title: S.  Created by USPP 7.3.6 on 1-4-15
  Reference state energy: -11.898476.  6 valence electrons in orbitals:
    |300>  occupation: 2  eigenvalue: -0.634167
    |310>  occupation: 4  eigenvalue: -0.257568
  lMax: 2  lLocal: 3  QijEcut: 6
  6 projectors sampled on a log grid with 635 points:
    l: 0  eig: -0.634161  rCut: 1.5
    l: 0  eig: 1.500000  rCut: 1.5
    l: 1  eig: -0.257567  rCut: 1.5
    l: 1  eig: 1.500000  rCut: 1.5
    l: 2  eig: -1.000000  rCut: 1.5
    l: 2  eig: 1.500000  rCut: 1.5
  Partial core density with radius 1.15
  Transforming core density to a uniform radial grid of dG=0.02 with 1273 points.
  Transforming local potential to a uniform radial grid of dG=0.02 with 1273 points.
  Transforming nonlocal projectors to a uniform radial grid of dG=0.02 with 432 points.
  Transforming density augmentations to a uniform radial grid of dG=0.02 with 1273 points.
  Transforming atomic orbitals to a uniform radial grid of dG=0.02 with 432 points.
  Core radius for overlap checks: 1.50 bohrs.

Reading pseudopotential file '/home/akim2/jdftx_install/build/pseudopotentials/GBRV/na_pbe.uspp':
  Title: Na.  Created by USPP 7.3.6 on 23-9-15
  Reference state energy: -47.625620.  9 valence electrons in orbitals:
    |200>  occupation: 2  eigenvalue: -2.085638
    |210>  occupation: 6  eigenvalue: -1.053708
    |300>  occupation: 1  eigenvalue: -0.100838
  lMax: 2  lLocal: 0  QijEcut: 6
  5 projectors sampled on a log grid with 657 points:
    l: 0  eig: -2.085640  rCut: 1.37
    l: 0  eig: -0.100839  rCut: 1.37
    l: 1  eig: -1.053708  rCut: 1.47
    l: 1  eig: 0.500000  rCut: 1.47
    l: 2  eig: 0.750000  rCut: 2
  Transforming local potential to a uniform radial grid of dG=0.02 with 1273 points.
  Transforming nonlocal projectors to a uniform radial grid of dG=0.02 with 432 points.
  Transforming density augmentations to a uniform radial grid of dG=0.02 with 1273 points.
  Transforming atomic orbitals to a uniform radial grid of dG=0.02 with 432 points.
  Core radius for overlap checks: 2.00 bohrs.

Initialized 4 species with 60 total atoms.

Folded 1 k-points by 1x1x1 to 1 k-points.

---------- Setting up k-points, bands, fillings ----------
No reducable k-points. 
Computing the number of bands and number of electrons
Reading initial fillings from file Na2S4@TiO2.fillings.
nElectrons: 474.000000   nBands: 350   nStates: 1

----- Setting up reduced wavefunction bases (one per k-point) -----
average nbasis = 109517.000 , ideal nbasis = 109484.012

---------- Setting up coulomb interaction ----------
Setting up double-sized grid for truncated Coulomb potentials:
R = 
[        26.04            0            0  ]
[            0        26.04            0  ]
[            0            0      75.5892  ]
unit cell volume = 51255.6
G =
[    0.24129          0          0  ]
[          0    0.24129          0  ]
[          0          0  0.0831228  ]
Chosen fftbox size, S = [  120  120  360  ]
Integer grid location selected as the embedding center:
   Grid: [  0  0  38  ]
   Lattice: [  0  0  0.21167  ]
   Cartesian: [  0  0  8  ]
Constructing Wigner-Seitz cell: 6 faces (6 quadrilaterals, 0 hexagons)
Range-separation parameter for embedded mesh potentials due to point charges: 0.587679 bohrs.
Initialized slab truncation along lattice direction 001

---------- Setting up 2D ewald sum ----------
Optimum gaussian width for ewald sums = 15.534366 bohr.
Real space sums over 225 unit cells with max indices [  7  7  0  ]
Reciprocal space sums over 81 terms with max indices [  4  4  0  ]

---------- Allocating electronic variables ----------
Initializing wave functions:  reading from 'Na2S4@TiO2.wfns'


---- Citations for features of the code used in this run ----

   Software package:
      R. Sundararaman, K. Letchworth-Weaver, K.A. Schwarz, D. Gunceler, Y. Ozhabes and T.A. Arias, 'JDFTx: software for joint density-functional theory', SoftwareX 6, 278 (2017)

   gga-PBE exchange-correlation functional:
      J.P. Perdew, K. Burke and M. Ernzerhof, Phys. Rev. Lett. 77, 3865 (1996)

   Pseudopotentials:
      KF Garrity, JW Bennett, KM Rabe and D Vanderbilt, Comput. Mater. Sci. 81, 446 (2014)

   Truncated Coulomb potentials:
      R. Sundararaman and T.A. Arias, Phys. Rev. B 87, 165122 (2013)

This list may not be complete. Please suggest additional citations or
report any other bugs at https://github.com/shankar1729/jdftx/issues

Initialization completed successfully at t[s]:      4.17


-------- Electronic minimization -----------
Will mix electronic density at each iteration.
	FillingsUpdate:  mu: -0.142488387  nElectrons: 474.000000
SCF: Cycle:  0   F: -1766.851174905617427   dF: +3.927e-07   |Residual|: 2.051e-04   |deigs|: 1.149e-08  t[s]:      7.92
	FillingsUpdate:  mu: -0.142487492  nElectrons: 474.000000
SCF: Cycle:  1   F: -1766.851175030088143   dF: -1.245e-07   |Residual|: 3.035e-04   |deigs|: 1.067e-05  t[s]:     10.51
	FillingsUpdate:  mu: -0.142487002  nElectrons: 474.000000
SCF: Cycle:  2   F: -1766.851175269177247   dF: -2.391e-07   |Residual|: 4.016e-05   |deigs|: 6.566e-06  t[s]:     13.18
	FillingsUpdate:  mu: -0.142486983  nElectrons: 474.000000
SCF: Cycle:  3   F: -1766.851175273140598   dF: -3.963e-09   |Residual|: 4.103e-05   |deigs|: 1.463e-06  t[s]:     15.82
	FillingsUpdate:  mu: -0.142486496  nElectrons: 474.000000
SCF: Cycle:  4   F: -1766.851175289977391   dF: -1.684e-08   |Residual|: 2.336e-05   |deigs|: 1.768e-06  t[s]:     18.89
	FillingsUpdate:  mu: -0.142486248  nElectrons: 474.000000
SCF: Cycle:  5   F: -1766.851175294757240   dF: -4.780e-09   |Residual|: 2.002e-05   |deigs|: 1.276e-06  t[s]:     21.55
	FillingsUpdate:  mu: -0.142485828  nElectrons: 474.000000
SCF: Cycle:  6   F: -1766.851175300243995   dF: -5.487e-09   |Residual|: 1.024e-05   |deigs|: 1.863e-06  t[s]:     24.63
SCF: Converged (|Delta E|<1.000000e-08 for 2 iters).

Setting wave functions to eigenvectors of Hamiltonian

# Ionic positions in cartesian coordinates:
ion Ti   0.000000174975000  -0.000000174975000   2.000000000000000 0
ion Ti   4.340445422775000   4.340445072825000   4.795024053800001 0
ion Ti   0.000000174975000   8.680909217924999   2.000000000000000 0
ion Ti   4.340445422775000  13.021354465725000   4.795024053800001 0
ion Ti   0.000000174975000  17.361818610825001   2.000000000000000 0
ion Ti   4.340445422775000  21.702263858624999   4.795024053800001 0
ion Ti   8.680909567874998  -0.000000174975000   2.000000000000000 0
ion Ti  13.021354815675002   4.340445072825000   4.795024053800001 0
ion Ti   8.680909567874998   8.680909217924999   2.000000000000000 0
ion Ti  13.021354815675002  13.021354465725000   4.795024053800001 0
ion Ti   8.680909567874998  17.361818610825001   2.000000000000000 0
ion Ti  13.021364264325003  21.702263858624999   4.795024053800001 0
ion Ti  17.361818960775000  -0.000000174975000   2.000000000000000 0
ion Ti  21.702264208574999   4.340445072825000   4.795024053800001 0
ion Ti  17.361818960775000   8.680909217924999   2.000000000000000 0
ion Ti  21.702264208574999  13.021363914375000   4.795024053800001 0
ion Ti  17.361818960775000  17.361818610825001   2.000000000000000 0
ion Ti  21.702264208574999  21.702263858624999   4.795024053800001 0
ion O   2.650289808075000   2.650289458125000   2.000000000000000 0
ion O   6.030619934775000   6.030619584825001   2.000000000000000 0
ion O   1.690174686975000   6.990734705924999   4.795024053800001 0
ion O   6.990735055874999   1.690174337025000   4.795024053800001 0
ion O   2.650289808075000  11.331198851025000   2.000000000000000 0
ion O   6.030619934775000  14.711528977725004   2.000000000000000 0
ion O   1.690174686975000  15.671644098825000   4.795024053800001 0
ion O   6.990735055874999  10.371083729925001   4.795024053800001 0
ion O   2.650289808075000  20.012108243924999   2.000000000000000 0
ion O   6.030619934775000  23.392438370625001   2.000000000000000 0
ion O   1.690174686975000  24.352553491725004   4.795024053800001 0
ion O   6.990735055874999  19.051993122824996   4.795024053800001 0
ion O  11.331199200975000   2.650289458125000   2.000000000000000 0
ion O  14.711529327675001   6.030619584825001   2.000000000000000 0
ion O  10.371084079875001   6.990734705924999   4.795024053800001 0
ion O  15.671644448774998   1.690174337025000   4.795024053800001 0
ion O  11.331199200975000  11.331198851025000   2.000000000000000 0
ion O  14.711529327675001  14.711528977725004   2.000000000000000 0
ion O  10.371084079875001  15.671644098825000   4.795024053800001 0
ion O  15.671644448774998  10.371083729925001   4.795024053800001 0
ion O  11.331199200975000  20.012108243924999   2.000000000000000 0
ion O  14.711529327675001  23.392438370625001   2.000000000000000 0
ion O  10.371084079875001  24.352553491725004   4.795024053800001 0
ion O  15.671644448774998  19.051993122824996   4.795024053800001 0
ion O  20.012108593874995   2.650289458125000   2.000000000000000 0
ion O  23.392438720575004   6.030619584825001   2.000000000000000 0
ion O  19.051993472774999   6.990734705924999   4.795024053800001 0
ion O  24.352553841675000   1.690174337025000   4.795024053800001 0
ion O  20.012108593874995  11.331198851025000   2.000000000000000 0
ion O  23.392438720575004  14.711528977725004   2.000000000000000 0
ion O  19.051993472774999  15.671644098825000   4.795024053800001 0
ion O  24.352553841675000  10.371083729925001   4.795024053800001 0
ion O  20.012108593874995  20.012108243924999   2.000000000000000 0
ion O  23.392438720575004  23.392438370625001   2.000000000000000 0
ion O  19.051993472774999  24.352553491725004   4.795024053800001 0
ion O  24.352553841675000  19.051993122824996   4.795024053800001 0
ion S  24.162501611348411  14.645365991061533   8.835241040078971 1
ion S  23.095313029871154  16.959394971523484  12.179842647506435 1
ion S  23.932409192797909  20.682856515485710  12.009978295577918 1
ion S  21.193976310402061  22.364730843499046   9.871244301760568 1
ion Na  18.447569991475831  17.424037787652605   8.252565728005409 1
ion Na  27.649936327451503  17.276956052408860   9.117206564739371 1

# Forces in Cartesian coordinates:
force Ti  -0.004675303486674  -0.001382935576797   0.128844683271561 0
force Ti  -0.002063651373071  -0.000057314646386  -0.127287643267721 0
force Ti  -0.002839907409222  -0.000185050943923   0.130044938069314 0
force Ti   0.004145701753955  -0.012748361354763  -0.134707088936614 0
force Ti  -0.008817717272873   0.004974706483512   0.121487241314024 0
force Ti  -0.000331089923373   0.010627973477343  -0.135110816082673 0
force Ti  -0.000183719285948   0.002029995468564   0.127997814332687 0
force Ti   0.001795743402510  -0.000627085374337  -0.127194023893311 0
force Ti  -0.000053359908908  -0.001757986701769   0.128132537462257 0
force Ti  -0.002485193117144  -0.005928997651271  -0.131669399666612 0
force Ti   0.000394773225679  -0.001869059095003   0.125234445887792 0
force Ti  -0.005973737184541   0.010101896287678  -0.132212820905810 0
force Ti   0.004342237279770  -0.000996506267366   0.131201800627799 0
force Ti   0.000534185696537  -0.001931251832579  -0.124812936960138 0
force Ti   0.004800304264478   0.001084061536273   0.127489364406693 0
force Ti   0.018185957837602  -0.000640555511997  -0.102131655400269 0
force Ti   0.003647950706304   0.001334035740891   0.112531852942084 0
force Ti   0.007252480604065   0.013728844771668  -0.090494883921379 0
force O  -0.017655213802471  -0.018176486539085   0.015801765448844 0
force O   0.020185359843464   0.020307313685883   0.014865276367994 0
force O   0.020340955294608  -0.019878619110544  -0.015928291802179 0
force O  -0.018704988765187   0.018822197177259  -0.015823906474332 0
force O  -0.017373209597805  -0.016526147920201   0.016730861711018 0
force O   0.019966069965432   0.020436454102417   0.015734091299646 0
force O   0.028568359215593  -0.016295532386263  -0.006361825348898 0
force O  -0.020434953034337   0.021242619456535  -0.014090197024873 0
force O  -0.018291442957572  -0.019988347133116   0.016711109224404 0
force O   0.019654456830045   0.018634275652127   0.015111600476652 0
force O   0.022607790437161  -0.022004036056911  -0.014518367983398 0
force O  -0.021861369895672   0.018951754208524  -0.009011350517802 0
force O  -0.020036348971818  -0.020133460917148   0.014919923670753 0
force O   0.018266852421593   0.018855306460573   0.015633814267566 0
force O   0.018813564803901  -0.018758619252359  -0.015728384342437 0
force O  -0.020849452553676   0.020361485079025  -0.015512870474704 0
force O  -0.019028030716327  -0.018622986808895   0.015612687810887 0
force O   0.020207629823726   0.021082575672823   0.015966506732687 0
force O   0.019833398228614  -0.018884893756781  -0.013057561672589 0
force O  -0.021343632969932   0.022311024291206  -0.012781225938887 0
force O  -0.019053524990958  -0.019742723038580   0.016205832317691 0
force O   0.016587058646832   0.016066590085365   0.016881150581277 0
force O   0.021000795555192  -0.021774498891718  -0.013860407874496 0
force O  -0.016040068231735   0.015526109736747  -0.000015818365879 0
force O  -0.019403650632374  -0.018796548397265   0.015044502577185 0
force O   0.019650974214595   0.019707218429230   0.014926633937465 0
force O   0.018437050557471  -0.018968827324408  -0.016722624024646 0
force O  -0.018564676037112   0.020439060083629  -0.018328952032068 0
force O  -0.026835951493205  -0.025411654875498   0.008298259106067 0
force O   0.022451688296552   0.022284303543938   0.012982076384404 0
force O   0.011547417403665  -0.020474172888366  -0.023371238343055 0
force O  -0.016000178158523   0.014599743634730  -0.022700177854003 0
force O  -0.028470103526137  -0.028532202484499   0.010248882760062 0
force O   0.024553107546596   0.024286605930938   0.009846546013860 0
force O   0.010727357833476  -0.013597965626034  -0.026058361875747 0
force O  -0.009016402827493   0.014374719578093  -0.022325274536391 0
force S  -0.032758488920142  -0.018924874015282   0.017822872690623 1
force S  -0.006627775271207  -0.026999410350752  -0.002288640188543 1
force S   0.005716831867032   0.001804437321642  -0.009908329938710 1
force S  -0.007092533735989   0.002941656026563  -0.015976084784634 1
force Na  -0.000245574261914   0.011890754332843   0.011112795994656 1
force Na   0.018326298056462   0.021234923649601  -0.007798470829779 1

# Energy components:
   Eewald =    -3675.9078634895267896
       EH =    -2201.6681618512097884
     Eloc =     3840.3685439236201091
      Enl =       41.7963993581646207
      Exc =     -321.9878316332026316
 Exc_core =       32.9823498989335704
       KE =      517.6587852569942925
-------------------------------------
     Etot =    -1766.7577785362273062
       TS =        0.0933967640166886
-------------------------------------
        F =    -1766.8511753002439946

IonicMinimize: Iter:   0  F: -1766.851175300243995  |grad|_K:  1.507e-02  alpha:  1.000e+00

#--- Lowdin population analysis ---
# oxidation-state Ti +1.586 +1.589 +1.583 +1.566 +1.586 +1.549 +1.586 +1.588 +1.586 +1.564 +1.588 +1.581 +1.582 +1.598 +1.588 +1.574 +1.596 +1.569
# oxidation-state O -0.744 -0.743 -0.738 -0.743 -0.740 -0.743 -0.777 -0.742 -0.745 -0.739 -0.733 -0.760 -0.742 -0.744 -0.743 -0.739 -0.741 -0.746 -0.754 -0.746 -0.744 -0.742 -0.742 -0.803 -0.741 -0.741 -0.737 -0.726 -0.769 -0.746 -0.822 -0.710 -0.764 -0.756 -0.714 -0.733
# oxidation-state S -0.509 -0.023 +0.114 -0.423
# oxidation-state Na +0.733 +0.714


-------- Electronic minimization -----------
Will mix electronic density at each iteration.
	FillingsUpdate:  mu: -0.142485828  nElectrons: 474.000000
	FillingsUpdate:  mu: -0.142739807  nElectrons: 474.000000
SCF: Cycle:  0   F: -1766.837425853246486   dF: -1.157e-02   |Residual|: 8.953e-02   |deigs|: 3.238e-04  t[s]:     31.47
	FillingsUpdate:  mu: -0.142709578  nElectrons: 474.000000
SCF: Cycle:  1   F: -1766.850799648488419   dF: -1.337e-02   |Residual|: 4.739e-02   |deigs|: 9.762e-04  t[s]:     35.46
	FillingsUpdate:  mu: -0.142759509  nElectrons: 474.000000
SCF: Cycle:  2   F: -1766.849487619158253   dF: +1.312e-03   |Residual|: 4.452e-02   |deigs|: 9.616e-04  t[s]:     39.40
	FillingsUpdate:  mu: -0.142759061  nElectrons: 474.000000
SCF: Cycle:  3   F: -1766.854400695584673   dF: -4.913e-03   |Residual|: 1.584e-02   |deigs|: 6.342e-04  t[s]:     43.09
	FillingsUpdate:  mu: -0.142807426  nElectrons: 474.000000
SCF: Cycle:  4   F: -1766.854857064719681   dF: -4.564e-04   |Residual|: 8.042e-03   |deigs|: 2.422e-04  t[s]:     46.17
	FillingsUpdate:  mu: -0.142798588  nElectrons: 474.000000
SCF: Cycle:  5   F: -1766.854884474921164   dF: -2.741e-05   |Residual|: 5.339e-03   |deigs|: 1.792e-04  t[s]:     49.29
	FillingsUpdate:  mu: -0.142830175  nElectrons: 474.000000
SCF: Cycle:  6   F: -1766.854945817654425   dF: -6.134e-05   |Residual|: 2.571e-03   |deigs|: 1.244e-04  t[s]:     51.90
	FillingsUpdate:  mu: -0.142829370  nElectrons: 474.000000
SCF: Cycle:  7   F: -1766.854959736899673   dF: -1.392e-05   |Residual|: 1.826e-03   |deigs|: 6.925e-05  t[s]:     54.56
	FillingsUpdate:  mu: -0.142839745  nElectrons: 474.000000
SCF: Cycle:  8   F: -1766.854970796809539   dF: -1.106e-05   |Residual|: 1.369e-03   |deigs|: 6.027e-05  t[s]:     57.68
	FillingsUpdate:  mu: -0.142849151  nElectrons: 474.000000
SCF: Cycle:  9   F: -1766.854977738530579   dF: -6.942e-06   |Residual|: 9.724e-04   |deigs|: 6.657e-05  t[s]:     60.76
	FillingsUpdate:  mu: -0.142854559  nElectrons: 474.000000
SCF: Cycle: 10   F: -1766.854980219075514   dF: -2.481e-06   |Residual|: 7.066e-04   |deigs|: 4.966e-05  t[s]:     63.88
	FillingsUpdate:  mu: -0.142852817  nElectrons: 474.000000
SCF: Cycle: 11   F: -1766.854981618108468   dF: -1.399e-06   |Residual|: 5.811e-04   |deigs|: 3.067e-05  t[s]:     66.99
	FillingsUpdate:  mu: -0.142849694  nElectrons: 474.000000
SCF: Cycle: 12   F: -1766.854983212530669   dF: -1.594e-06   |Residual|: 4.575e-04   |deigs|: 3.281e-05  t[s]:     70.06
	FillingsUpdate:  mu: -0.142839082  nElectrons: 474.000000
SCF: Cycle: 13   F: -1766.854984336695452   dF: -1.124e-06   |Residual|: 3.626e-04   |deigs|: 3.665e-05  t[s]:     73.26
	FillingsUpdate:  mu: -0.142825970  nElectrons: 474.000000
SCF: Cycle: 14   F: -1766.854985127215059   dF: -7.905e-07   |Residual|: 2.627e-04   |deigs|: 3.114e-05  t[s]:     76.47
	FillingsUpdate:  mu: -0.142814233  nElectrons: 474.000000
SCF: Cycle: 15   F: -1766.854985476073125   dF: -3.489e-07   |Residual|: 2.243e-04   |deigs|: 2.073e-05  t[s]:     79.65
	FillingsUpdate:  mu: -0.142791961  nElectrons: 474.000000
SCF: Cycle: 16   F: -1766.854985707293963   dF: -2.312e-07   |Residual|: 1.686e-04   |deigs|: 3.812e-05  t[s]:     83.02
	FillingsUpdate:  mu: -0.142774808  nElectrons: 474.000000
SCF: Cycle: 17   F: -1766.854985779061280   dF: -7.177e-08   |Residual|: 1.682e-04   |deigs|: 2.977e-05  t[s]:     86.31
	FillingsUpdate:  mu: -0.142758902  nElectrons: 474.000000
SCF: Cycle: 18   F: -1766.854985831345402   dF: -5.228e-08   |Residual|: 1.350e-04   |deigs|: 2.841e-05  t[s]:     89.64
	FillingsUpdate:  mu: -0.142743622  nElectrons: 474.000000
SCF: Cycle: 19   F: -1766.854985861608384   dF: -3.026e-08   |Residual|: 1.114e-04   |deigs|: 2.508e-05  t[s]:     93.00
	FillingsUpdate:  mu: -0.142715552  nElectrons: 474.000000
SCF: Cycle: 20   F: -1766.854985897936103   dF: -3.633e-08   |Residual|: 9.960e-05   |deigs|: 4.490e-05  t[s]:     96.41
	FillingsUpdate:  mu: -0.142699198  nElectrons: 474.000000
SCF: Cycle: 21   F: -1766.854985923350796   dF: -2.541e-08   |Residual|: 7.522e-05   |deigs|: 2.593e-05  t[s]:     99.63
	FillingsUpdate:  mu: -0.142672691  nElectrons: 474.000000
SCF: Cycle: 22   F: -1766.854985965041578   dF: -4.169e-08   |Residual|: 7.084e-05   |deigs|: 4.246e-05  t[s]:    103.11
	FillingsUpdate:  mu: -0.142653748  nElectrons: 474.000000
SCF: Cycle: 23   F: -1766.854985988805765   dF: -2.376e-08   |Residual|: 6.691e-05   |deigs|: 2.879e-05  t[s]:    106.30
	FillingsUpdate:  mu: -0.142635171  nElectrons: 474.000000
SCF: Cycle: 24   F: -1766.854986014084488   dF: -2.528e-08   |Residual|: 5.695e-05   |deigs|: 3.239e-05  t[s]:    109.68
	FillingsUpdate:  mu: -0.142619252  nElectrons: 474.000000
SCF: Cycle: 25   F: -1766.854986036851642   dF: -2.277e-08   |Residual|: 4.448e-05   |deigs|: 2.612e-05  t[s]:    113.04
	FillingsUpdate:  mu: -0.142601679  nElectrons: 474.000000
SCF: Cycle: 26   F: -1766.854986053491530   dF: -1.664e-08   |Residual|: 4.577e-05   |deigs|: 3.406e-05  t[s]:    116.42
	FillingsUpdate:  mu: -0.142593855  nElectrons: 474.000000
SCF: Cycle: 27   F: -1766.854986060990996   dF: -7.499e-09   |Residual|: 3.598e-05   |deigs|: 1.664e-05  t[s]:    119.71
	FillingsUpdate:  mu: -0.142583527  nElectrons: 474.000000
SCF: Cycle: 28   F: -1766.854986068634616   dF: -7.644e-09   |Residual|: 3.285e-05   |deigs|: 2.255e-05  t[s]:    122.93
SCF: Converged (|Delta E|<1.000000e-08 for 2 iters).

Setting wave functions to eigenvectors of Hamiltonian
IonicMinimize: 	Predicted alpha/alphaT>3.000000, increasing alphaT to 3.000000e+00.

-------- Electronic minimization -----------
Will mix electronic density at each iteration.
	FillingsUpdate:  mu: -0.142583527  nElectrons: 474.000000
	FillingsUpdate:  mu: -0.143019542  nElectrons: 474.000000
SCF: Cycle:  0   F: -1766.789698140768905   dF: -4.536e-02   |Residual|: 1.799e-01   |deigs|: 1.233e-03  t[s]:    128.62
	FillingsUpdate:  mu: -0.142964970  nElectrons: 474.000000
SCF: Cycle:  1   F: -1766.844280031084963   dF: -5.458e-02   |Residual|: 9.589e-02   |deigs|: 1.692e-03  t[s]:    132.52
	FillingsUpdate:  mu: -0.143093001  nElectrons: 474.000000
SCF: Cycle:  2   F: -1766.838050540675340   dF: +6.229e-03   |Residual|: 9.160e-02   |deigs|: 1.778e-03  t[s]:    136.45
	FillingsUpdate:  mu: -0.143044606  nElectrons: 474.000000
SCF: Cycle:  3   F: -1766.858422209714035   dF: -2.037e-02   |Residual|: 3.344e-02   |deigs|: 1.253e-03  t[s]:    140.43
	FillingsUpdate:  mu: -0.143145073  nElectrons: 474.000000
SCF: Cycle:  4   F: -1766.860562819003007   dF: -2.141e-03   |Residual|: 1.631e-02   |deigs|: 5.217e-04  t[s]:    144.04
	FillingsUpdate:  mu: -0.143123578  nElectrons: 474.000000
SCF: Cycle:  5   F: -1766.860670118329153   dF: -1.073e-04   |Residual|: 1.097e-02   |deigs|: 3.635e-04  t[s]:    147.14
	FillingsUpdate:  mu: -0.143185238  nElectrons: 474.000000
SCF: Cycle:  6   F: -1766.860914244510241   dF: -2.441e-04   |Residual|: 5.593e-03   |deigs|: 2.503e-04  t[s]:    153.18
	FillingsUpdate:  mu: -0.143183652  nElectrons: 474.000000
SCF: Cycle:  7   F: -1766.860981203061101   dF: -6.696e-05   |Residual|: 3.736e-03   |deigs|: 1.360e-04  t[s]:    156.28
	FillingsUpdate:  mu: -0.143202301  nElectrons: 474.000000
SCF: Cycle:  8   F: -1766.861025483771755   dF: -4.428e-05   |Residual|: 2.783e-03   |deigs|: 1.067e-04  t[s]:    159.41
	FillingsUpdate:  mu: -0.143222463  nElectrons: 474.000000
SCF: Cycle:  9   F: -1766.861054441159695   dF: -2.896e-05   |Residual|: 1.985e-03   |deigs|: 1.233e-04  t[s]:    162.53
	FillingsUpdate:  mu: -0.143233775  nElectrons: 474.000000
SCF: Cycle: 10   F: -1766.861063950034122   dF: -9.509e-06   |Residual|: 1.447e-03   |deigs|: 9.050e-05  t[s]:    165.66
	FillingsUpdate:  mu: -0.143230976  nElectrons: 474.000000
SCF: Cycle: 11   F: -1766.861068854906080   dF: -4.905e-06   |Residual|: 1.176e-03   |deigs|: 5.074e-05  t[s]:    168.80
	FillingsUpdate:  mu: -0.143225194  nElectrons: 474.000000
SCF: Cycle: 12   F: -1766.861074225438188   dF: -5.371e-06   |Residual|: 9.207e-04   |deigs|: 5.735e-05  t[s]:    172.01
	FillingsUpdate:  mu: -0.143205976  nElectrons: 474.000000
SCF: Cycle: 13   F: -1766.861077328462670   dF: -3.103e-06   |Residual|: 7.457e-04   |deigs|: 5.762e-05  t[s]:    175.18
	FillingsUpdate:  mu: -0.143181635  nElectrons: 474.000000
SCF: Cycle: 14   F: -1766.861079736158899   dF: -2.408e-06   |Residual|: 5.344e-04   |deigs|: 4.990e-05  t[s]:    178.29
	FillingsUpdate:  mu: -0.143158560  nElectrons: 474.000000
SCF: Cycle: 15   F: -1766.861080836447172   dF: -1.100e-06   |Residual|: 4.671e-04   |deigs|: 3.581e-05  t[s]:    181.51
	FillingsUpdate:  mu: -0.143122041  nElectrons: 474.000000
SCF: Cycle: 16   F: -1766.861081337856149   dF: -5.014e-07   |Residual|: 3.711e-04   |deigs|: 5.403e-05  t[s]:    184.76
	FillingsUpdate:  mu: -0.143091447  nElectrons: 474.000000
SCF: Cycle: 17   F: -1766.861081495087774   dF: -1.572e-07   |Residual|: 3.834e-04   |deigs|: 4.438e-05  t[s]:    188.10
	FillingsUpdate:  mu: -0.143054733  nElectrons: 474.000000
SCF: Cycle: 18   F: -1766.861081751581878   dF: -2.565e-07   |Residual|: 2.893e-04   |deigs|: 5.396e-05  t[s]:    191.47
	FillingsUpdate:  mu: -0.143024877  nElectrons: 474.000000
SCF: Cycle: 19   F: -1766.861081859102796   dF: -1.075e-07   |Residual|: 2.285e-04   |deigs|: 4.018e-05  t[s]:    194.77
	FillingsUpdate:  mu: -0.142983024  nElectrons: 474.000000
SCF: Cycle: 20   F: -1766.861081975054503   dF: -1.160e-07   |Residual|: 1.951e-04   |deigs|: 5.478e-05  t[s]:    198.06
	FillingsUpdate:  mu: -0.142944287  nElectrons: 474.000000
SCF: Cycle: 21   F: -1766.861082064884613   dF: -8.983e-08   |Residual|: 1.523e-04   |deigs|: 5.118e-05  t[s]:    201.27
	FillingsUpdate:  mu: -0.142891884  nElectrons: 474.000000
SCF: Cycle: 22   F: -1766.861082198715849   dF: -1.338e-07   |Residual|: 1.517e-04   |deigs|: 7.267e-05  t[s]:    204.71
	FillingsUpdate:  mu: -0.142856670  nElectrons: 474.000000
SCF: Cycle: 23   F: -1766.861082295802589   dF: -9.709e-08   |Residual|: 1.325e-04   |deigs|: 4.619e-05  t[s]:    208.01
	FillingsUpdate:  mu: -0.142816942  nElectrons: 474.000000
SCF: Cycle: 24   F: -1766.861082389670628   dF: -9.387e-08   |Residual|: 1.129e-04   |deigs|: 6.019e-05  t[s]:    211.47
	FillingsUpdate:  mu: -0.142781565  nElectrons: 474.000000
SCF: Cycle: 25   F: -1766.861082498164933   dF: -1.085e-07   |Residual|: 9.123e-05   |deigs|: 5.000e-05  t[s]:    214.94
	FillingsUpdate:  mu: -0.142750609  nElectrons: 474.000000
SCF: Cycle: 26   F: -1766.861082553455390   dF: -5.529e-08   |Residual|: 9.255e-05   |deigs|: 5.322e-05  t[s]:    218.14
	FillingsUpdate:  mu: -0.142735391  nElectrons: 474.000000
SCF: Cycle: 27   F: -1766.861082584156748   dF: -3.070e-08   |Residual|: 7.480e-05   |deigs|: 2.774e-05  t[s]:    221.39
	FillingsUpdate:  mu: -0.142711778  nElectrons: 474.000000
SCF: Cycle: 28   F: -1766.861082621038577   dF: -3.688e-08   |Residual|: 7.168e-05   |deigs|: 4.549e-05  t[s]:    224.63
	FillingsUpdate:  mu: -0.142696092  nElectrons: 474.000000
SCF: Cycle: 29   F: -1766.861082636788751   dF: -1.575e-08   |Residual|: 7.103e-05   |deigs|: 3.079e-05  t[s]:    233.03
	FillingsUpdate:  mu: -0.142684256  nElectrons: 474.000000
SCF: Cycle: 30   F: -1766.861082654338816   dF: -1.755e-08   |Residual|: 5.593e-05   |deigs|: 2.387e-05  t[s]:    239.00
	FillingsUpdate:  mu: -0.142666661  nElectrons: 474.000000
SCF: Cycle: 31   F: -1766.861082668487825   dF: -1.415e-08   |Residual|: 5.018e-05   |deigs|: 3.597e-05  t[s]:    242.47
	FillingsUpdate:  mu: -0.142654189  nElectrons: 474.000000
SCF: Cycle: 32   F: -1766.861082677328568   dF: -8.841e-09   |Residual|: 4.135e-05   |deigs|: 2.342e-05  t[s]:    245.73
	FillingsUpdate:  mu: -0.142638983  nElectrons: 474.000000
SCF: Cycle: 33   F: -1766.861082686465124   dF: -9.137e-09   |Residual|: 3.068e-05   |deigs|: 3.037e-05  t[s]:    249.06
SCF: Converged (|Delta E|<1.000000e-08 for 2 iters).

Setting wave functions to eigenvectors of Hamiltonian

-------- Electronic minimization -----------
Will mix electronic density at each iteration.
	FillingsUpdate:  mu: -0.142638983  nElectrons: 474.000000
	FillingsUpdate:  mu: -0.143338561  nElectrons: 474.000000
SCF: Cycle:  0   F: -1766.405671848209067   dF: -2.212e-01   |Residual|: 4.524e-01   |deigs|: 7.514e-03  t[s]:    254.88
	FillingsUpdate:  mu: -0.143524663  nElectrons: 474.000000
SCF: Cycle:  1   F: -1766.766493466201155   dF: -3.608e-01   |Residual|: 2.462e-01   |deigs|: 4.759e-03  t[s]:    258.87
	FillingsUpdate:  mu: -0.144102643  nElectrons: 474.000000
SCF: Cycle:  2   F: -1766.704828501188558   dF: +6.166e-02   |Residual|: 2.451e-01   |deigs|: 4.568e-03  t[s]:    262.81
	FillingsUpdate:  mu: -0.143756299  nElectrons: 474.000000
SCF: Cycle:  3   F: -1766.846330090991160   dF: -1.415e-01   |Residual|: 9.636e-02   |deigs|: 3.675e-03  t[s]:    266.75
	FillingsUpdate:  mu: -0.144003256  nElectrons: 474.000000
SCF: Cycle:  4   F: -1766.865608165398044   dF: -1.928e-02   |Residual|: 4.148e-02   |deigs|: 1.563e-03  t[s]:    270.72
	FillingsUpdate:  mu: -0.143939726  nElectrons: 474.000000
SCF: Cycle:  5   F: -1766.866600532076291   dF: -9.924e-04   |Residual|: 2.739e-02   |deigs|: 8.513e-04  t[s]:    274.53
	FillingsUpdate:  mu: -0.144091401  nElectrons: 474.000000
SCF: Cycle:  6   F: -1766.867804633548985   dF: -1.204e-03   |Residual|: 1.725e-02   |deigs|: 6.221e-04  t[s]:    278.31
	FillingsUpdate:  mu: -0.144102415  nElectrons: 474.000000
SCF: Cycle:  7   F: -1766.868430707091875   dF: -6.261e-04   |Residual|: 9.542e-03   |deigs|: 3.527e-04  t[s]:    281.42
	FillingsUpdate:  mu: -0.144143115  nElectrons: 474.000000
SCF: Cycle:  8   F: -1766.868681042298249   dF: -2.503e-04   |Residual|: 6.829e-03   |deigs|: 2.239e-04  t[s]:    284.51
	FillingsUpdate:  mu: -0.144190456  nElectrons: 474.000000
SCF: Cycle:  9   F: -1766.868852752003704   dF: -1.717e-04   |Residual|: 5.102e-03   |deigs|: 2.698e-04  t[s]:    287.76
	FillingsUpdate:  mu: -0.144222929  nElectrons: 474.000000
SCF: Cycle: 10   F: -1766.868914573780330   dF: -6.182e-05   |Residual|: 3.708e-03   |deigs|: 2.138e-04  t[s]:    290.93
	FillingsUpdate:  mu: -0.144224942  nElectrons: 474.000000
SCF: Cycle: 11   F: -1766.868940509605636   dF: -2.594e-05   |Residual|: 2.896e-03   |deigs|: 1.041e-04  t[s]:    294.00
	FillingsUpdate:  mu: -0.144215995  nElectrons: 474.000000
SCF: Cycle: 12   F: -1766.868968659564416   dF: -2.815e-05   |Residual|: 2.232e-03   |deigs|: 1.300e-04  t[s]:    297.22
	FillingsUpdate:  mu: -0.144181143  nElectrons: 474.000000
SCF: Cycle: 13   F: -1766.868977226760308   dF: -8.567e-06   |Residual|: 1.921e-03   |deigs|: 9.077e-05  t[s]:    300.39
	FillingsUpdate:  mu: -0.144133042  nElectrons: 474.000000
SCF: Cycle: 14   F: -1766.868986509172146   dF: -9.282e-06   |Residual|: 1.458e-03   |deigs|: 8.733e-05  t[s]:    303.54
	FillingsUpdate:  mu: -0.144091936  nElectrons: 474.000000
SCF: Cycle: 15   F: -1766.868991191490750   dF: -4.682e-06   |Residual|: 1.275e-03   |deigs|: 6.593e-05  t[s]:    306.67
	FillingsUpdate:  mu: -0.143983376  nElectrons: 474.000000
SCF: Cycle: 16   F: -1766.868994492953561   dF: -3.301e-06   |Residual|: 7.622e-04   |deigs|: 1.379e-04  t[s]:    310.04
	FillingsUpdate:  mu: -0.143906818  nElectrons: 474.000000
SCF: Cycle: 17   F: -1766.868995181295531   dF: -6.883e-07   |Residual|: 7.095e-04   |deigs|: 9.095e-05  t[s]:    313.21
	FillingsUpdate:  mu: -0.143807153  nElectrons: 474.000000
SCF: Cycle: 18   F: -1766.868995572982840   dF: -3.917e-07   |Residual|: 6.910e-04   |deigs|: 1.132e-04  t[s]:    316.58
	FillingsUpdate:  mu: -0.143741095  nElectrons: 474.000000
SCF: Cycle: 19   F: -1766.868995714205766   dF: -1.412e-07   |Residual|: 5.650e-04   |deigs|: 7.237e-05  t[s]:    320.03
	FillingsUpdate:  mu: -0.143644390  nElectrons: 474.000000
SCF: Cycle: 20   F: -1766.868996906542634   dF: -1.192e-06   |Residual|: 4.354e-04   |deigs|: 1.095e-04  t[s]:    323.34
	FillingsUpdate:  mu: -0.143575794  nElectrons: 474.000000
SCF: Cycle: 21   F: -1766.868996951824784   dF: -4.528e-08   |Residual|: 4.046e-04   |deigs|: 7.690e-05  t[s]:    326.56
	FillingsUpdate:  mu: -0.143442402  nElectrons: 474.000000
SCF: Cycle: 22   F: -1766.868997426387295   dF: -4.746e-07   |Residual|: 3.620e-04   |deigs|: 1.632e-04  t[s]:    329.81
	FillingsUpdate:  mu: -0.143346893  nElectrons: 474.000000
SCF: Cycle: 23   F: -1766.868998487601630   dF: -1.061e-06   |Residual|: 2.641e-04   |deigs|: 1.150e-04  t[s]:    333.19
	FillingsUpdate:  mu: -0.143253530  nElectrons: 474.000000
SCF: Cycle: 24   F: -1766.868998879076798   dF: -3.915e-07   |Residual|: 2.351e-04   |deigs|: 1.334e-04  t[s]:    336.52
	FillingsUpdate:  mu: -0.143170424  nElectrons: 474.000000
SCF: Cycle: 25   F: -1766.868999424904132   dF: -5.458e-07   |Residual|: 2.344e-04   |deigs|: 1.064e-04  t[s]:    339.84
	FillingsUpdate:  mu: -0.143121109  nElectrons: 474.000000
SCF: Cycle: 26   F: -1766.868999661121052   dF: -2.362e-07   |Residual|: 2.215e-04   |deigs|: 7.242e-05  t[s]:    343.05
	FillingsUpdate:  mu: -0.143094170  nElectrons: 474.000000
SCF: Cycle: 27   F: -1766.868999801331938   dF: -1.402e-07   |Residual|: 1.593e-04   |deigs|: 4.396e-05  t[s]:    346.24
	FillingsUpdate:  mu: -0.143033761  nElectrons: 474.000000
SCF: Cycle: 28   F: -1766.868999988494124   dF: -1.872e-07   |Residual|: 1.698e-04   |deigs|: 9.359e-05  t[s]:    349.53
	FillingsUpdate:  mu: -0.142996248  nElectrons: 474.000000
SCF: Cycle: 29   F: -1766.869000107998318   dF: -1.195e-07   |Residual|: 1.177e-04   |deigs|: 6.537e-05  t[s]:    352.84
	FillingsUpdate:  mu: -0.142968968  nElectrons: 474.000000
SCF: Cycle: 30   F: -1766.869000162608472   dF: -5.461e-08   |Residual|: 1.127e-04   |deigs|: 4.900e-05  t[s]:    356.06
	FillingsUpdate:  mu: -0.142921925  nElectrons: 474.000000
SCF: Cycle: 31   F: -1766.869000192514022   dF: -2.991e-08   |Residual|: 1.062e-04   |deigs|: 8.154e-05  t[s]:    359.43
	FillingsUpdate:  mu: -0.142897555  nElectrons: 474.000000
SCF: Cycle: 32   F: -1766.869000232949247   dF: -4.044e-08   |Residual|: 9.505e-05   |deigs|: 4.424e-05  t[s]:    362.74
	FillingsUpdate:  mu: -0.142875006  nElectrons: 474.000000
SCF: Cycle: 33   F: -1766.869000254405591   dF: -2.146e-08   |Residual|: 6.273e-05   |deigs|: 4.082e-05  t[s]:    366.01
	FillingsUpdate:  mu: -0.142853920  nElectrons: 474.000000
SCF: Cycle: 34   F: -1766.869000265086243   dF: -1.068e-08   |Residual|: 6.078e-05   |deigs|: 3.095e-05  t[s]:    369.33
	FillingsUpdate:  mu: -0.142822262  nElectrons: 474.000000
SCF: Cycle: 35   F: -1766.869000289499581   dF: -2.441e-08   |Residual|: 4.552e-05   |deigs|: 4.619e-05  t[s]:    372.80
	FillingsUpdate:  mu: -0.142806815  nElectrons: 474.000000
SCF: Cycle: 36   F: -1766.869000300448988   dF: -1.095e-08   |Residual|: 3.545e-05   |deigs|: 2.220e-05  t[s]:    376.02
	FillingsUpdate:  mu: -0.142783621  nElectrons: 474.000000
SCF: Cycle: 37   F: -1766.869000312518665   dF: -1.207e-08   |Residual|: 4.256e-05   |deigs|: 3.313e-05  t[s]:    379.37
	FillingsUpdate:  mu: -0.142771501  nElectrons: 474.000000
SCF: Cycle: 38   F: -1766.869000319551560   dF: -7.033e-09   |Residual|: 3.824e-05   |deigs|: 1.764e-05  t[s]:    382.55
	FillingsUpdate:  mu: -0.142750708  nElectrons: 474.000000
SCF: Cycle: 39   F: -1766.869000332897940   dF: -1.335e-08   |Residual|: 2.811e-05   |deigs|: 3.147e-05  t[s]:    385.85
	FillingsUpdate:  mu: -0.142741647  nElectrons: 474.000000
SCF: Cycle: 40   F: -1766.869000337297621   dF: -4.400e-09   |Residual|: 2.805e-05   |deigs|: 1.372e-05  t[s]:    389.06
	FillingsUpdate:  mu: -0.142728241  nElectrons: 474.000000
SCF: Cycle: 41   F: -1766.869000346699295   dF: -9.402e-09   |Residual|: 2.313e-05   |deigs|: 2.453e-05  t[s]:    392.33
SCF: Converged (|Delta E|<1.000000e-08 for 2 iters).

Setting wave functions to eigenvectors of Hamiltonian

# Ionic positions in cartesian coordinates:
ion Ti   0.000000174975000  -0.000000174975000   2.000000000000000 0
ion Ti   4.340445422775000   4.340445072825000   4.795024053800001 0
ion Ti   0.000000174975000   8.680909217924999   2.000000000000000 0
ion Ti   4.340445422775000  13.021354465725000   4.795024053800001 0
ion Ti   0.000000174975000  17.361818610825001   2.000000000000000 0
ion Ti   4.340445422775000  21.702263858624999   4.795024053800001 0
ion Ti   8.680909567874998  -0.000000174975000   2.000000000000000 0
ion Ti  13.021354815675002   4.340445072825000   4.795024053800001 0
ion Ti   8.680909567874998   8.680909217924999   2.000000000000000 0
ion Ti  13.021354815675002  13.021354465725000   4.795024053800001 0
ion Ti   8.680909567874998  17.361818610825001   2.000000000000000 0
ion Ti  13.021364264325003  21.702263858624999   4.795024053800001 0
ion Ti  17.361818960775000  -0.000000174975000   2.000000000000000 0
ion Ti  21.702264208574999   4.340445072825000   4.795024053800001 0
ion Ti  17.361818960775000   8.680909217924999   2.000000000000000 0
ion Ti  21.702264208574999  13.021363914375000   4.795024053800001 0
ion Ti  17.361818960775000  17.361818610825001   2.000000000000000 0
ion Ti  21.702264208574999  21.702263858624999   4.795024053800001 0
ion O   2.650289808075000   2.650289458125000   2.000000000000000 0
ion O   6.030619934775000   6.030619584825001   2.000000000000000 0
ion O   1.690174686975000   6.990734705924999   4.795024053800001 0
ion O   6.990735055874999   1.690174337025000   4.795024053800001 0
ion O   2.650289808075000  11.331198851025000   2.000000000000000 0
ion O   6.030619934775000  14.711528977725004   2.000000000000000 0
ion O   1.690174686975000  15.671644098825000   4.795024053800001 0
ion O   6.990735055874999  10.371083729925001   4.795024053800001 0
ion O   2.650289808075000  20.012108243924999   2.000000000000000 0
ion O   6.030619934775000  23.392438370625001   2.000000000000000 0
ion O   1.690174686975000  24.352553491725004   4.795024053800001 0
ion O   6.990735055874999  19.051993122824996   4.795024053800001 0
ion O  11.331199200975000   2.650289458125000   2.000000000000000 0
ion O  14.711529327675001   6.030619584825001   2.000000000000000 0
ion O  10.371084079875001   6.990734705924999   4.795024053800001 0
ion O  15.671644448774998   1.690174337025000   4.795024053800001 0
ion O  11.331199200975000  11.331198851025000   2.000000000000000 0
ion O  14.711529327675001  14.711528977725004   2.000000000000000 0
ion O  10.371084079875001  15.671644098825000   4.795024053800001 0
ion O  15.671644448774998  10.371083729925001   4.795024053800001 0
ion O  11.331199200975000  20.012108243924999   2.000000000000000 0
ion O  14.711529327675001  23.392438370625001   2.000000000000000 0
ion O  10.371084079875001  24.352553491725004   4.795024053800001 0
ion O  15.671644448774998  19.051993122824996   4.795024053800001 0
ion O  20.012108593874995   2.650289458125000   2.000000000000000 0
ion O  23.392438720575004   6.030619584825001   2.000000000000000 0
ion O  19.051993472774999   6.990734705924999   4.795024053800001 0
ion O  24.352553841675000   1.690174337025000   4.795024053800001 0
ion O  20.012108593874995  11.331198851025000   2.000000000000000 0
ion O  23.392438720575004  14.711528977725004   2.000000000000000 0
ion O  19.051993472774999  15.671644098825000   4.795024053800001 0
ion O  24.352553841675000  10.371083729925001   4.795024053800001 0
ion O  20.012108593874995  20.012108243924999   2.000000000000000 0
ion O  23.392438720575004  23.392438370625001   2.000000000000000 0
ion O  19.051993472774999  24.352553491725004   4.795024053800001 0
ion O  24.352553841675000  19.051993122824996   4.795024053800001 0
ion S  23.906758599193886  14.497620950162007   8.974382841102152 1
ion S  23.043570496328964  16.748612644343190  12.161975408972244 1
ion S  23.977040061004917  20.696943619350783  11.932624723191726 1
ion S  21.138605443147732  22.387696126628850   9.746520232368400 1
ion Na  18.445652812035640  17.516867995336604   8.339322474571473 1
ion Na  27.793008331719665  17.442735473744779   9.056324500701903 1

# Forces in Cartesian coordinates:
force Ti  -0.005164660347580  -0.001733285628050   0.128721819969031 0
force Ti  -0.002079563569946  -0.000138766962727  -0.127345943196710 0
force Ti  -0.003001221697609  -0.000206360625548   0.130256944157457 0
force Ti   0.003865099282514  -0.012742963860737  -0.134884624316859 0
force Ti  -0.009253008453953   0.004898557642862   0.121866892665400 0
force Ti  -0.000132325446177   0.011888720838364  -0.136004478063426 0
force Ti  -0.000089763546438   0.002090805772097   0.128038540419306 0
force Ti   0.001893414396741  -0.000608246914551  -0.127161422860913 0
force Ti   0.000034197383100  -0.001733064840263   0.128134287139376 0
force Ti  -0.001838251799449  -0.005772586727673  -0.131601069131702 0
force Ti   0.000725336013628  -0.002228514023183   0.124909214719240 0
force Ti  -0.005515157978382   0.009824943298422  -0.132182725161703 0
force Ti   0.004429094775228  -0.001175250603824   0.131239661790410 0
force Ti   0.000494433363023  -0.001968824525062  -0.124773178848386 0
force Ti   0.004742781595819   0.001236795980589   0.127661552215186 0
force Ti   0.014877883577441  -0.000399182933691  -0.103565948794114 0
force Ti   0.004526720434272   0.001194893434287   0.113571555682498 0
force Ti   0.007225988221631   0.013095189694746  -0.090362817123016 0
force O  -0.017512726887173  -0.018058493615410   0.015884849951077 0
force O   0.020167168414366   0.020304667886006   0.014882526325157 0
force O   0.020334398710438  -0.019816556283375  -0.015889689700027 0
force O  -0.018709564197967   0.018817091024581  -0.015805927624207 0
force O  -0.017289739782088  -0.016473324844510   0.016702877321232 0
force O   0.020022431096710   0.020542689303302   0.015712255005742 0
force O   0.028199049522160  -0.016390029247676  -0.004067290008885 0
force O  -0.020470846334860   0.021279723777172  -0.014010066134993 0
force O  -0.018281647419491  -0.020030398909659   0.016656321433471 0
force O   0.019664505729734   0.018582112458995   0.015072976108065 0
force O   0.022802372360117  -0.022180640061571  -0.014360411195977 0
force O  -0.022334699728344   0.019046578583634  -0.008152330532580 0
force O  -0.020077580405551  -0.020165635580979   0.014910521640365 0
force O   0.018193032775266   0.018768289660093   0.015674181727344 0
force O   0.018775833381936  -0.018748073213593  -0.015729934043115 0
force O  -0.020920303844394   0.020416416315518  -0.015456416501531 0
force O  -0.019129483208596  -0.018685779587157   0.015597194237008 0
force O   0.019829711453667   0.020809343765559   0.016037527240142 0
force O   0.019613845995995  -0.018747306448881  -0.013071108433073 0
force O  -0.021390531274147   0.022143659784303  -0.013017406915386 0
force O  -0.019284075422379  -0.019832841787944   0.016172424846980 0
force O   0.016521276926719   0.016092400074794   0.016886669111520 0
force O   0.020873483703729  -0.021703360319112  -0.013873980257772 0
force O  -0.016541789219867   0.016027161839617   0.000137462607989 0
force O  -0.019367589843413  -0.018724683078753   0.015082914404442 0
force O   0.019719237535172   0.019703724398368   0.014864491896907 0
force O   0.018455937365161  -0.019004407816468  -0.016751650637744 0
force O  -0.018553508567498   0.020522637685406  -0.018299766371345 0
force O  -0.026953239212986  -0.025409112834624   0.008453926678051 0
force O   0.022918432974235   0.022553498362515   0.012757613795268 0
force O   0.009994019733088  -0.017010288486093  -0.019055583849531 0
force O  -0.016129366734481   0.014899938701834  -0.022186839042021 0
force O  -0.028976559808473  -0.028895643581041   0.009653981530515 0
force O   0.025323078506727   0.025067875404611   0.009193972028280 0
force O   0.009888833637962  -0.012815860207311  -0.026576396564791 0
force O  -0.008280570300105   0.013102591973419  -0.021514765926587 0
force S  -0.003195626255443  -0.006516973503417   0.013554450028553 1
force S  -0.004719853016302  -0.000348134380815   0.000302606073834 1
force S  -0.009249426603044  -0.011754721652434  -0.015338975599852 1
force S   0.004945377818432  -0.005321338687074  -0.006049845305818 1
force Na   0.000775115542437   0.007883745765305   0.004403350240560 1
force Na  -0.005920123652934   0.003967186637035  -0.009197904999197 1

# Energy components:
   Eewald =    -3676.3525260999426791
       EH =    -2202.1796026800029722
     Eloc =     3841.3611820597220685
      Enl =       41.8246324354114449
      Exc =     -321.9402632324029696
 Exc_core =       32.9823478835276518
       KE =      517.5288514224023402
-------------------------------------
     Etot =    -1766.7753782112847603
       TS =        0.0936221354144930
-------------------------------------
        F =    -1766.8690003466992948

IonicMinimize: Iter:   1  F: -1766.869000346699295  |grad|_K:  7.545e-03  alpha:  7.807e+00  linmin: -2.274e-02  t[s]:    393.68

#--- Lowdin population analysis ---
# oxidation-state Ti +1.587 +1.589 +1.584 +1.565 +1.588 +1.544 +1.586 +1.588 +1.586 +1.565 +1.588 +1.580 +1.582 +1.598 +1.588 +1.571 +1.596 +1.567
# oxidation-state O -0.744 -0.743 -0.738 -0.743 -0.740 -0.743 -0.782 -0.743 -0.745 -0.738 -0.733 -0.761 -0.742 -0.744 -0.743 -0.739 -0.741 -0.746 -0.754 -0.745 -0.744 -0.742 -0.742 -0.802 -0.741 -0.741 -0.737 -0.726 -0.768 -0.747 -0.814 -0.713 -0.765 -0.757 -0.712 -0.736
# oxidation-state S -0.450 -0.019 +0.025 -0.408
# oxidation-state Na +0.734 +0.710


-------- Electronic minimization -----------
Will mix electronic density at each iteration.
	FillingsUpdate:  mu: -0.142728241  nElectrons: 474.000000
	FillingsUpdate:  mu: -0.146188851  nElectrons: 474.000000
SCF: Cycle:  0   F: -1766.779121044398153   dF: -8.379e-02   |Residual|: 2.151e-01   |deigs|: 1.692e-03  t[s]:    399.09
	FillingsUpdate:  mu: -0.146306515  nElectrons: 474.000000
SCF: Cycle:  1   F: -1766.848953656202184   dF: -6.983e-02   |Residual|: 1.146e-01   |deigs|: 1.956e-03  t[s]:    403.04
	FillingsUpdate:  mu: -0.146136888  nElectrons: 474.000000
SCF: Cycle:  2   F: -1766.841339121826422   dF: +7.615e-03   |Residual|: 1.029e-01   |deigs|: 1.804e-03  t[s]:    407.04
	FillingsUpdate:  mu: -0.145964573  nElectrons: 474.000000
SCF: Cycle:  3   F: -1766.870273000734869   dF: -2.893e-02   |Residual|: 3.747e-02   |deigs|: 9.501e-04  t[s]:    410.91
	FillingsUpdate:  mu: -0.145956936  nElectrons: 474.000000
SCF: Cycle:  4   F: -1766.872551839575181   dF: -2.279e-03   |Residual|: 1.968e-02   |deigs|: 4.364e-04  t[s]:    414.25
	FillingsUpdate:  mu: -0.145813480  nElectrons: 474.000000
SCF: Cycle:  5   F: -1766.872714072830149   dF: -1.622e-04   |Residual|: 1.479e-02   |deigs|: 4.260e-04  t[s]:    417.31
	FillingsUpdate:  mu: -0.145775720  nElectrons: 474.000000
SCF: Cycle:  6   F: -1766.873161053581043   dF: -4.470e-04   |Residual|: 6.866e-03   |deigs|: 3.129e-04  t[s]:    420.43
	FillingsUpdate:  mu: -0.145678675  nElectrons: 474.000000
SCF: Cycle:  7   F: -1766.873266189067863   dF: -1.051e-04   |Residual|: 5.093e-03   |deigs|: 2.074e-04  t[s]:    423.70
	FillingsUpdate:  mu: -0.145605766  nElectrons: 474.000000
SCF: Cycle:  8   F: -1766.873338373253773   dF: -7.218e-05   |Residual|: 4.664e-03   |deigs|: 1.777e-04  t[s]:    426.84
	FillingsUpdate:  mu: -0.145452899  nElectrons: 474.000000
SCF: Cycle:  9   F: -1766.873391160755091   dF: -5.279e-05   |Residual|: 3.132e-03   |deigs|: 2.455e-04  t[s]:    429.87
	FillingsUpdate:  mu: -0.145319860  nElectrons: 474.000000
SCF: Cycle: 10   F: -1766.873423845907610   dF: -3.269e-05   |Residual|: 2.077e-03   |deigs|: 1.715e-04  t[s]:    433.03
	FillingsUpdate:  mu: -0.145212349  nElectrons: 474.000000
SCF: Cycle: 11   F: -1766.873445506863618   dF: -2.166e-05   |Residual|: 1.944e-03   |deigs|: 1.224e-04  t[s]:    436.23
	FillingsUpdate:  mu: -0.145049940  nElectrons: 474.000000
SCF: Cycle: 12   F: -1766.873458086080291   dF: -1.258e-05   |Residual|: 1.625e-03   |deigs|: 1.704e-04  t[s]:    439.41
	FillingsUpdate:  mu: -0.144903414  nElectrons: 474.000000
SCF: Cycle: 13   F: -1766.873471177342253   dF: -1.309e-05   |Residual|: 1.345e-03   |deigs|: 1.537e-04  t[s]:    442.72
	FillingsUpdate:  mu: -0.144741321  nElectrons: 474.000000
SCF: Cycle: 14   F: -1766.873483012007682   dF: -1.183e-05   |Residual|: 9.076e-04   |deigs|: 1.734e-04  t[s]:    445.79
	FillingsUpdate:  mu: -0.144604702  nElectrons: 474.000000
SCF: Cycle: 15   F: -1766.873485835060364   dF: -2.823e-06   |Residual|: 8.685e-04   |deigs|: 1.532e-04  t[s]:    449.04
	FillingsUpdate:  mu: -0.144452433  nElectrons: 474.000000
SCF: Cycle: 16   F: -1766.873491123426447   dF: -5.288e-06   |Residual|: 7.057e-04   |deigs|: 1.736e-04  t[s]:    452.44
	FillingsUpdate:  mu: -0.144313032  nElectrons: 474.000000
SCF: Cycle: 17   F: -1766.873493691244903   dF: -2.568e-06   |Residual|: 6.760e-04   |deigs|: 1.490e-04  t[s]:    455.65
	FillingsUpdate:  mu: -0.144172746  nElectrons: 474.000000
SCF: Cycle: 18   F: -1766.873495568224371   dF: -1.877e-06   |Residual|: 5.482e-04   |deigs|: 1.497e-04  t[s]:    458.85
	FillingsUpdate:  mu: -0.144038289  nElectrons: 474.000000
SCF: Cycle: 19   F: -1766.873497434178944   dF: -1.866e-06   |Residual|: 4.928e-04   |deigs|: 1.379e-04  t[s]:    461.97
	FillingsUpdate:  mu: -0.143886958  nElectrons: 474.000000
SCF: Cycle: 20   F: -1766.873498663517921   dF: -1.229e-06   |Residual|: 4.320e-04   |deigs|: 1.531e-04  t[s]:    465.10
	FillingsUpdate:  mu: -0.143750572  nElectrons: 474.000000
SCF: Cycle: 21   F: -1766.873499426092394   dF: -7.626e-07   |Residual|: 3.678e-04   |deigs|: 1.374e-04  t[s]:    468.26
	FillingsUpdate:  mu: -0.143574421  nElectrons: 474.000000
SCF: Cycle: 22   F: -1766.873499802884453   dF: -3.768e-07   |Residual|: 3.261e-04   |deigs|: 1.874e-04  t[s]:    471.51
	FillingsUpdate:  mu: -0.143462782  nElectrons: 474.000000
SCF: Cycle: 23   F: -1766.873499889246887   dF: -8.636e-08   |Residual|: 2.566e-04   |deigs|: 1.215e-04  t[s]:    474.89
	FillingsUpdate:  mu: -0.143294417  nElectrons: 474.000000
SCF: Cycle: 24   F: -1766.873499824712781   dF: +6.453e-08   |Residual|: 2.455e-04   |deigs|: 1.923e-04  t[s]:    478.17
	FillingsUpdate:  mu: -0.143200913  nElectrons: 474.000000
SCF: Cycle: 25   F: -1766.873499737701422   dF: +8.701e-08   |Residual|: 2.565e-04   |deigs|: 1.081e-04  t[s]:    481.51
	FillingsUpdate:  mu: -0.143097291  nElectrons: 474.000000
SCF: Cycle: 26   F: -1766.873499903445463   dF: -1.657e-07   |Residual|: 1.952e-04   |deigs|: 1.261e-04  t[s]:    484.83
	FillingsUpdate:  mu: -0.143027025  nElectrons: 474.000000
SCF: Cycle: 27   F: -1766.873499946646461   dF: -4.320e-08   |Residual|: 1.954e-04   |deigs|: 9.368e-05  t[s]:    488.07
	FillingsUpdate:  mu: -0.142925313  nElectrons: 474.000000
SCF: Cycle: 28   F: -1766.873500078472716   dF: -1.318e-07   |Residual|: 1.857e-04   |deigs|: 1.480e-04  t[s]:    491.45
	FillingsUpdate:  mu: -0.142843184  nElectrons: 474.000000
SCF: Cycle: 29   F: -1766.873500292695553   dF: -2.142e-07   |Residual|: 1.663e-04   |deigs|: 1.133e-04  t[s]:    494.80
	FillingsUpdate:  mu: -0.142805835  nElectrons: 474.000000
SCF: Cycle: 30   F: -1766.873500382625934   dF: -8.993e-08   |Residual|: 1.467e-04   |deigs|: 5.502e-05  t[s]:    497.93
	FillingsUpdate:  mu: -0.142739282  nElectrons: 474.000000
SCF: Cycle: 31   F: -1766.873500532646403   dF: -1.500e-07   |Residual|: 1.298e-04   |deigs|: 1.000e-04  t[s]:    501.25
	FillingsUpdate:  mu: -0.142694744  nElectrons: 474.000000
SCF: Cycle: 32   F: -1766.873500640662769   dF: -1.080e-07   |Residual|: 1.133e-04   |deigs|: 6.197e-05  t[s]:    504.36
	FillingsUpdate:  mu: -0.142658575  nElectrons: 474.000000
SCF: Cycle: 33   F: -1766.873500724799214   dF: -8.414e-08   |Residual|: 8.870e-05   |deigs|: 5.806e-05  t[s]:    507.61
	FillingsUpdate:  mu: -0.142634248  nElectrons: 474.000000
SCF: Cycle: 34   F: -1766.873500764202845   dF: -3.940e-08   |Residual|: 8.145e-05   |deigs|: 3.865e-05  t[s]:    510.92
	FillingsUpdate:  mu: -0.142590487  nElectrons: 474.000000
SCF: Cycle: 35   F: -1766.873500833233493   dF: -6.903e-08   |Residual|: 6.846e-05   |deigs|: 7.462e-05  t[s]:    514.25
	FillingsUpdate:  mu: -0.142578970  nElectrons: 474.000000
SCF: Cycle: 36   F: -1766.873500848484809   dF: -1.525e-08   |Residual|: 5.580e-05   |deigs|: 2.439e-05  t[s]:    517.51
	FillingsUpdate:  mu: -0.142564611  nElectrons: 474.000000
SCF: Cycle: 37   F: -1766.873500866294080   dF: -1.781e-08   |Residual|: 5.032e-05   |deigs|: 3.539e-05  t[s]:    520.88
	FillingsUpdate:  mu: -0.142553604  nElectrons: 474.000000
SCF: Cycle: 38   F: -1766.873500875696891   dF: -9.403e-09   |Residual|: 4.704e-05   |deigs|: 3.104e-05  t[s]:    524.16
	FillingsUpdate:  mu: -0.142548891  nElectrons: 474.000000
SCF: Cycle: 39   F: -1766.873500883922361   dF: -8.225e-09   |Residual|: 3.167e-05   |deigs|: 2.287e-05  t[s]:    527.42
SCF: Converged (|Delta E|<1.000000e-08 for 2 iters).

Setting wave functions to eigenvectors of Hamiltonian
IonicMinimize: 	Predicted alpha/alphaT>3.000000, increasing alphaT to 1.243785e+01.

-------- Electronic minimization -----------
Will mix electronic density at each iteration.
	FillingsUpdate:  mu: -0.142548891  nElectrons: 474.000000
	FillingsUpdate:  mu: -0.149864602  nElectrons: 474.000000
SCF: Cycle:  0   F: -1766.483199398566740   dF: -3.274e-01   |Residual|: 4.473e-01   |deigs|: 6.905e-03  t[s]:    533.21
	FillingsUpdate:  mu: -0.149824115  nElectrons: 474.000000
SCF: Cycle:  1   F: -1766.768851782898309   dF: -2.857e-01   |Residual|: 2.431e-01   |deigs|: 5.732e-03  t[s]:    537.20
	FillingsUpdate:  mu: -0.149665723  nElectrons: 474.000000
SCF: Cycle:  2   F: -1766.726580728435010   dF: +4.227e-02   |Residual|: 2.265e-01   |deigs|: 4.626e-03  t[s]:    541.21
	FillingsUpdate:  mu: -0.148912782  nElectrons: 474.000000
SCF: Cycle:  3   F: -1766.861588696276385   dF: -1.350e-01   |Residual|: 8.643e-02   |deigs|: 2.904e-03  t[s]:    545.26
	FillingsUpdate:  mu: -0.148991125  nElectrons: 474.000000
SCF: Cycle:  4   F: -1766.874582198949156   dF: -1.299e-02   |Residual|: 4.182e-02   |deigs|: 1.127e-03  t[s]:    549.15
	FillingsUpdate:  mu: -0.148668346  nElectrons: 474.000000
SCF: Cycle:  5   F: -1766.875292717712910   dF: -7.105e-04   |Residual|: 3.219e-02   |deigs|: 9.572e-04  t[s]:    552.95
	FillingsUpdate:  mu: -0.148600580  nElectrons: 474.000000
SCF: Cycle:  6   F: -1766.877227109789828   dF: -1.934e-03   |Residual|: 1.562e-02   |deigs|: 6.582e-04  t[s]:    556.74
	FillingsUpdate:  mu: -0.148408205  nElectrons: 474.000000
SCF: Cycle:  7   F: -1766.877722344091580   dF: -4.952e-04   |Residual|: 1.122e-02   |deigs|: 4.422e-04  t[s]:    559.85
	FillingsUpdate:  mu: -0.148256301  nElectrons: 474.000000
SCF: Cycle:  8   F: -1766.878087899543289   dF: -3.656e-04   |Residual|: 9.432e-03   |deigs|: 3.388e-04  t[s]:    566.39
	FillingsUpdate:  mu: -0.147948723  nElectrons: 474.000000
SCF: Cycle:  9   F: -1766.878298330886309   dF: -2.104e-04   |Residual|: 6.472e-03   |deigs|: 4.756e-04  t[s]:    574.95
	FillingsUpdate:  mu: -0.147665622  nElectrons: 474.000000
SCF: Cycle: 10   F: -1766.878443400559490   dF: -1.451e-04   |Residual|: 4.315e-03   |deigs|: 3.459e-04  t[s]:    578.19
	FillingsUpdate:  mu: -0.147455946  nElectrons: 474.000000
SCF: Cycle: 11   F: -1766.878530170802378   dF: -8.677e-05   |Residual|: 4.140e-03   |deigs|: 2.357e-04  t[s]:    581.41
	FillingsUpdate:  mu: -0.147135152  nElectrons: 474.000000
SCF: Cycle: 12   F: -1766.878576311081815   dF: -4.614e-05   |Residual|: 3.415e-03   |deigs|: 3.275e-04  t[s]:    584.64
	FillingsUpdate:  mu: -0.146871470  nElectrons: 474.000000
SCF: Cycle: 13   F: -1766.878625837558502   dF: -4.953e-05   |Residual|: 2.816e-03   |deigs|: 2.849e-04  t[s]:    587.91
	FillingsUpdate:  mu: -0.146561363  nElectrons: 474.000000
SCF: Cycle: 14   F: -1766.878669965927429   dF: -4.413e-05   |Residual|: 1.815e-03   |deigs|: 3.323e-04  t[s]:    591.13
	FillingsUpdate:  mu: -0.146311669  nElectrons: 474.000000
SCF: Cycle: 15   F: -1766.878677102113443   dF: -7.136e-06   |Residual|: 1.947e-03   |deigs|: 2.652e-04  t[s]:    594.37
	FillingsUpdate:  mu: -0.145943929  nElectrons: 474.000000
SCF: Cycle: 16   F: -1766.878704106883333   dF: -2.700e-05   |Residual|: 1.297e-03   |deigs|: 3.956e-04  t[s]:    597.76
	FillingsUpdate:  mu: -0.145694705  nElectrons: 474.000000
SCF: Cycle: 17   F: -1766.878714901992453   dF: -1.080e-05   |Residual|: 1.259e-03   |deigs|: 2.478e-04  t[s]:    600.93
	FillingsUpdate:  mu: -0.145459314  nElectrons: 474.000000
SCF: Cycle: 18   F: -1766.878721446497821   dF: -6.545e-06   |Residual|: 1.164e-03   |deigs|: 2.330e-04  t[s]:    604.10
	FillingsUpdate:  mu: -0.145192095  nElectrons: 474.000000
SCF: Cycle: 19   F: -1766.878729378754997   dF: -7.932e-06   |Residual|: 1.065e-03   |deigs|: 2.606e-04  t[s]:    607.28
	FillingsUpdate:  mu: -0.144907249  nElectrons: 474.000000
SCF: Cycle: 20   F: -1766.878734289992053   dF: -4.911e-06   |Residual|: 9.221e-04   |deigs|: 2.839e-04  t[s]:    610.45
	FillingsUpdate:  mu: -0.144687594  nElectrons: 474.000000
SCF: Cycle: 21   F: -1766.878737426591442   dF: -3.137e-06   |Residual|: 6.683e-04   |deigs|: 2.144e-04  t[s]:    613.63
	FillingsUpdate:  mu: -0.144331264  nElectrons: 474.000000
SCF: Cycle: 22   F: -1766.878738125310747   dF: -6.987e-07   |Residual|: 7.379e-04   |deigs|: 3.572e-04  t[s]:    616.98
	FillingsUpdate:  mu: -0.144101894  nElectrons: 474.000000
SCF: Cycle: 23   F: -1766.878739053742265   dF: -9.284e-07   |Residual|: 5.002e-04   |deigs|: 2.347e-04  t[s]:    620.30
	FillingsUpdate:  mu: -0.143853411  nElectrons: 474.000000
SCF: Cycle: 24   F: -1766.878738766416973   dF: +2.873e-07   |Residual|: 4.797e-04   |deigs|: 2.602e-04  t[s]:    623.65
	FillingsUpdate:  mu: -0.143661271  nElectrons: 474.000000
SCF: Cycle: 25   F: -1766.878738340860764   dF: +4.256e-07   |Residual|: 5.104e-04   |deigs|: 2.042e-04  t[s]:    626.95
	FillingsUpdate:  mu: -0.143436134  nElectrons: 474.000000
SCF: Cycle: 26   F: -1766.878739004509043   dF: -6.636e-07   |Residual|: 3.844e-04   |deigs|: 2.497e-04  t[s]:    630.30
	FillingsUpdate:  mu: -0.143296418  nElectrons: 474.000000
SCF: Cycle: 27   F: -1766.878739288084034   dF: -2.836e-07   |Residual|: 3.544e-04   |deigs|: 1.603e-04  t[s]:    633.42
	FillingsUpdate:  mu: -0.143110057  nElectrons: 474.000000
SCF: Cycle: 28   F: -1766.878739681343177   dF: -3.933e-07   |Residual|: 3.890e-04   |deigs|: 2.288e-04  t[s]:    636.72
	FillingsUpdate:  mu: -0.142923403  nElectrons: 474.000000
SCF: Cycle: 29   F: -1766.878740638233694   dF: -9.569e-07   |Residual|: 3.003e-04   |deigs|: 2.293e-04  t[s]:    640.08
	FillingsUpdate:  mu: -0.142847257  nElectrons: 474.000000
SCF: Cycle: 30   F: -1766.878740931516859   dF: -2.933e-07   |Residual|: 2.815e-04   |deigs|: 9.694e-05  t[s]:    643.18
	FillingsUpdate:  mu: -0.142718905  nElectrons: 474.000000
SCF: Cycle: 31   F: -1766.878741446852700   dF: -5.153e-07   |Residual|: 2.639e-04   |deigs|: 1.761e-04  t[s]:    646.52
	FillingsUpdate:  mu: -0.142648019  nElectrons: 474.000000
SCF: Cycle: 32   F: -1766.878741698923477   dF: -2.521e-07   |Residual|: 2.314e-04   |deigs|: 8.806e-05  t[s]:    649.73
	FillingsUpdate:  mu: -0.142573754  nElectrons: 474.000000
SCF: Cycle: 33   F: -1766.878741980189943   dF: -2.813e-07   |Residual|: 1.688e-04   |deigs|: 1.118e-04  t[s]:    653.00
	FillingsUpdate:  mu: -0.142524844  nElectrons: 474.000000
SCF: Cycle: 34   F: -1766.878742102940805   dF: -1.228e-07   |Residual|: 1.513e-04   |deigs|: 7.044e-05  t[s]:    656.21
	FillingsUpdate:  mu: -0.142442640  nElectrons: 474.000000
SCF: Cycle: 35   F: -1766.878742251271206   dF: -1.483e-07   |Residual|: 1.261e-04   |deigs|: 1.324e-04  t[s]:    659.58
	FillingsUpdate:  mu: -0.142417837  nElectrons: 474.000000
SCF: Cycle: 36   F: -1766.878742286573925   dF: -3.530e-08   |Residual|: 9.971e-05   |deigs|: 4.233e-05  t[s]:    662.88
	FillingsUpdate:  mu: -0.142393507  nElectrons: 474.000000
SCF: Cycle: 37   F: -1766.878742318334389   dF: -3.176e-08   |Residual|: 8.712e-05   |deigs|: 5.375e-05  t[s]:    666.20
	FillingsUpdate:  mu: -0.142371470  nElectrons: 474.000000
SCF: Cycle: 38   F: -1766.878742333961554   dF: -1.563e-08   |Residual|: 7.705e-05   |deigs|: 4.834e-05  t[s]:    669.46
	FillingsUpdate:  mu: -0.142357127  nElectrons: 474.000000
SCF: Cycle: 39   F: -1766.878742352844029   dF: -1.888e-08   |Residual|: 5.602e-05   |deigs|: 5.000e-05  t[s]:    672.91
	FillingsUpdate:  mu: -0.142350429  nElectrons: 474.000000
SCF: Cycle: 40   F: -1766.878742363484889   dF: -1.064e-08   |Residual|: 3.918e-05   |deigs|: 2.657e-05  t[s]:    676.11
	FillingsUpdate:  mu: -0.142347787  nElectrons: 474.000000
SCF: Cycle: 41   F: -1766.878742367275663   dF: -3.791e-09   |Residual|: 4.459e-05   |deigs|: 1.886e-05  t[s]:    679.39
	FillingsUpdate:  mu: -0.142348204  nElectrons: 474.000000
SCF: Cycle: 42   F: -1766.878742375675984   dF: -8.400e-09   |Residual|: 2.426e-05   |deigs|: 1.810e-05  t[s]:    682.66
SCF: Converged (|Delta E|<1.000000e-08 for 2 iters).

Setting wave functions to eigenvectors of Hamiltonian

-------- Electronic minimization -----------
Will mix electronic density at each iteration.
	FillingsUpdate:  mu: -0.142348204  nElectrons: 474.000000
	FillingsUpdate:  mu: -0.146212859  nElectrons: 474.000000
SCF: Cycle:  0   F: -1766.760287686674019   dF: -1.071e-01   |Residual|: 2.434e-01   |deigs|: 2.170e-03  t[s]:    688.35
	FillingsUpdate:  mu: -0.146256217  nElectrons: 474.000000
SCF: Cycle:  1   F: -1766.846880817078045   dF: -8.659e-02   |Residual|: 1.309e-01   |deigs|: 2.335e-03  t[s]:    692.30
	FillingsUpdate:  mu: -0.146062367  nElectrons: 474.000000
SCF: Cycle:  2   F: -1766.836276898020287   dF: +1.060e-02   |Residual|: 1.195e-01   |deigs|: 2.090e-03  t[s]:    696.29
	FillingsUpdate:  mu: -0.145796632  nElectrons: 474.000000
SCF: Cycle:  3   F: -1766.875112188002731   dF: -3.884e-02   |Residual|: 4.275e-02   |deigs|: 1.067e-03  t[s]:    700.23
	FillingsUpdate:  mu: -0.145805436  nElectrons: 474.000000
SCF: Cycle:  4   F: -1766.878169612602051   dF: -3.057e-03   |Residual|: 2.252e-02   |deigs|: 5.058e-04  t[s]:    703.84
	FillingsUpdate:  mu: -0.145633280  nElectrons: 474.000000
SCF: Cycle:  5   F: -1766.878345235810002   dF: -1.756e-04   |Residual|: 1.737e-02   |deigs|: 4.735e-04  t[s]:    706.95
	FillingsUpdate:  mu: -0.145584651  nElectrons: 474.000000
SCF: Cycle:  6   F: -1766.878947320407406   dF: -6.021e-04   |Residual|: 7.701e-03   |deigs|: 3.506e-04  t[s]:    710.00
	FillingsUpdate:  mu: -0.145481218  nElectrons: 474.000000
SCF: Cycle:  7   F: -1766.879068127660275   dF: -1.208e-04   |Residual|: 5.870e-03   |deigs|: 2.232e-04  t[s]:    713.14
	FillingsUpdate:  mu: -0.145403014  nElectrons: 474.000000
SCF: Cycle:  8   F: -1766.879171177541366   dF: -1.030e-04   |Residual|: 5.233e-03   |deigs|: 1.875e-04  t[s]:    716.22
	FillingsUpdate:  mu: -0.145225391  nElectrons: 474.000000
SCF: Cycle:  9   F: -1766.879247084734061   dF: -7.591e-05   |Residual|: 3.511e-03   |deigs|: 2.796e-04  t[s]:    719.34
	FillingsUpdate:  mu: -0.145088163  nElectrons: 474.000000
SCF: Cycle: 10   F: -1766.879286414453190   dF: -3.933e-05   |Residual|: 2.440e-03   |deigs|: 1.774e-04  t[s]:    722.51
	FillingsUpdate:  mu: -0.144981732  nElectrons: 474.000000
SCF: Cycle: 11   F: -1766.879313013256024   dF: -2.660e-05   |Residual|: 2.281e-03   |deigs|: 1.247e-04  t[s]:    725.60
	FillingsUpdate:  mu: -0.144828127  nElectrons: 474.000000
SCF: Cycle: 12   F: -1766.879330489032327   dF: -1.748e-05   |Residual|: 1.887e-03   |deigs|: 1.645e-04  t[s]:    728.81
	FillingsUpdate:  mu: -0.144668505  nElectrons: 474.000000
SCF: Cycle: 13   F: -1766.879346597658923   dF: -1.611e-05   |Residual|: 1.528e-03   |deigs|: 1.711e-04  t[s]:    731.95
	FillingsUpdate:  mu: -0.144494284  nElectrons: 474.000000
SCF: Cycle: 14   F: -1766.879362738636701   dF: -1.614e-05   |Residual|: 1.043e-03   |deigs|: 1.872e-04  t[s]:    735.15
	FillingsUpdate:  mu: -0.144370287  nElectrons: 474.000000
SCF: Cycle: 15   F: -1766.879366309931811   dF: -3.571e-06   |Residual|: 9.846e-04   |deigs|: 1.350e-04  t[s]:    738.42
	FillingsUpdate:  mu: -0.144206850  nElectrons: 474.000000
SCF: Cycle: 16   F: -1766.879372736607820   dF: -6.427e-06   |Residual|: 7.889e-04   |deigs|: 1.848e-04  t[s]:    741.80
	FillingsUpdate:  mu: -0.144062374  nElectrons: 474.000000
SCF: Cycle: 17   F: -1766.879376157554589   dF: -3.421e-06   |Residual|: 7.472e-04   |deigs|: 1.558e-04  t[s]:    745.05
	FillingsUpdate:  mu: -0.143924523  nElectrons: 474.000000
SCF: Cycle: 18   F: -1766.879378457526400   dF: -2.300e-06   |Residual|: 5.898e-04   |deigs|: 1.465e-04  t[s]:    748.14
	FillingsUpdate:  mu: -0.143800698  nElectrons: 474.000000
SCF: Cycle: 19   F: -1766.879380612279419   dF: -2.155e-06   |Residual|: 5.627e-04   |deigs|: 1.250e-04  t[s]:    751.30
	FillingsUpdate:  mu: -0.143635280  nElectrons: 474.000000
SCF: Cycle: 20   F: -1766.879382456068242   dF: -1.844e-06   |Residual|: 4.783e-04   |deigs|: 1.668e-04  t[s]:    754.57
	FillingsUpdate:  mu: -0.143491617  nElectrons: 474.000000
SCF: Cycle: 21   F: -1766.879383555795130   dF: -1.100e-06   |Residual|: 3.835e-04   |deigs|: 1.433e-04  t[s]:    757.78
	FillingsUpdate:  mu: -0.143343680  nElectrons: 474.000000
SCF: Cycle: 22   F: -1766.879384007853787   dF: -4.521e-07   |Residual|: 3.570e-04   |deigs|: 1.532e-04  t[s]:    760.98
	FillingsUpdate:  mu: -0.143227107  nElectrons: 474.000000
SCF: Cycle: 23   F: -1766.879384174849065   dF: -1.670e-07   |Residual|: 2.840e-04   |deigs|: 1.236e-04  t[s]:    764.31
	FillingsUpdate:  mu: -0.143081632  nElectrons: 474.000000
SCF: Cycle: 24   F: -1766.879384104516248   dF: +7.033e-08   |Residual|: 2.930e-04   |deigs|: 1.634e-04  t[s]:    767.65
	FillingsUpdate:  mu: -0.142989162  nElectrons: 474.000000
SCF: Cycle: 25   F: -1766.879384076608403   dF: +2.791e-08   |Residual|: 2.494e-04   |deigs|: 1.069e-04  t[s]:    770.98
	FillingsUpdate:  mu: -0.142871087  nElectrons: 474.000000
SCF: Cycle: 26   F: -1766.879384107578517   dF: -3.097e-08   |Residual|: 2.228e-04   |deigs|: 1.411e-04  t[s]:    776.12
	FillingsUpdate:  mu: -0.142788522  nElectrons: 474.000000
SCF: Cycle: 27   F: -1766.879384113464766   dF: -5.886e-09   |Residual|: 2.065e-04   |deigs|: 1.069e-04  t[s]:    780.37
	FillingsUpdate:  mu: -0.142699936  nElectrons: 474.000000
SCF: Cycle: 28   F: -1766.879384157299910   dF: -4.384e-08   |Residual|: 1.980e-04   |deigs|: 1.193e-04  t[s]:    788.48
	FillingsUpdate:  mu: -0.142611053  nElectrons: 474.000000
SCF: Cycle: 29   F: -1766.879384347026644   dF: -1.897e-07   |Residual|: 1.896e-04   |deigs|: 1.187e-04  t[s]:    794.82
	FillingsUpdate:  mu: -0.142554922  nElectrons: 474.000000
SCF: Cycle: 30   F: -1766.879384473534856   dF: -1.265e-07   |Residual|: 1.668e-04   |deigs|: 7.649e-05  t[s]:    798.13
	FillingsUpdate:  mu: -0.142487262  nElectrons: 474.000000
SCF: Cycle: 31   F: -1766.879384635118413   dF: -1.616e-07   |Residual|: 1.507e-04   |deigs|: 9.517e-05  t[s]:    801.52
	FillingsUpdate:  mu: -0.142434126  nElectrons: 474.000000
SCF: Cycle: 32   F: -1766.879384780816508   dF: -1.457e-07   |Residual|: 1.260e-04   |deigs|: 7.105e-05  t[s]:    804.80
	FillingsUpdate:  mu: -0.142380558  nElectrons: 474.000000
SCF: Cycle: 33   F: -1766.879384907641679   dF: -1.268e-07   |Residual|: 1.139e-04   |deigs|: 7.872e-05  t[s]:    808.03
	FillingsUpdate:  mu: -0.142345853  nElectrons: 474.000000
SCF: Cycle: 34   F: -1766.879384975800804   dF: -6.816e-08   |Residual|: 9.469e-05   |deigs|: 4.970e-05  t[s]:    811.22
	FillingsUpdate:  mu: -0.142302225  nElectrons: 474.000000
SCF: Cycle: 35   F: -1766.879385054887280   dF: -7.909e-08   |Residual|: 9.192e-05   |deigs|: 7.046e-05  t[s]:    814.57
	FillingsUpdate:  mu: -0.142283450  nElectrons: 474.000000
SCF: Cycle: 36   F: -1766.879385085695503   dF: -3.081e-08   |Residual|: 7.529e-05   |deigs|: 3.304e-05  t[s]:    817.75
	FillingsUpdate:  mu: -0.142260984  nElectrons: 474.000000
SCF: Cycle: 37   F: -1766.879385122176927   dF: -3.648e-08   |Residual|: 6.617e-05   |deigs|: 4.941e-05  t[s]:    821.14
	FillingsUpdate:  mu: -0.142245433  nElectrons: 474.000000
SCF: Cycle: 38   F: -1766.879385143419540   dF: -2.124e-08   |Residual|: 5.815e-05   |deigs|: 3.846e-05  t[s]:    824.36
	FillingsUpdate:  mu: -0.142236841  nElectrons: 474.000000
SCF: Cycle: 39   F: -1766.879385156717490   dF: -1.330e-08   |Residual|: 4.645e-05   |deigs|: 3.080e-05  t[s]:    829.89
	FillingsUpdate:  mu: -0.142232218  nElectrons: 474.000000
SCF: Cycle: 40   F: -1766.879385166521160   dF: -9.804e-09   |Residual|: 3.954e-05   |deigs|: 2.352e-05  t[s]:    836.16
	FillingsUpdate:  mu: -0.142230509  nElectrons: 474.000000
SCF: Cycle: 41   F: -1766.879385170752812   dF: -4.232e-09   |Residual|: 3.992e-05   |deigs|: 1.667e-05  t[s]:    839.36
SCF: Converged (|Delta E|<1.000000e-08 for 2 iters).

Setting wave functions to eigenvectors of Hamiltonian

# Ionic positions in cartesian coordinates:
ion Ti   0.000000174975000  -0.000000174975000   2.000000000000000 0
[...]
ion O  23.392438720575004   6.030619584825001   2.000000000000000 0
ion O  19.051993472774999   6.990734705924999   4.795024053800001 0
ion O  24.352553841675000   1.690174337025000   4.795024053800001 0
ion O  20.012108593874995  11.331198851025000   2.000000000000000 0
ion O  23.392438720575004  14.711528977725004   2.000000000000000 0
ion O  19.051993472774999  15.671644098825000   4.795024053800001 0
ion O  24.352553841675000  10.371083729925001   4.795024053800001 0
ion O  20.012108593874995  20.012108243924999   2.000000000000000 0
ion O  23.392438720575004  23.392438370625001   2.000000000000000 0
ion O  19.051993472774999  24.352553491725004   4.795024053800001 0
ion O  24.352553841675000  19.051993122824996   4.795024053800001 0
ion S  22.745450120190423  13.018101953150991   9.500890380297559 1
ion S  20.874129697906678  15.548399942944354  11.895191568219325 1
ion S  22.539862274232629  19.169479355866848  11.895185923930731 1
ion S  20.666179935006930  21.706383637949468   9.508053691590440 1
ion Na  17.702114816189994  17.641625430483654   8.225050095212863 1
ion Na  25.711153448040093  17.095722662225029   8.224542657412936 1

# Forces in Cartesian coordinates:
force Ti  -0.005283662466877  -0.001848713495651   0.128313055141455 0
force Ti  -0.002029156876296   0.000059322721567  -0.126976497702402 0
force Ti  -0.004118796352350   0.000280997361657   0.131116607556278 0
force Ti   0.007580502197554  -0.011756191045655  -0.133300076220506 0
force Ti  -0.006788186362431   0.000977015492493   0.113490876801045 0
force Ti   0.002043180701626   0.007253966205513  -0.131172480103661 0
force Ti  -0.000240888342745   0.001961606188895   0.128200143163435 0
force Ti   0.001936532661170  -0.000123855561494  -0.126961792984869 0
force Ti   0.000151633384532  -0.001872879930578   0.128295776113251 0
force Ti  -0.002106017827202  -0.007405946393407  -0.131147816806465 0
force Ti  -0.000066952097205  -0.000125787204856   0.127101102862284 0
force Ti  -0.007722431718335   0.011548728880041  -0.133234896692781 0
force Ti   0.004175664389535  -0.000159641897986   0.131103461432333 0
force Ti  -0.000135297186224  -0.000046446509459  -0.124560115175719 0
force Ti   0.005361223780340   0.001985485323137   0.128499910671278 0
force Ti   0.004029662087180  -0.008873270625992  -0.097776042412160 0
force Ti   0.006791903416593  -0.001253123383485   0.113595937382138 0
force Ti  -0.004315985158534   0.008786244796581  -0.097656399948736 0
force O  -0.017568171006243  -0.018108449297854   0.015921017501803 0
force O   0.020160542501146   0.020323472301888   0.014896881327998 0
force O   0.020585429259178  -0.020033256071648  -0.015825552458929 0
force O  -0.018689448001316   0.018777201230331  -0.015986701377982 0
force O  -0.016597812631021  -0.015948118691570   0.017125753322300 0
force O   0.018637229439025   0.019574330192591   0.016286544210661 0
force O   0.022216447585100  -0.018209103228325  -0.004570179432766 0
force O  -0.021077580491270   0.021656770580057  -0.014120415838253 0
force O  -0.019829074730228  -0.021035185122996   0.016164086791533 0
force O   0.019269385693332   0.018594713718850   0.015431022384231 0
force O   0.022115803116380  -0.022258876248536  -0.014091651415098 0
force O  -0.020327480331855   0.018873071690896  -0.013261758107070 0
force O  -0.020085504719076  -0.020206878470488   0.014915371012365 0
force O   0.017713024375522   0.018248973376533   0.015908988163497 0
force O   0.018639016310036  -0.018690915503391  -0.016038459133455 0
force O  -0.020563047554212   0.020056698193687  -0.015823314257953 0
force O  -0.019281261381197  -0.018682316823398   0.015500833383316 0
force O   0.019947996355538   0.021138493474185   0.016136059158304 0
force O   0.020317592302659  -0.018844664389337  -0.013279998577866 0
force O  -0.021964225849331   0.022045048270474  -0.014227404923054 0
force O  -0.018589219728812  -0.019505548932279   0.016309702208373 0
force O   0.016670580224530   0.015900386767782   0.017054814141161 0
force O   0.021160263181609  -0.021798334875555  -0.014049781431337 0
force O  -0.022103656018305   0.018191240749043  -0.004565782964167 0
force O  -0.019638126492599  -0.019124250883386   0.014963602498624 0
force O   0.019606417708081   0.019186746320121   0.014902528247966 0
force O   0.018459297952357  -0.019761479124195  -0.017666399664776 0
force O  -0.018646874098339   0.019901500691221  -0.017547356602670 0
force O  -0.027421473549217  -0.026330731229170   0.008244079141363 0
force O   0.027409482267099   0.027530235352369   0.010337075451911 0
force O   0.009992584640887  -0.012013906008150  -0.018043332810999 0
force O  -0.012378807832164   0.012916693376535  -0.024933268162218 0
force O  -0.027434385415282  -0.027477597622778   0.010441209550126 0
force O   0.027256495309082   0.026136790393655   0.008183374884331 0
force O   0.012345787533563  -0.013054153686651  -0.024895400274079 0
force O  -0.010193719531084   0.012189159830905  -0.018060096203020 0
force S   0.000034584641224  -0.000050899604976   0.000348776790013 1
force S  -0.000023298405136  -0.000144857048558  -0.000101257901056 1
force S  -0.000063832728961   0.000295436926309   0.000034425630427 1
force S   0.000114963565890   0.000019720702996   0.000145167683525 1
force Na  -0.000064708892374  -0.000195204371468   0.000041465287202 1
force Na   0.000003416207809  -0.000082824501842   0.000121682137568 1

# Energy components:
   Eewald =    -3637.5599699895406047
       EH =    -2164.3008314110834363
     Eloc =     3764.6050494096739385
      Enl =       41.7515318341322370
      Exc =     -322.0450253230067119
 Exc_core =       32.9823455635366756
       KE =      517.7331122462638859
-------------------------------------
     Etot =    -1766.8337876700243214
       TS =        0.0887838563598548
-------------------------------------
        F =    -1766.9225715263842176

IonicMinimize: Iter:  48  F: -1766.922571526384218  |grad|_K:  1.395e-04  alpha:  4.383e+00  linmin:  4.746e-06  t[s]:   7833.37

#--- Lowdin population analysis ---
# oxidation-state Ti +1.588 +1.590 +1.583 +1.581 +1.595 +1.566 +1.586 +1.590 +1.586 +1.566 +1.587 +1.581 +1.583 +1.599 +1.588 +1.567 +1.595 +1.567
# oxidation-state O -0.744 -0.742 -0.738 -0.742 -0.741 -0.743 -0.816 -0.740 -0.745 -0.740 -0.737 -0.751 -0.742 -0.744 -0.741 -0.738 -0.740 -0.745 -0.751 -0.737 -0.743 -0.741 -0.740 -0.816 -0.741 -0.741 -0.730 -0.730 -0.767 -0.761 -0.801 -0.712 -0.761 -0.767 -0.712 -0.801
# oxidation-state S -0.414 +0.024 +0.023 -0.414
# oxidation-state Na +0.705 +0.705


-------- Electronic minimization -----------
Will mix electronic density at each iteration.
	FillingsUpdate:  mu: -0.145578789  nElectrons: 474.000000
	FillingsUpdate:  mu: -0.145601711  nElectrons: 474.000000
SCF: Cycle:  0   F: -1766.922570783888204   dF: -1.368e-06   |Residual|: 6.234e-04   |deigs|: 3.607e-08  t[s]:   7837.14
	FillingsUpdate:  mu: -0.145599193  nElectrons: 474.000000
SCF: Cycle:  1   F: -1766.922571711492765   dF: -9.276e-07   |Residual|: 4.319e-04   |deigs|: 1.520e-05  t[s]:   7839.55
	FillingsUpdate:  mu: -0.145598892  nElectrons: 474.000000
SCF: Cycle:  2   F: -1766.922571827697084   dF: -1.162e-07   |Residual|: 2.557e-04   |deigs|: 1.199e-05  t[s]:   7841.95
	FillingsUpdate:  mu: -0.145598336  nElectrons: 474.000000
SCF: Cycle:  3   F: -1766.922572090650419   dF: -2.630e-07   |Residual|: 1.187e-04   |deigs|: 5.746e-06  t[s]:   7844.35
	FillingsUpdate:  mu: -0.145597757  nElectrons: 474.000000
SCF: Cycle:  4   F: -1766.922572122329029   dF: -3.168e-08   |Residual|: 6.415e-05   |deigs|: 2.411e-06  t[s]:   7846.77
	FillingsUpdate:  mu: -0.145597514  nElectrons: 474.000000
SCF: Cycle:  5   F: -1766.922572128418096   dF: -6.089e-09   |Residual|: 4.097e-05   |deigs|: 1.932e-06  t[s]:   7849.19
	FillingsUpdate:  mu: -0.145596988  nElectrons: 474.000000
SCF: Cycle:  6   F: -1766.922572140359534   dF: -1.194e-08   |Residual|: 2.172e-05   |deigs|: 2.007e-06  t[s]:   7852.03
	FillingsUpdate:  mu: -0.145596558  nElectrons: 474.000000
SCF: Cycle:  7   F: -1766.922572142504805   dF: -2.145e-09   |Residual|: 1.649e-05   |deigs|: 1.564e-06  t[s]:   7854.44
	FillingsUpdate:  mu: -0.145596114  nElectrons: 474.000000
SCF: Cycle:  8   F: -1766.922572145153026   dF: -2.648e-09   |Residual|: 1.341e-05   |deigs|: 1.689e-06  t[s]:   7857.33
SCF: Converged (|Delta E|<1.000000e-08 for 2 iters).

Setting wave functions to eigenvectors of Hamiltonian

-------- Electronic minimization -----------
Will mix electronic density at each iteration.
	FillingsUpdate:  mu: -0.145596114  nElectrons: 474.000000
	FillingsUpdate:  mu: -0.145581436  nElectrons: 474.000000
SCF: Cycle:  0   F: -1766.922571694947237   dF: +3.919e-07   |Residual|: 2.346e-04   |deigs|: 1.413e-08  t[s]:   7861.43
	FillingsUpdate:  mu: -0.145583391  nElectrons: 474.000000
SCF: Cycle:  1   F: -1766.922571891547250   dF: -1.966e-07   |Residual|: 3.087e-04   |deigs|: 1.204e-05  t[s]:   7863.84
	FillingsUpdate:  mu: -0.145583488  nElectrons: 474.000000
SCF: Cycle:  2   F: -1766.922572114124478   dF: -2.226e-07   |Residual|: 5.273e-05   |deigs|: 7.116e-06  t[s]:   7866.24
	FillingsUpdate:  mu: -0.145583847  nElectrons: 474.000000
SCF: Cycle:  3   F: -1766.922572128534966   dF: -1.441e-08   |Residual|: 4.686e-05   |deigs|: 1.801e-06  t[s]:   7868.66
	FillingsUpdate:  mu: -0.145584464  nElectrons: 474.000000
SCF: Cycle:  4   F: -1766.922572142354284   dF: -1.382e-08   |Residual|: 2.764e-05   |deigs|: 1.861e-06  t[s]:   7871.05
	FillingsUpdate:  mu: -0.145584771  nElectrons: 474.000000
SCF: Cycle:  5   F: -1766.922572148384461   dF: -6.030e-09   |Residual|: 2.120e-05   |deigs|: 1.535e-06  t[s]:   7873.45
	FillingsUpdate:  mu: -0.145585271  nElectrons: 474.000000
SCF: Cycle:  6   F: -1766.922572154810950   dF: -6.426e-09   |Residual|: 1.318e-05   |deigs|: 2.018e-06  t[s]:   7876.27
SCF: Converged (|Delta E|<1.000000e-08 for 2 iters).

Setting wave functions to eigenvectors of Hamiltonian

# Ionic positions in cartesian coordinates:
ion Ti   0.000000174975000  -0.000000174975000   2.000000000000000 0
ion Ti   4.340445422775000   4.340445072825000   4.795024053800001 0
ion Ti   0.000000174975000   8.680909217924999   2.000000000000000 0
ion Ti   4.340445422775000  13.021354465725000   4.795024053800001 0
ion Ti   0.000000174975000  17.361818610825001   2.000000000000000 0
ion Ti   4.340445422775000  21.702263858624999   4.795024053800001 0
ion Ti   8.680909567874998  -0.000000174975000   2.000000000000000 0
ion Ti  13.021354815675002   4.340445072825000   4.795024053800001 0
ion Ti   8.680909567874998   8.680909217924999   2.000000000000000 0
ion Ti  13.021354815675002  13.021354465725000   4.795024053800001 0
ion Ti   8.680909567874998  17.361818610825001   2.000000000000000 0
ion Ti  13.021364264325003  21.702263858624999   4.795024053800001 0
ion Ti  17.361818960775000  -0.000000174975000   2.000000000000000 0
ion Ti  21.702264208574999   4.340445072825000   4.795024053800001 0
ion Ti  17.361818960775000   8.680909217924999   2.000000000000000 0
ion Ti  21.702264208574999  13.021363914375000   4.795024053800001 0
ion Ti  17.361818960775000  17.361818610825001   2.000000000000000 0
ion Ti  21.702264208574999  21.702263858624999   4.795024053800001 0
ion O   2.650289808075000   2.650289458125000   2.000000000000000 0
ion O   6.030619934775000   6.030619584825001   2.000000000000000 0
ion O   1.690174686975000   6.990734705924999   4.795024053800001 0
ion O   6.990735055874999   1.690174337025000   4.795024053800001 0
ion O   2.650289808075000  11.331198851025000   2.000000000000000 0
ion O   6.030619934775000  14.711528977725004   2.000000000000000 0
ion O   1.690174686975000  15.671644098825000   4.795024053800001 0
ion O   6.990735055874999  10.371083729925001   4.795024053800001 0
ion O   2.650289808075000  20.012108243924999   2.000000000000000 0
ion O   6.030619934775000  23.392438370625001   2.000000000000000 0
ion O   1.690174686975000  24.352553491725004   4.795024053800001 0
ion O   6.990735055874999  19.051993122824996   4.795024053800001 0
ion O  11.331199200975000   2.650289458125000   2.000000000000000 0
ion O  14.711529327675001   6.030619584825001   2.000000000000000 0
ion O  10.371084079875001   6.990734705924999   4.795024053800001 0
ion O  15.671644448774998   1.690174337025000   4.795024053800001 0
ion O  11.331199200975000  11.331198851025000   2.000000000000000 0
ion O  14.711529327675001  14.711528977725004   2.000000000000000 0
ion O  10.371084079875001  15.671644098825000   4.795024053800001 0
ion O  15.671644448774998  10.371083729925001   4.795024053800001 0
ion O  11.331199200975000  20.012108243924999   2.000000000000000 0
ion O  14.711529327675001  23.392438370625001   2.000000000000000 0
ion O  10.371084079875001  24.352553491725004   4.795024053800001 0
ion O  15.671644448774998  19.051993122824996   4.795024053800001 0
ion O  20.012108593874995   2.650289458125000   2.000000000000000 0
ion O  23.392438720575004   6.030619584825001   2.000000000000000 0
ion O  19.051993472774999   6.990734705924999   4.795024053800001 0
ion O  24.352553841675000   1.690174337025000   4.795024053800001 0
ion O  20.012108593874995  11.331198851025000   2.000000000000000 0
ion O  23.392438720575004  14.711528977725004   2.000000000000000 0
ion O  19.051993472774999  15.671644098825000   4.795024053800001 0
ion O  24.352553841675000  10.371083729925001   4.795024053800001 0
ion O  20.012108593874995  20.012108243924999   2.000000000000000 0
ion O  23.392438720575004  23.392438370625001   2.000000000000000 0
ion O  19.051993472774999  24.352553491725004   4.795024053800001 0
ion O  24.352553841675000  19.051993122824996   4.795024053800001 0
ion S  22.743966061005754  13.017933191613876   9.502796814073211 1
ion S  20.872934799600319  15.549648356899830  11.895525381920391 1
ion S  22.540968617322864  19.170515249825041  11.893376200714412 1
ion S  20.667108485745278  21.707589784556042   9.509451864143713 1
ion Na  17.702908688122200  17.639459650466804   8.225088805682521 1
ion Na  25.713145176700394  17.096307047684896   8.224609944602024 1

# Forces in Cartesian coordinates:
force Ti  -0.005283393451776  -0.001842363122121   0.128324616226324 0
force Ti  -0.002030470530456   0.000059257691220  -0.126958000292155 0
force Ti  -0.004123795274032   0.000278915563020   0.131130160164034 0
force Ti   0.007584686135300  -0.011765794746356  -0.133288386060482 0
force Ti  -0.006793751537993   0.000979146005014   0.113498534820172 0
force Ti   0.002048223732097   0.007262690666334  -0.131160357441800 0
force Ti  -0.000236167029959   0.001962072128257   0.128208506491945 0
force Ti   0.001941857665734  -0.000127424629779  -0.126943046430272 0
force Ti   0.000154984065864  -0.001874881950603   0.128303757763057 0
force Ti  -0.002104137323290  -0.007405250418225  -0.131132936595218 0
force Ti  -0.000060665187077  -0.000125494075548   0.127109719407323 0
force Ti  -0.007708956139111   0.011545401359189  -0.133205045023957 0
force Ti   0.004178529323486  -0.000161548475855   0.131118539458861 0
force Ti  -0.000139165023985  -0.000047269795292  -0.124538758992776 0
force Ti   0.005356201242951   0.001977907129117   0.128515444613459 0
force Ti   0.004050657152675  -0.008890194930305  -0.097693265833722 0
force Ti   0.006782300734465  -0.001244435374885   0.113610551744161 0
force Ti  -0.004340331639823   0.008803513016878  -0.097598425768423 0
force O  -0.017572990045726  -0.018112856767491   0.015925890369068 0
force O   0.020164823679792   0.020326420347649   0.014901694713706 0
force O   0.020580839795036  -0.020030963351776  -0.015817265818551 0
force O  -0.018686053010359   0.018774317269345  -0.015980935147447 0
force O  -0.016599587101762  -0.015948113810724   0.017135156645564 0
force O   0.018639718934851   0.019576647543627   0.016294588717520 0
force O   0.022219477383277  -0.018216149979517  -0.004564673029128 0
force O  -0.021077379005670   0.021656877983113  -0.014113553115991 0
force O  -0.019833194135466  -0.021037922138885   0.016170879203994 0
force O   0.019271796712008   0.018596421239838   0.015437633787677 0
force O   0.022112591479492  -0.022258915715014  -0.014081692842674 0
force O  -0.020326613950528   0.018872625025921  -0.013252411869086 0
force O  -0.020087555390614  -0.020211541036019   0.014919693197193 0
force O   0.017718980955492   0.018253263303721   0.015913567407128 0
force O   0.018637444958641  -0.018687620982345  -0.016033934134928 0
force O  -0.020560125139378   0.020054370825571  -0.015811625617132 0
force O  -0.019282118884208  -0.018685306740396   0.015506679165985 0
force O   0.019951412092621   0.021139562898617   0.016143938618233 0
force O   0.020317867634985  -0.018840891640399  -0.013274405200586 0
force O  -0.021959601938820   0.022045093624303  -0.014218384986400 0
force O  -0.018592452945907  -0.019510015388297   0.016315117410722 0
force O   0.016672980926737   0.015901798070949   0.017062614823085 0
force O   0.021160348112191  -0.021795306277685  -0.014043279556344 0
force O  -0.022077331658864   0.018177354789763  -0.004528237665803 0
force O  -0.019640278417221  -0.019125457904932   0.014970609400500 0
force O   0.019607887989424   0.019189766556644   0.014908145842826 0
force O   0.018455834462486  -0.019757766089685  -0.017658586791945 0
force O  -0.018646405938723   0.019896904014406  -0.017538662986365 0
force O  -0.027413391440447  -0.026319262154302   0.008266318737059 0
force O   0.027405707064690   0.027530237790749   0.010351139397626 0
force O   0.010010969147168  -0.012032444871006  -0.018052384901017 0
force O  -0.012386519927846   0.012925772450501  -0.024918325879447 0
force O  -0.027432799243787  -0.027476941405924   0.010453963757585 0
force O   0.027248952392625   0.026131112945904   0.008200344128336 0
force O   0.012343528307751  -0.013054917437864  -0.024886020586424 0
force O  -0.010199040554668   0.012180958798756  -0.018027019874194 0
force S   0.000033826936931  -0.000012987363394   0.000257820369818 1
force S   0.000028345713911  -0.000133643297443  -0.000094231300800 1
force S  -0.000011290899320   0.000195297380210   0.000180631646588 1
force S   0.000029483249538   0.000059722490380  -0.000031400159928 1
force Na  -0.000080680080107  -0.000109044044851   0.000048614911790 1
force Na  -0.000058823158213  -0.000120249679937   0.000145167686897 1

# Energy components:
   Eewald =    -3637.6136091911730546
       EH =    -2164.3590377198065653
     Eloc =     3764.7168275462081510
      Enl =       41.7516290651742850
      Exc =     -322.0449781220123100
 Exc_core =       32.9823455989117349
       KE =      517.7330422757191855
-------------------------------------
     Etot =    -1766.8337805469782325
       TS =        0.0887916078326671
-------------------------------------
        F =    -1766.9225721548109505


Dumping 'Na2S4@TiO2.fillings' ... done
Dumping 'Na2S4@TiO2.wfns' ... done
Dumping 'Na2S4@TiO2.ionpos' ... done
Dumping 'Na2S4@TiO2.eigenvals' ... done
IonicMinimize: Iter:  49  F: -1766.922572154810950  |grad|_K:  1.134e-04  alpha:  3.698e+00  linmin: -4.200e-05  t[s]:   7879.23
IonicMinimize: Converged (|Delta F|<1.000000e-06 for 2 iters).

#--- Lowdin population analysis ---
# oxidation-state Ti +1.588 +1.590 +1.583 +1.581 +1.595 +1.566 +1.586 +1.590 +1.586 +1.566 +1.587 +1.581 +1.583 +1.599 +1.588 +1.567 +1.595 +1.567
# oxidation-state O -0.744 -0.742 -0.738 -0.742 -0.741 -0.743 -0.816 -0.740 -0.745 -0.740 -0.737 -0.751 -0.742 -0.744 -0.741 -0.738 -0.740 -0.745 -0.751 -0.737 -0.743 -0.741 -0.740 -0.816 -0.741 -0.741 -0.730 -0.730 -0.767 -0.761 -0.801 -0.712 -0.761 -0.767 -0.712 -0.801
# oxidation-state S -0.414 +0.023 +0.023 -0.414
# oxidation-state Na +0.705 +0.705


Dumping 'Na2S4@TiO2.fillings' ... done
Dumping 'Na2S4@TiO2.wfns' ... done
Dumping 'Na2S4@TiO2.ionpos' ... done
Dumping 'Na2S4@TiO2.eigenvals' ... done
End date and time: Wed Sep 25 06:33:51 2024  (Duration: 0-2:11:21.22)
Done!
