
*************** JDFTx 1.7.0  ***************

Start date and time: Wed Sep 25 08:01:43 2024
Executable jdftx_gpu with command-line: -i /home/akim2/JDFTx/Na2S6@TiO2-glyme/Na2S6@TiO2-glyme.in -o /home/akim2/JDFTx/Na2S6@TiO2-glyme/Na2S6@TiO2-glyme.out
Running on hosts (process indices):  exp-2-60 (0)
Divided in process groups (process indices):  0 (0)
gpuInit: Found compatible cuda device 0 'Tesla V100-SXM2-32GB'
gpuInit: Selected device 0
Resource initialization completed at t[s]:      0.66
Run totals: 1 processes, 1 threads, 1 GPUs


Input parsed successfully to the following command list (including defaults):

basis kpoint-dependent
coords-type Cartesian
core-overlap-check vector
coulomb-interaction Slab 001
coulomb-truncation-embed 0 0 8
davidson-band-ratio 1.1
dump End State
dump Ionic State
dump-interval Ionic 5
dump-name Na2S6@TiO2-glyme.$VAR
elec-cutoff 20 100
elec-eigen-algo Davidson
elec-ex-corr gga-PBE
elec-smearing Fermi 0.01
electronic-minimize  \
	dirUpdateScheme      FletcherReeves \
	linminMethod         DirUpdateRecommended \
	nIterations          100 \
	history              15 \
	knormThreshold       0 \
	energyDiffThreshold  1e-08 \
	nEnergyDiff          2 \
	alphaTstart          1 \
	alphaTmin            1e-10 \
	updateTestStepSize   yes \
	alphaTreduceFactor   0.1 \
	alphaTincreaseFactor 3 \
	nAlphaAdjustMax      3 \
	wolfeEnergy          0.0001 \
	wolfeGradient        0.9 \
	fdTest               no
electronic-scf  \
	nIterations	50 \
	energyDiffThreshold	1e-08 \
	residualThreshold	1e-07 \
	mixFraction	0.5 \
	qMetric	0.8 \
	history	10 \
	nEigSteps	2 \
	eigDiffThreshold	1e-08 \
	mixedVariable	Density \
	qKerker	0.8 \
	qKappa	-1 \
	verbose	no \
	mixFractionMag	1.5
exchange-regularization WignerSeitzTruncated
fluid LinearPCM 298.000000 1.013250
fluid-ex-corr lda-TF lda-PZ
fluid-gummel-loop 10 1.000000e-05
fluid-minimize  \
	dirUpdateScheme      PolakRibiere \
	linminMethod         DirUpdateRecommended \
	nIterations          400 \
	history              15 \
	knormThreshold       1e-11 \
	energyDiffThreshold  0 \
	nEnergyDiff          2 \
	alphaTstart          1 \
	alphaTmin            1e-10 \
	updateTestStepSize   yes \
	alphaTreduceFactor   0.1 \
	alphaTincreaseFactor 3 \
	nAlphaAdjustMax      6 \
	wolfeEnergy          0.0001 \
	wolfeGradient        0.9 \
	fdTest               no
fluid-solvent Glyme 9.62137 ScalarEOS \
	epsBulk 7.2 \
	pMol 0 \
	epsInf 1.9 \
	Pvap 0 \
	sigmaBulk 0 \
	Rvdw 0 \
	Res 0 \
	tauNuc 343133
forces-output-coords Positions
ion Ti   0.000000174975000  -0.000000174975000   2.000000000000000 0
ion Ti   4.340445422775000   4.340445072825000   4.795024053800001 0
ion Ti   0.000000174975000   8.680909217924999   2.000000000000000 0
ion Ti   4.340445422775000  13.021354465725000   4.795024053800001 0
ion Ti   0.000000174975000  17.361818610825001   2.000000000000000 0
ion Ti   4.340445422775000  21.702263858624999   4.795024053800001 0
ion Ti   8.680909567874998  -0.000000174975000   2.000000000000000 0
ion Ti  13.021354815675002   4.340445072825000   4.795024053800001 0
ion Ti   8.680909567874998   8.680909217924999   2.000000000000000 0
ion Ti  13.021354815675002  13.021354465725000   4.795024053800001 0
ion Ti   8.680909567874998  17.361818610825001   2.000000000000000 0
ion Ti  13.021364264325003  21.702263858624999   4.795024053800001 0
ion Ti  17.361818960775000  -0.000000174975000   2.000000000000000 0
ion Ti  21.702264208574999   4.340445072825000   4.795024053800001 0
ion Ti  17.361818960775000   8.680909217924999   2.000000000000000 0
ion Ti  21.702264208574999  13.021363914375000   4.795024053800001 0
ion Ti  17.361818960775000  17.361818610825001   2.000000000000000 0
ion Ti  21.702264208574999  21.702263858624999   4.795024053800001 0
ion O   2.650289808075000   2.650289458125000   2.000000000000000 0
ion O   6.030619934775000   6.030619584825001   2.000000000000000 0
ion O   1.690174686975000   6.990734705924999   4.795024053800001 0
ion O   6.990735055874999   1.690174337025000   4.795024053800001 0
ion O   2.650289808075000  11.331198851025000   2.000000000000000 0
ion O   6.030619934775000  14.711528977725004   2.000000000000000 0
ion O   1.690174686975000  15.671644098825000   4.795024053800001 0
ion O   6.990735055874999  10.371083729925001   4.795024053800001 0
ion O   2.650289808075000  20.012108243924999   2.000000000000000 0
ion O   6.030619934775000  23.392438370625001   2.000000000000000 0
ion O   1.690174686975000  24.352553491725004   4.795024053800001 0
ion O   6.990735055874999  19.051993122824996   4.795024053800001 0
ion O  11.331199200975000   2.650289458125000   2.000000000000000 0
ion O  14.711529327675001   6.030619584825001   2.000000000000000 0
ion O  10.371084079875001   6.990734705924999   4.795024053800001 0
ion O  15.671644448774998   1.690174337025000   4.795024053800001 0
ion O  11.331199200975000  11.331198851025000   2.000000000000000 0
ion O  14.711529327675001  14.711528977725004   2.000000000000000 0
ion O  10.371084079875001  15.671644098825000   4.795024053800001 0
ion O  15.671644448774998  10.371083729925001   4.795024053800001 0
ion O  11.331199200975000  20.012108243924999   2.000000000000000 0
ion O  14.711529327675001  23.392438370625001   2.000000000000000 0
ion O  10.371084079875001  24.352553491725004   4.795024053800001 0
ion O  15.671644448774998  19.051993122824996   4.795024053800001 0
ion O  20.012108593874995   2.650289458125000   2.000000000000000 0
ion O  23.392438720575004   6.030619584825001   2.000000000000000 0
ion O  19.051993472774999   6.990734705924999   4.795024053800001 0
ion O  24.352553841675000   1.690174337025000   4.795024053800001 0
ion O  20.012108593874995  11.331198851025000   2.000000000000000 0
ion O  23.392438720575004  14.711528977725004   2.000000000000000 0
ion O  19.051993472774999  15.671644098825000   4.795024053800001 0
ion O  24.352553841675000  10.371083729925001   4.795024053800001 0
ion O  20.012108593874995  20.012108243924999   2.000000000000000 0
ion O  23.392438720575004  23.392438370625001   2.000000000000000 0
ion O  19.051993472774999  24.352553491725004   4.795024053800001 0
ion O  24.352553841675000  19.051993122824996   4.795024053800001 0
ion S  14.138469590500000  22.130710663573069   9.642595283957990 1
ion S  17.547832456784462  23.890165768615478   9.745856069959938 1
ion S  20.611424260315410  21.495772984939006   9.527981541699216 1
ion S  14.099382135276606  12.986822359908139   9.764583539275456 1
ion S  17.725835586236130  13.528276287175728  11.283004627924727 1
ion S  20.882625062726735  11.979917271987519   9.500975053575901 1
ion Na  17.265449383771902  17.656073731128863   8.344524639034955 1
ion Na  17.203594859973158   8.716083754105448   8.281865187623390 1
ion-species GBRV/$ID_pbe.uspp
ion-width Ecut
ionic-minimize  \
	dirUpdateScheme      FletcherReeves \
	linminMethod         DirUpdateRecommended \
	nIterations          200 \
	history              15 \
	knormThreshold       0.0001 \
	energyDiffThreshold  1e-06 \
	nEnergyDiff          2 \
	alphaTstart          1 \
	alphaTmin            1e-10 \
	updateTestStepSize   yes \
	alphaTreduceFactor   0.1 \
	alphaTincreaseFactor 3 \
	nAlphaAdjustMax      3 \
	wolfeEnergy          0.0001 \
	wolfeGradient        0.9 \
	fdTest               no
kpoint   0.000000000000   0.000000000000   0.000000000000  1.00000000000000
kpoint-folding 1 1 1 
latt-move-scale 1 1 1
latt-scale 1 1 1 
lattice Tetragonal 26.04 37.7946
lattice-minimize  \
	dirUpdateScheme      L-BFGS \
	linminMethod         DirUpdateRecommended \
	nIterations          0 \
	history              15 \
	knormThreshold       0 \
	energyDiffThreshold  1e-06 \
	nEnergyDiff          2 \
	alphaTstart          1 \
	alphaTmin            1e-10 \
	updateTestStepSize   yes \
	alphaTreduceFactor   0.1 \
	alphaTincreaseFactor 3 \
	nAlphaAdjustMax      3 \
	wolfeEnergy          0.0001 \
	wolfeGradient        0.9 \
	fdTest               no
lcao-params -1 1e-06 0.01
pcm-variant GLSSA13
spintype no-spin
subspace-rotation-factor 1 yes
symmetries automatic
symmetry-threshold 0.0001



---------- Setting up symmetries ----------

Found 16 point-group symmetries of the bravais lattice
Found 1 space-group symmetries with basis
Applied RMS atom displacement 0 bohrs to make symmetries exact.

---------- Initializing the Grid ----------
R = 
[        26.04            0            0  ]
[            0        26.04            0  ]
[            0            0      37.7946  ]
unit cell volume = 25627.8
G =
[    0.24129          0          0  ]
[          0    0.24129          0  ]
[          0          0   0.166246  ]
Minimum fftbox size, Smin = [  120  120  172  ]
Chosen fftbox size, S = [  120  120  180  ]

---------- Initializing tighter grid for wavefunction operations ----------
R = 
[        26.04            0            0  ]
[            0        26.04            0  ]
[            0            0      37.7946  ]
unit cell volume = 25627.8
G =
[    0.24129          0          0  ]
[          0    0.24129          0  ]
[          0          0   0.166246  ]
Minimum fftbox size, Smin = [  108  108  156  ]
Chosen fftbox size, S = [  108  108  160  ]

---------- Exchange Correlation functional ----------
Initalized PBE GGA exchange.
Initalized PBE GGA correlation.

---------- Setting up pseudopotentials ----------
Width of ionic core gaussian charges (only for fluid interactions / plotting) set to 0.397384

Reading pseudopotential file '/home/akim2/jdftx_install/build/pseudopotentials/GBRV/ti_pbe.uspp':
  Title: Ti.  Created by USPP 7.3.6 on 31-3-15
  Reference state energy: -59.020943.  12 valence electrons in orbitals:
    |300>  occupation: 2  eigenvalue: -2.777623
    |310>  occupation: 6  eigenvalue: -1.894596
    |400>  occupation: 2  eigenvalue: -0.438610
    |320>  occupation: 1  eigenvalue: -0.583119
  lMax: 2  lLocal: 3  QijEcut: 6
  6 projectors sampled on a log grid with 597 points:
    l: 0  eig: -2.777624  rCut: 1.8
    l: 0  eig: -0.438611  rCut: 1.8
    l: 1  eig: -1.894596  rCut: 1.8
    l: 1  eig: 0.500000  rCut: 1.8
    l: 2  eig: -0.583118  rCut: 1.8
    l: 2  eig: 0.150000  rCut: 1.8
  Partial core density with radius 0.8
  Transforming core density to a uniform radial grid of dG=0.02 with 1273 points.
  Transforming local potential to a uniform radial grid of dG=0.02 with 1273 points.
  Transforming nonlocal projectors to a uniform radial grid of dG=0.02 with 432 points.
  Transforming density augmentations to a uniform radial grid of dG=0.02 with 1273 points.
  Transforming atomic orbitals to a uniform radial grid of dG=0.02 with 432 points.
  Core radius for overlap checks: 1.80 bohrs.

Reading pseudopotential file '/home/akim2/jdftx_install/build/pseudopotentials/GBRV/o_pbe.uspp':
  Title: O.  Created by USPP 7.3.6 on 3-2-2014
  Reference state energy: -15.894388.  6 valence electrons in orbitals:
    |200>  occupation: 2  eigenvalue: -0.878823
    |210>  occupation: 4  eigenvalue: -0.332131
  lMax: 2  lLocal: 2  QijEcut: 6
  5 projectors sampled on a log grid with 511 points:
    l: 0  eig: -0.878823  rCut: 1.25
    l: 0  eig: 0.000000  rCut: 1.25
    l: 1  eig: -0.332132  rCut: 1.25
    l: 1  eig: 0.000000  rCut: 1.25
    l: 2  eig: 1.000000  rCut: 1.25
  Partial core density with radius 0.7
  Transforming core density to a uniform radial grid of dG=0.02 with 1273 points.
  Transforming local potential to a uniform radial grid of dG=0.02 with 1273 points.
  Transforming nonlocal projectors to a uniform radial grid of dG=0.02 with 432 points.
  Transforming density augmentations to a uniform radial grid of dG=0.02 with 1273 points.
  Transforming atomic orbitals to a uniform radial grid of dG=0.02 with 432 points.
  Core radius for overlap checks: 1.25 bohrs.

Reading pseudopotential file '/home/akim2/jdftx_install/build/pseudopotentials/GBRV/s_pbe.uspp':
  Title: S.  Created by USPP 7.3.6 on 1-4-15
  Reference state energy: -11.898476.  6 valence electrons in orbitals:
    |300>  occupation: 2  eigenvalue: -0.634167
    |310>  occupation: 4  eigenvalue: -0.257568
  lMax: 2  lLocal: 3  QijEcut: 6
  6 projectors sampled on a log grid with 635 points:
    l: 0  eig: -0.634161  rCut: 1.5
    l: 0  eig: 1.500000  rCut: 1.5
    l: 1  eig: -0.257567  rCut: 1.5
    l: 1  eig: 1.500000  rCut: 1.5
    l: 2  eig: -1.000000  rCut: 1.5
    l: 2  eig: 1.500000  rCut: 1.5
  Partial core density with radius 1.15
  Transforming core density to a uniform radial grid of dG=0.02 with 1273 points.
  Transforming local potential to a uniform radial grid of dG=0.02 with 1273 points.
  Transforming nonlocal projectors to a uniform radial grid of dG=0.02 with 432 points.
  Transforming density augmentations to a uniform radial grid of dG=0.02 with 1273 points.
  Transforming atomic orbitals to a uniform radial grid of dG=0.02 with 432 points.
  Core radius for overlap checks: 1.50 bohrs.

Reading pseudopotential file '/home/akim2/jdftx_install/build/pseudopotentials/GBRV/na_pbe.uspp':
  Title: Na.  Created by USPP 7.3.6 on 23-9-15
  Reference state energy: -47.625620.  9 valence electrons in orbitals:
    |200>  occupation: 2  eigenvalue: -2.085638
    |210>  occupation: 6  eigenvalue: -1.053708
    |300>  occupation: 1  eigenvalue: -0.100838
  lMax: 2  lLocal: 0  QijEcut: 6
  5 projectors sampled on a log grid with 657 points:
    l: 0  eig: -2.085640  rCut: 1.37
    l: 0  eig: -0.100839  rCut: 1.37
    l: 1  eig: -1.053708  rCut: 1.47
    l: 1  eig: 0.500000  rCut: 1.47
    l: 2  eig: 0.750000  rCut: 2
  Transforming local potential to a uniform radial grid of dG=0.02 with 1273 points.
  Transforming nonlocal projectors to a uniform radial grid of dG=0.02 with 432 points.
  Transforming density augmentations to a uniform radial grid of dG=0.02 with 1273 points.
  Transforming atomic orbitals to a uniform radial grid of dG=0.02 with 432 points.
  Core radius for overlap checks: 2.00 bohrs.

Initialized 4 species with 62 total atoms.

Folded 1 k-points by 1x1x1 to 1 k-points.

---------- Setting up k-points, bands, fillings ----------
No reducable k-points. 
Computing the number of bands and number of electrons
Calculating initial fillings.
nElectrons: 486.000000   nBands: 358   nStates: 1

----- Setting up reduced wavefunction bases (one per k-point) -----
average nbasis = 109517.000 , ideal nbasis = 109484.012

---------- Setting up coulomb interaction ----------
Fluid mode embedding: using embedded box, but periodic Coulomb kernel.
(Fluid response is responsible for (approximate) separation between periodic images.)
Setting up double-sized grid for truncated Coulomb potentials:
R = 
[        26.04            0            0  ]
[            0        26.04            0  ]
[            0            0      75.5892  ]
unit cell volume = 51255.6
G =
[    0.24129          0          0  ]
[          0    0.24129          0  ]
[          0          0  0.0831228  ]
Chosen fftbox size, S = [  120  120  360  ]
Integer grid location selected as the embedding center:
   Grid: [  0  0  38  ]
   Lattice: [  0  0  0.21167  ]
   Cartesian: [  0  0  8  ]
Constructing Wigner-Seitz cell: 6 faces (6 quadrilaterals, 0 hexagons)
Range-separation parameter for embedded mesh potentials due to point charges: 0.587679 bohrs.

---------- Setting up ewald sum ----------
Optimum gaussian width for ewald sums = 7.448898 bohr.
Real space sum over 405 unit cells with max indices [  4  4  2  ]
Reciprocal space sum over 7875 terms with max indices [  7  7  17  ]

---------- Allocating electronic variables ----------
Initializing wave functions:  linear combination of atomic orbitals
Ti pseudo-atom occupations:   s ( 2 0 )  p ( 6 )  d ( 4 )
O pseudo-atom occupations:   s ( 2 )  p ( 4 )
S pseudo-atom occupations:   s ( 2 )  p ( 4 )
Na pseudo-atom occupations:   s ( 2 1 )  p ( 6 )
	FillingsUpdate:  mu: +0.117727370  nElectrons: 486.000000
LCAOMinimize: Iter:   0  F: -1757.9759342816184926  |grad|_K:  1.695e-02  alpha:  1.000e+00
	FillingsUpdate:  mu: +0.110303782  nElectrons: 486.000000
LCAOMinimize: Iter:   1  F: -1759.7787672781259971  |grad|_K:  1.627e-02  alpha:  4.975e-02  linmin: -1.922e-01  cgtest:  9.745e-01  t[s]:      8.07
LCAOMinimize: Encountered beta<0, resetting CG.
LCAOMinimize: 	Wrong curvature in test step, increasing alphaT to 1.492502e-01.
	FillingsUpdate:  mu: +0.106464506  nElectrons: 486.000000
LCAOMinimize: Iter:   2  F: -1761.5395693503796792  |grad|_K:  1.616e-02  alpha: -6.710e-01  linmin: -1.790e-01  cgtest:  9.263e-01  t[s]:      9.73
	FillingsUpdate:  mu: +0.100047288  nElectrons: 486.000000
LCAOMinimize: Iter:   3  F: -1763.3443101981154086  |grad|_K:  1.595e-02  alpha:  4.844e-02  linmin: -1.865e-01  cgtest:  9.229e-01  t[s]:     11.45
LCAOMinimize: 	Wrong curvature in test step, increasing alphaT to 1.453317e-01.
	FillingsUpdate:  mu: +0.091847212  nElectrons: 486.000000
LCAOMinimize: Iter:   4  F: -1765.1141052126888553  |grad|_K:  1.592e-02  alpha: -6.446e-01  linmin: -1.878e-01  cgtest:  9.195e-01  t[s]:     13.11
	FillingsUpdate:  mu: +0.082227703  nElectrons: 486.000000
LCAOMinimize: Iter:   5  F: -1766.9418498722095592  |grad|_K:  1.610e-02  alpha:  4.867e-02  linmin: -1.912e-01  cgtest:  9.056e-01  t[s]:     14.83
LCAOMinimize: 	Wrong curvature in test step, increasing alphaT to 1.460133e-01.
	FillingsUpdate:  mu: +0.068511711  nElectrons: 486.000000
LCAOMinimize: Iter:   6  F: -1768.9002226769935078  |grad|_K:  1.641e-02  alpha: -3.581e-01  linmin: -1.992e-01  cgtest:  8.906e-01  t[s]:     16.49
	FillingsUpdate:  mu: +0.048404337  nElectrons: 486.000000
LCAOMinimize: Iter:   7  F: -1771.2883016242453778  |grad|_K:  1.676e-02  alpha:  5.446e-02  linmin: -2.132e-01  cgtest:  8.637e-01  t[s]:     18.24
LCAOMinimize: 	Wrong curvature in test step, increasing alphaT to 1.633817e-01.
	FillingsUpdate:  mu: +0.022966085  nElectrons: 486.000000
LCAOMinimize: Iter:   8  F: -1773.8897424964272886  |grad|_K:  1.694e-02  alpha: -3.067e-01  linmin: -2.316e-01  cgtest:  8.506e-01  t[s]:     19.91
	FillingsUpdate:  mu: -0.006982838  nElectrons: 486.000000
LCAOMinimize: Iter:   9  F: -1776.9277721763012323  |grad|_K:  1.664e-02  alpha:  6.137e-02  linmin: -2.536e-01  cgtest:  8.266e-01  t[s]:     22.34
LCAOMinimize: 	Wrong curvature in test step, increasing alphaT to 1.841186e-01.
	FillingsUpdate:  mu: -0.038610697  nElectrons: 486.000000
LCAOMinimize: Iter:  10  F: -1779.7788909702712772  |grad|_K:  1.537e-02  alpha: -5.243e-01  linmin: -2.750e-01  cgtest:  8.320e-01  t[s]:     24.02
	FillingsUpdate:  mu: -0.059960623  nElectrons: 486.000000
LCAOMinimize: Iter:  11  F: -1781.5859935954222237  |grad|_K:  1.361e-02  alpha:  5.192e-02  linmin: -2.893e-01  cgtest:  8.811e-01  t[s]:     26.58
LCAOMinimize: 	Predicted alpha/alphaT>3.000000, increasing alphaT to 1.557465e-01.
LCAOMinimize: 	Step increased F by 4.435903e+01, reducing alpha to 4.174124e-02.
	FillingsUpdate:  mu: -0.071563284  nElectrons: 486.000000
LCAOMinimize: Iter:  12  F: -1782.5708526336734394  |grad|_K:  1.207e-02  alpha:  4.174e-02  linmin: -2.975e-01  cgtest:  9.255e-01  t[s]:     30.06
LCAOMinimize: Encountered beta<0, resetting CG.
LCAOMinimize: 	Predicted alpha/alphaT>3.000000, increasing alphaT to 1.252237e-01.
LCAOMinimize: 	Step increased F by 1.331581e+01, reducing alpha to 3.617740e-02.
	FillingsUpdate:  mu: -0.078823312  nElectrons: 486.000000
LCAOMinimize: Iter:  13  F: -1783.2300350759087451  |grad|_K:  1.064e-02  alpha:  3.618e-02  linmin: -3.040e-01  cgtest:  9.429e-01  t[s]:     38.89
LCAOMinimize: Encountered beta<0, resetting CG.
LCAOMinimize: 	Predicted alpha/alphaT>3.000000, increasing alphaT to 1.085322e-01.
LCAOMinimize: 	Step increased F by 2.620085e+00, reducing alpha to 3.082536e-02.
	FillingsUpdate:  mu: -0.082766697  nElectrons: 486.000000
LCAOMinimize: Iter:  14  F: -1783.6635163447374453  |grad|_K:  9.406e-03  alpha:  3.083e-02  linmin: -3.087e-01  cgtest:  9.566e-01  t[s]:     42.36
LCAOMinimize: Encountered beta<0, resetting CG.
LCAOMinimize: 	Predicted alpha/alphaT>3.000000, increasing alphaT to 9.247608e-02.
LCAOMinimize: 	Predicted alpha/alphaT>3.000000, increasing alphaT to 2.774282e-01.
	FillingsUpdate:  mu: -0.079037627  nElectrons: 486.000000
LCAOMinimize: Iter:  15  F: -1784.7128660525454507  |grad|_K:  3.479e-03  alpha:  1.213e-01  linmin: -3.220e-01  cgtest:  7.738e-01  t[s]:     45.04
LCAOMinimize: Encountered beta<0, resetting CG.
	FillingsUpdate:  mu: -0.051223350  nElectrons: 486.000000
LCAOMinimize: Iter:  16  F: -1784.8501998321705742  |grad|_K:  1.811e-03  alpha:  1.964e-01  linmin:  1.499e-01  cgtest: -4.380e-01  t[s]:     46.78
	FillingsUpdate:  mu: -0.056548094  nElectrons: 486.000000
LCAOMinimize: Iter:  17  F: -1784.8607482791646817  |grad|_K:  1.695e-03  alpha:  7.254e-02  linmin: -3.862e-02  cgtest:  9.138e-01  t[s]:     48.53
	FillingsUpdate:  mu: -0.048832310  nElectrons: 486.000000
LCAOMinimize: Iter:  18  F: -1784.8848975103103385  |grad|_K:  4.791e-04  alpha:  1.278e-01  linmin: -8.930e-02  cgtest:  1.003e-01  t[s]:     50.28
LCAOMinimize: 	Predicted alpha/alphaT>3.000000, increasing alphaT to 3.834636e-01.
	FillingsUpdate:  mu: -0.046600180  nElectrons: 486.000000
LCAOMinimize: Iter:  19  F: -1784.8918892038452668  |grad|_K:  4.126e-04  alpha:  4.628e-01  linmin:  4.333e-03  cgtest: -2.754e-02  t[s]:     52.49
	FillingsUpdate:  mu: -0.044306774  nElectrons: 486.000000
LCAOMinimize: Iter:  20  F: -1784.8938719497143666  |grad|_K:  1.853e-04  alpha:  1.806e-01  linmin: -5.176e-03  cgtest:  5.527e-02  t[s]:     54.23
	FillingsUpdate:  mu: -0.043997434  nElectrons: 486.000000
LCAOMinimize: Iter:  21  F: -1784.8943354071254817  |grad|_K:  1.026e-04  alpha:  2.080e-01  linmin:  3.213e-03  cgtest: -2.179e-02  t[s]:     55.99
	FillingsUpdate:  mu: -0.044228766  nElectrons: 486.000000
LCAOMinimize: Iter:  22  F: -1784.8944892665501811  |grad|_K:  5.054e-05  alpha:  2.284e-01  linmin:  3.669e-04  cgtest:  2.454e-02  t[s]:     57.74
	FillingsUpdate:  mu: -0.044277150  nElectrons: 486.000000
LCAOMinimize: Iter:  23  F: -1784.8945140445537163  |grad|_K:  2.343e-05  alpha:  1.508e-01  linmin:  2.374e-05  cgtest: -5.370e-03  t[s]:     59.49
	FillingsUpdate:  mu: -0.044272998  nElectrons: 486.000000
LCAOMinimize: Iter:  24  F: -1784.8945221973665411  |grad|_K:  1.590e-05  alpha:  2.306e-01  linmin:  6.280e-04  cgtest: -2.420e-03  t[s]:     61.25
	FillingsUpdate:  mu: -0.044237388  nElectrons: 486.000000
LCAOMinimize: Iter:  25  F: -1784.8945255542907944  |grad|_K:  8.772e-06  alpha:  2.065e-01  linmin:  3.782e-05  cgtest:  4.943e-03  t[s]:     63.00
	FillingsUpdate:  mu: -0.044262551  nElectrons: 486.000000
LCAOMinimize: Iter:  26  F: -1784.8945264917922486  |grad|_K:  3.752e-06  alpha:  1.891e-01  linmin:  4.092e-05  cgtest: -9.969e-05  t[s]:     64.75
	FillingsUpdate:  mu: -0.044281205  nElectrons: 486.000000
LCAOMinimize: Iter:  27  F: -1784.8945266570178774  |grad|_K:  1.679e-06  alpha:  1.822e-01  linmin: -8.121e-05  cgtest: -7.085e-04  t[s]:     66.51
LCAOMinimize: Converged (|Delta F|<1.000000e-06 for 2 iters).
----- createFluidSolver() ----- (Fluid-side solver setup)
   Initializing fluid molecule 'Glyme'
     Net charge: 0   dipole magnitude: 0
     Initializing spherical shell mfKernel with radius 0 Bohr
     deltaS corrections:

Correction to mu due to finite nuclear width = -0.00940793
   Cavity determined by nc: 8.36e-05 and sigma: 0.6
   Effective cavity tension: -8.03e-06 Eh/bohr^2 to account for cavitation and dispersion.


---- Citations for features of the code used in this run ----

   Software package:
      R. Sundararaman, K. Letchworth-Weaver, K.A. Schwarz, D. Gunceler, Y. Ozhabes and T.A. Arias, 'JDFTx: software for joint density-functional theory', SoftwareX 6, 278 (2017)

   gga-PBE exchange-correlation functional:
      J.P. Perdew, K. Burke and M. Ernzerhof, Phys. Rev. Lett. 77, 3865 (1996)

   Pseudopotentials:
      KF Garrity, JW Bennett, KM Rabe and D Vanderbilt, Comput. Mater. Sci. 81, 446 (2014)

   Truncated Coulomb potentials:
      R. Sundararaman and T.A. Arias, Phys. Rev. B 87, 165122 (2013)

   Linear/nonlinear dielectric/ionic fluid model with effective cavity tension:
      D. Gunceler, K. Letchworth-Weaver, R. Sundararaman, K.A. Schwarz and T.A. Arias, Modelling Simul. Mater. Sci. Eng. 21, 074005 (2013)

This list may not be complete. Please suggest additional citations or
report any other bugs at https://github.com/shankar1729/jdftx/issues

Initialization completed successfully at t[s]:     66.79

Fluid solver invoked on fresh (random / LCAO) wavefunctions
Running a vacuum solve first:

-------- Initial electronic minimization -----------
Will mix electronic density at each iteration.
	FillingsUpdate:  mu: -0.044281205  nElectrons: 486.000000
	FillingsUpdate:  mu: -0.060395738  nElectrons: 486.000000
SCF: Cycle:  0   F: -1785.417926009377879   dF: -5.234e-01   |Residual|: 1.666e+00   |deigs|: 3.040e-02  t[s]:     71.66
	FillingsUpdate:  mu: -0.091612501  nElectrons: 486.000000
SCF: Cycle:  1   F: -1785.892811561697727   dF: -4.749e-01   |Residual|: 7.765e-01   |deigs|: 4.890e-02  t[s]:     75.48
	FillingsUpdate:  mu: -0.111837970  nElectrons: 486.000000
SCF: Cycle:  2   F: -1785.708728318516251   dF: +1.841e-01   |Residual|: 8.029e-01   |deigs|: 3.235e-02  t[s]:     79.27
	FillingsUpdate:  mu: -0.115306155  nElectrons: 486.000000
SCF: Cycle:  3   F: -1787.385612383084208   dF: -1.677e+00   |Residual|: 1.923e-01   |deigs|: 1.491e-02  t[s]:     83.07
	FillingsUpdate:  mu: -0.117212612  nElectrons: 486.000000
SCF: Cycle:  4   F: -1787.463068218951321   dF: -7.746e-02   |Residual|: 8.060e-02   |deigs|: 5.400e-03  t[s]:     86.83
	FillingsUpdate:  mu: -0.117410815  nElectrons: 486.000000
SCF: Cycle:  5   F: -1787.482996849291794   dF: -1.993e-02   |Residual|: 5.360e-02   |deigs|: 1.720e-03  t[s]:     90.57
	FillingsUpdate:  mu: -0.117417167  nElectrons: 486.000000
SCF: Cycle:  6   F: -1787.488655774490326   dF: -5.659e-03   |Residual|: 3.767e-02   |deigs|: 6.602e-04  t[s]:     94.24
	FillingsUpdate:  mu: -0.117329879  nElectrons: 486.000000
SCF: Cycle:  7   F: -1787.493940351002493   dF: -5.285e-03   |Residual|: 2.335e-02   |deigs|: 6.764e-04  t[s]:     97.98
	FillingsUpdate:  mu: -0.117321920  nElectrons: 486.000000
SCF: Cycle:  8   F: -1787.502772776936581   dF: -8.832e-03   |Residual|: 1.875e-02   |deigs|: 5.083e-04  t[s]:    101.05
	FillingsUpdate:  mu: -0.117054166  nElectrons: 486.000000
SCF: Cycle:  9   F: -1787.509231348427647   dF: -6.459e-03   |Residual|: 1.641e-02   |deigs|: 1.073e-03  t[s]:    104.51
	FillingsUpdate:  mu: -0.116695576  nElectrons: 486.000000
SCF: Cycle: 10   F: -1787.511086613066254   dF: -1.855e-03   |Residual|: 1.408e-02   |deigs|: 6.619e-04  t[s]:    107.70
	FillingsUpdate:  mu: -0.116427905  nElectrons: 486.000000
SCF: Cycle: 11   F: -1787.512312635370563   dF: -1.226e-03   |Residual|: 9.343e-03   |deigs|: 3.449e-04  t[s]:    110.81
	FillingsUpdate:  mu: -0.116234051  nElectrons: 486.000000
SCF: Cycle: 12   F: -1787.512879745402415   dF: -5.671e-04   |Residual|: 8.077e-03   |deigs|: 3.079e-04  t[s]:    113.95
	FillingsUpdate:  mu: -0.115886837  nElectrons: 486.000000
SCF: Cycle: 13   F: -1787.513401792645254   dF: -5.220e-04   |Residual|: 7.016e-03   |deigs|: 4.394e-04  t[s]:    117.02
	FillingsUpdate:  mu: -0.115658894  nElectrons: 486.000000
SCF: Cycle: 14   F: -1787.513715812486907   dF: -3.140e-04   |Residual|: 8.190e-03   |deigs|: 3.474e-04  t[s]:    120.15
	FillingsUpdate:  mu: -0.115359768  nElectrons: 486.000000
SCF: Cycle: 15   F: -1787.513880359466839   dF: -1.645e-04   |Residual|: 4.733e-03   |deigs|: 3.563e-04  t[s]:    123.33
	FillingsUpdate:  mu: -0.115155320  nElectrons: 486.000000
SCF: Cycle: 16   F: -1787.514028946723784   dF: -1.486e-04   |Residual|: 5.129e-03   |deigs|: 2.313e-04  t[s]:    126.41
	FillingsUpdate:  mu: -0.114938255  nElectrons: 486.000000
SCF: Cycle: 17   F: -1787.514148234767390   dF: -1.193e-04   |Residual|: 3.333e-03   |deigs|: 2.821e-04  t[s]:    129.51
	FillingsUpdate:  mu: -0.114872766  nElectrons: 486.000000
SCF: Cycle: 18   F: -1787.514169595366639   dF: -2.136e-05   |Residual|: 2.874e-03   |deigs|: 1.208e-04  t[s]:    132.52
	FillingsUpdate:  mu: -0.114798573  nElectrons: 486.000000
SCF: Cycle: 19   F: -1787.514195546388009   dF: -2.595e-05   |Residual|: 2.267e-03   |deigs|: 1.047e-04  t[s]:    135.50
	FillingsUpdate:  mu: -0.114755267  nElectrons: 486.000000
SCF: Cycle: 20   F: -1787.514203380923163   dF: -7.835e-06   |Residual|: 1.731e-03   |deigs|: 1.246e-04  t[s]:    138.52
	FillingsUpdate:  mu: -0.114724020  nElectrons: 486.000000
SCF: Cycle: 21   F: -1787.514208694780109   dF: -5.314e-06   |Residual|: 1.422e-03   |deigs|: 1.233e-04  t[s]:    141.55
	FillingsUpdate:  mu: -0.114696104  nElectrons: 486.000000
SCF: Cycle: 22   F: -1787.514210283885859   dF: -1.589e-06   |Residual|: 1.064e-03   |deigs|: 7.214e-05  t[s]:    144.60
	FillingsUpdate:  mu: -0.114672558  nElectrons: 486.000000
SCF: Cycle: 23   F: -1787.514211240342092   dF: -9.565e-07   |Residual|: 9.119e-04   |deigs|: 6.973e-05  t[s]:    147.70
	FillingsUpdate:  mu: -0.114654817  nElectrons: 486.000000
SCF: Cycle: 24   F: -1787.514212595828440   dF: -1.355e-06   |Residual|: 6.148e-04   |deigs|: 9.663e-05  t[s]:    150.79
	FillingsUpdate:  mu: -0.114637982  nElectrons: 486.000000
SCF: Cycle: 25   F: -1787.514212891704346   dF: -2.959e-07   |Residual|: 5.158e-04   |deigs|: 6.755e-05  t[s]:    153.77
	FillingsUpdate:  mu: -0.114620503  nElectrons: 486.000000
SCF: Cycle: 26   F: -1787.514213101145742   dF: -2.094e-07   |Residual|: 4.409e-04   |deigs|: 4.331e-05  t[s]:    156.89
	FillingsUpdate:  mu: -0.114591869  nElectrons: 486.000000
SCF: Cycle: 27   F: -1787.514213165957472   dF: -6.481e-08   |Residual|: 3.345e-04   |deigs|: 9.163e-05  t[s]:    160.04
	FillingsUpdate:  mu: -0.114568457  nElectrons: 486.000000
SCF: Cycle: 28   F: -1787.514213427285085   dF: -2.613e-07   |Residual|: 2.896e-04   |deigs|: 7.606e-05  t[s]:    163.22
	FillingsUpdate:  mu: -0.114547735  nElectrons: 486.000000
SCF: Cycle: 29   F: -1787.514213549411124   dF: -1.221e-07   |Residual|: 2.665e-04   |deigs|: 6.681e-05  t[s]:    166.34
	FillingsUpdate:  mu: -0.114524738  nElectrons: 486.000000
SCF: Cycle: 30   F: -1787.514213669179298   dF: -1.198e-07   |Residual|: 2.312e-04   |deigs|: 7.351e-05  t[s]:    169.44
	FillingsUpdate:  mu: -0.114493048  nElectrons: 486.000000
SCF: Cycle: 31   F: -1787.514213883883258   dF: -2.147e-07   |Residual|: 1.768e-04   |deigs|: 1.029e-04  t[s]:    172.51
	FillingsUpdate:  mu: -0.114468627  nElectrons: 486.000000
SCF: Cycle: 32   F: -1787.514213949070836   dF: -6.519e-08   |Residual|: 1.536e-04   |deigs|: 5.419e-05  t[s]:    175.57
	FillingsUpdate:  mu: -0.114443880  nElectrons: 486.000000
SCF: Cycle: 33   F: -1787.514213952712907   dF: -3.642e-09   |Residual|: 1.716e-04   |deigs|: 4.564e-05  t[s]:    178.64
	FillingsUpdate:  mu: -0.114407496  nElectrons: 486.000000
SCF: Cycle: 34   F: -1787.514214017711083   dF: -6.500e-08   |Residual|: 1.369e-04   |deigs|: 8.399e-05  t[s]:    181.89
	FillingsUpdate:  mu: -0.114391726  nElectrons: 486.000000
SCF: Cycle: 35   F: -1787.514214034724773   dF: -1.701e-08   |Residual|: 1.056e-04   |deigs|: 3.674e-05  t[s]:    184.92
	FillingsUpdate:  mu: -0.114373812  nElectrons: 486.000000
SCF: Cycle: 36   F: -1787.514214054938975   dF: -2.021e-08   |Residual|: 9.089e-05   |deigs|: 4.255e-05  t[s]:    188.02
	FillingsUpdate:  mu: -0.114356308  nElectrons: 486.000000
SCF: Cycle: 37   F: -1787.514214076458302   dF: -2.152e-08   |Residual|: 7.797e-05   |deigs|: 3.926e-05  t[s]:    191.12
	FillingsUpdate:  mu: -0.114335439  nElectrons: 486.000000
SCF: Cycle: 38   F: -1787.514214082553508   dF: -6.095e-09   |Residual|: 6.053e-05   |deigs|: 4.795e-05  t[s]:    194.21
	FillingsUpdate:  mu: -0.114322582  nElectrons: 486.000000
SCF: Cycle: 39   F: -1787.514214100705431   dF: -1.815e-08   |Residual|: 5.251e-05   |deigs|: 2.752e-05  t[s]:    197.36
	FillingsUpdate:  mu: -0.114303963  nElectrons: 486.000000
SCF: Cycle: 40   F: -1787.514214103583754   dF: -2.878e-09   |Residual|: 6.132e-05   |deigs|: 3.809e-05  t[s]:    200.45
	FillingsUpdate:  mu: -0.114283885  nElectrons: 486.000000
SCF: Cycle: 41   F: -1787.514214112028640   dF: -8.445e-09   |Residual|: 5.231e-05   |deigs|: 3.944e-05  t[s]:    203.60
SCF: Converged (|Delta E|<1.000000e-08 for 2 iters).

Setting wave functions to eigenvectors of Hamiltonian
Vacuum energy after initial minimize, F = -1787.514214112028640


-------- Electronic minimization -----------
Will mix electronic density at each iteration.
	FillingsUpdate:  mu: -0.114283885  nElectrons: 486.000000
	Linear fluid (dielectric constant: 7.2) occupying 0.806331 of unit cell:	Completed after 13 iterations at t[s]:    204.55
	FillingsUpdate:  mu: -0.120357238  nElectrons: 486.000000
	Linear fluid (dielectric constant: 7.2) occupying 0.810310 of unit cell:	Completed after 12 iterations at t[s]:    208.98
SCF: Cycle:  0   F: -1787.549996753027244   dF: +1.363e-02   |Residual|: 5.792e-02   |deigs|: 2.347e-03  t[s]:    209.13
	Linear fluid (dielectric constant: 7.2) occupying 0.806244 of unit cell:	Completed after 11 iterations at t[s]:    209.34
	FillingsUpdate:  mu: -0.119174852  nElectrons: 486.000000
	Linear fluid (dielectric constant: 7.2) occupying 0.810550 of unit cell:	Completed after 11 iterations at t[s]:    213.20
SCF: Cycle:  1   F: -1787.565444863509811   dF: -1.545e-02   |Residual|: 7.032e-02   |deigs|: 2.991e-03  t[s]:    213.35
	Linear fluid (dielectric constant: 7.2) occupying 0.806409 of unit cell:	Completed after 10 iterations at t[s]:    213.54
	FillingsUpdate:  mu: -0.119294648  nElectrons: 486.000000
	Linear fluid (dielectric constant: 7.2) occupying 0.811024 of unit cell:	Completed after 11 iterations at t[s]:    217.40
SCF: Cycle:  2   F: -1787.574960572583450   dF: -9.516e-03   |Residual|: 3.248e-02   |deigs|: 2.044e-03  t[s]:    217.55
	Linear fluid (dielectric constant: 7.2) occupying 0.806360 of unit cell:	Completed after 10 iterations at t[s]:    217.74
	FillingsUpdate:  mu: -0.118550010  nElectrons: 486.000000
	Linear fluid (dielectric constant: 7.2) occupying 0.811292 of unit cell:	Completed after 11 iterations at t[s]:    221.17
SCF: Cycle:  3   F: -1787.577089478800417   dF: -2.129e-03   |Residual|: 1.268e-02   |deigs|: 7.979e-04  t[s]:    221.32
	Linear fluid (dielectric constant: 7.2) occupying 0.806365 of unit cell:	Completed after 10 iterations at t[s]:    221.52
	FillingsUpdate:  mu: -0.117858978  nElectrons: 486.000000
	Linear fluid (dielectric constant: 7.2) occupying 0.811722 of unit cell:	Completed after 11 iterations at t[s]:    224.98
SCF: Cycle:  4   F: -1787.579401364361274   dF: -2.312e-03   |Residual|: 9.511e-03   |deigs|: 9.811e-04  t[s]:    225.13
	Linear fluid (dielectric constant: 7.2) occupying 0.806445 of unit cell:	Completed after 10 iterations at t[s]:    225.33
	FillingsUpdate:  mu: -0.116359171  nElectrons: 486.000000
	Linear fluid (dielectric constant: 7.2) occupying 0.812335 of unit cell:	Completed after 11 iterations at t[s]:    229.07
SCF: Cycle:  5   F: -1787.581497356379487   dF: -2.096e-03   |Residual|: 7.355e-03   |deigs|: 1.618e-03  t[s]:    229.23
	Linear fluid (dielectric constant: 7.2) occupying 0.806779 of unit cell:	Completed after 10 iterations at t[s]:    229.42
	FillingsUpdate:  mu: -0.114268136  nElectrons: 486.000000
	Linear fluid (dielectric constant: 7.2) occupying 0.812816 of unit cell:	Completed after 11 iterations at t[s]:    233.33
SCF: Cycle:  6   F: -1787.584416827544374   dF: -2.919e-03   |Residual|: 8.290e-03   |deigs|: 2.314e-03  t[s]:    233.48
	Linear fluid (dielectric constant: 7.2) occupying 0.807333 of unit cell:	Completed after 10 iterations at t[s]:    233.67
	FillingsUpdate:  mu: -0.112076747  nElectrons: 486.000000
	Linear fluid (dielectric constant: 7.2) occupying 0.812918 of unit cell:	Completed after 11 iterations at t[s]:    237.56
SCF: Cycle:  7   F: -1787.587361447738886   dF: -2.945e-03   |Residual|: 8.083e-03   |deigs|: 2.294e-03  t[s]:    237.71
	Linear fluid (dielectric constant: 7.2) occupying 0.808108 of unit cell:	Completed after 10 iterations at t[s]:    237.91
	FillingsUpdate:  mu: -0.109926126  nElectrons: 486.000000
	Linear fluid (dielectric constant: 7.2) occupying 0.812981 of unit cell:	Completed after 11 iterations at t[s]:    241.80
SCF: Cycle:  8   F: -1787.589616183554654   dF: -2.255e-03   |Residual|: 6.731e-03   |deigs|: 2.073e-03  t[s]:    241.95
	Linear fluid (dielectric constant: 7.2) occupying 0.809078 of unit cell:	Completed after 10 iterations at t[s]:    242.15
	FillingsUpdate:  mu: -0.107991333  nElectrons: 486.000000
	Linear fluid (dielectric constant: 7.2) occupying 0.813302 of unit cell:	Completed after 10 iterations at t[s]:    246.06
SCF: Cycle:  9   F: -1787.591672103495966   dF: -2.056e-03   |Residual|: 4.855e-03   |deigs|: 1.875e-03  t[s]:    246.21
	Linear fluid (dielectric constant: 7.2) occupying 0.810495 of unit cell:	Completed after 11 iterations at t[s]:    246.41
	FillingsUpdate:  mu: -0.106001542  nElectrons: 486.000000
	Linear fluid (dielectric constant: 7.2) occupying 0.813630 of unit cell:	Completed after 10 iterations at t[s]:    250.37
SCF: Cycle: 10   F: -1787.593753226092986   dF: -2.081e-03   |Residual|: 3.628e-03   |deigs|: 1.921e-03  t[s]:    250.52
	Linear fluid (dielectric constant: 7.2) occupying 0.811535 of unit cell:	Completed after 11 iterations at t[s]:    250.72
	FillingsUpdate:  mu: -0.104670504  nElectrons: 486.000000
	Linear fluid (dielectric constant: 7.2) occupying 0.813952 of unit cell:	Completed after 10 iterations at t[s]:    254.59
SCF: Cycle: 11   F: -1787.595054698433160   dF: -1.301e-03   |Residual|: 3.373e-03   |deigs|: 1.496e-03  t[s]:    254.74
	Linear fluid (dielectric constant: 7.2) occupying 0.812615 of unit cell:	Completed after 12 iterations at t[s]:    254.96
	FillingsUpdate:  mu: -0.102711434  nElectrons: 486.000000
	Linear fluid (dielectric constant: 7.2) occupying 0.814203 of unit cell:	Completed after 10 iterations at t[s]:    258.93
SCF: Cycle: 12   F: -1787.596553448819805   dF: -1.499e-03   |Residual|: 4.850e-03   |deigs|: 2.283e-03  t[s]:    259.08
	Linear fluid (dielectric constant: 7.2) occupying 0.813308 of unit cell:	Completed after 13 iterations at t[s]:    259.30
	FillingsUpdate:  mu: -0.100861704  nElectrons: 486.000000
	Linear fluid (dielectric constant: 7.2) occupying 0.814086 of unit cell:	Completed after 12 iterations at t[s]:    263.29
SCF: Cycle: 13   F: -1787.596231173966771   dF: +3.223e-04   |Residual|: 5.409e-03   |deigs|: 1.966e-03  t[s]:    263.44
	Linear fluid (dielectric constant: 7.2) occupying 0.813526 of unit cell:	Completed after 14 iterations at t[s]:    263.68
	FillingsUpdate:  mu: -0.100286871  nElectrons: 486.000000
	Linear fluid (dielectric constant: 7.2) occupying 0.813982 of unit cell:	Completed after 12 iterations at t[s]:    267.61
SCF: Cycle: 14   F: -1787.596012330182248   dF: +2.188e-04   |Residual|: 5.316e-03   |deigs|: 5.926e-04  t[s]:    267.75
	Linear fluid (dielectric constant: 7.2) occupying 0.813534 of unit cell:	Completed after 14 iterations at t[s]:    268.00
	FillingsUpdate:  mu: -0.100248884  nElectrons: 486.000000
	Linear fluid (dielectric constant: 7.2) occupying 0.814008 of unit cell:	Completed after 12 iterations at t[s]:    271.31
SCF: Cycle: 15   F: -1787.596076247648398   dF: -6.392e-05   |Residual|: 5.184e-03   |deigs|: 1.657e-04  t[s]:    271.46
	Linear fluid (dielectric constant: 7.2) occupying 0.813520 of unit cell:	Completed after 14 iterations at t[s]:    271.71
	FillingsUpdate:  mu: -0.100295319  nElectrons: 486.000000
	Linear fluid (dielectric constant: 7.2) occupying 0.814030 of unit cell:	Completed after 12 iterations at t[s]:    275.03
SCF: Cycle: 16   F: -1787.596011367373876   dF: +6.488e-05   |Residual|: 5.085e-03   |deigs|: 1.462e-04  t[s]:    275.17
	Linear fluid (dielectric constant: 7.2) occupying 0.813605 of unit cell:	Completed after 14 iterations at t[s]:    275.42
	FillingsUpdate:  mu: -0.100391916  nElectrons: 486.000000
	Linear fluid (dielectric constant: 7.2) occupying 0.813490 of unit cell:	Completed after 12 iterations at t[s]:    279.33
SCF: Cycle: 17   F: -1787.595100319460698   dF: +9.110e-04   |Residual|: 5.783e-03   |deigs|: 5.306e-04  t[s]:    279.48
	Linear fluid (dielectric constant: 7.2) occupying 0.813702 of unit cell:	Completed after 14 iterations at t[s]:    279.73
	FillingsUpdate:  mu: -0.100302401  nElectrons: 486.000000
	Linear fluid (dielectric constant: 7.2) occupying 0.813208 of unit cell:	Completed after 12 iterations at t[s]:    283.65
SCF: Cycle: 18   F: -1787.594555677591643   dF: +5.446e-04   |Residual|: 5.982e-03   |deigs|: 2.376e-04  t[s]:    283.80
	Linear fluid (dielectric constant: 7.2) occupying 0.813592 of unit cell:	Completed after 14 iterations at t[s]:    284.04
	FillingsUpdate:  mu: -0.100579529  nElectrons: 486.000000
	Linear fluid (dielectric constant: 7.2) occupying 0.813435 of unit cell:	Completed after 12 iterations at t[s]:    287.92
SCF: Cycle: 19   F: -1787.594844621034099   dF: -2.889e-04   |Residual|: 5.901e-03   |deigs|: 2.932e-04  t[s]:    288.07
	Linear fluid (dielectric constant: 7.2) occupying 0.812566 of unit cell:	Completed after 11 iterations at t[s]:    288.28
	FillingsUpdate:  mu: -0.103515603  nElectrons: 486.000000
	Linear fluid (dielectric constant: 7.2) occupying 0.813894 of unit cell:	Completed after 11 iterations at t[s]:    292.25
SCF: Cycle: 20   F: -1787.596267719741036   dF: -1.423e-03   |Residual|: 4.530e-03   |deigs|: 3.222e-03  t[s]:    292.40
	Linear fluid (dielectric constant: 7.2) occupying 0.813011 of unit cell:	Completed after 11 iterations at t[s]:    292.61
	FillingsUpdate:  mu: -0.102273135  nElectrons: 486.000000
	Linear fluid (dielectric constant: 7.2) occupying 0.814464 of unit cell:	Completed after 10 iterations at t[s]:    296.53
SCF: Cycle: 21   F: -1787.597077353408167   dF: -8.096e-04   |Residual|: 3.772e-03   |deigs|: 2.295e-03  t[s]:    296.68
	Linear fluid (dielectric constant: 7.2) occupying 0.812781 of unit cell:	Completed after 11 iterations at t[s]:    296.89
	FillingsUpdate:  mu: -0.103603509  nElectrons: 486.000000
	Linear fluid (dielectric constant: 7.2) occupying 0.814392 of unit cell:	Completed after 11 iterations at t[s]:    300.79
SCF: Cycle: 22   F: -1787.596686075292382   dF: +3.913e-04   |Residual|: 5.019e-03   |deigs|: 1.309e-03  t[s]:    300.94
	Linear fluid (dielectric constant: 7.2) occupying 0.812690 of unit cell:	Completed after 11 iterations at t[s]:    301.15
	FillingsUpdate:  mu: -0.103909542  nElectrons: 486.000000
	Linear fluid (dielectric constant: 7.2) occupying 0.814334 of unit cell:	Completed after 11 iterations at t[s]:    304.48
SCF: Cycle: 23   F: -1787.596432017519192   dF: +2.541e-04   |Residual|: 5.523e-03   |deigs|: 3.206e-04  t[s]:    304.63
	Linear fluid (dielectric constant: 7.2) occupying 0.813046 of unit cell:	Completed after 10 iterations at t[s]:    304.83
	FillingsUpdate:  mu: -0.102747891  nElectrons: 486.000000
	Linear fluid (dielectric constant: 7.2) occupying 0.814387 of unit cell:	Completed after 11 iterations at t[s]:    308.75
SCF: Cycle: 24   F: -1787.597083225450206   dF: -6.512e-04   |Residual|: 4.583e-03   |deigs|: 1.158e-03  t[s]:    308.90
	Linear fluid (dielectric constant: 7.2) occupying 0.813756 of unit cell:	Completed after 12 iterations at t[s]:    309.12
	FillingsUpdate:  mu: -0.100276015  nElectrons: 486.000000
	Linear fluid (dielectric constant: 7.2) occupying 0.814197 of unit cell:	Completed after 11 iterations at t[s]:    313.10
SCF: Cycle: 25   F: -1787.597349283918902   dF: -2.661e-04   |Residual|: 6.198e-03   |deigs|: 2.573e-03  t[s]:    313.24
	Linear fluid (dielectric constant: 7.2) occupying 0.813766 of unit cell:	Completed after 11 iterations at t[s]:    313.46
	FillingsUpdate:  mu: -0.100126307  nElectrons: 486.000000
	Linear fluid (dielectric constant: 7.2) occupying 0.814492 of unit cell:	Completed after 10 iterations at t[s]:    317.36
SCF: Cycle: 26   F: -1787.597937549667677   dF: -5.883e-04   |Residual|: 6.095e-03   |deigs|: 9.322e-04  t[s]:    317.51
	Linear fluid (dielectric constant: 7.2) occupying 0.814215 of unit cell:	Completed after 15 iterations at t[s]:    317.76
	FillingsUpdate:  mu: -0.097112940  nElectrons: 486.000000
	Linear fluid (dielectric constant: 7.2) occupying 0.813559 of unit cell:	Completed after 12 iterations at t[s]:    321.75
SCF: Cycle: 27   F: -1787.594957248802757   dF: +2.980e-03   |Residual|: 1.104e-02   |deigs|: 3.033e-03  t[s]:    321.90
	Linear fluid (dielectric constant: 7.2) occupying 0.814119 of unit cell:	Completed after 14 iterations at t[s]:    322.14
	FillingsUpdate:  mu: -0.096847935  nElectrons: 486.000000
	Linear fluid (dielectric constant: 7.2) occupying 0.814668 of unit cell:	Completed after 12 iterations at t[s]:    326.14
SCF: Cycle: 28   F: -1787.597270692503798   dF: -2.313e-03   |Residual|: 9.265e-03   |deigs|: 1.648e-03  t[s]:    326.28
	Linear fluid (dielectric constant: 7.2) occupying 0.814177 of unit cell:	Completed after 14 iterations at t[s]:    326.53
	FillingsUpdate:  mu: -0.096967904  nElectrons: 486.000000
	Linear fluid (dielectric constant: 7.2) occupying 0.814602 of unit cell:	Completed after 12 iterations at t[s]:    330.45
SCF: Cycle: 29   F: -1787.597371737994536   dF: -1.010e-04   |Residual|: 8.841e-03   |deigs|: 2.913e-04  t[s]:    330.59
	Linear fluid (dielectric constant: 7.2) occupying 0.814370 of unit cell:	Completed after 14 iterations at t[s]:    330.84
	FillingsUpdate:  mu: -0.096602094  nElectrons: 486.000000
	Linear fluid (dielectric constant: 7.2) occupying 0.814478 of unit cell:	Completed after 12 iterations at t[s]:    334.77
SCF: Cycle: 30   F: -1787.597011821551860   dF: +3.599e-04   |Residual|: 8.446e-03   |deigs|: 4.942e-04  t[s]:    334.92
	Linear fluid (dielectric constant: 7.2) occupying 0.814607 of unit cell:	Completed after 14 iterations at t[s]:    335.16
	FillingsUpdate:  mu: -0.096119852  nElectrons: 486.000000
	Linear fluid (dielectric constant: 7.2) occupying 0.813509 of unit cell:	Completed after 12 iterations at t[s]:    339.11
SCF: Cycle: 31   F: -1787.594764394194044   dF: +2.247e-03   |Residual|: 8.350e-03   |deigs|: 1.170e-03  t[s]:    339.26
	Linear fluid (dielectric constant: 7.2) occupying 0.814694 of unit cell:	Completed after 15 iterations at t[s]:    339.51
	FillingsUpdate:  mu: -0.095748756  nElectrons: 486.000000
	Linear fluid (dielectric constant: 7.2) occupying 0.813300 of unit cell:	Completed after 13 iterations at t[s]:    343.50
SCF: Cycle: 32   F: -1787.593023561332302   dF: +1.741e-03   |Residual|: 8.244e-03   |deigs|: 9.365e-04  t[s]:    343.65
	Linear fluid (dielectric constant: 7.2) occupying 0.814526 of unit cell:	Completed after 12 iterations at t[s]:    343.88
	FillingsUpdate:  mu: -0.100463884  nElectrons: 486.000000
	Linear fluid (dielectric constant: 7.2) occupying 0.803063 of unit cell:	Completed after 13 iterations at t[s]:    347.87
SCF: Cycle: 33   F: -1787.414465776060524   dF: +1.786e-01   |Residual|: 7.145e-02   |deigs|: 4.594e-03  t[s]:    348.02
	Linear fluid (dielectric constant: 7.2) occupying 0.814383 of unit cell:	Completed after 14 iterations at t[s]:    348.27
	FillingsUpdate:  mu: -0.098967042  nElectrons: 486.000000
	Linear fluid (dielectric constant: 7.2) occupying 0.807504 of unit cell:	Completed after 12 iterations at t[s]:    352.18
SCF: Cycle: 34   F: -1787.560882289107212   dF: -1.464e-01   |Residual|: 1.531e-02   |deigs|: 1.169e-03  t[s]:    352.33
	Linear fluid (dielectric constant: 7.2) occupying 0.814099 of unit cell:	Completed after 13 iterations at t[s]:    352.56
	FillingsUpdate:  mu: -0.097306781  nElectrons: 486.000000
	Linear fluid (dielectric constant: 7.2) occupying 0.814829 of unit cell:	Completed after 11 iterations at t[s]:    356.58
SCF: Cycle: 35   F: -1787.598517207340137   dF: -3.763e-02   |Residual|: 4.076e-03   |deigs|: 4.351e-03  t[s]:    356.72
	Linear fluid (dielectric constant: 7.2) occupying 0.813882 of unit cell:	Completed after 11 iterations at t[s]:    356.93
	FillingsUpdate:  mu: -0.097457622  nElectrons: 486.000000
	Linear fluid (dielectric constant: 7.2) occupying 0.814938 of unit cell:	Completed after 11 iterations at t[s]:    360.92
SCF: Cycle: 36   F: -1787.598651941308617   dF: -1.347e-04   |Residual|: 2.636e-03   |deigs|: 9.594e-04  t[s]:    361.06
	Linear fluid (dielectric constant: 7.2) occupying 0.813769 of unit cell:	Completed after 10 iterations at t[s]:    361.27
	FillingsUpdate:  mu: -0.097656159  nElectrons: 486.000000
	Linear fluid (dielectric constant: 7.2) occupying 0.814993 of unit cell:	Completed after 10 iterations at t[s]:    365.14
SCF: Cycle: 37   F: -1787.598709544467056   dF: -5.760e-05   |Residual|: 2.205e-03   |deigs|: 4.345e-04  t[s]:    365.30
	Linear fluid (dielectric constant: 7.2) occupying 0.813551 of unit cell:	Completed after 11 iterations at t[s]:    365.50
	FillingsUpdate:  mu: -0.097783338  nElectrons: 486.000000
	Linear fluid (dielectric constant: 7.2) occupying 0.815024 of unit cell:	Completed after 10 iterations at t[s]:    369.46
SCF: Cycle: 38   F: -1787.598790500273026   dF: -8.096e-05   |Residual|: 2.702e-03   |deigs|: 3.936e-04  t[s]:    369.61
	Linear fluid (dielectric constant: 7.2) occupying 0.813627 of unit cell:	Completed after 10 iterations at t[s]:    369.81
	FillingsUpdate:  mu: -0.097755430  nElectrons: 486.000000
	Linear fluid (dielectric constant: 7.2) occupying 0.814953 of unit cell:	Completed after 10 iterations at t[s]:    373.72
SCF: Cycle: 39   F: -1787.598867133007388   dF: -7.663e-05   |Residual|: 2.785e-03   |deigs|: 3.118e-04  t[s]:    373.86
	Linear fluid (dielectric constant: 7.2) occupying 0.813512 of unit cell:	Completed after 11 iterations at t[s]:    374.07
	FillingsUpdate:  mu: -0.097897510  nElectrons: 486.000000
	Linear fluid (dielectric constant: 7.2) occupying 0.814983 of unit cell:	Completed after 11 iterations at t[s]:    378.05
SCF: Cycle: 40   F: -1787.598822463579381   dF: +4.467e-05   |Residual|: 2.875e-03   |deigs|: 3.898e-04  t[s]:    378.19
	Linear fluid (dielectric constant: 7.2) occupying 0.813464 of unit cell:	Completed after 12 iterations at t[s]:    378.41
	FillingsUpdate:  mu: -0.098047970  nElectrons: 486.000000
	Linear fluid (dielectric constant: 7.2) occupying 0.814974 of unit cell:	Completed after 11 iterations at t[s]:    381.65
SCF: Cycle: 41   F: -1787.598864115518836   dF: -4.165e-05   |Residual|: 2.531e-03   |deigs|: 2.928e-04  t[s]:    381.80
	Linear fluid (dielectric constant: 7.2) occupying 0.813530 of unit cell:	Completed after 10 iterations at t[s]:    382.00
	FillingsUpdate:  mu: -0.098207290  nElectrons: 486.000000
	Linear fluid (dielectric constant: 7.2) occupying 0.814945 of unit cell:	Completed after 10 iterations at t[s]:    385.97
SCF: Cycle: 42   F: -1787.598979883649235   dF: -1.158e-04   |Residual|: 2.495e-03   |deigs|: 2.435e-04  t[s]:    386.12
	Linear fluid (dielectric constant: 7.2) occupying 0.813414 of unit cell:	Completed after 10 iterations at t[s]:    386.32
	FillingsUpdate:  mu: -0.098502672  nElectrons: 486.000000
	Linear fluid (dielectric constant: 7.2) occupying 0.814935 of unit cell:	Completed after 10 iterations at t[s]:    389.64
SCF: Cycle: 43   F: -1787.598987721686171   dF: -7.838e-06   |Residual|: 2.469e-03   |deigs|: 4.012e-04  t[s]:    389.79
	Linear fluid (dielectric constant: 7.2) occupying 0.813454 of unit cell:	Completed after 10 iterations at t[s]:    389.98
	FillingsUpdate:  mu: -0.098673280  nElectrons: 486.000000
	Linear fluid (dielectric constant: 7.2) occupying 0.814927 of unit cell:	Completed after 10 iterations at t[s]:    393.86
SCF: Cycle: 44   F: -1787.598989682060846   dF: -1.960e-06   |Residual|: 1.996e-03   |deigs|: 2.178e-04  t[s]:    394.01
	Linear fluid (dielectric constant: 7.2) occupying 0.813693 of unit cell:	Completed after 10 iterations at t[s]:    394.20
	FillingsUpdate:  mu: -0.098708614  nElectrons: 486.000000
	Linear fluid (dielectric constant: 7.2) occupying 0.814615 of unit cell:	Completed after 10 iterations at t[s]:    400.86
SCF: Cycle: 45   F: -1787.598699233366006   dF: +2.904e-04   |Residual|: 1.956e-03   |deigs|: 1.138e-03  t[s]:    401.00
	Linear fluid (dielectric constant: 7.2) occupying 0.813844 of unit cell:	Completed after 10 iterations at t[s]:    401.20
	FillingsUpdate:  mu: -0.098827564  nElectrons: 486.000000
	Linear fluid (dielectric constant: 7.2) occupying 0.814810 of unit cell:	Completed after 10 iterations at t[s]:    409.27
SCF: Cycle: 46   F: -1787.599063916240539   dF: -3.647e-04   |Residual|: 1.571e-03   |deigs|: 9.517e-04  t[s]:    409.42
	Linear fluid (dielectric constant: 7.2) occupying 0.813967 of unit cell:	Completed after 10 iterations at t[s]:    409.61
	FillingsUpdate:  mu: -0.098856755  nElectrons: 486.000000
	Linear fluid (dielectric constant: 7.2) occupying 0.814668 of unit cell:	Completed after 10 iterations at t[s]:    416.92
SCF: Cycle: 47   F: -1787.599136176686443   dF: -7.226e-05   |Residual|: 1.285e-03   |deigs|: 6.384e-04  t[s]:    417.07
	Linear fluid (dielectric constant: 7.2) occupying 0.814097 of unit cell:	Completed after 9 iterations at t[s]:    417.25
	FillingsUpdate:  mu: -0.098809088  nElectrons: 486.000000
	Linear fluid (dielectric constant: 7.2) occupying 0.814626 of unit cell:	Completed after 9 iterations at t[s]:    420.54
SCF: Cycle: 48   F: -1787.599200357272366   dF: -6.418e-05   |Residual|: 1.239e-03   |deigs|: 2.110e-04  t[s]:    420.69
	Linear fluid (dielectric constant: 7.2) occupying 0.814314 of unit cell:	Completed after 9 iterations at t[s]:    420.87
	FillingsUpdate:  mu: -0.098747506  nElectrons: 486.000000
	Linear fluid (dielectric constant: 7.2) occupying 0.814385 of unit cell:	Completed after 9 iterations at t[s]:    424.37
SCF: Cycle: 49   F: -1787.598936776125129   dF: +2.636e-04   |Residual|: 9.677e-04   |deigs|: 4.166e-04  t[s]:    424.51
	Linear fluid (dielectric constant: 7.2) occupying 0.814370 of unit cell:	Completed after 8 iterations at t[s]:    424.69
Setting wave functions to eigenvectors of Hamiltonian
Single-point solvation energy estimate, DeltaF = -0.085691885414462

# Ionic positions in cartesian coordinates:
ion Ti   0.000000174975000  -0.000000174975000   2.000000000000000 0
ion Ti   4.340445422775000   4.340445072825000   4.795024053800001 0
ion Ti   0.000000174975000   8.680909217924999   2.000000000000000 0
ion Ti   4.340445422775000  13.021354465725000   4.795024053800001 0
ion Ti   0.000000174975000  17.361818610825001   2.000000000000000 0
ion Ti   4.340445422775000  21.702263858624999   4.795024053800001 0
ion Ti   8.680909567874998  -0.000000174975000   2.000000000000000 0
ion Ti  13.021354815675002   4.340445072825000   4.795024053800001 0
ion Ti   8.680909567874998   8.680909217924999   2.000000000000000 0
ion Ti  13.021354815675002  13.021354465725000   4.795024053800001 0
ion Ti   8.680909567874998  17.361818610825001   2.000000000000000 0
ion Ti  13.021364264325003  21.702263858624999   4.795024053800001 0
ion Ti  17.361818960775000  -0.000000174975000   2.000000000000000 0
ion Ti  21.702264208574999   4.340445072825000   4.795024053800001 0
ion Ti  17.361818960775000   8.680909217924999   2.000000000000000 0
ion Ti  21.702264208574999  13.021363914375000   4.795024053800001 0
ion Ti  17.361818960775000  17.361818610825001   2.000000000000000 0
ion Ti  21.702264208574999  21.702263858624999   4.795024053800001 0
ion O   2.650289808075000   2.650289458125000   2.000000000000000 0
ion O   6.030619934775000   6.030619584825001   2.000000000000000 0
ion O   1.690174686975000   6.990734705924999   4.795024053800001 0
ion O   6.990735055874999   1.690174337025000   4.795024053800001 0
ion O   2.650289808075000  11.331198851025000   2.000000000000000 0
ion O   6.030619934775000  14.711528977725004   2.000000000000000 0
ion O   1.690174686975000  15.671644098825000   4.795024053800001 0
ion O   6.990735055874999  10.371083729925001   4.795024053800001 0
ion O   2.650289808075000  20.012108243924999   2.000000000000000 0
ion O   6.030619934775000  23.392438370625001   2.000000000000000 0
ion O   1.690174686975000  24.352553491725004   4.795024053800001 0
ion O   6.990735055874999  19.051993122824996   4.795024053800001 0
ion O  11.331199200975000   2.650289458125000   2.000000000000000 0
ion O  14.711529327675001   6.030619584825001   2.000000000000000 0
ion O  10.371084079875001   6.990734705924999   4.795024053800001 0
ion O  15.671644448774998   1.690174337025000   4.795024053800001 0
ion O  11.331199200975000  11.331198851025000   2.000000000000000 0
ion O  14.711529327675001  14.711528977725004   2.000000000000000 0
ion O  10.371084079875001  15.671644098825000   4.795024053800001 0
ion O  15.671644448774998  10.371083729925001   4.795024053800001 0
ion O  11.331199200975000  20.012108243924999   2.000000000000000 0
ion O  14.711529327675001  23.392438370625001   2.000000000000000 0
ion O  10.371084079875001  24.352553491725004   4.795024053800001 0
ion O  15.671644448774998  19.051993122824996   4.795024053800001 0
ion O  20.012108593874995   2.650289458125000   2.000000000000000 0
ion O  23.392438720575004   6.030619584825001   2.000000000000000 0
ion O  19.051993472774999   6.990734705924999   4.795024053800001 0
ion O  24.352553841675000   1.690174337025000   4.795024053800001 0
ion O  20.012108593874995  11.331198851025000   2.000000000000000 0
ion O  23.392438720575004  14.711528977725004   2.000000000000000 0
ion O  19.051993472774999  15.671644098825000   4.795024053800001 0
ion O  24.352553841675000  10.371083729925001   4.795024053800001 0
ion O  20.012108593874995  20.012108243924999   2.000000000000000 0
ion O  23.392438720575004  23.392438370625001   2.000000000000000 0
ion O  19.051993472774999  24.352553491725004   4.795024053800001 0
ion O  24.352553841675000  19.051993122824996   4.795024053800001 0
ion S  14.138469590500000  22.130710663573069   9.642595283957990 1
ion S  17.547832456784462  23.890165768615478   9.745856069959938 1
ion S  20.611424260315410  21.495772984939006   9.527981541699216 1
ion S  14.099382135276606  12.986822359908139   9.764583539275456 1
ion S  17.725835586236130  13.528276287175728  11.283004627924727 1
ion S  20.882625062726735  11.979917271987519   9.500975053575901 1
ion Na  17.265449383771902  17.656073731128863   8.344524639034955 1
ion Na  17.203594859973158   8.716083754105448   8.281865187623390 1

# Forces in Cartesian coordinates:
force Ti  -0.003152873763433  -0.004837901951720   0.129737421089255 0
force Ti  -0.000158039292473  -0.000647223241106  -0.124667677718885 0
force Ti  -0.000286820709545   0.003234189486247   0.131594070802262 0
force Ti  -0.000613089782720   0.001635602323554  -0.121300552408124 0
force Ti  -0.005172533109402  -0.001650031684029   0.132123181774732 0
force Ti  -0.000352786755942  -0.001243539215693  -0.122964532881680 0
force Ti   0.001503687330044  -0.003888709578917   0.132283160415875 0
force Ti  -0.005276305753382  -0.007743451837041  -0.129511941550730 0
force Ti   0.001105173476720   0.003124529267104   0.129864423694932 0
force Ti   0.000580281030946   0.012142472090865  -0.097781246349417 0
force Ti   0.003498278650124   0.001544733687788   0.131335080778366 0
force Ti   0.003205527291343   0.012231466419478  -0.095436650460212 0
force Ti  -0.000673823155580  -0.006023648540837   0.129784494789819 0
force Ti   0.008228488945380  -0.008855042912070  -0.131607602016937 0
force Ti  -0.000398296341089   0.005866022754411   0.118288287600988 0
force Ti  -0.001730771578919  -0.004272018600087  -0.096540645850462 0
force Ti   0.001412979630911   0.001323903389397   0.124198788273941 0
force Ti  -0.000133292471598  -0.005747108773145  -0.094683794757844 0
force O  -0.017218093359203  -0.016948045585545   0.016926590156745 0
force O   0.018178836099382   0.017957700203674   0.016600833318375 0
force O   0.018055593183490  -0.018132329088078  -0.020406293599130 0
force O  -0.018466360187287   0.018739904903939  -0.019950599071810 0
force O  -0.018500475728498  -0.019225985750647   0.015831108867063 0
force O   0.017342682061640   0.017505939621713   0.016497548750539 0
force O   0.018561947280319  -0.018018426861280  -0.021581244819227 0
force O  -0.016853123334154   0.016250844850237  -0.022031010244840 0
force O  -0.016458389531824  -0.016992504204497   0.016773220813218 0
force O   0.018047942172474   0.018706855722173   0.016038792365956 0
force O   0.017902635653191  -0.016954349532305  -0.021655264562390 0
force O  -0.018212639573554   0.017814453101494  -0.021165082605360 0
force O  -0.017009326683243  -0.016250959877813   0.017185704741585 0
force O   0.019527104861201   0.019239001428233   0.017614394853497 0
force O   0.019168850323371  -0.018440162460684  -0.019706421202972 0
force O  -0.018648747583946   0.022182792866499  -0.019137440933920 0
force O  -0.023357264701252  -0.024719276988750   0.011084689650630 0
force O   0.020320163075441   0.019247562431395   0.013544336085738 0
force O   0.015234404271957  -0.016557955821005  -0.023933806552973 0
force O  -0.010851610548636   0.006472731666730  -0.030727693076818 0
force O  -0.024565318803767  -0.025339955245832   0.009616644083237 0
force O   0.021451625294335   0.021280576394209   0.012179402136509 0
force O   0.011483517696260  -0.013116961255151  -0.027236017229392 0
force O  -0.012950307973432   0.010266426040671  -0.031501082488143 0
force O  -0.015872377011275  -0.014260267178581   0.018854287995858 0
force O   0.015957998318467   0.016696931405578   0.017935925489859 0
force O   0.015831678510037  -0.019814564342272  -0.011449293691449 0
force O  -0.019500119916987   0.020636254055053  -0.019836789585298 0
force O  -0.024598609722799  -0.024931041992753   0.011425375847646 0
force O   0.024924776914652   0.024996816547014   0.008897530804989 0
force O   0.011395020039797  -0.010748298284647  -0.021619664069702 0
force O  -0.012554552500550   0.013208028676873  -0.025113228249673 0
force O  -0.023851945101582  -0.023286830347426   0.010650354458371 0
force O   0.026005702924360   0.027505826274024   0.008031622657801 0
force O   0.010256893496639  -0.006100857488641  -0.035386871994306 0
force O  -0.012928020564831   0.014064584566436  -0.025450052428681 0
force S  -0.003348123327398  -0.002826795114652   0.000474527265517 1
force S   0.000419719881887   0.004195987694648   0.001982186483371 1
force S   0.002396438250516  -0.001814479399447   0.000884277457153 1
force S  -0.002513251232955   0.000126762992738  -0.000100073816468 1
force S   0.000498779357573   0.002252936319422   0.002177068521705 1
force S   0.002324080306087  -0.000130465628368  -0.000036131797442 1
force Na  -0.000177819660708  -0.000306701662465  -0.001375391820985 1
force Na  -0.000566849552804  -0.003312343698471   0.000965033930114 1

# Energy components:
   A_diel =       -0.1785130182057592
   Eewald =    10045.7409764569365507
       EH =    11554.6337772726474213
     Eloc =   -23664.2512483563441492
      Enl =       45.0954706031643582
      Exc =     -330.5214832813134649
 Exc_core =       36.5177976719776751
       KE =      525.4651149773701491
-------------------------------------
     Etot =    -1787.4981076737665262
       TS =        0.1017983236764651
-------------------------------------
        F =    -1787.5999059974431020

IonicMinimize: Iter:   0  F: -1787.599905997443102  |grad|_K:  1.904e-03  alpha:  1.000e+00

#--- Lowdin population analysis ---
# oxidation-state Ti +1.635 +1.663 +1.635 +1.687 +1.632 +1.674 +1.633 +1.640 +1.636 +1.582 +1.633 +1.582 +1.625 +1.656 +1.646 +1.578 +1.638 +1.573
# oxidation-state O -0.761 -0.761 -0.748 -0.749 -0.761 -0.762 -0.739 -0.744 -0.761 -0.759 -0.741 -0.741 -0.753 -0.761 -0.748 -0.741 -0.770 -0.760 -0.726 -0.792 -0.771 -0.760 -0.726 -0.781 -0.759 -0.757 -0.810 -0.739 -0.763 -0.774 -0.772 -0.729 -0.763 -0.771 -0.706 -0.725
# oxidation-state S -0.387 +0.237 -0.419 -0.472 +0.052 -0.438
# oxidation-state Na +0.680 +0.766


-------- Electronic minimization -----------
Will mix electronic density at each iteration.
	FillingsUpdate:  mu: -0.098747506  nElectrons: 486.000000
	Linear fluid (dielectric constant: 7.2) occupying 0.814366 of unit cell:	Completed after 8 iterations at t[s]:    427.67
	FillingsUpdate:  mu: -0.098498710  nElectrons: 486.000000
	Linear fluid (dielectric constant: 7.2) occupying 0.814266 of unit cell:	Completed after 9 iterations at t[s]:    431.75
SCF: Cycle:  0   F: -1787.598519694268361   dF: +4.846e-04   |Residual|: 6.017e-03   |deigs|: 7.436e-03  t[s]:    431.90
	Linear fluid (dielectric constant: 7.2) occupying 0.814385 of unit cell:	Completed after 9 iterations at t[s]:    432.08
	FillingsUpdate:  mu: -0.098495637  nElectrons: 486.000000
	Linear fluid (dielectric constant: 7.2) occupying 0.814535 of unit cell:	Completed after 9 iterations at t[s]:    435.63
SCF: Cycle:  1   F: -1787.599194421723951   dF: -6.747e-04   |Residual|: 7.952e-03   |deigs|: 8.025e-04  t[s]:    435.78
	Linear fluid (dielectric constant: 7.2) occupying 0.814386 of unit cell:	Completed after 8 iterations at t[s]:    435.94
	FillingsUpdate:  mu: -0.098498101  nElectrons: 486.000000
	Linear fluid (dielectric constant: 7.2) occupying 0.814521 of unit cell:	Completed after 8 iterations at t[s]:    439.19
SCF: Cycle:  2   F: -1787.599430049193870   dF: -2.356e-04   |Residual|: 1.879e-03   |deigs|: 3.068e-04  t[s]:    439.34
	Linear fluid (dielectric constant: 7.2) occupying 0.814400 of unit cell:	Completed after 8 iterations at t[s]:    439.50
	FillingsUpdate:  mu: -0.098482278  nElectrons: 486.000000
	Linear fluid (dielectric constant: 7.2) occupying 0.814432 of unit cell:	Completed after 8 iterations at t[s]:    442.92
SCF: Cycle:  3   F: -1787.599508607505641   dF: -7.856e-05   |Residual|: 8.494e-04   |deigs|: 4.530e-04  t[s]:    443.06
	Linear fluid (dielectric constant: 7.2) occupying 0.814402 of unit cell:	Completed after 7 iterations at t[s]:    443.22
	FillingsUpdate:  mu: -0.098467538  nElectrons: 486.000000
	Linear fluid (dielectric constant: 7.2) occupying 0.814243 of unit cell:	Completed after 8 iterations at t[s]:    446.63
SCF: Cycle:  4   F: -1787.598914107575638   dF: +5.945e-04   |Residual|: 6.780e-04   |deigs|: 3.718e-04  t[s]:    446.77
	Linear fluid (dielectric constant: 7.2) occupying 0.814373 of unit cell:	Completed after 7 iterations at t[s]:    446.94
	FillingsUpdate:  mu: -0.098458173  nElectrons: 486.000000
	Linear fluid (dielectric constant: 7.2) occupying 0.814511 of unit cell:	Completed after 7 iterations at t[s]:    450.36
SCF: Cycle:  5   F: -1787.599500903420449   dF: -5.868e-04   |Residual|: 6.370e-04   |deigs|: 6.917e-04  t[s]:    450.51
	Linear fluid (dielectric constant: 7.2) occupying 0.814377 of unit cell:	Completed after 7 iterations at t[s]:    450.66
	FillingsUpdate:  mu: -0.098435233  nElectrons: 486.000000
	Linear fluid (dielectric constant: 7.2) occupying 0.814478 of unit cell:	Completed after 7 iterations at t[s]:    453.92
SCF: Cycle:  6   F: -1787.599525414590971   dF: -2.451e-05   |Residual|: 3.789e-04   |deigs|: 1.487e-04  t[s]:    454.07
	Linear fluid (dielectric constant: 7.2) occupying 0.814382 of unit cell:	Completed after 7 iterations at t[s]:    454.23
	FillingsUpdate:  mu: -0.098419651  nElectrons: 486.000000
	Linear fluid (dielectric constant: 7.2) occupying 0.814469 of unit cell:	Completed after 7 iterations at t[s]:    457.42
SCF: Cycle:  7   F: -1787.599548029728567   dF: -2.262e-05   |Residual|: 2.777e-04   |deigs|: 1.033e-04  t[s]:    457.58
	Linear fluid (dielectric constant: 7.2) occupying 0.814389 of unit cell:	Completed after 6 iterations at t[s]:    457.72
	FillingsUpdate:  mu: -0.098398019  nElectrons: 486.000000
	Linear fluid (dielectric constant: 7.2) occupying 0.814363 of unit cell:	Completed after 7 iterations at t[s]:    461.12
SCF: Cycle:  8   F: -1787.599329627568977   dF: +2.184e-04   |Residual|: 2.980e-04   |deigs|: 4.237e-04  t[s]:    461.27
	Linear fluid (dielectric constant: 7.2) occupying 0.814388 of unit cell:	Completed after 7 iterations at t[s]:    461.44
	FillingsUpdate:  mu: -0.098382448  nElectrons: 486.000000
	Linear fluid (dielectric constant: 7.2) occupying 0.814443 of unit cell:	Completed after 6 iterations at t[s]:    464.84
SCF: Cycle:  9   F: -1787.599557570812522   dF: -2.279e-04   |Residual|: 2.110e-04   |deigs|: 3.910e-04  t[s]:    464.99
	Linear fluid (dielectric constant: 7.2) occupying 0.814393 of unit cell:	Completed after 6 iterations at t[s]:    465.14
	FillingsUpdate:  mu: -0.098371880  nElectrons: 486.000000
	Linear fluid (dielectric constant: 7.2) occupying 0.814428 of unit cell:	Completed after 6 iterations at t[s]:    468.32
SCF: Cycle: 10   F: -1787.599586496057100   dF: -2.893e-05   |Residual|: 1.458e-04   |deigs|: 1.465e-04  t[s]:    468.47
	Linear fluid (dielectric constant: 7.2) occupying 0.814399 of unit cell:	Completed after 6 iterations at t[s]:    468.61
	FillingsUpdate:  mu: -0.098356262  nElectrons: 486.000000
	Linear fluid (dielectric constant: 7.2) occupying 0.814418 of unit cell:	Completed after 6 iterations at t[s]:    471.82
SCF: Cycle: 11   F: -1787.599585535198685   dF: +9.609e-07   |Residual|: 1.378e-04   |deigs|: 5.943e-05  t[s]:    471.97
	Linear fluid (dielectric constant: 7.2) occupying 0.814403 of unit cell:	Completed after 6 iterations at t[s]:    472.12
	FillingsUpdate:  mu: -0.098348564  nElectrons: 486.000000
	Linear fluid (dielectric constant: 7.2) occupying 0.814423 of unit cell:	Completed after 6 iterations at t[s]:    475.46
SCF: Cycle: 12   F: -1787.599593797436455   dF: -8.262e-06   |Residual|: 1.117e-04   |deigs|: 1.426e-04  t[s]:    475.61
	Linear fluid (dielectric constant: 7.2) occupying 0.814412 of unit cell:	Completed after 5 iterations at t[s]:    475.75
	FillingsUpdate:  mu: -0.098329671  nElectrons: 486.000000
	Linear fluid (dielectric constant: 7.2) occupying 0.814422 of unit cell:	Completed after 6 iterations at t[s]:    478.98
SCF: Cycle: 13   F: -1787.599597941576576   dF: -4.144e-06   |Residual|: 1.105e-04   |deigs|: 7.521e-05  t[s]:    479.13
	Linear fluid (dielectric constant: 7.2) occupying 0.814414 of unit cell:	Completed after 5 iterations at t[s]:    479.28
	FillingsUpdate:  mu: -0.098324648  nElectrons: 486.000000
	Linear fluid (dielectric constant: 7.2) occupying 0.814419 of unit cell:	Completed after 5 iterations at t[s]:    482.42
SCF: Cycle: 14   F: -1787.599599929150600   dF: -1.988e-06   |Residual|: 9.243e-05   |deigs|: 2.516e-05  t[s]:    482.56
	Linear fluid (dielectric constant: 7.2) occupying 0.814417 of unit cell:	Completed after 5 iterations at t[s]:    482.70
	FillingsUpdate:  mu: -0.098316818  nElectrons: 486.000000
	Linear fluid (dielectric constant: 7.2) occupying 0.814417 of unit cell:	Completed after 5 iterations at t[s]:    485.87
SCF: Cycle: 15   F: -1787.599602753115732   dF: -2.824e-06   |Residual|: 1.074e-04   |deigs|: 3.377e-05  t[s]:    486.01
	Linear fluid (dielectric constant: 7.2) occupying 0.814420 of unit cell:	Completed after 5 iterations at t[s]:    486.15
	FillingsUpdate:  mu: -0.098309975  nElectrons: 486.000000
	Linear fluid (dielectric constant: 7.2) occupying 0.814417 of unit cell:	Completed after 5 iterations at t[s]:    489.40
SCF: Cycle: 16   F: -1787.599604473714862   dF: -1.721e-06   |Residual|: 9.548e-05   |deigs|: 4.807e-05  t[s]:    489.55
	Linear fluid (dielectric constant: 7.2) occupying 0.814422 of unit cell:	Completed after 5 iterations at t[s]:    489.69
	FillingsUpdate:  mu: -0.098302606  nElectrons: 486.000000
	Linear fluid (dielectric constant: 7.2) occupying 0.814416 of unit cell:	Completed after 5 iterations at t[s]:    492.89
SCF: Cycle: 17   F: -1787.599606730282858   dF: -2.257e-06   |Residual|: 9.291e-05   |deigs|: 3.010e-05  t[s]:    493.04
	Linear fluid (dielectric constant: 7.2) occupying 0.814423 of unit cell:	Completed after 4 iterations at t[s]:    493.17
	FillingsUpdate:  mu: -0.098294359  nElectrons: 486.000000
	Linear fluid (dielectric constant: 7.2) occupying 0.814411 of unit cell:	Completed after 5 iterations at t[s]:    496.36
SCF: Cycle: 18   F: -1787.599607017804146   dF: -2.875e-07   |Residual|: 9.525e-05   |deigs|: 4.642e-05  t[s]:    496.51
	Linear fluid (dielectric constant: 7.2) occupying 0.814422 of unit cell:	Completed after 4 iterations at t[s]:    496.64
	FillingsUpdate:  mu: -0.098289232  nElectrons: 486.000000
	Linear fluid (dielectric constant: 7.2) occupying 0.814414 of unit cell:	Completed after 5 iterations at t[s]:    499.87
SCF: Cycle: 19   F: -1787.599608815007969   dF: -1.797e-06   |Residual|: 7.497e-05   |deigs|: 3.190e-05  t[s]:    500.01
	Linear fluid (dielectric constant: 7.2) occupying 0.814419 of unit cell:	Completed after 4 iterations at t[s]:    500.14
	FillingsUpdate:  mu: -0.098290046  nElectrons: 486.000000
	Linear fluid (dielectric constant: 7.2) occupying 0.814399 of unit cell:	Completed after 5 iterations at t[s]:    503.41
SCF: Cycle: 20   F: -1787.599605564816102   dF: +3.250e-06   |Residual|: 7.191e-05   |deigs|: 8.046e-05  t[s]:    503.56
	Linear fluid (dielectric constant: 7.2) occupying 0.814417 of unit cell:	Completed after 5 iterations at t[s]:    503.70
	FillingsUpdate:  mu: -0.098290387  nElectrons: 486.000000
	Linear fluid (dielectric constant: 7.2) occupying 0.814411 of unit cell:	Completed after 5 iterations at t[s]:    506.85
SCF: Cycle: 21   F: -1787.599610263954901   dF: -4.699e-06   |Residual|: 5.259e-05   |deigs|: 5.205e-05  t[s]:    506.99
	Linear fluid (dielectric constant: 7.2) occupying 0.814415 of unit cell:	Completed after 4 iterations at t[s]:    507.12
	FillingsUpdate:  mu: -0.098289094  nElectrons: 486.000000
	Linear fluid (dielectric constant: 7.2) occupying 0.814407 of unit cell:	Completed after 4 iterations at t[s]:    510.21
SCF: Cycle: 22   F: -1787.599610565804824   dF: -3.018e-07   |Residual|: 5.946e-05   |deigs|: 2.989e-05  t[s]:    510.35
	Linear fluid (dielectric constant: 7.2) occupying 0.814412 of unit cell:	Completed after 3 iterations at t[s]:    510.48
	FillingsUpdate:  mu: -0.098290186  nElectrons: 486.000000
	Linear fluid (dielectric constant: 7.2) occupying 0.814404 of unit cell:	Completed after 4 iterations at t[s]:    513.63
SCF: Cycle: 23   F: -1787.599611053145736   dF: -4.873e-07   |Residual|: 8.069e-05   |deigs|: 2.329e-05  t[s]:    513.77
	Linear fluid (dielectric constant: 7.2) occupying 0.814411 of unit cell:	Completed after 3 iterations at t[s]:    513.89
	FillingsUpdate:  mu: -0.098290227  nElectrons: 486.000000
	Linear fluid (dielectric constant: 7.2) occupying 0.814404 of unit cell:	Completed after 4 iterations at t[s]:    517.04
SCF: Cycle: 24   F: -1787.599611222857675   dF: -1.697e-07   |Residual|: 8.064e-05   |deigs|: 1.622e-05  t[s]:    517.18
	Linear fluid (dielectric constant: 7.2) occupying 0.814410 of unit cell:	Completed after 3 iterations at t[s]:    517.30
	FillingsUpdate:  mu: -0.098287020  nElectrons: 486.000000
	Linear fluid (dielectric constant: 7.2) occupying 0.814407 of unit cell:	Completed after 4 iterations at t[s]:    520.55
SCF: Cycle: 25   F: -1787.599610756861921   dF: +4.660e-07   |Residual|: 5.680e-05   |deigs|: 1.828e-05  t[s]:    520.69
	Linear fluid (dielectric constant: 7.2) occupying 0.814408 of unit cell:	Completed after 3 iterations at t[s]:    520.81
	FillingsUpdate:  mu: -0.098292547  nElectrons: 486.000000
	Linear fluid (dielectric constant: 7.2) occupying 0.814413 of unit cell:	Completed after 4 iterations at t[s]:    524.17
SCF: Cycle: 26   F: -1787.599611936218935   dF: -1.179e-06   |Residual|: 6.084e-05   |deigs|: 6.803e-05  t[s]:    524.31
	Linear fluid (dielectric constant: 7.2) occupying 0.814408 of unit cell:	Completed after 4 iterations at t[s]:    524.45
	FillingsUpdate:  mu: -0.098285263  nElectrons: 486.000000
	Linear fluid (dielectric constant: 7.2) occupying 0.814416 of unit cell:	Completed after 3 iterations at t[s]:    527.60
SCF: Cycle: 27   F: -1787.599613215437103   dF: -1.279e-06   |Residual|: 7.800e-05   |deigs|: 1.762e-05  t[s]:    527.74
	Linear fluid (dielectric constant: 7.2) occupying 0.814409 of unit cell:	Completed after 3 iterations at t[s]:    527.86
	FillingsUpdate:  mu: -0.098286022  nElectrons: 486.000000
	Linear fluid (dielectric constant: 7.2) occupying 0.814415 of unit cell:	Completed after 3 iterations at t[s]:    530.90
SCF: Cycle: 28   F: -1787.599613301114005   dF: -8.568e-08   |Residual|: 6.958e-05   |deigs|: 9.592e-06  t[s]:    531.04
	Linear fluid (dielectric constant: 7.2) occupying 0.814409 of unit cell:	Completed after 3 iterations at t[s]:    531.16
	FillingsUpdate:  mu: -0.098285005  nElectrons: 486.000000
	Linear fluid (dielectric constant: 7.2) occupying 0.814413 of unit cell:	Completed after 3 iterations at t[s]:    534.40
SCF: Cycle: 29   F: -1787.599613845700787   dF: -5.446e-07   |Residual|: 5.175e-05   |deigs|: 8.871e-06  t[s]:    534.53
	Linear fluid (dielectric constant: 7.2) occupying 0.814409 of unit cell:	Completed after 3 iterations at t[s]:    534.67
	FillingsUpdate:  mu: -0.098284364  nElectrons: 486.000000
	Linear fluid (dielectric constant: 7.2) occupying 0.814411 of unit cell:	Completed after 3 iterations at t[s]:    537.83
SCF: Cycle: 30   F: -1787.599614499826203   dF: -6.541e-07   |Residual|: 3.548e-05   |deigs|: 1.381e-05  t[s]:    537.96
	Linear fluid (dielectric constant: 7.2) occupying 0.814409 of unit cell:	Completed after 2 iterations at t[s]:    538.08
	FillingsUpdate:  mu: -0.098280860  nElectrons: 486.000000
	Linear fluid (dielectric constant: 7.2) occupying 0.814406 of unit cell:	Completed after 3 iterations at t[s]:    541.27
SCF: Cycle: 31   F: -1787.599615012212098   dF: -5.124e-07   |Residual|: 3.918e-05   |deigs|: 2.301e-05  t[s]:    541.40
	Linear fluid (dielectric constant: 7.2) occupying 0.814410 of unit cell:	Completed after 2 iterations at t[s]:    541.51
	FillingsUpdate:  mu: -0.098280690  nElectrons: 486.000000
	Linear fluid (dielectric constant: 7.2) occupying 0.814408 of unit cell:	Completed after 3 iterations at t[s]:    544.73
SCF: Cycle: 32   F: -1787.599615725969670   dF: -7.138e-07   |Residual|: 3.694e-05   |deigs|: 3.085e-05  t[s]:    544.86
	Linear fluid (dielectric constant: 7.2) occupying 0.814409 of unit cell:	Completed after 3 iterations at t[s]:    544.98
	FillingsUpdate:  mu: -0.098282659  nElectrons: 486.000000
	Linear fluid (dielectric constant: 7.2) occupying 0.814409 of unit cell:	Completed after 3 iterations at t[s]:    548.06
SCF: Cycle: 33   F: -1787.599615735585758   dF: -9.616e-09   |Residual|: 3.996e-05   |deigs|: 4.763e-06  t[s]:    548.19
	Linear fluid (dielectric constant: 7.2) occupying 0.814410 of unit cell:	Completed after 3 iterations at t[s]:    548.32
	FillingsUpdate:  mu: -0.098283034  nElectrons: 486.000000
	Linear fluid (dielectric constant: 7.2) occupying 0.814408 of unit cell:	Completed after 3 iterations at t[s]:    551.58
SCF: Cycle: 34   F: -1787.599615582154684   dF: +1.534e-07   |Residual|: 5.211e-05   |deigs|: 1.038e-05  t[s]:    551.71
	Linear fluid (dielectric constant: 7.2) occupying 0.814410 of unit cell:	Completed after 3 iterations at t[s]:    551.83
	FillingsUpdate:  mu: -0.098283174  nElectrons: 486.000000
	Linear fluid (dielectric constant: 7.2) occupying 0.814408 of unit cell:	Completed after 3 iterations at t[s]:    558.41
SCF: Cycle: 35   F: -1787.599615507517001   dF: +7.464e-08   |Residual|: 5.677e-05   |deigs|: 5.845e-06  t[s]:    558.56
	Linear fluid (dielectric constant: 7.2) occupying 0.814410 of unit cell:	Completed after 3 iterations at t[s]:    558.69
	FillingsUpdate:  mu: -0.098283237  nElectrons: 486.000000
	Linear fluid (dielectric constant: 7.2) occupying 0.814409 of unit cell:	Completed after 3 iterations at t[s]:    561.79
SCF: Cycle: 36   F: -1787.599615267841273   dF: +2.397e-07   |Residual|: 5.152e-05   |deigs|: 7.895e-06  t[s]:    561.94
	Linear fluid (dielectric constant: 7.2) occupying 0.814409 of unit cell:	Completed after 3 iterations at t[s]:    562.06
	FillingsUpdate:  mu: -0.098284107  nElectrons: 486.000000
[...]
	SubspaceRotationAdjust: set factor to 0.556
ElecMinimize: Iter:   1  F: -1787.600274408822770  |grad|_K:  3.705e-07  alpha:  6.222e-01  linmin: -1.162e-04  t[s]:   2004.56
	Linear fluid (dielectric constant: 7.2) occupying 0.814064 of unit cell:	Completed after 5 iterations at t[s]:   2005.45
	Linear fluid (dielectric constant: 7.2) occupying 0.814065 of unit cell:	Completed after 4 iterations at t[s]:   2006.28
	FillingsUpdate:  mu: -0.098801597  nElectrons: 486.000000
	SubspaceRotationAdjust: set factor to 0.373
ElecMinimize: Iter:   2  F: -1787.600275949997467  |grad|_K:  2.114e-07  alpha:  2.777e-01  linmin:  4.175e-04  t[s]:   2007.42
	Linear fluid (dielectric constant: 7.2) occupying 0.814065 of unit cell:	Completed after 2 iterations at t[s]:   2008.27
	Linear fluid (dielectric constant: 7.2) occupying 0.814065 of unit cell:	Completed after 1 iterations at t[s]:   2009.05
	FillingsUpdate:  mu: -0.098808988  nElectrons: 486.000000
	SubspaceRotationAdjust: set factor to 0.491
ElecMinimize: Iter:   3  F: -1787.600276611571871  |grad|_K:  1.134e-07  alpha:  3.722e-01  linmin: -2.346e-03  t[s]:   2010.18
	Linear fluid (dielectric constant: 7.2) occupying 0.814065 of unit cell:	Completed after 2 iterations at t[s]:   2011.03
	Linear fluid (dielectric constant: 7.2) occupying 0.814064 of unit cell:	Completed after 2 iterations at t[s]:   2011.83
	FillingsUpdate:  mu: -0.098812017  nElectrons: 486.000000
	SubspaceRotationAdjust: set factor to 0.453
ElecMinimize: Iter:   4  F: -1787.600276952512786  |grad|_K:  1.439e-07  alpha:  8.013e-01  linmin:  3.825e-03  t[s]:   2012.97
	Linear fluid (dielectric constant: 7.2) occupying 0.814063 of unit cell:	Completed after 3 iterations at t[s]:   2013.83
	Linear fluid (dielectric constant: 7.2) occupying 0.814064 of unit cell:	Completed after 2 iterations at t[s]:   2014.63
	FillingsUpdate:  mu: -0.098808626  nElectrons: 486.000000
	SubspaceRotationAdjust: set factor to 0.646
ElecMinimize: Iter:   5  F: -1787.600276975623729  |grad|_K:  1.141e-07  alpha:  1.436e-01  linmin: -3.715e-04  t[s]:   2015.76
	Linear fluid (dielectric constant: 7.2) occupying 0.814064 of unit cell:	Completed after 1 iterations at t[s]:   2016.59
	Linear fluid (dielectric constant: 7.2) occupying 0.814064 of unit cell:	Completed after 0 iterations at t[s]:   2017.37
	FillingsUpdate:  mu: -0.098807462  nElectrons: 486.000000
	SubspaceRotationAdjust: set factor to 0.8
ElecMinimize: Iter:   6  F: -1787.600277014473932  |grad|_K:  7.898e-08  alpha:  9.554e-02  linmin: -3.173e-03  t[s]:   2018.49
	Linear fluid (dielectric constant: 7.2) occupying 0.814064 of unit cell:	Completed after 1 iterations at t[s]:   2019.32
	Linear fluid (dielectric constant: 7.2) occupying 0.814064 of unit cell:	Completed after 0 iterations at t[s]:   2026.25
	FillingsUpdate:  mu: -0.098806558  nElectrons: 486.000000
	SubspaceRotationAdjust: set factor to 0.852
ElecMinimize: Iter:   7  F: -1787.600277044233053  |grad|_K:  5.976e-08  alpha:  8.865e-02  linmin: -4.307e-03  t[s]:   2027.40
	Linear fluid (dielectric constant: 7.2) occupying 0.814064 of unit cell:	Completed after 0 iterations at t[s]:   2028.21
	Linear fluid (dielectric constant: 7.2) occupying 0.814064 of unit cell:	Completed after 0 iterations at t[s]:   2028.98
	FillingsUpdate:  mu: -0.098806148  nElectrons: 486.000000
	SubspaceRotationAdjust: set factor to 0.893
ElecMinimize: Iter:   8  F: -1787.600277079895477  |grad|_K:  4.550e-08  alpha:  1.362e-01  linmin: -4.491e-03  t[s]:   2030.10
	Linear fluid (dielectric constant: 7.2) occupying 0.814064 of unit cell:	Completed after 1 iterations at t[s]:   2038.89
	Linear fluid (dielectric constant: 7.2) occupying 0.814064 of unit cell:	Completed after 0 iterations at t[s]:   2039.66
	FillingsUpdate:  mu: -0.098806405  nElectrons: 486.000000
	SubspaceRotationAdjust: set factor to 1.1
ElecMinimize: Iter:   9  F: -1787.600277111926971  |grad|_K:  4.231e-08  alpha:  2.584e-01  linmin:  2.097e-03  t[s]:   2040.78
	Linear fluid (dielectric constant: 7.2) occupying 0.814065 of unit cell:	Completed after 1 iterations at t[s]:   2041.60
	Linear fluid (dielectric constant: 7.2) occupying 0.814065 of unit cell:	Completed after 0 iterations at t[s]:   2042.39
	FillingsUpdate:  mu: -0.098807717  nElectrons: 486.000000
	SubspaceRotationAdjust: set factor to 1.16
ElecMinimize: Iter:  10  F: -1787.600277119907332  |grad|_K:  4.795e-08  alpha:  1.138e-01  linmin:  2.496e-03  t[s]:   2043.51
	Linear fluid (dielectric constant: 7.2) occupying 0.814065 of unit cell:	Completed after 0 iterations at t[s]:   2044.31
	Linear fluid (dielectric constant: 7.2) occupying 0.814065 of unit cell:	Completed after 0 iterations at t[s]:   2045.08
	FillingsUpdate:  mu: -0.098807378  nElectrons: 486.000000
	SubspaceRotationAdjust: set factor to 1.51
ElecMinimize: Iter:  11  F: -1787.600277123947080  |grad|_K:  4.794e-08  alpha:  1.246e-01  linmin:  2.476e-03  t[s]:   2046.20
ElecMinimize: Converged (|Delta F|<1.000000e-08 for 2 iters).
Setting wave functions to eigenvectors of Hamiltonian

-------- Electronic minimization -----------
	Linear fluid (dielectric constant: 7.2) occupying 0.814070 of unit cell:	Completed after 2 iterations at t[s]:   2047.29
	FillingsUpdate:  mu: -0.098788766  nElectrons: 486.000000
ElecMinimize: Iter:   0  F: -1787.600274529389708  |grad|_K:  3.855e-07  alpha:  1.000e+00
	Linear fluid (dielectric constant: 7.2) occupying 0.814068 of unit cell:	Completed after 5 iterations at t[s]:   2049.40
	Linear fluid (dielectric constant: 7.2) occupying 0.814069 of unit cell:	Completed after 4 iterations at t[s]:   2050.24
	FillingsUpdate:  mu: -0.098813257  nElectrons: 486.000000
	SubspaceRotationAdjust: set factor to 0.969
ElecMinimize: Iter:   1  F: -1787.600276128878704  |grad|_K:  4.585e-07  alpha:  2.757e-01  linmin: -4.838e-05  t[s]:   2051.38
	Linear fluid (dielectric constant: 7.2) occupying 0.814069 of unit cell:	Completed after 3 iterations at t[s]:   2052.24
	Linear fluid (dielectric constant: 7.2) occupying 0.814069 of unit cell:	Completed after 2 iterations at t[s]:   2053.04
	FillingsUpdate:  mu: -0.098790416  nElectrons: 486.000000
	SubspaceRotationAdjust: set factor to 0.641
ElecMinimize: Iter:   2  F: -1787.600277575377504  |grad|_K:  1.528e-07  alpha:  1.746e-01  linmin:  4.826e-05  t[s]:   2054.18
	Linear fluid (dielectric constant: 7.2) occupying 0.814070 of unit cell:	Completed after 1 iterations at t[s]:   2055.03
	Linear fluid (dielectric constant: 7.2) occupying 0.814070 of unit cell:	Completed after 1 iterations at t[s]:   2055.82
	FillingsUpdate:  mu: -0.098801746  nElectrons: 486.000000
	SubspaceRotationAdjust: set factor to 0.417
ElecMinimize: Iter:   3  F: -1787.600277822984935  |grad|_K:  1.081e-07  alpha:  2.816e-01  linmin:  1.156e-03  t[s]:   2056.94
	Linear fluid (dielectric constant: 7.2) occupying 0.814070 of unit cell:	Completed after 1 iterations at t[s]:   2057.78
	Linear fluid (dielectric constant: 7.2) occupying 0.814070 of unit cell:	Completed after 0 iterations at t[s]:   2058.56
	FillingsUpdate:  mu: -0.098800957  nElectrons: 486.000000
	SubspaceRotationAdjust: set factor to 0.537
ElecMinimize: Iter:   4  F: -1787.600277971654123  |grad|_K:  6.154e-08  alpha:  3.548e-01  linmin: -5.786e-04  t[s]:   2059.68
	Linear fluid (dielectric constant: 7.2) occupying 0.814070 of unit cell:	Completed after 1 iterations at t[s]:   2060.52
	Linear fluid (dielectric constant: 7.2) occupying 0.814070 of unit cell:	Completed after 0 iterations at t[s]:   2061.28
	FillingsUpdate:  mu: -0.098796826  nElectrons: 486.000000
	SubspaceRotationAdjust: set factor to 0.629
ElecMinimize: Iter:   5  F: -1787.600278028361572  |grad|_K:  4.246e-08  alpha:  3.660e-01  linmin: -2.742e-03  t[s]:   2062.39
	Linear fluid (dielectric constant: 7.2) occupying 0.814070 of unit cell:	Completed after 1 iterations at t[s]:   2063.22
	Linear fluid (dielectric constant: 7.2) occupying 0.814070 of unit cell:	Completed after 0 iterations at t[s]:   2063.99
	FillingsUpdate:  mu: -0.098797932  nElectrons: 486.000000
	SubspaceRotationAdjust: set factor to 0.553
ElecMinimize: Iter:   6  F: -1787.600278059758239  |grad|_K:  3.519e-08  alpha:  3.891e-01  linmin:  1.996e-03  t[s]:   2065.11
	Linear fluid (dielectric constant: 7.2) occupying 0.814071 of unit cell:	Completed after 0 iterations at t[s]:   2065.93
	Linear fluid (dielectric constant: 7.2) occupying 0.814071 of unit cell:	Completed after 0 iterations at t[s]:   2066.68
	FillingsUpdate:  mu: -0.098798170  nElectrons: 486.000000
	SubspaceRotationAdjust: set factor to 0.734
ElecMinimize: Iter:   7  F: -1787.600278074132802  |grad|_K:  2.612e-08  alpha:  3.766e-01  linmin: -1.609e-04  t[s]:   2067.80
	Linear fluid (dielectric constant: 7.2) occupying 0.814071 of unit cell:	Completed after 1 iterations at t[s]:   2068.65
	Linear fluid (dielectric constant: 7.2) occupying 0.814071 of unit cell:	Completed after 0 iterations at t[s]:   2069.42
	FillingsUpdate:  mu: -0.098797300  nElectrons: 486.000000
	SubspaceRotationAdjust: set factor to 0.641
ElecMinimize: Iter:   8  F: -1787.600278079681402  |grad|_K:  2.637e-08  alpha:  1.888e-01  linmin:  1.196e-03  t[s]:   2070.53
	Linear fluid (dielectric constant: 7.2) occupying 0.814070 of unit cell:	Completed after 0 iterations at t[s]:   2071.35
	Linear fluid (dielectric constant: 7.2) occupying 0.814070 of unit cell:	Completed after 0 iterations at t[s]:   2072.11
	FillingsUpdate:  mu: -0.098798655  nElectrons: 486.000000
	SubspaceRotationAdjust: set factor to 0.833
ElecMinimize: Iter:   9  F: -1787.600278082180694  |grad|_K:  1.350e-08  alpha:  1.430e-01  linmin: -1.574e-03  t[s]:   2073.22
ElecMinimize: Converged (|Delta F|<1.000000e-08 for 2 iters).
Setting wave functions to eigenvectors of Hamiltonian

# Ionic positions in cartesian coordinates:
ion Ti   0.000000174975000  -0.000000174975000   2.000000000000000 0
ion Ti   4.340445422775000   4.340445072825000   4.795024053800001 0
ion Ti   0.000000174975000   8.680909217924999   2.000000000000000 0
ion Ti   4.340445422775000  13.021354465725000   4.795024053800001 0
ion Ti   0.000000174975000  17.361818610825001   2.000000000000000 0
ion Ti   4.340445422775000  21.702263858624999   4.795024053800001 0
ion Ti   8.680909567874998  -0.000000174975000   2.000000000000000 0
ion Ti  13.021354815675002   4.340445072825000   4.795024053800001 0
ion Ti   8.680909567874998   8.680909217924999   2.000000000000000 0
ion Ti  13.021354815675002  13.021354465725000   4.795024053800001 0
ion Ti   8.680909567874998  17.361818610825001   2.000000000000000 0
ion Ti  13.021364264325003  21.702263858624999   4.795024053800001 0
ion Ti  17.361818960775000  -0.000000174975000   2.000000000000000 0
ion Ti  21.702264208574999   4.340445072825000   4.795024053800001 0
ion Ti  17.361818960775000   8.680909217924999   2.000000000000000 0
ion Ti  21.702264208574999  13.021363914375000   4.795024053800001 0
ion Ti  17.361818960775000  17.361818610825001   2.000000000000000 0
ion Ti  21.702264208574999  21.702263858624999   4.795024053800001 0
ion O   2.650289808075000   2.650289458125000   2.000000000000000 0
ion O   6.030619934775000   6.030619584825001   2.000000000000000 0
ion O   1.690174686975000   6.990734705924999   4.795024053800001 0
ion O   6.990735055874999   1.690174337025000   4.795024053800001 0
ion O   2.650289808075000  11.331198851025000   2.000000000000000 0
ion O   6.030619934775000  14.711528977725004   2.000000000000000 0
ion O   1.690174686975000  15.671644098825000   4.795024053800001 0
ion O   6.990735055874999  10.371083729925001   4.795024053800001 0
ion O   2.650289808075000  20.012108243924999   2.000000000000000 0
ion O   6.030619934775000  23.392438370625001   2.000000000000000 0
ion O   1.690174686975000  24.352553491725004   4.795024053800001 0
ion O   6.990735055874999  19.051993122824996   4.795024053800001 0
ion O  11.331199200975000   2.650289458125000   2.000000000000000 0
ion O  14.711529327675001   6.030619584825001   2.000000000000000 0
ion O  10.371084079875001   6.990734705924999   4.795024053800001 0
ion O  15.671644448774998   1.690174337025000   4.795024053800001 0
ion O  11.331199200975000  11.331198851025000   2.000000000000000 0
ion O  14.711529327675001  14.711528977725004   2.000000000000000 0
ion O  10.371084079875001  15.671644098825000   4.795024053800001 0
ion O  15.671644448774998  10.371083729925001   4.795024053800001 0
ion O  11.331199200975000  20.012108243924999   2.000000000000000 0
ion O  14.711529327675001  23.392438370625001   2.000000000000000 0
ion O  10.371084079875001  24.352553491725004   4.795024053800001 0
ion O  15.671644448774998  19.051993122824996   4.795024053800001 0
ion O  20.012108593874995   2.650289458125000   2.000000000000000 0
ion O  23.392438720575004   6.030619584825001   2.000000000000000 0
ion O  19.051993472774999   6.990734705924999   4.795024053800001 0
ion O  24.352553841675000   1.690174337025000   4.795024053800001 0
ion O  20.012108593874995  11.331198851025000   2.000000000000000 0
ion O  23.392438720575004  14.711528977725004   2.000000000000000 0
ion O  19.051993472774999  15.671644098825000   4.795024053800001 0
ion O  24.352553841675000  10.371083729925001   4.795024053800001 0
ion O  20.012108593874995  20.012108243924999   2.000000000000000 0
ion O  23.392438720575004  23.392438370625001   2.000000000000000 0
ion O  19.051993472774999  24.352553491725004   4.795024053800001 0
ion O  24.352553841675000  19.051993122824996   4.795024053800001 0
ion S  14.073238524262131  22.000270709570895   9.686342529534821 1
ion S  17.499915635682562  23.770909649537455  10.009340392312973 1
ion S  20.620994173233754  21.443893000497145   9.563814495241143 1
ion S  14.020111915808476  12.946447122974970   9.778789474277882 1
ion S  17.658252748868495  13.549090310924912  11.285948771947295 1
ion S  20.819497279655376  11.971331319702738   9.518714493959509 1
ion Na  17.279077348166009  17.627588182598473   8.300105556688999 1
ion Na  17.141089057308598   8.578270012659033   8.310038320761432 1

# Forces in Cartesian coordinates:
force Ti  -0.003130844581441  -0.004713880059114   0.129132949241865 0
force Ti  -0.000213028778879  -0.000761578230982  -0.125359968606114 0
force Ti  -0.000256882947699   0.003185923972287   0.131790702365186 0
force Ti  -0.000560630046234   0.001630253236364  -0.122320814270469 0
force Ti  -0.005102679769923  -0.001300708443389   0.131683926674565 0
force Ti  -0.000391010987103  -0.001301908969769  -0.122400742999667 0
force Ti   0.001486259233283  -0.003808420403327   0.132091246402407 0
force Ti  -0.005698717464279  -0.008432078821659  -0.131221646641045 0
force Ti   0.001429917512970   0.003397656108579   0.129279249174405 0
force Ti   0.000182173993669   0.011605279861845  -0.096508150395386 0
force Ti   0.003973073826534   0.001943933364843   0.131127683705638 0
force Ti   0.003264277326934   0.011920586903118  -0.093803737684667 0
force Ti   0.000248287836231  -0.006958281064681   0.132194132203151 0
force Ti   0.008288584280312  -0.009095510989943  -0.132660087723800 0
force Ti  -0.000314845510101   0.006094412114042   0.118790638275184 0
force Ti  -0.002304675429715  -0.005147933178841  -0.095478580318528 0
force Ti   0.001391090483687   0.001615278905264   0.124018114516157 0
force Ti  -0.002512098696765  -0.003948677296222  -0.092684020518036 0
force O  -0.016987462015047  -0.016724634097319   0.016926099239740 0
force O   0.017987170783409   0.017761914713669   0.016652428686571 0
force O   0.017996371111343  -0.018067296364748  -0.020519289299276 0
force O  -0.018441952595628   0.018700522920219  -0.020107347846288 0
force O  -0.018172813323799  -0.018878915558389   0.015978017588940 0
force O   0.016778572893194   0.016959220496762   0.016772658263138 0
force O   0.018818680944170  -0.018324374978043  -0.021276276642459 0
force O  -0.017149376850517   0.016526921926982  -0.021777412488976 0
force O  -0.016293004008534  -0.016846261748985   0.016740202035490 0
force O   0.018040133329477   0.018667721460085   0.015948374385281 0
force O   0.017926174622270  -0.016935779890921  -0.021801833073012 0
force O  -0.018150580612094   0.017775899260540  -0.021455601990280 0
force O  -0.016868881098175  -0.016175696131689   0.017167756480364 0
force O   0.019553433689227   0.019191327880553   0.017351762430291 0
force O   0.019184116989706  -0.018389021899147  -0.019930189123450 0
force O  -0.019005466926193   0.022648755021820  -0.019088927340067 0
force O  -0.023445900923687  -0.024766648755684   0.010870137064592 0
force O   0.020547722497218   0.019437236770794   0.013479113714222 0
force O   0.015017395049694  -0.016325573402176  -0.024412051920982 0
force O  -0.010120045023145   0.005827850234975  -0.029487086703372 0
force O  -0.024438671963805  -0.025176992899810   0.009615229056700 0
force O   0.021372416306308   0.021352529126921   0.011694218238264 0
force O   0.011606910335421  -0.013100687544863  -0.027294623655738 0
force O  -0.012973118333722   0.010298549183756  -0.032831800199161 0
force O  -0.015935934587981  -0.014170799068592   0.018403155137092 0
force O   0.015962725737344   0.016750837973643   0.017855600286675 0
force O   0.015747309858245  -0.019934783572497  -0.011679007985531 0
force O  -0.019362098517673   0.020542659464625  -0.020296343034048 0
force O  -0.024410571459721  -0.024746334265535   0.011178243798481 0
force O   0.024753395926132   0.024840085471024   0.008945190553265 0
force O   0.011714069490409  -0.011034821106170  -0.022235387779456 0
force O  -0.012727504495115   0.013410329228412  -0.025033560464337 0
force O  -0.023870351464457  -0.023476776165631   0.010599365938676 0
force O   0.026313934123153   0.027396797719002   0.007713810181923 0
force O   0.010199802250206  -0.006619704975235  -0.035276537216487 0
force O  -0.012700985706637   0.013822513114811  -0.025608589763130 0
force S   0.000020374446209  -0.000150325161058  -0.000021168011671 1
force S   0.000089093186537   0.000031833656709  -0.000075840844839 1
force S  -0.000156566538055   0.000039830633976   0.000003374680359 1
force S   0.000153101138209   0.000056561975949  -0.000055898022184 1
force S  -0.000046833404352   0.000016730679274   0.000178302378898 1
force S   0.000019027247793  -0.000072987764087  -0.000068654872955 1
force Na  -0.000102683244062   0.000084948409345   0.000041536325885 1
force Na  -0.000124841349870   0.000031131815786   0.000151318005782 1

# Energy components:
   A_diel =       -0.1812898400145925
   Eewald =    10038.0131469950156315
       EH =    11546.7258260779472039
     Eloc =   -23648.5645794352130906
      Enl =       45.0863353672181688
      Exc =     -330.4964856020765751
 Exc_core =       36.5178021175516250
       KE =      525.4011597498616766
-------------------------------------
     Etot =    -1787.4980845697123186
       TS =        0.1021935124682845
-------------------------------------
        F =    -1787.6002780821806937

IonicMinimize: Iter:  16  F: -1787.600278082180694  |grad|_K:  9.075e-05  alpha:  3.795e+00  linmin: -4.612e-05  t[s]:   2074.38
IonicMinimize: Converged (|grad|_K<1.000000e-04).

#--- Lowdin population analysis ---
# oxidation-state Ti +1.637 +1.662 +1.637 +1.672 +1.634 +1.673 +1.635 +1.639 +1.639 +1.582 +1.635 +1.585 +1.626 +1.660 +1.645 +1.580 +1.637 +1.575
# oxidation-state O -0.761 -0.760 -0.748 -0.748 -0.759 -0.760 -0.739 -0.743 -0.760 -0.759 -0.741 -0.740 -0.753 -0.761 -0.748 -0.739 -0.770 -0.762 -0.725 -0.789 -0.771 -0.761 -0.726 -0.781 -0.759 -0.757 -0.810 -0.739 -0.763 -0.774 -0.773 -0.729 -0.764 -0.771 -0.707 -0.725
# oxidation-state S -0.391 +0.203 -0.418 -0.468 +0.055 -0.439
# oxidation-state Na +0.679 +0.771


Dumping 'Na2S6@TiO2-glyme.fillings' ... done
Dumping 'Na2S6@TiO2-glyme.wfns' ... done
Dumping 'Na2S6@TiO2-glyme.fluidState' ... done
Dumping 'Na2S6@TiO2-glyme.ionpos' ... done
Dumping 'Na2S6@TiO2-glyme.eigenvals' ... done
End date and time: Wed Sep 25 08:57:39 2024  (Duration: 0-0:34:36.71)
Done!
