
*************** JDFTx 1.7.0  ***************

Start date and time: Thu Sep 26 02:25:55 2024
Executable ../../jdftx_install/build/jdftx_gpu with command-line: -i Na2S2@TiO2-glyme.in -o Na2S2@TiO2-glyme.out
Running on hosts (process indices):  ubaid-base (0)
Divided in process groups (process indices):  0 (0)
gpuInit: Found compatible cuda device 0 'NVIDIA GeForce RTX 3050'
gpuInit: Selected device 0
Resource initialization completed at t[s]:      0.16
Run totals: 1 processes, 16 threads, 1 GPUs


Input parsed successfully to the following command list (including defaults):

basis kpoint-dependent
coords-type Cartesian
core-overlap-check vector
coulomb-interaction Slab 001
coulomb-truncation-embed 0 0 1
davidson-band-ratio 1.1
dump End State
dump-name Na2S2@TiO2-glyme.$VAR
elec-cutoff 20 100
elec-eigen-algo Davidson
elec-ex-corr gga-PBE
elec-smearing Fermi 0.01
electronic-minimize  \
	dirUpdateScheme      FletcherReeves \
	linminMethod         DirUpdateRecommended \
	nIterations          100 \
	history              15 \
	knormThreshold       0 \
	energyDiffThreshold  1e-08 \
	nEnergyDiff          2 \
	alphaTstart          1 \
	alphaTmin            1e-10 \
	updateTestStepSize   yes \
	alphaTreduceFactor   0.1 \
	alphaTincreaseFactor 3 \
	nAlphaAdjustMax      3 \
	wolfeEnergy          0.0001 \
	wolfeGradient        0.9 \
	fdTest               no
exchange-regularization WignerSeitzTruncated
fluid LinearPCM 298.000000 1.013250
fluid-ex-corr lda-TF lda-PZ
fluid-gummel-loop 10 1.000000e-05
fluid-minimize  \
	dirUpdateScheme      PolakRibiere \
	linminMethod         DirUpdateRecommended \
	nIterations          400 \
	history              15 \
	knormThreshold       1e-11 \
	energyDiffThreshold  0 \
	nEnergyDiff          2 \
	alphaTstart          1 \
	alphaTmin            1e-10 \
	updateTestStepSize   yes \
	alphaTreduceFactor   0.1 \
	alphaTincreaseFactor 3 \
	nAlphaAdjustMax      6 \
	wolfeEnergy          0.0001 \
	wolfeGradient        0.9 \
	fdTest               no
fluid-solvent Glyme 9.62137 ScalarEOS \
	epsBulk 7.2 \
	pMol 0 \
	epsInf 1.9 \
	Pvap 0 \
	sigmaBulk 0 \
	Rvdw 0 \
	Res 0 \
	tauNuc 343133
forces-output-coords Positions
initial-state Na2S2@TiO2-glyme.$VAR
ion Ti   0.000000174975000  -0.000000174975000   2.000000000000000 0
ion Ti   4.340445422775000   4.340445072825000   4.795024053800001 0
ion Ti   0.000000174975000   8.680909217924999   2.000000000000000 0
ion Ti   4.340445422775000  13.021354465725000   4.795024053800001 0
ion Ti   0.000000174975000  17.361818610825001   2.000000000000000 0
ion Ti   4.340445422775000  21.702263858624999   4.795024053800001 0
ion Ti   8.680909567874998  -0.000000174975000   2.000000000000000 0
ion Ti  13.021354815675002   4.340445072825000   4.795024053800001 0
ion Ti   8.680909567874998   8.680909217924999   2.000000000000000 0
ion Ti  13.021354815675002  13.021354465725000   4.795024053800001 0
ion Ti   8.680909567874998  17.361818610825001   2.000000000000000 0
ion Ti  13.021364264325003  21.702263858624999   4.795024053800001 0
ion Ti  17.361818960775000  -0.000000174975000   2.000000000000000 0
ion Ti  21.702264208574999   4.340445072825000   4.795024053800001 0
ion Ti  17.361818960775000   8.680909217924999   2.000000000000000 0
ion Ti  21.702264208574999  13.021363914375000   4.795024053800001 0
ion Ti  17.361818960775000  17.361818610825001   2.000000000000000 0
ion Ti  21.702264208574999  21.702263858624999   4.795024053800001 0
ion O   2.650289808075000   2.650289458125000   2.000000000000000 0
ion O   6.030619934775000   6.030619584825001   2.000000000000000 0
ion O   1.690174686975000   6.990734705924999   4.795024053800001 0
ion O   6.990735055874999   1.690174337025000   4.795024053800001 0
ion O   2.650289808075000  11.331198851025000   2.000000000000000 0
ion O   6.030619934775000  14.711528977725004   2.000000000000000 0
ion O   1.690174686975000  15.671644098825000   4.795024053800001 0
ion O   6.990735055874999  10.371083729925001   4.795024053800001 0
ion O   2.650289808075000  20.012108243924999   2.000000000000000 0
ion O   6.030619934775000  23.392438370625001   2.000000000000000 0
ion O   1.690174686975000  24.352553491725004   4.795024053800001 0
ion O   6.990735055874999  19.051993122824996   4.795024053800001 0
ion O  11.331199200975000   2.650289458125000   2.000000000000000 0
ion O  14.711529327675001   6.030619584825001   2.000000000000000 0
ion O  10.371084079875001   6.990734705924999   4.795024053800001 0
ion O  15.671644448774998   1.690174337025000   4.795024053800001 0
ion O  11.331199200975000  11.331198851025000   2.000000000000000 0
ion O  14.711529327675001  14.711528977725004   2.000000000000000 0
ion O  10.371084079875001  15.671644098825000   4.795024053800001 0
ion O  15.671644448774998  10.371083729925001   4.795024053800001 0
ion O  11.331199200975000  20.012108243924999   2.000000000000000 0
ion O  14.711529327675001  23.392438370625001   2.000000000000000 0
ion O  10.371084079875001  24.352553491725004   4.795024053800001 0
ion O  15.671644448774998  19.051993122824996   4.795024053800001 0
ion O  20.012108593874995   2.650289458125000   2.000000000000000 0
ion O  23.392438720575004   6.030619584825001   2.000000000000000 0
ion O  19.051993472774999   6.990734705924999   4.795024053800001 0
ion O  24.352553841675000   1.690174337025000   4.795024053800001 0
ion O  20.012108593874995  11.331198851025000   2.000000000000000 0
ion O  23.392438720575004  14.711528977725004   2.000000000000000 0
ion O  19.051993472774999  15.671644098825000   4.795024053800001 0
ion O  24.352553841675000  10.371083729925001   4.795024053800001 0
ion O  20.012108593874995  20.012108243924999   2.000000000000000 0
ion O  23.392438720575004  23.392438370625001   2.000000000000000 0
ion O  19.051993472774999  24.352553491725004   4.795024053800001 0
ion O  24.352553841675000  19.051993122824996   4.795024053800001 0
ion S  13.467490833117914  13.402612013176560   9.585275802160560 1
ion S  12.781806720570708  16.976797193224851  11.153612527517598 1
ion Na   8.750587433622146  17.227081454998022   8.250602953328718 1
ion Na  16.973886909916128  16.988940896120109   8.244534609892428 1
ion-species GBRV/$ID_pbe.uspp
ion-width Ecut
ionic-minimize  \
	dirUpdateScheme      FletcherReeves \
	linminMethod         DirUpdateRecommended \
	nIterations          200 \
	history              15 \
	knormThreshold       0.0001 \
	energyDiffThreshold  1e-06 \
	nEnergyDiff          2 \
	alphaTstart          1 \
	alphaTmin            1e-10 \
	updateTestStepSize   yes \
	alphaTreduceFactor   0.1 \
	alphaTincreaseFactor 3 \
	nAlphaAdjustMax      3 \
	wolfeEnergy          0.0001 \
	wolfeGradient        0.9 \
	fdTest               no
kpoint   0.000000000000   0.000000000000   0.000000000000  1.00000000000000
kpoint-folding 1 1 1 
latt-move-scale 1 1 1
latt-scale 1 1 1 
lattice Tetragonal 26.04 37.7946
lattice-minimize  \
	dirUpdateScheme      L-BFGS \
	linminMethod         DirUpdateRecommended \
	nIterations          0 \
	history              15 \
	knormThreshold       0 \
	energyDiffThreshold  1e-06 \
	nEnergyDiff          2 \
	alphaTstart          1 \
	alphaTmin            1e-10 \
	updateTestStepSize   yes \
	alphaTreduceFactor   0.1 \
	alphaTincreaseFactor 3 \
	nAlphaAdjustMax      3 \
	wolfeEnergy          0.0001 \
	wolfeGradient        0.9 \
	fdTest               no
lcao-params -1 1e-06 0.01
pcm-variant GLSSA13
spintype no-spin
subspace-rotation-factor 1 yes
symmetries automatic
symmetry-threshold 0.0001



---------- Setting up symmetries ----------

Found 16 point-group symmetries of the bravais lattice
Found 1 space-group symmetries with basis
Applied RMS atom displacement 0 bohrs to make symmetries exact.

---------- Initializing the Grid ----------
R = 
[        26.04            0            0  ]
[            0        26.04            0  ]
[            0            0      37.7946  ]
unit cell volume = 25627.8
G =
[    0.24129          0          0  ]
[          0    0.24129          0  ]
[          0          0   0.166246  ]
Minimum fftbox size, Smin = [  120  120  172  ]
Chosen fftbox size, S = [  120  120  180  ]

---------- Initializing tighter grid for wavefunction operations ----------
R = 
[        26.04            0            0  ]
[            0        26.04            0  ]
[            0            0      37.7946  ]
unit cell volume = 25627.8
G =
[    0.24129          0          0  ]
[          0    0.24129          0  ]
[          0          0   0.166246  ]
Minimum fftbox size, Smin = [  108  108  156  ]
Chosen fftbox size, S = [  108  108  160  ]

---------- Exchange Correlation functional ----------
Initalized PBE GGA exchange.
Initalized PBE GGA correlation.

---------- Setting up pseudopotentials ----------
Width of ionic core gaussian charges (only for fluid interactions / plotting) set to 0.397384

Reading pseudopotential file '/home/ubaid/jdftx_install/build/pseudopotentials/GBRV/ti_pbe.uspp':
  Title: Ti.  Created by USPP 7.3.6 on 31-3-15
  Reference state energy: -59.020943.  12 valence electrons in orbitals:
    |300>  occupation: 2  eigenvalue: -2.777623
    |310>  occupation: 6  eigenvalue: -1.894596
    |400>  occupation: 2  eigenvalue: -0.438610
    |320>  occupation: 1  eigenvalue: -0.583119
  lMax: 2  lLocal: 3  QijEcut: 6
  6 projectors sampled on a log grid with 597 points:
    l: 0  eig: -2.777624  rCut: 1.8
    l: 0  eig: -0.438611  rCut: 1.8
    l: 1  eig: -1.894596  rCut: 1.8
    l: 1  eig: 0.500000  rCut: 1.8
    l: 2  eig: -0.583118  rCut: 1.8
    l: 2  eig: 0.150000  rCut: 1.8
  Partial core density with radius 0.8
  Transforming core density to a uniform radial grid of dG=0.02 with 1273 points.
  Transforming local potential to a uniform radial grid of dG=0.02 with 1273 points.
  Transforming nonlocal projectors to a uniform radial grid of dG=0.02 with 432 points.
  Transforming density augmentations to a uniform radial grid of dG=0.02 with 1273 points.
  Transforming atomic orbitals to a uniform radial grid of dG=0.02 with 432 points.
  Core radius for overlap checks: 1.80 bohrs.

Reading pseudopotential file '/home/ubaid/jdftx_install/build/pseudopotentials/GBRV/o_pbe.uspp':
  Title: O.  Created by USPP 7.3.6 on 3-2-2014
  Reference state energy: -15.894388.  6 valence electrons in orbitals:
    |200>  occupation: 2  eigenvalue: -0.878823
    |210>  occupation: 4  eigenvalue: -0.332131
  lMax: 2  lLocal: 2  QijEcut: 6
  5 projectors sampled on a log grid with 511 points:
    l: 0  eig: -0.878823  rCut: 1.25
    l: 0  eig: 0.000000  rCut: 1.25
    l: 1  eig: -0.332132  rCut: 1.25
    l: 1  eig: 0.000000  rCut: 1.25
    l: 2  eig: 1.000000  rCut: 1.25
  Partial core density with radius 0.7
  Transforming core density to a uniform radial grid of dG=0.02 with 1273 points.
  Transforming local potential to a uniform radial grid of dG=0.02 with 1273 points.
  Transforming nonlocal projectors to a uniform radial grid of dG=0.02 with 432 points.
  Transforming density augmentations to a uniform radial grid of dG=0.02 with 1273 points.
  Transforming atomic orbitals to a uniform radial grid of dG=0.02 with 432 points.
  Core radius for overlap checks: 1.25 bohrs.

Reading pseudopotential file '/home/ubaid/jdftx_install/build/pseudopotentials/GBRV/s_pbe.uspp':
  Title: S.  Created by USPP 7.3.6 on 1-4-15
  Reference state energy: -11.898476.  6 valence electrons in orbitals:
    |300>  occupation: 2  eigenvalue: -0.634167
    |310>  occupation: 4  eigenvalue: -0.257568
  lMax: 2  lLocal: 3  QijEcut: 6
  6 projectors sampled on a log grid with 635 points:
    l: 0  eig: -0.634161  rCut: 1.5
    l: 0  eig: 1.500000  rCut: 1.5
    l: 1  eig: -0.257567  rCut: 1.5
    l: 1  eig: 1.500000  rCut: 1.5
    l: 2  eig: -1.000000  rCut: 1.5
    l: 2  eig: 1.500000  rCut: 1.5
  Partial core density with radius 1.15
  Transforming core density to a uniform radial grid of dG=0.02 with 1273 points.
  Transforming local potential to a uniform radial grid of dG=0.02 with 1273 points.
  Transforming nonlocal projectors to a uniform radial grid of dG=0.02 with 432 points.
  Transforming density augmentations to a uniform radial grid of dG=0.02 with 1273 points.
  Transforming atomic orbitals to a uniform radial grid of dG=0.02 with 432 points.
  Core radius for overlap checks: 1.50 bohrs.

Reading pseudopotential file '/home/ubaid/jdftx_install/build/pseudopotentials/GBRV/na_pbe.uspp':
  Title: Na.  Created by USPP 7.3.6 on 23-9-15
  Reference state energy: -47.625620.  9 valence electrons in orbitals:
    |200>  occupation: 2  eigenvalue: -2.085638
    |210>  occupation: 6  eigenvalue: -1.053708
    |300>  occupation: 1  eigenvalue: -0.100838
  lMax: 2  lLocal: 0  QijEcut: 6
  5 projectors sampled on a log grid with 657 points:
    l: 0  eig: -2.085640  rCut: 1.37
    l: 0  eig: -0.100839  rCut: 1.37
    l: 1  eig: -1.053708  rCut: 1.47
    l: 1  eig: 0.500000  rCut: 1.47
    l: 2  eig: 0.750000  rCut: 2
  Transforming local potential to a uniform radial grid of dG=0.02 with 1273 points.
  Transforming nonlocal projectors to a uniform radial grid of dG=0.02 with 432 points.
  Transforming density augmentations to a uniform radial grid of dG=0.02 with 1273 points.
  Transforming atomic orbitals to a uniform radial grid of dG=0.02 with 432 points.
  Core radius for overlap checks: 2.00 bohrs.

Initialized 4 species with 58 total atoms.

Folded 1 k-points by 1x1x1 to 1 k-points.

---------- Setting up k-points, bands, fillings ----------
No reducable k-points. 
Computing the number of bands and number of electrons
Reading initial fillings from file Na2S2@TiO2-glyme.fillings.
nElectrons: 462.000000   nBands: 342   nStates: 1

----- Setting up reduced wavefunction bases (one per k-point) -----
average nbasis = 109517.000 , ideal nbasis = 109484.012

---------- Setting up coulomb interaction ----------
Fluid mode embedding: using embedded box, but periodic Coulomb kernel.
(Fluid response is responsible for (approximate) separation between periodic images.)
Setting up double-sized grid for truncated Coulomb potentials:
R = 
[        26.04            0            0  ]
[            0        26.04            0  ]
[            0            0      75.5892  ]
unit cell volume = 51255.6
G =
[    0.24129          0          0  ]
[          0    0.24129          0  ]
[          0          0  0.0831228  ]
Chosen fftbox size, S = [  120  120  360  ]
Integer grid location selected as the embedding center:
   Grid: [  0  0  5  ]
   Lattice: [  0  0  0.0264588  ]
   Cartesian: [  0  0  1  ]
Constructing Wigner-Seitz cell: 6 faces (6 quadrilaterals, 0 hexagons)
Range-separation parameter for embedded mesh potentials due to point charges: 0.587679 bohrs.

---------- Setting up ewald sum ----------
Optimum gaussian width for ewald sums = 7.532156 bohr.
Real space sum over 405 unit cells with max indices [  4  4  2  ]
Reciprocal space sum over 7875 terms with max indices [  7  7  17  ]

---------- Allocating electronic variables ----------
Initializing wave functions:  reading from 'Na2S2@TiO2-glyme.wfns'
----- createFluidSolver() ----- (Fluid-side solver setup)
   Initializing fluid molecule 'Glyme'
     Net charge: 0   dipole magnitude: 0
     Initializing spherical shell mfKernel with radius 0 Bohr
     deltaS corrections:

Correction to mu due to finite nuclear width = -0.00894334
   Cavity determined by nc: 8.36e-05 and sigma: 0.6
   Effective cavity tension: -8.03e-06 Eh/bohr^2 to account for cavitation and dispersion.
Reading fluid state from 'Na2S2@TiO2-glyme.fluidState'


---- Citations for features of the code used in this run ----

   Software package:
      R. Sundararaman, K. Letchworth-Weaver, K.A. Schwarz, D. Gunceler, Y. Ozhabes and T.A. Arias, 'JDFTx: software for joint density-functional theory', SoftwareX 6, 278 (2017)

   gga-PBE exchange-correlation functional:
      J.P. Perdew, K. Burke and M. Ernzerhof, Phys. Rev. Lett. 77, 3865 (1996)

   Pseudopotentials:
      KF Garrity, JW Bennett, KM Rabe and D Vanderbilt, Comput. Mater. Sci. 81, 446 (2014)

   Truncated Coulomb potentials:
      R. Sundararaman and T.A. Arias, Phys. Rev. B 87, 165122 (2013)

   Linear/nonlinear dielectric/ionic fluid model with effective cavity tension:
      D. Gunceler, K. Letchworth-Weaver, R. Sundararaman, K.A. Schwarz and T.A. Arias, Modelling Simul. Mater. Sci. Eng. 21, 074005 (2013)

   Total energy minimization with Auxiliary Hamiltonian:
      C. Freysoldt, S. Boeck, and J. Neugebauer, Phys. Rev. B 79, 241103(R) (2009)

This list may not be complete. Please suggest additional citations or
report any other bugs at https://github.com/shankar1729/jdftx/issues

Initialization completed successfully at t[s]:     10.86


-------- Electronic minimization -----------
	Linear fluid (dielectric constant: 7.2) occupying 0.827304 of unit cell:	Completed after 11 iterations at t[s]:     15.86
	FillingsUpdate:  mu: -0.086836090  nElectrons: 462.000000
ElecMinimize: Iter:   0  F: -1746.055861934589302  |grad|_K:  1.756e-04  alpha:  1.000e+00
	Linear fluid (dielectric constant: 7.2) occupying 0.828551 of unit cell:	Completed after 12 iterations at t[s]:     56.76
	Linear fluid (dielectric constant: 7.2) occupying 0.827724 of unit cell:	Completed after 12 iterations at t[s]:     69.67
	FillingsUpdate:  mu: -0.084882671  nElectrons: 462.000000
	SubspaceRotationAdjust: set factor to 0.956
ElecMinimize: Iter:   1  F: -1746.350998670986883  |grad|_K:  5.180e-05  alpha:  2.775e-01  linmin:  2.105e-03  t[s]:     86.71
	Linear fluid (dielectric constant: 7.2) occupying 0.825060 of unit cell:	Completed after 10 iterations at t[s]:    105.99
	Linear fluid (dielectric constant: 7.2) occupying 0.825522 of unit cell:	Completed after 7 iterations at t[s]:    118.50
	FillingsUpdate:  mu: -0.086878622  nElectrons: 462.000000
	SubspaceRotationAdjust: set factor to 0.743
ElecMinimize: Iter:   2  F: -1746.373291262566454  |grad|_K:  3.490e-05  alpha:  2.400e-01  linmin: -8.021e-05  t[s]:    135.54
	Linear fluid (dielectric constant: 7.2) occupying 0.829734 of unit cell:	Completed after 10 iterations at t[s]:    154.80
	Linear fluid (dielectric constant: 7.2) occupying 0.829190 of unit cell:	Completed after 8 iterations at t[s]:    167.37
	FillingsUpdate:  mu: -0.095894030  nElectrons: 462.000000
	SubspaceRotationAdjust: set factor to 0.564
ElecMinimize: Iter:   3  F: -1746.379167956880110  |grad|_K:  2.350e-05  alpha:  1.591e-01  linmin: -3.967e-05  t[s]:    184.41
	Linear fluid (dielectric constant: 7.2) occupying 0.828164 of unit cell:	Completed after 9 iterations at t[s]:    203.61
	Linear fluid (dielectric constant: 7.2) occupying 0.827514 of unit cell:	Completed after 7 iterations at t[s]:    216.09
	FillingsUpdate:  mu: -0.083148427  nElectrons: 462.000000
	SubspaceRotationAdjust: set factor to 0.379
ElecMinimize: Iter:   4  F: -1746.383422879815271  |grad|_K:  1.510e-05  alpha:  2.236e-01  linmin:  1.280e-03  t[s]:    233.13
	Linear fluid (dielectric constant: 7.2) occupying 0.827790 of unit cell:	Completed after 8 iterations at t[s]:    252.24
	Linear fluid (dielectric constant: 7.2) occupying 0.827841 of unit cell:	Completed after 5 iterations at t[s]:    264.56
	FillingsUpdate:  mu: -0.083723606  nElectrons: 462.000000
	SubspaceRotationAdjust: set factor to 0.378
ElecMinimize: Iter:   5  F: -1746.385192387357165  |grad|_K:  9.672e-06  alpha:  2.703e-01  linmin: -5.981e-06  t[s]:    281.60
	Linear fluid (dielectric constant: 7.2) occupying 0.827762 of unit cell:	Completed after 6 iterations at t[s]:    300.55
	Linear fluid (dielectric constant: 7.2) occupying 0.827760 of unit cell:	Completed after 1 iterations at t[s]:    312.55
	FillingsUpdate:  mu: -0.083908883  nElectrons: 462.000000
	SubspaceRotationAdjust: set factor to 0.389
ElecMinimize: Iter:   6  F: -1746.386157456568299  |grad|_K:  5.606e-06  alpha:  2.747e-01  linmin: -1.199e-05  t[s]:    329.59
	Linear fluid (dielectric constant: 7.2) occupying 0.827494 of unit cell:	Completed after 6 iterations at t[s]:    348.54
	Linear fluid (dielectric constant: 7.2) occupying 0.827478 of unit cell:	Completed after 2 iterations at t[s]:    360.61
	FillingsUpdate:  mu: -0.083307700  nElectrons: 462.000000
	SubspaceRotationAdjust: set factor to 0.361
ElecMinimize: Iter:   7  F: -1746.386499896663281  |grad|_K:  5.222e-06  alpha:  2.903e-01  linmin:  1.189e-05  t[s]:    377.65
	Linear fluid (dielectric constant: 7.2) occupying 0.827751 of unit cell:	Completed after 5 iterations at t[s]:    396.52
	Linear fluid (dielectric constant: 7.2) occupying 0.827723 of unit cell:	Completed after 2 iterations at t[s]:    408.59
	FillingsUpdate:  mu: -0.083866402  nElectrons: 462.000000
	SubspaceRotationAdjust: set factor to 0.322
ElecMinimize: Iter:   8  F: -1746.386762911635515  |grad|_K:  4.099e-06  alpha:  2.580e-01  linmin:  2.446e-05  t[s]:    425.63
	Linear fluid (dielectric constant: 7.2) occupying 0.827441 of unit cell:	Completed after 6 iterations at t[s]:    444.57
	Linear fluid (dielectric constant: 7.2) occupying 0.827428 of unit cell:	Completed after 1 iterations at t[s]:    456.57
	FillingsUpdate:  mu: -0.083444825  nElectrons: 462.000000
	SubspaceRotationAdjust: set factor to 0.305
ElecMinimize: Iter:   9  F: -1746.386932144687307  |grad|_K:  2.984e-06  alpha:  2.697e-01  linmin: -2.879e-06  t[s]:    473.61
	Linear fluid (dielectric constant: 7.2) occupying 0.827492 of unit cell:	Completed after 4 iterations at t[s]:    492.40
	Linear fluid (dielectric constant: 7.2) occupying 0.827489 of unit cell:	Completed after 1 iterations at t[s]:    504.40
	FillingsUpdate:  mu: -0.083678290  nElectrons: 462.000000
	SubspaceRotationAdjust: set factor to 0.273
ElecMinimize: Iter:  10  F: -1746.387016798670174  |grad|_K:  2.350e-06  alpha:  2.533e-01  linmin:  8.844e-05  t[s]:    521.44
	Linear fluid (dielectric constant: 7.2) occupying 0.827493 of unit cell:	Completed after 5 iterations at t[s]:    540.30
	Linear fluid (dielectric constant: 7.2) occupying 0.827494 of unit cell:	Completed after 2 iterations at t[s]:    552.37
	FillingsUpdate:  mu: -0.083628524  nElectrons: 462.000000
	SubspaceRotationAdjust: set factor to 0.277
ElecMinimize: Iter:  11  F: -1746.387081548369224  |grad|_K:  1.641e-06  alpha:  3.160e-01  linmin: -7.510e-05  t[s]:    569.41
	Linear fluid (dielectric constant: 7.2) occupying 0.827440 of unit cell:	Completed after 4 iterations at t[s]:    588.20
	Linear fluid (dielectric constant: 7.2) occupying 0.827451 of unit cell:	Completed after 2 iterations at t[s]:    600.27
	FillingsUpdate:  mu: -0.083478832  nElectrons: 462.000000
	SubspaceRotationAdjust: set factor to 0.263
ElecMinimize: Iter:  12  F: -1746.387107274026448  |grad|_K:  1.085e-06  alpha:  2.535e-01  linmin: -2.530e-04  t[s]:    617.32
	Linear fluid (dielectric constant: 7.2) occupying 0.827512 of unit cell:	Completed after 3 iterations at t[s]:    636.03
	Linear fluid (dielectric constant: 7.2) occupying 0.827527 of unit cell:	Completed after 2 iterations at t[s]:    648.12
	FillingsUpdate:  mu: -0.083646852  nElectrons: 462.000000
	SubspaceRotationAdjust: set factor to 0.239
ElecMinimize: Iter:  13  F: -1746.387121355906629  |grad|_K:  1.068e-06  alpha:  3.164e-01  linmin:  6.554e-04  t[s]:    665.16
	Linear fluid (dielectric constant: 7.2) occupying 0.827490 of unit cell:	Completed after 3 iterations at t[s]:    683.85
	Linear fluid (dielectric constant: 7.2) occupying 0.827496 of unit cell:	Completed after 1 iterations at t[s]:    695.85
	FillingsUpdate:  mu: -0.083578325  nElectrons: 462.000000
	SubspaceRotationAdjust: set factor to 0.239
ElecMinimize: Iter:  14  F: -1746.387131519052900  |grad|_K:  7.068e-07  alpha:  2.602e-01  linmin: -4.118e-04  t[s]:    712.88
	Linear fluid (dielectric constant: 7.2) occupying 0.827484 of unit cell:	Completed after 2 iterations at t[s]:    731.49
	Linear fluid (dielectric constant: 7.2) occupying 0.827482 of unit cell:	Completed after 1 iterations at t[s]:    743.49
	FillingsUpdate:  mu: -0.083547323  nElectrons: 462.000000
	SubspaceRotationAdjust: set factor to 0.239
ElecMinimize: Iter:  15  F: -1746.387137512374920  |grad|_K:  6.164e-07  alpha:  3.053e-01  linmin: -3.896e-04  t[s]:    760.54
	Linear fluid (dielectric constant: 7.2) occupying 0.827511 of unit cell:	Completed after 2 iterations at t[s]:    779.17
	Linear fluid (dielectric constant: 7.2) occupying 0.827510 of unit cell:	Completed after 0 iterations at t[s]:    791.00
	FillingsUpdate:  mu: -0.083612679  nElectrons: 462.000000
	SubspaceRotationAdjust: set factor to 0.22
ElecMinimize: Iter:  16  F: -1746.387141844484631  |grad|_K:  5.163e-07  alpha:  2.903e-01  linmin:  8.639e-04  t[s]:    808.04
	Linear fluid (dielectric constant: 7.2) occupying 0.827484 of unit cell:	Completed after 2 iterations at t[s]:    826.67
	Linear fluid (dielectric constant: 7.2) occupying 0.827487 of unit cell:	Completed after 1 iterations at t[s]:    838.66
	FillingsUpdate:  mu: -0.083567454  nElectrons: 462.000000
	SubspaceRotationAdjust: set factor to 0.219
ElecMinimize: Iter:  17  F: -1746.387144082791110  |grad|_K:  4.004e-07  alpha:  2.547e-01  linmin: -5.100e-04  t[s]:    855.69
	Linear fluid (dielectric constant: 7.2) occupying 0.827479 of unit cell:	Completed after 2 iterations at t[s]:    874.32
	Linear fluid (dielectric constant: 7.2) occupying 0.827477 of unit cell:	Completed after 0 iterations at t[s]:    886.23
	FillingsUpdate:  mu: -0.083570103  nElectrons: 462.000000
	SubspaceRotationAdjust: set factor to 0.22
ElecMinimize: Iter:  18  F: -1746.387146013458050  |grad|_K:  3.040e-07  alpha:  2.969e-01  linmin: -3.006e-04  t[s]:    903.26
	Linear fluid (dielectric constant: 7.2) occupying 0.827489 of unit cell:	Completed after 2 iterations at t[s]:    921.88
	Linear fluid (dielectric constant: 7.2) occupying 0.827488 of unit cell:	Completed after 0 iterations at t[s]:    933.72
	FillingsUpdate:  mu: -0.083615641  nElectrons: 462.000000
	SubspaceRotationAdjust: set factor to 0.208
ElecMinimize: Iter:  19  F: -1746.387146986165362  |grad|_K:  2.721e-07  alpha:  2.661e-01  linmin:  9.071e-04  t[s]:    950.76
	Linear fluid (dielectric constant: 7.2) occupying 0.827476 of unit cell:	Completed after 1 iterations at t[s]:    969.29
	Linear fluid (dielectric constant: 7.2) occupying 0.827477 of unit cell:	Completed after 0 iterations at t[s]:    981.13
	FillingsUpdate:  mu: -0.083598193  nElectrons: 462.000000
	SubspaceRotationAdjust: set factor to 0.23
ElecMinimize: Iter:  20  F: -1746.387147532023391  |grad|_K:  1.967e-07  alpha:  2.390e-01  linmin: -1.340e-03  t[s]:    998.17
	Linear fluid (dielectric constant: 7.2) occupying 0.827467 of unit cell:	Completed after 1 iterations at t[s]:   1016.72
	Linear fluid (dielectric constant: 7.2) occupying 0.827468 of unit cell:	Completed after 0 iterations at t[s]:   1028.55
	FillingsUpdate:  mu: -0.083582533  nElectrons: 462.000000
	SubspaceRotationAdjust: set factor to 0.23
ElecMinimize: Iter:  21  F: -1746.387147893352903  |grad|_K:  1.392e-07  alpha:  2.084e-01  linmin: -5.477e-04  t[s]:   1045.58
	Linear fluid (dielectric constant: 7.2) occupying 0.827471 of unit cell:	Completed after 0 iterations at t[s]:   1064.05
ElecMinimize: 	Predicted alpha/alphaT>3.000000, increasing alphaT to 6.253062e-01.
	Linear fluid (dielectric constant: 7.2) occupying 0.827477 of unit cell:	Completed after 1 iterations at t[s]:   1076.05
	Linear fluid (dielectric constant: 7.2) occupying 0.827475 of unit cell:	Completed after 0 iterations at t[s]:   1087.96
	FillingsUpdate:  mu: -0.083613898  nElectrons: 462.000000
	SubspaceRotationAdjust: set factor to 0.22
ElecMinimize: Iter:  22  F: -1746.387148317796118  |grad|_K:  2.081e-07  alpha:  4.641e-01  linmin:  1.827e-03  t[s]:   1104.99
	Linear fluid (dielectric constant: 7.2) occupying 0.827458 of unit cell:	Completed after 2 iterations at t[s]:   1123.60
	Linear fluid (dielectric constant: 7.2) occupying 0.827471 of unit cell:	Completed after 1 iterations at t[s]:   1135.60
	FillingsUpdate:  mu: -0.083612616  nElectrons: 462.000000
	SubspaceRotationAdjust: set factor to 0.257
ElecMinimize: Iter:  23  F: -1746.387148373260743  |grad|_K:  1.906e-07  alpha:  1.161e-01  linmin: -1.597e-04  t[s]:   1152.64
	Linear fluid (dielectric constant: 7.2) occupying 0.827461 of unit cell:	Completed after 1 iterations at t[s]:   1171.17
	Linear fluid (dielectric constant: 7.2) occupying 0.827466 of unit cell:	Completed after 0 iterations at t[s]:   1183.08
	FillingsUpdate:  mu: -0.083603073  nElectrons: 462.000000
	SubspaceRotationAdjust: set factor to 0.285
ElecMinimize: Iter:  24  F: -1746.387148411011367  |grad|_K:  1.395e-07  alpha:  5.770e-02  linmin: -1.773e-03  t[s]:   1200.10
	Linear fluid (dielectric constant: 7.2) occupying 0.827462 of unit cell:	Completed after 0 iterations at t[s]:   1218.55
	Linear fluid (dielectric constant: 7.2) occupying 0.827464 of unit cell:	Completed after 0 iterations at t[s]:   1230.38
	FillingsUpdate:  mu: -0.083600320  nElectrons: 462.000000
	SubspaceRotationAdjust: set factor to 0.302
ElecMinimize: Iter:  25  F: -1746.387148430384059  |grad|_K:  1.169e-07  alpha:  3.421e-02  linmin: -3.471e-03  t[s]:   1247.42
	Linear fluid (dielectric constant: 7.2) occupying 0.827462 of unit cell:	Completed after 0 iterations at t[s]:   1265.81
	Linear fluid (dielectric constant: 7.2) occupying 0.827462 of unit cell:	Completed after 0 iterations at t[s]:   1277.64
	FillingsUpdate:  mu: -0.083597316  nElectrons: 462.000000
	SubspaceRotationAdjust: set factor to 0.322
ElecMinimize: Iter:  26  F: -1746.387148450848827  |grad|_K:  1.042e-07  alpha:  2.571e-02  linmin: -4.984e-03  t[s]:   1294.67
	Linear fluid (dielectric constant: 7.2) occupying 0.827461 of unit cell:	Completed after 0 iterations at t[s]:   1313.12
	Linear fluid (dielectric constant: 7.2) occupying 0.827461 of unit cell:	Completed after 0 iterations at t[s]:   1324.96
	FillingsUpdate:  mu: -0.083594698  nElectrons: 462.000000
	SubspaceRotationAdjust: set factor to 0.354
ElecMinimize: Iter:  27  F: -1746.387148474403148  |grad|_K:  9.032e-08  alpha:  2.333e-02  linmin: -6.123e-03  t[s]:   1341.99
	Linear fluid (dielectric constant: 7.2) occupying 0.827461 of unit cell:	Completed after 0 iterations at t[s]:   1360.43
	Linear fluid (dielectric constant: 7.2) occupying 0.827461 of unit cell:	Completed after 0 iterations at t[s]:   1372.27
	FillingsUpdate:  mu: -0.083596293  nElectrons: 462.000000
	SubspaceRotationAdjust: set factor to 0.409
ElecMinimize: Iter:  28  F: -1746.387148509332746  |grad|_K:  7.684e-08  alpha:  3.092e-02  linmin: -6.822e-03  t[s]:   1389.31
	Linear fluid (dielectric constant: 7.2) occupying 0.827461 of unit cell:	Completed after 0 iterations at t[s]:   1407.75
	Linear fluid (dielectric constant: 7.2) occupying 0.827462 of unit cell:	Completed after 0 iterations at t[s]:   1419.65
	FillingsUpdate:  mu: -0.083599733  nElectrons: 462.000000
	SubspaceRotationAdjust: set factor to 0.486
ElecMinimize: Iter:  29  F: -1746.387148565228699  |grad|_K:  6.166e-08  alpha:  6.325e-02  linmin: -3.763e-03  t[s]:   1436.68
	Linear fluid (dielectric constant: 7.2) occupying 0.827463 of unit cell:	Completed after 0 iterations at t[s]:   1455.14
ElecMinimize: 	Predicted alpha/alphaT>3.000000, increasing alphaT to 1.897629e-01.
	Linear fluid (dielectric constant: 7.2) occupying 0.827464 of unit cell:	Completed after 1 iterations at t[s]:   1467.12
	Linear fluid (dielectric constant: 7.2) occupying 0.827464 of unit cell:	Completed after 0 iterations at t[s]:   1478.94
	FillingsUpdate:  mu: -0.083607394  nElectrons: 462.000000
	SubspaceRotationAdjust: set factor to 0.518
ElecMinimize: Iter:  30  F: -1746.387148617312732  |grad|_K:  9.764e-08  alpha:  1.429e-01  linmin:  1.109e-03  t[s]:   1495.98
	Linear fluid (dielectric constant: 7.2) occupying 0.827462 of unit cell:	Completed after 0 iterations at t[s]:   1514.43
	Linear fluid (dielectric constant: 7.2) occupying 0.827464 of unit cell:	Completed after 1 iterations at t[s]:   1526.41
ElecMinimize: 	Step increased F by 3.692548e-10, reducing alpha to 1.035387e-05.
	Linear fluid (dielectric constant: 7.2) occupying 0.827464 of unit cell:	Completed after 0 iterations at t[s]:   1554.94
ElecMinimize: 	Step increased F by 3.935838e-10, reducing alpha to 1.035387e-06.
	Linear fluid (dielectric constant: 7.2) occupying 0.827464 of unit cell:	Completed after 0 iterations at t[s]:   1583.48
ElecMinimize: 	Step increased F by 4.051799e-10, reducing alpha to 1.035387e-07.
ElecMinimize: 	Step failed to reduce F after 3 attempts. Quitting step.
ElecMinimize: 	Undoing step.
	Linear fluid (dielectric constant: 7.2) occupying 0.827464 of unit cell:	Completed after 0 iterations at t[s]:   1612.02
ElecMinimize: 	Step failed: resetting search direction.
	FillingsUpdate:  mu: -0.083607530  nElectrons: 462.000000
	SubspaceRotationAdjust: set factor to 0.663
ElecMinimize: Iter:  31  F: -1746.387148616903232  |grad|_K:  9.592e-08  alpha:  1.035e-07
	Linear fluid (dielectric constant: 7.2) occupying 0.827457 of unit cell:	Completed after 0 iterations at t[s]:   1647.50
	Linear fluid (dielectric constant: 7.2) occupying 0.827459 of unit cell:	Completed after 0 iterations at t[s]:   1659.33
	FillingsUpdate:  mu: -0.083603050  nElectrons: 462.000000
	SubspaceRotationAdjust: set factor to 0.761
ElecMinimize: Iter:  32  F: -1746.387148645658499  |grad|_K:  5.922e-08  alpha:  1.020e-01  linmin: -3.980e-03  t[s]:   1676.36
	Linear fluid (dielectric constant: 7.2) occupying 0.827459 of unit cell:	Completed after 0 iterations at t[s]:   1694.82
ElecMinimize: 	Predicted alpha/alphaT>3.000000, increasing alphaT to 3.058944e-01.
	Linear fluid (dielectric constant: 7.2) occupying 0.827458 of unit cell:	Completed after 1 iterations at t[s]:   1706.79
	Linear fluid (dielectric constant: 7.2) occupying 0.827458 of unit cell:	Completed after 0 iterations at t[s]:   1718.62
	FillingsUpdate:  mu: -0.083603017  nElectrons: 462.000000
	SubspaceRotationAdjust: set factor to 0.833
ElecMinimize: Iter:  33  F: -1746.387148703149933  |grad|_K:  6.581e-08  alpha:  3.041e-01  linmin:  1.345e-03  t[s]:   1735.66
	Linear fluid (dielectric constant: 7.2) occupying 0.827459 of unit cell:	Completed after 0 iterations at t[s]:   1754.10
	Linear fluid (dielectric constant: 7.2) occupying 0.827459 of unit cell:	Completed after 0 iterations at t[s]:   1765.92
	FillingsUpdate:  mu: -0.083608218  nElectrons: 462.000000
	SubspaceRotationAdjust: set factor to 0.892
ElecMinimize: Iter:  34  F: -1746.387148721982157  |grad|_K:  8.506e-08  alpha:  1.903e-01  linmin:  1.583e-04  t[s]:   1782.95
	Linear fluid (dielectric constant: 7.2) occupying 0.827453 of unit cell:	Completed after 1 iterations at t[s]:   1801.47
	Linear fluid (dielectric constant: 7.2) occupying 0.827456 of unit cell:	Completed after 0 iterations at t[s]:   1813.30
	FillingsUpdate:  mu: -0.083609381  nElectrons: 462.000000
	SubspaceRotationAdjust: set factor to 0.965
ElecMinimize: Iter:  35  F: -1746.387148733700769  |grad|_K:  7.420e-08  alpha:  9.559e-02  linmin: -4.992e-04  t[s]:   1830.32
	Linear fluid (dielectric constant: 7.2) occupying 0.827453 of unit cell:	Completed after 0 iterations at t[s]:   1848.69
	Linear fluid (dielectric constant: 7.2) occupying 0.827454 of unit cell:	Completed after 0 iterations at t[s]:   1860.53
	FillingsUpdate:  mu: -0.083607829  nElectrons: 462.000000
	SubspaceRotationAdjust: set factor to 1.09
ElecMinimize: Iter:  36  F: -1746.387148744611750  |grad|_K:  6.222e-08  alpha:  6.225e-02  linmin: -1.296e-03  t[s]:   1877.56
	Linear fluid (dielectric constant: 7.2) occupying 0.827453 of unit cell:	Completed after 0 iterations at t[s]:   1896.01
	Linear fluid (dielectric constant: 7.2) occupying 0.827453 of unit cell:	Completed after 0 iterations at t[s]:   1907.83
	FillingsUpdate:  mu: -0.083607934  nElectrons: 462.000000
	SubspaceRotationAdjust: set factor to 1.1
ElecMinimize: Iter:  37  F: -1746.387148760358741  |grad|_K:  4.498e-08  alpha:  5.658e-02  linmin: -1.928e-03  t[s]:   1924.86
	Linear fluid (dielectric constant: 7.2) occupying 0.827453 of unit cell:	Completed after 0 iterations at t[s]:   1943.24
ElecMinimize: 	Predicted alpha/alphaT>3.000000, increasing alphaT to 1.697384e-01.
	Linear fluid (dielectric constant: 7.2) occupying 0.827454 of unit cell:	Completed after 0 iterations at t[s]:   1955.15
	Linear fluid (dielectric constant: 7.2) occupying 0.827454 of unit cell:	Completed after 0 iterations at t[s]:   1966.97
	FillingsUpdate:  mu: -0.083615896  nElectrons: 462.000000
	SubspaceRotationAdjust: set factor to 1.09
ElecMinimize: Iter:  38  F: -1746.387148794404084  |grad|_K:  5.202e-08  alpha:  1.981e-01  linmin:  3.057e-04  t[s]:   1984.00
	Linear fluid (dielectric constant: 7.2) occupying 0.827444 of unit cell:	Completed after 1 iterations at t[s]:   2002.54
	Linear fluid (dielectric constant: 7.2) occupying 0.827452 of unit cell:	Completed after 0 iterations at t[s]:   2014.46
ElecMinimize: 	Step increased F by 3.910145e-09, reducing alpha to 2.967995e-03.
	Linear fluid (dielectric constant: 7.2) occupying 0.827454 of unit cell:	Completed after 0 iterations at t[s]:   2042.98
	FillingsUpdate:  mu: -0.083614270  nElectrons: 462.000000
	SubspaceRotationAdjust: set factor to 1.19
ElecMinimize: Iter:  39  F: -1746.387148794562790  |grad|_K:  5.621e-08  alpha:  2.968e-03  linmin: -6.879e-04  t[s]:   2060.00
	Linear fluid (dielectric constant: 7.2) occupying 0.827453 of unit cell:	Completed after 0 iterations at t[s]:   2078.37
	Linear fluid (dielectric constant: 7.2) occupying 0.827454 of unit cell:	Completed after 0 iterations at t[s]:   2090.20
ElecMinimize: 	Step increased F by 1.389253e-10, reducing alpha to 1.044634e-04.
	Linear fluid (dielectric constant: 7.2) occupying 0.827454 of unit cell:	Completed after 0 iterations at t[s]:   2118.72
ElecMinimize: 	Step increased F by 1.000444e-11, reducing alpha to 1.044634e-05.
	Linear fluid (dielectric constant: 7.2) occupying 0.827454 of unit cell:	Completed after 0 iterations at t[s]:   2147.25
	FillingsUpdate:  mu: -0.083614268  nElectrons: 462.000000
	SubspaceRotationAdjust: set factor to 1.25
ElecMinimize: Iter:  40  F: -1746.387148794573477  |grad|_K:  5.738e-08  alpha:  1.045e-05  linmin: -1.624e-03  t[s]:   2164.29
ElecMinimize: Converged (|Delta F|<1.000000e-08 for 2 iters).
Setting wave functions to eigenvectors of Hamiltonian

# Ionic positions in cartesian coordinates:
ion Ti   0.000000174975000  -0.000000174975000   2.000000000000000 0
ion Ti   4.340445422775000   4.340445072825000   4.795024053800001 0
ion Ti   0.000000174975000   8.680909217924999   2.000000000000000 0
ion Ti   4.340445422775000  13.021354465725000   4.795024053800001 0
ion Ti   0.000000174975000  17.361818610825001   2.000000000000000 0
ion Ti   4.340445422775000  21.702263858624999   4.795024053800001 0
ion Ti   8.680909567874998  -0.000000174975000   2.000000000000000 0
ion Ti  13.021354815675002   4.340445072825000   4.795024053800001 0
ion Ti   8.680909567874998   8.680909217924999   2.000000000000000 0
ion Ti  13.021354815675002  13.021354465725000   4.795024053800001 0
ion Ti   8.680909567874998  17.361818610825001   2.000000000000000 0
ion Ti  13.021364264325003  21.702263858624999   4.795024053800001 0
ion Ti  17.361818960775000  -0.000000174975000   2.000000000000000 0
ion Ti  21.702264208574999   4.340445072825000   4.795024053800001 0
ion Ti  17.361818960775000   8.680909217924999   2.000000000000000 0
ion Ti  21.702264208574999  13.021363914375000   4.795024053800001 0
ion Ti  17.361818960775000  17.361818610825001   2.000000000000000 0
ion Ti  21.702264208574999  21.702263858624999   4.795024053800001 0
ion O   2.650289808075000   2.650289458125000   2.000000000000000 0
ion O   6.030619934775000   6.030619584825001   2.000000000000000 0
ion O   1.690174686975000   6.990734705924999   4.795024053800001 0
ion O   6.990735055874999   1.690174337025000   4.795024053800001 0
ion O   2.650289808075000  11.331198851025000   2.000000000000000 0
ion O   6.030619934775000  14.711528977725004   2.000000000000000 0
ion O   1.690174686975000  15.671644098825000   4.795024053800001 0
ion O   6.990735055874999  10.371083729925001   4.795024053800001 0
ion O   2.650289808075000  20.012108243924999   2.000000000000000 0
ion O   6.030619934775000  23.392438370625001   2.000000000000000 0
ion O   1.690174686975000  24.352553491725004   4.795024053800001 0
ion O   6.990735055874999  19.051993122824996   4.795024053800001 0
ion O  11.331199200975000   2.650289458125000   2.000000000000000 0
ion O  14.711529327675001   6.030619584825001   2.000000000000000 0
ion O  10.371084079875001   6.990734705924999   4.795024053800001 0
ion O  15.671644448774998   1.690174337025000   4.795024053800001 0
ion O  11.331199200975000  11.331198851025000   2.000000000000000 0
ion O  14.711529327675001  14.711528977725004   2.000000000000000 0
ion O  10.371084079875001  15.671644098825000   4.795024053800001 0
ion O  15.671644448774998  10.371083729925001   4.795024053800001 0
ion O  11.331199200975000  20.012108243924999   2.000000000000000 0
ion O  14.711529327675001  23.392438370625001   2.000000000000000 0
ion O  10.371084079875001  24.352553491725004   4.795024053800001 0
ion O  15.671644448774998  19.051993122824996   4.795024053800001 0
ion O  20.012108593874995   2.650289458125000   2.000000000000000 0
ion O  23.392438720575004   6.030619584825001   2.000000000000000 0
ion O  19.051993472774999   6.990734705924999   4.795024053800001 0
ion O  24.352553841675000   1.690174337025000   4.795024053800001 0
ion O  20.012108593874995  11.331198851025000   2.000000000000000 0
ion O  23.392438720575004  14.711528977725004   2.000000000000000 0
ion O  19.051993472774999  15.671644098825000   4.795024053800001 0
ion O  24.352553841675000  10.371083729925001   4.795024053800001 0
ion O  20.012108593874995  20.012108243924999   2.000000000000000 0
ion O  23.392438720575004  23.392438370625001   2.000000000000000 0
ion O  19.051993472774999  24.352553491725004   4.795024053800001 0
ion O  24.352553841675000  19.051993122824996   4.795024053800001 0
ion S  13.467490833117914  13.402612013176560   9.585275802160560 1
ion S  12.781806720570708  16.976797193224851  11.153612527517598 1
ion Na   8.750587433622146  17.227081454998022   8.250602953328718 1
ion Na  16.973886909916128  16.988940896120109   8.244534609892428 1

# Forces in Cartesian coordinates:
force Ti  -0.000161457473425   0.001965197848344   0.120444931123700 0
force Ti   0.000663466308063   0.001206058135670  -0.126576844227956 0
force Ti  -0.000180188846765  -0.001923916778217   0.120725844035891 0
force Ti  -0.003113581118937  -0.008430913980412  -0.130051437669769 0
force Ti  -0.000436213924230  -0.000989865846227   0.119822439870956 0
force Ti  -0.009240340786792   0.010141393089766  -0.131641536993531 0
force Ti  -0.000405078470233   0.003661291429042   0.120105189400728 0
force Ti  -0.000506470137313   0.003185717001586  -0.124205967390775 0
force Ti   0.005260407550517   0.002827240032751   0.121355950841471 0
force Ti   0.006699803657161  -0.007977759875381  -0.092200565855482 0
force Ti   0.003522838068596  -0.006938207840898   0.108418551550065 0
force Ti  -0.004058090744287   0.008405036922815  -0.129084274762356 0
force Ti  -0.000190210130849   0.002860488410986   0.121066036017066 0
force Ti  -0.001330370037014   0.001256023171540  -0.125201108038679 0
force Ti  -0.005195749307042   0.000838824980362   0.125060455813496 0
force Ti   0.006754443677782  -0.010778330508212  -0.131204724667252 0
force Ti  -0.004101688109158  -0.004141515314884   0.105013299470468 0
force Ti   0.003290422914015   0.004750544181487  -0.129763263119761 0
force O  -0.019284827422676  -0.019635247346286   0.011485567874801 0
force O   0.016906175390256   0.017220419243923   0.012646039930049 0
force O   0.018417785082077  -0.018533366450000  -0.015138516128738 0
force O  -0.018194270371040   0.017619001072609  -0.015631508847288 0
force O  -0.018105608791782  -0.017627525583848   0.012227479081800 0
force O   0.020163850076488   0.021690463625528   0.012296086957847 0
force O   0.019794361692052  -0.018198036119851  -0.013228621587030 0
force O  -0.021478052264712   0.021382038569736  -0.014019485546893 0
force O  -0.017013975810547  -0.018160192811071   0.013235723097689 0
force O   0.017673593886664   0.015972371060262   0.013502433354624 0
force O   0.021007206955224  -0.021368710712375  -0.013330057053169 0
force O  -0.018410785134111   0.017877080038738  -0.002395442815076 0
force O  -0.019763207773122  -0.020379847271128   0.011214133396693 0
force O   0.018588142096981   0.017616393825030   0.011850889707466 0
force O   0.018414956896116  -0.020002409605324  -0.016341529227408 0
force O  -0.017872572781252   0.017303227632524  -0.015914458450697 0
force O  -0.028026295797689  -0.026635692860482   0.003258517774173 0
force O   0.027483306265130   0.029109031515568   0.005602617929401 0
force O   0.007514775952381  -0.008465746888632  -0.026316554603667 0
force O  -0.012655270285445   0.012342792254809  -0.025218320653070 0
force O  -0.019119877854747  -0.018971121073482   0.012884354169912 0
force O   0.017563840176301   0.016353881468176   0.012864803555986 0
force O   0.021446055366461  -0.022898864916770  -0.010974393047437 0
force O  -0.016615204814509   0.020037915175723  -0.010421630522343 0
force O  -0.019222332461784  -0.019686689723745   0.011459966531809 0
force O   0.018982571143278   0.019151440603457   0.011656598569659 0
force O   0.020236499873047  -0.020057076379493  -0.015049867656821 0
force O  -0.018416308443875   0.018154469282773  -0.015245229727783 0
force O  -0.015853298627917  -0.015333839254454   0.013658386025423 0
force O   0.017724504602002   0.018832894323773   0.012875583138309 0
force O   0.019865908415306  -0.016344039136240  -0.006749053891608 0
force O  -0.020424990482097   0.020919525753458  -0.013658829396299 0
force O  -0.019826871155344  -0.019913246260364   0.012693529739361 0
force O   0.017777495460231   0.017408575347394   0.012356994817214 0
force O   0.019658262304276  -0.021025470491680  -0.013047503050408 0
force O  -0.020184744489804   0.019055054787755  -0.012905201589186 0
force S   0.000760440848946  -0.004218719776738  -0.000780765035448 1
force S  -0.000599963058188   0.004033182583560   0.003418694385609 1
force Na  -0.002551577472990   0.000254579331018   0.000825826854204 1
force Na   0.002000063930792   0.001044662739596   0.000185870704482 1

# Energy components:
   A_diel =       -0.1658032888517612
   Eewald =     9283.6141665488485160
       EH =    10760.1613583009602735
     Eloc =   -22054.1685549525100214
      Enl =       38.2355728893384423
      Exc =     -313.7917242957648796
 Exc_core =       29.4468884646624502
       KE =      510.3702280615672180
  MuShift =        0.0000000000004260
-------------------------------------
     Etot =    -1746.2978682717512129
       TS =        0.0892805228222477
-------------------------------------
        F =    -1746.3871487945734771

IonicMinimize: Iter:   0  F: -1746.387148794573477  |grad|_K:  2.230e-03  alpha:  1.000e+00

#--- Lowdin population analysis ---
# oxidation-state Ti +1.630 +1.628 +1.630 +1.605 +1.632 +1.622 +1.631 +1.635 +1.628 +1.566 +1.637 +1.567 +1.630 +1.628 +1.625 +1.627 +1.640 +1.597
# oxidation-state O -0.761 -0.763 -0.762 -0.762 -0.757 -0.761 -0.769 -0.755 -0.761 -0.761 -0.760 -0.831 -0.761 -0.760 -0.751 -0.760 -0.782 -0.776 -0.806 -0.732 -0.757 -0.756 -0.763 -0.816 -0.760 -0.761 -0.759 -0.762 -0.760 -0.761 -0.822 -0.760 -0.762 -0.756 -0.764 -0.768
# oxidation-state S -0.454 -0.569
# oxidation-state Na +0.769 +0.767


-------- Electronic minimization -----------
	Linear fluid (dielectric constant: 7.2) occupying 0.827393 of unit cell:	Completed after 3 iterations at t[s]:   2199.67
	FillingsUpdate:  mu: -0.083606834  nElectrons: 462.000000
ElecMinimize: Iter:   0  F: -1746.387193162115409  |grad|_K:  7.818e-07  alpha:  1.000e+00
	Linear fluid (dielectric constant: 7.2) occupying 0.828289 of unit cell:	Completed after 7 iterations at t[s]:   2240.11
	Linear fluid (dielectric constant: 7.2) occupying 0.827473 of unit cell:	Completed after 7 iterations at t[s]:   2252.60
	FillingsUpdate:  mu: -0.083703780  nElectrons: 462.000000
	SubspaceRotationAdjust: set factor to 0.81
ElecMinimize: Iter:   1  F: -1746.387194953327935  |grad|_K:  7.151e-07  alpha:  7.473e-02  linmin:  9.337e-04  t[s]:   2269.63
	Linear fluid (dielectric constant: 7.2) occupying 0.827464 of unit cell:	Completed after 1 iterations at t[s]:   2288.16
	Linear fluid (dielectric constant: 7.2) occupying 0.827447 of unit cell:	Completed after 2 iterations at t[s]:   2300.24
	FillingsUpdate:  mu: -0.083666736  nElectrons: 462.000000
	SubspaceRotationAdjust: set factor to 0.81
ElecMinimize: Iter:   2  F: -1746.387198970243389  |grad|_K:  3.621e-07  alpha:  2.214e-01  linmin: -2.622e-03  t[s]:   2317.27
	Linear fluid (dielectric constant: 7.2) occupying 0.827407 of unit cell:	Completed after 2 iterations at t[s]:   2335.88
	Linear fluid (dielectric constant: 7.2) occupying 0.827422 of unit cell:	Completed after 1 iterations at t[s]:   2347.87
	FillingsUpdate:  mu: -0.083637051  nElectrons: 462.000000
	SubspaceRotationAdjust: set factor to 0.644
ElecMinimize: Iter:   3  F: -1746.387199738416030  |grad|_K:  3.175e-07  alpha:  1.362e-01  linmin: -4.646e-04  t[s]:   2364.91
	Linear fluid (dielectric constant: 7.2) occupying 0.827441 of unit cell:	Completed after 1 iterations at t[s]:   2383.43
	Linear fluid (dielectric constant: 7.2) occupying 0.827461 of unit cell:	Completed after 1 iterations at t[s]:   2395.43
	FillingsUpdate:  mu: -0.083698291  nElectrons: 462.000000
	SubspaceRotationAdjust: set factor to 0.487
ElecMinimize: Iter:   4  F: -1746.387200480467754  |grad|_K:  4.353e-07  alpha:  2.733e-01  linmin:  3.778e-03  t[s]:   2412.47
	Linear fluid (dielectric constant: 7.2) occupying 0.827421 of unit cell:	Completed after 3 iterations at t[s]:   2431.15
	Linear fluid (dielectric constant: 7.2) occupying 0.827455 of unit cell:	Completed after 1 iterations at t[s]:   2443.14
	FillingsUpdate:  mu: -0.083687336  nElectrons: 462.000000
	SubspaceRotationAdjust: set factor to 0.481
ElecMinimize: Iter:   5  F: -1746.387200526186916  |grad|_K:  3.569e-07  alpha:  3.847e-02  linmin: -1.135e-04  t[s]:   2460.17
	Linear fluid (dielectric constant: 7.2) occupying 0.827442 of unit cell:	Completed after 0 iterations at t[s]:   2478.61
	Linear fluid (dielectric constant: 7.2) occupying 0.827445 of unit cell:	Completed after 0 iterations at t[s]:   2490.44
	FillingsUpdate:  mu: -0.083671446  nElectrons: 462.000000
	SubspaceRotationAdjust: set factor to 0.524
ElecMinimize: Iter:   6  F: -1746.387200642269136  |grad|_K:  2.586e-07  alpha:  2.887e-02  linmin: -2.683e-03  t[s]:   2507.48
	Linear fluid (dielectric constant: 7.2) occupying 0.827437 of unit cell:	Completed after 1 iterations at t[s]:   2526.00
	Linear fluid (dielectric constant: 7.2) occupying 0.827439 of unit cell:	Completed after 0 iterations at t[s]:   2537.82
	FillingsUpdate:  mu: -0.083659318  nElectrons: 462.000000
	SubspaceRotationAdjust: set factor to 0.596
ElecMinimize: Iter:   7  F: -1746.387200708701357  |grad|_K:  2.053e-07  alpha:  2.183e-02  linmin: -4.032e-03  t[s]:   2554.87
	Linear fluid (dielectric constant: 7.2) occupying 0.827434 of unit cell:	Completed after 0 iterations at t[s]:   2573.32
	Linear fluid (dielectric constant: 7.2) occupying 0.827434 of unit cell:	Completed after 0 iterations at t[s]:   2585.15
	FillingsUpdate:  mu: -0.083653095  nElectrons: 462.000000
	SubspaceRotationAdjust: set factor to 0.639
ElecMinimize: Iter:   8  F: -1746.387200759727193  |grad|_K:  1.868e-07  alpha:  1.880e-02  linmin: -5.177e-03  t[s]:   2602.19
	Linear fluid (dielectric constant: 7.2) occupying 0.827431 of unit cell:	Completed after 0 iterations at t[s]:   2620.63
	Linear fluid (dielectric constant: 7.2) occupying 0.827431 of unit cell:	Completed after 0 iterations at t[s]:   2632.45
	FillingsUpdate:  mu: -0.083645344  nElectrons: 462.000000
	SubspaceRotationAdjust: set factor to 0.65
ElecMinimize: Iter:   9  F: -1746.387200820594217  |grad|_K:  1.759e-07  alpha:  1.925e-02  linmin: -6.338e-03  t[s]:   2649.49
	Linear fluid (dielectric constant: 7.2) occupying 0.827430 of unit cell:	Completed after 1 iterations at t[s]:   2668.01
	Linear fluid (dielectric constant: 7.2) occupying 0.827430 of unit cell:	Completed after 0 iterations at t[s]:   2679.83
	FillingsUpdate:  mu: -0.083644846  nElectrons: 462.000000
	SubspaceRotationAdjust: set factor to 0.684
ElecMinimize: Iter:  10  F: -1746.387200903940993  |grad|_K:  1.595e-07  alpha:  2.354e-02  linmin: -6.833e-03  t[s]:   2696.87
	Linear fluid (dielectric constant: 7.2) occupying 0.827431 of unit cell:	Completed after 1 iterations at t[s]:   2715.39
	Linear fluid (dielectric constant: 7.2) occupying 0.827432 of unit cell:	Completed after 0 iterations at t[s]:   2727.30
	FillingsUpdate:  mu: -0.083648627  nElectrons: 462.000000
	SubspaceRotationAdjust: set factor to 0.982
ElecMinimize: Iter:  11  F: -1746.387201017610323  |grad|_K:  1.247e-07  alpha:  3.757e-02  linmin: -3.514e-03  t[s]:   2744.34
	Linear fluid (dielectric constant: 7.2) occupying 0.827436 of unit cell:	Completed after 1 iterations at t[s]:   2762.85
ElecMinimize: 	Predicted alpha/alphaT>3.000000, increasing alphaT to 1.126958e-01.
	Linear fluid (dielectric constant: 7.2) occupying 0.827445 of unit cell:	Completed after 1 iterations at t[s]:   2774.84
	Linear fluid (dielectric constant: 7.2) occupying 0.827439 of unit cell:	Completed after 1 iterations at t[s]:   2786.82
	FillingsUpdate:  mu: -0.083659896  nElectrons: 462.000000
	SubspaceRotationAdjust: set factor to 0.948
ElecMinimize: Iter:  12  F: -1746.387201103410007  |grad|_K:  1.339e-07  alpha:  6.328e-02  linmin:  1.393e-03  t[s]:   2803.86
	Linear fluid (dielectric constant: 7.2) occupying 0.827443 of unit cell:	Completed after 1 iterations at t[s]:   2822.40
	Linear fluid (dielectric constant: 7.2) occupying 0.827441 of unit cell:	Completed after 1 iterations at t[s]:   2834.38
	FillingsUpdate:  mu: -0.083664652  nElectrons: 462.000000
	SubspaceRotationAdjust: set factor to 0.75
ElecMinimize: Iter:  13  F: -1746.387201121756789  |grad|_K:  1.618e-07  alpha:  3.091e-02  linmin:  1.170e-03  t[s]:   2851.42
	Linear fluid (dielectric constant: 7.2) occupying 0.827440 of unit cell:	Completed after 1 iterations at t[s]:   2869.95
	Linear fluid (dielectric constant: 7.2) occupying 0.827440 of unit cell:	Completed after 0 iterations at t[s]:   2881.77
	FillingsUpdate:  mu: -0.083667118  nElectrons: 462.000000
	SubspaceRotationAdjust: set factor to 0.602
ElecMinimize: Iter:  14  F: -1746.387201139493982  |grad|_K:  1.655e-07  alpha:  3.390e-02  linmin:  1.035e-03  t[s]:   2898.81
	Linear fluid (dielectric constant: 7.2) occupying 0.827435 of unit cell:	Completed after 1 iterations at t[s]:   2917.34
	Linear fluid (dielectric constant: 7.2) occupying 0.827437 of unit cell:	Completed after 0 iterations at t[s]:   2929.16
	FillingsUpdate:  mu: -0.083667291  nElectrons: 462.000000
	SubspaceRotationAdjust: set factor to 0.545
ElecMinimize: Iter:  15  F: -1746.387201150542751  |grad|_K:  1.508e-07  alpha:  1.715e-02  linmin:  6.548e-05  t[s]:   2946.20
	Linear fluid (dielectric constant: 7.2) occupying 0.827434 of unit cell:	Completed after 0 iterations at t[s]:   2964.57
	Linear fluid (dielectric constant: 7.2) occupying 0.827434 of unit cell:	Completed after 0 iterations at t[s]:   2976.38
	FillingsUpdate:  mu: -0.083663129  nElectrons: 462.000000
	SubspaceRotationAdjust: set factor to 0.539
ElecMinimize: Iter:  16  F: -1746.387201162637439  |grad|_K:  1.379e-07  alpha:  1.554e-02  linmin: -1.562e-03  t[s]:   2993.42
	Linear fluid (dielectric constant: 7.2) occupying 0.827431 of unit cell:	Completed after 0 iterations at t[s]:   3011.86
	Linear fluid (dielectric constant: 7.2) occupying 0.827431 of unit cell:	Completed after 0 iterations at t[s]:   3023.68
	FillingsUpdate:  mu: -0.083660052  nElectrons: 462.000000
	SubspaceRotationAdjust: set factor to 0.588
ElecMinimize: Iter:  17  F: -1746.387201179192061  |grad|_K:  1.188e-07  alpha:  1.487e-02  linmin: -2.580e-03  t[s]:   3040.71
	Linear fluid (dielectric constant: 7.2) occupying 0.827429 of unit cell:	Completed after 0 iterations at t[s]:   3059.16
	Linear fluid (dielectric constant: 7.2) occupying 0.827429 of unit cell:	Completed after 0 iterations at t[s]:   3070.98
	FillingsUpdate:  mu: -0.083656486  nElectrons: 462.000000
	SubspaceRotationAdjust: set factor to 0.623
ElecMinimize: Iter:  18  F: -1746.387201199478568  |grad|_K:  1.113e-07  alpha:  1.718e-02  linmin: -3.483e-03  t[s]:   3088.01
	Linear fluid (dielectric constant: 7.2) occupying 0.827427 of unit cell:	Completed after 1 iterations at t[s]:   3106.56
	Linear fluid (dielectric constant: 7.2) occupying 0.827427 of unit cell:	Completed after 0 iterations at t[s]:   3118.37
	FillingsUpdate:  mu: -0.083654690  nElectrons: 462.000000
	SubspaceRotationAdjust: set factor to 0.681
ElecMinimize: Iter:  19  F: -1746.387201224210230  |grad|_K:  9.980e-08  alpha:  2.020e-02  linmin: -3.614e-03  t[s]:   3135.41
	Linear fluid (dielectric constant: 7.2) occupying 0.827426 of unit cell:	Completed after 0 iterations at t[s]:   3153.86
	Linear fluid (dielectric constant: 7.2) occupying 0.827425 of unit cell:	Completed after 1 iterations at t[s]:   3165.84
	FillingsUpdate:  mu: -0.083653566  nElectrons: 462.000000
	SubspaceRotationAdjust: set factor to 0.763
ElecMinimize: Iter:  20  F: -1746.387201263205952  |grad|_K:  9.479e-08  alpha:  4.223e-02  linmin: -6.977e-04  t[s]:   3182.87
	Linear fluid (dielectric constant: 7.2) occupying 0.827426 of unit cell:	Completed after 1 iterations at t[s]:   3201.40
	Linear fluid (dielectric constant: 7.2) occupying 0.827427 of unit cell:	Completed after 1 iterations at t[s]:   3213.38
	FillingsUpdate:  mu: -0.083658192  nElectrons: 462.000000
	SubspaceRotationAdjust: set factor to 0.804
ElecMinimize: Iter:  21  F: -1746.387201271045569  |grad|_K:  1.221e-07  alpha:  7.718e-02  linmin:  4.209e-03  t[s]:   3230.41
ElecMinimize: 	Bad step direction: g.d > 0.
ElecMinimize: 	Undoing step.
	Linear fluid (dielectric constant: 7.2) occupying 0.827427 of unit cell:	Completed after 0 iterations at t[s]:   3248.78
ElecMinimize: 	Step failed: resetting search direction.
	FillingsUpdate:  mu: -0.083658192  nElectrons: 462.000000
	SubspaceRotationAdjust: set factor to 0.825
ElecMinimize: Iter:  22  F: -1746.387201271041477  |grad|_K:  1.237e-07  alpha:  0.000e+00
	Linear fluid (dielectric constant: 7.2) occupying 0.827428 of unit cell:	Completed after 0 iterations at t[s]:   3284.23
	Linear fluid (dielectric constant: 7.2) occupying 0.827428 of unit cell:	Completed after 1 iterations at t[s]:   3296.22
	FillingsUpdate:  mu: -0.083658690  nElectrons: 462.000000
	SubspaceRotationAdjust: set factor to 0.803
ElecMinimize: Iter:  23  F: -1746.387201347687551  |grad|_K:  6.458e-08  alpha:  1.297e-01  linmin: -1.513e-03  t[s]:   3313.28
	Linear fluid (dielectric constant: 7.2) occupying 0.827428 of unit cell:	Completed after 0 iterations at t[s]:   3331.71
	Linear fluid (dielectric constant: 7.2) occupying 0.827428 of unit cell:	Completed after 0 iterations at t[s]:   3343.62
	FillingsUpdate:  mu: -0.083658064  nElectrons: 462.000000
	SubspaceRotationAdjust: set factor to 0.971
ElecMinimize: Iter:  24  F: -1746.387201358375705  |grad|_K:  3.509e-08  alpha:  8.347e-02  linmin: -3.306e-03  t[s]:   3360.66
	Linear fluid (dielectric constant: 7.2) occupying 0.827428 of unit cell:	Completed after 0 iterations at t[s]:   3379.01
	Linear fluid (dielectric constant: 7.2) occupying 0.827428 of unit cell:	Completed after 0 iterations at t[s]:   3390.83
	FillingsUpdate:  mu: -0.083658207  nElectrons: 462.000000
	SubspaceRotationAdjust: set factor to 1.03
ElecMinimize: Iter:  25  F: -1746.387201363905206  |grad|_K:  3.251e-08  alpha:  8.386e-02  linmin: -5.275e-03  t[s]:   3407.86
	Linear fluid (dielectric constant: 7.2) occupying 0.827428 of unit cell:	Completed after 0 iterations at t[s]:   3426.23
	Linear fluid (dielectric constant: 7.2) occupying 0.827428 of unit cell:	Completed after 0 iterations at t[s]:   3438.14
	FillingsUpdate:  mu: -0.083660523  nElectrons: 462.000000
	SubspaceRotationAdjust: set factor to 1.11
ElecMinimize: Iter:  26  F: -1746.387201372617938  |grad|_K:  2.707e-08  alpha:  1.290e-01  linmin: -5.810e-03  t[s]:   3455.17
ElecMinimize: Converged (|Delta F|<1.000000e-08 for 2 iters).
Setting wave functions to eigenvectors of Hamiltonian
IonicMinimize: 	Predicted alpha/alphaT>3.000000, increasing alphaT to 3.000000e+00.

-------- Electronic minimization -----------
	Linear fluid (dielectric constant: 7.2) occupying 0.827397 of unit cell:	Completed after 4 iterations at t[s]:   3476.07
	FillingsUpdate:  mu: -0.083721072  nElectrons: 462.000000
ElecMinimize: Iter:   0  F: -1746.387239051655797  |grad|_K:  1.001e-06  alpha:  1.000e+00
	Linear fluid (dielectric constant: 7.2) occupying 0.827544 of unit cell:	Completed after 6 iterations at t[s]:   3516.42
	Linear fluid (dielectric constant: 7.2) occupying 0.827469 of unit cell:	Completed after 4 iterations at t[s]:   3528.66
	FillingsUpdate:  mu: -0.083846774  nElectrons: 462.000000
	SubspaceRotationAdjust: set factor to 0.761
ElecMinimize: Iter:   1  F: -1746.387256509696272  |grad|_K:  1.459e-06  alpha:  4.660e-01  linmin:  1.671e-04  t[s]:   3545.69
	Linear fluid (dielectric constant: 7.2) occupying 0.826840 of unit cell:	Completed after 6 iterations at t[s]:   3564.63
	Linear fluid (dielectric constant: 7.2) occupying 0.827380 of unit cell:	Completed after 6 iterations at t[s]:   3577.04
	FillingsUpdate:  mu: -0.083718279  nElectrons: 462.000000
	SubspaceRotationAdjust: set factor to 0.654
ElecMinimize: Iter:   2  F: -1746.387262328145880  |grad|_K:  6.237e-07  alpha:  7.413e-02  linmin: -6.063e-04  t[s]:   3594.08
	Linear fluid (dielectric constant: 7.2) occupying 0.827394 of unit cell:	Completed after 2 iterations at t[s]:   3612.70
	Linear fluid (dielectric constant: 7.2) occupying 0.827417 of unit cell:	Completed after 2 iterations at t[s]:   3624.79
	FillingsUpdate:  mu: -0.083773596  nElectrons: 462.000000
	SubspaceRotationAdjust: set factor to 0.509
ElecMinimize: Iter:   3  F: -1746.387264786580317  |grad|_K:  6.374e-07  alpha:  1.938e-01  linmin:  1.978e-03  t[s]:   3641.82
	Linear fluid (dielectric constant: 7.2) occupying 0.827406 of unit cell:	Completed after 4 iterations at t[s]:   3660.59
	Linear fluid (dielectric constant: 7.2) occupying 0.827410 of unit cell:	Completed after 1 iterations at t[s]:   3672.59
	FillingsUpdate:  mu: -0.083754548  nElectrons: 462.000000
	SubspaceRotationAdjust: set factor to 0.517
ElecMinimize: Iter:   4  F: -1746.387266035489347  |grad|_K:  4.132e-07  alpha:  1.257e-01  linmin: -2.056e-04  t[s]:   3689.62
	Linear fluid (dielectric constant: 7.2) occupying 0.827392 of unit cell:	Completed after 1 iterations at t[s]:   3708.15
	Linear fluid (dielectric constant: 7.2) occupying 0.827396 of unit cell:	Completed after 0 iterations at t[s]:   3720.07
	FillingsUpdate:  mu: -0.083732293  nElectrons: 462.000000
	SubspaceRotationAdjust: set factor to 0.565
ElecMinimize: Iter:   5  F: -1746.387266642102304  |grad|_K:  3.079e-07  alpha:  9.785e-02  linmin: -1.350e-03  t[s]:   3737.10
	Linear fluid (dielectric constant: 7.2) occupying 0.827395 of unit cell:	Completed after 1 iterations at t[s]:   3755.63
	Linear fluid (dielectric constant: 7.2) occupying 0.827394 of unit cell:	Completed after 1 iterations at t[s]:   3767.63
	FillingsUpdate:  mu: -0.083730955  nElectrons: 462.000000
	SubspaceRotationAdjust: set factor to 0.669
ElecMinimize: Iter:   6  F: -1746.387267449378669  |grad|_K:  2.997e-07  alpha:  1.820e-01  linmin: -1.477e-03  t[s]:   3784.66
	Linear fluid (dielectric constant: 7.2) occupying 0.827412 of unit cell:	Completed after 3 iterations at t[s]:   3803.36
	Linear fluid (dielectric constant: 7.2) occupying 0.827408 of unit cell:	Completed after 1 iterations at t[s]:   3815.35
	FillingsUpdate:  mu: -0.083753359  nElectrons: 462.000000
	SubspaceRotationAdjust: set factor to 0.649
ElecMinimize: Iter:   7  F: -1746.387268025559706  |grad|_K:  2.437e-07  alpha:  1.434e-01  linmin:  1.590e-03  t[s]:   3832.38
	Linear fluid (dielectric constant: 7.2) occupying 0.827400 of unit cell:	Completed after 1 iterations at t[s]:   3850.91
	Linear fluid (dielectric constant: 7.2) occupying 0.827400 of unit cell:	Completed after 0 iterations at t[s]:   3862.74
	FillingsUpdate:  mu: -0.083744427  nElectrons: 462.000000
	SubspaceRotationAdjust: set factor to 0.73
ElecMinimize: Iter:   8  F: -1746.387268265960984  |grad|_K:  2.140e-07  alpha:  1.360e-01  linmin: -3.385e-04  t[s]:   3879.77
	Linear fluid (dielectric constant: 7.2) occupying 0.827393 of unit cell:	Completed after 1 iterations at t[s]:   3898.31
	Linear fluid (dielectric constant: 7.2) occupying 0.827395 of unit cell:	Completed after 1 iterations at t[s]:   3910.30
	FillingsUpdate:  mu: -0.083736028  nElectrons: 462.000000
	SubspaceRotationAdjust: set factor to 0.931
ElecMinimize: Iter:   9  F: -1746.387268438640604  |grad|_K:  1.424e-07  alpha:  1.032e-01  linmin: -1.268e-03  t[s]:   3927.33
	Linear fluid (dielectric constant: 7.2) occupying 0.827400 of unit cell:	Completed after 1 iterations at t[s]:   3945.86
	Linear fluid (dielectric constant: 7.2) occupying 0.827402 of unit cell:	Completed after 1 iterations at t[s]:   3957.86
	FillingsUpdate:  mu: -0.083746683  nElectrons: 462.000000
	SubspaceRotationAdjust: set factor to 0.825
ElecMinimize: Iter:  10  F: -1746.387268562764348  |grad|_K:  1.713e-07  alpha:  1.553e-01  linmin:  1.514e-03  t[s]:   3974.88
	Linear fluid (dielectric constant: 7.2) occupying 0.827401 of unit cell:	Completed after 1 iterations at t[s]:   3993.42
	Linear fluid (dielectric constant: 7.2) occupying 0.827402 of unit cell:	Completed after 1 iterations at t[s]:   4005.39
	FillingsUpdate:  mu: -0.083745466  nElectrons: 462.000000
	SubspaceRotationAdjust: set factor to 0.804
ElecMinimize: Iter:  11  F: -1746.387268623685941  |grad|_K:  1.598e-07  alpha:  9.355e-02  linmin: -7.952e-04  t[s]:   4022.41
	Linear fluid (dielectric constant: 7.2) occupying 0.827395 of unit cell:	Completed after 1 iterations at t[s]:   4040.95
	Linear fluid (dielectric constant: 7.2) occupying 0.827397 of unit cell:	Completed after 0 iterations at t[s]:   4052.85
	FillingsUpdate:  mu: -0.083739061  nElectrons: 462.000000
	SubspaceRotationAdjust: set factor to 0.855
ElecMinimize: Iter:  12  F: -1746.387268674157212  |grad|_K:  1.006e-07  alpha:  5.776e-02  linmin: -1.404e-03  t[s]:   4069.88
	Linear fluid (dielectric constant: 7.2) occupying 0.827396 of unit cell:	Completed after 0 iterations at t[s]:   4088.33
	Linear fluid (dielectric constant: 7.2) occupying 0.827395 of unit cell:	Completed after 1 iterations at t[s]:   4100.31
	FillingsUpdate:  mu: -0.083735888  nElectrons: 462.000000
	SubspaceRotationAdjust: set factor to 0.758
ElecMinimize: Iter:  13  F: -1746.387268722529598  |grad|_K:  9.705e-08  alpha:  1.011e-01  linmin: -2.422e-04  t[s]:   4117.33
	Linear fluid (dielectric constant: 7.2) occupying 0.827398 of unit cell:	Completed after 1 iterations at t[s]:   4135.87
	Linear fluid (dielectric constant: 7.2) occupying 0.827402 of unit cell:	Completed after 1 iterations at t[s]:   4147.85
ElecMinimize: 	Step increased F by 2.465117e-08, reducing alpha to 2.746806e-02.
	Linear fluid (dielectric constant: 7.2) occupying 0.827396 of unit cell:	Completed after 1 iterations at t[s]:   4176.53
	FillingsUpdate:  mu: -0.083737481  nElectrons: 462.000000
	SubspaceRotationAdjust: set factor to 0.77
ElecMinimize: Iter:  14  F: -1746.387268748316046  |grad|_K:  8.211e-08  alpha:  2.747e-02  linmin: -3.077e-03  t[s]:   4193.56
	Linear fluid (dielectric constant: 7.2) occupying 0.827397 of unit cell:	Completed after 0 iterations at t[s]:   4211.92
ElecMinimize: 	Wrong curvature in test step, increasing alphaT to 8.240418e-02.
	Linear fluid (dielectric constant: 7.2) occupying 0.827397 of unit cell:	Completed after 0 iterations at t[s]:   4216.06
	FillingsUpdate:  mu: -0.083739966  nElectrons: 462.000000
	SubspaceRotationAdjust: set factor to 0.93
ElecMinimize: Iter:  15  F: -1746.387268779048782  |grad|_K:  6.067e-08  alpha: -4.798e-02  linmin: -3.848e-03  t[s]:   4233.10
	Linear fluid (dielectric constant: 7.2) occupying 0.827426 of unit cell:	Completed after 3 iterations at t[s]:   4251.79
	Linear fluid (dielectric constant: 7.2) occupying 0.827399 of unit cell:	Completed after 3 iterations at t[s]:   4263.96
	FillingsUpdate:  mu: -0.083742640  nElectrons: 462.000000
	SubspaceRotationAdjust: set factor to 0.768
ElecMinimize: Iter:  16  F: -1746.387268811571857  |grad|_K:  5.865e-08  alpha:  7.029e-02  linmin:  8.351e-04  t[s]:   4280.99
	Linear fluid (dielectric constant: 7.2) occupying 0.827398 of unit cell:	Completed after 0 iterations at t[s]:   4299.43
	Linear fluid (dielectric constant: 7.2) occupying 0.827399 of unit cell:	Completed after 0 iterations at t[s]:   4311.26
	FillingsUpdate:  mu: -0.083744160  nElectrons: 462.000000
	SubspaceRotationAdjust: set factor to 0.691
ElecMinimize: Iter:  17  F: -1746.387268812509774  |grad|_K:  6.088e-08  alpha:  2.410e-02  linmin: -3.108e-04  t[s]:   4328.29
	Linear fluid (dielectric constant: 7.2) occupying 0.827398 of unit cell:	Completed after 0 iterations at t[s]:   4346.65
	Linear fluid (dielectric constant: 7.2) occupying 0.827398 of unit cell:	Completed after 0 iterations at t[s]:   4358.47
ElecMinimize: 	Step increased F by 2.874003e-10, reducing alpha to 1.035670e-03.
	Linear fluid (dielectric constant: 7.2) occupying 0.827399 of unit cell:	Completed after 0 iterations at t[s]:   4386.99
ElecMinimize: 	Step increased F by 2.341949e-11, reducing alpha to 1.035670e-04.
	Linear fluid (dielectric constant: 7.2) occupying 0.827399 of unit cell:	Completed after 0 iterations at t[s]:   4415.52
ElecMinimize: 	Step increased F by 2.410161e-11, reducing alpha to 1.035670e-05.
ElecMinimize: 	Step failed to reduce F after 3 attempts. Quitting step.
ElecMinimize: 	Undoing step.
	Linear fluid (dielectric constant: 7.2) occupying 0.827399 of unit cell:	Completed after 0 iterations at t[s]:   4444.04
ElecMinimize: 	Step failed: resetting search direction.
	FillingsUpdate:  mu: -0.083744153  nElectrons: 462.000000
	SubspaceRotationAdjust: set factor to 0.652
ElecMinimize: Iter:  18  F: -1746.387268812491357  |grad|_K:  5.913e-08  alpha:  1.036e-05
	Linear fluid (dielectric constant: 7.2) occupying 0.827398 of unit cell:	Completed after 0 iterations at t[s]:   4479.50
	Linear fluid (dielectric constant: 7.2) occupying 0.827398 of unit cell:	Completed after 0 iterations at t[s]:   4491.32
ElecMinimize: 	Step increased F by 5.268248e-10, reducing alpha to 1.159219e-03.
	Linear fluid (dielectric constant: 7.2) occupying 0.827399 of unit cell:	Completed after 0 iterations at t[s]:   4519.85
ElecMinimize: 	Step increased F by 1.006811e-09, reducing alpha to 1.159219e-04.
	Linear fluid (dielectric constant: 7.2) occupying 0.827399 of unit cell:	Completed after 0 iterations at t[s]:   4548.37
ElecMinimize: 	Step increased F by 1.078206e-09, reducing alpha to 1.159219e-05.
ElecMinimize: 	Step failed to reduce F after 3 attempts. Quitting step.
ElecMinimize: 	Undoing step.
	Linear fluid (dielectric constant: 7.2) occupying 0.827399 of unit cell:	Completed after 0 iterations at t[s]:   4576.91
ElecMinimize: 	Step failed along negative gradient direction.
ElecMinimize: Probably at roundoff error limit. (Stopping)
Setting wave functions to eigenvectors of Hamiltonian

-------- Electronic minimization -----------
	Linear fluid (dielectric constant: 7.2) occupying 0.827340 of unit cell:	Completed after 4 iterations at t[s]:   4614.83
	FillingsUpdate:  mu: -0.083764920  nElectrons: 462.000000
ElecMinimize: Iter:   0  F: -1746.387269243148012  |grad|_K:  8.992e-07  alpha:  1.000e+00
	Linear fluid (dielectric constant: 7.2) occupying 0.827772 of unit cell:	Completed after 6 iterations at t[s]:   4655.17
	Linear fluid (dielectric constant: 7.2) occupying 0.827435 of unit cell:	Completed after 6 iterations at t[s]:   4667.58
	FillingsUpdate:  mu: -0.083904136  nElectrons: 462.000000
	SubspaceRotationAdjust: set factor to 0.515
ElecMinimize: Iter:   1  F: -1746.387275183191150  |grad|_K:  1.049e-06  alpha:  1.977e-01  linmin:  6.907e-04  t[s]:   4684.61
	Linear fluid (dielectric constant: 7.2) occupying 0.827375 of unit cell:	Completed after 3 iterations at t[s]:   4703.31
	Linear fluid (dielectric constant: 7.2) occupying 0.827374 of unit cell:	Completed after 0 iterations at t[s]:   4715.12
	FillingsUpdate:  mu: -0.083790572  nElectrons: 462.000000
	SubspaceRotationAdjust: set factor to 0.554
ElecMinimize: Iter:   2  F: -1746.387282714764069  |grad|_K:  5.858e-07  alpha:  2.000e-01  linmin: -1.302e-03  t[s]:   4732.15
	Linear fluid (dielectric constant: 7.2) occupying 0.827374 of unit cell:	Completed after 1 iterations at t[s]:   4750.68
	Linear fluid (dielectric constant: 7.2) occupying 0.827374 of unit cell:	Completed after 1 iterations at t[s]:   4762.66
	FillingsUpdate:  mu: -0.083795269  nElectrons: 462.000000
	SubspaceRotationAdjust: set factor to 0.496
ElecMinimize: Iter:   3  F: -1746.387284757176076  |grad|_K:  3.601e-07  alpha:  1.465e-01  linmin:  4.345e-04  t[s]:   4779.69
	Linear fluid (dielectric constant: 7.2) occupying 0.827385 of unit cell:	Completed after 1 iterations at t[s]:   4798.23
	Linear fluid (dielectric constant: 7.2) occupying 0.827401 of unit cell:	Completed after 2 iterations at t[s]:   4810.29
	FillingsUpdate:  mu: -0.083852141  nElectrons: 462.000000
	SubspaceRotationAdjust: set factor to 0.431
ElecMinimize: Iter:   4  F: -1746.387286004431871  |grad|_K:  4.531e-07  alpha:  3.612e-01  linmin:  2.711e-03  t[s]:   4827.31
	Linear fluid (dielectric constant: 7.2) occupying 0.827323 of unit cell:	Completed after 4 iterations at t[s]:   4846.08
	Linear fluid (dielectric constant: 7.2) occupying 0.827381 of unit cell:	Completed after 3 iterations at t[s]:   4858.22
	FillingsUpdate:  mu: -0.083817813  nElectrons: 462.000000
	SubspaceRotationAdjust: set factor to 0.625
ElecMinimize: Iter:   5  F: -1746.387286299616790  |grad|_K:  3.124e-07  alpha:  9.388e-02  linmin: -3.958e-04  t[s]:   4875.24
	Linear fluid (dielectric constant: 7.2) occupying 0.827366 of unit cell:	Completed after 1 iterations at t[s]:   4893.77
	Linear fluid (dielectric constant: 7.2) occupying 0.827369 of unit cell:	Completed after 0 iterations at t[s]:   4905.59
	FillingsUpdate:  mu: -0.083794905  nElectrons: 462.000000
	SubspaceRotationAdjust: set factor to 0.627
ElecMinimize: Iter:   6  F: -1746.387286569738990  |grad|_K:  2.552e-07  alpha:  7.589e-02  linmin: -2.561e-03  t[s]:   4922.62
	Linear fluid (dielectric constant: 7.2) occupying 0.827371 of unit cell:	Completed after 1 iterations at t[s]:   4941.15
	Linear fluid (dielectric constant: 7.2) occupying 0.827372 of unit cell:	Completed after 1 iterations at t[s]:   4953.13
	FillingsUpdate:  mu: -0.083789981  nElectrons: 462.000000
	SubspaceRotationAdjust: set factor to 0.815
ElecMinimize: Iter:   7  F: -1746.387286987019479  |grad|_K:  2.043e-07  alpha:  1.207e-01  linmin: -1.150e-03  t[s]:   4970.15
	Linear fluid (dielectric constant: 7.2) occupying 0.827389 of unit cell:	Completed after 1 iterations at t[s]:   4988.68
	Linear fluid (dielectric constant: 7.2) occupying 0.827392 of unit cell:	Completed after 1 iterations at t[s]:   5000.66
	FillingsUpdate:  mu: -0.083815650  nElectrons: 462.000000
	SubspaceRotationAdjust: set factor to 0.637
ElecMinimize: Iter:   8  F: -1746.387287221265524  |grad|_K:  2.333e-07  alpha:  1.445e-01  linmin:  3.262e-03  t[s]:   5017.70
	Linear fluid (dielectric constant: 7.2) occupying 0.827386 of unit cell:	Completed after 1 iterations at t[s]:   5036.23
	Linear fluid (dielectric constant: 7.2) occupying 0.827390 of unit cell:	Completed after 1 iterations at t[s]:   5048.21
	FillingsUpdate:  mu: -0.083813465  nElectrons: 462.000000
	SubspaceRotationAdjust: set factor to 0.573
ElecMinimize: Iter:   9  F: -1746.387287253669228  |grad|_K:  2.160e-07  alpha:  5.163e-02  linmin: -2.328e-04  t[s]:   5065.24
	Linear fluid (dielectric constant: 7.2) occupying 0.827380 of unit cell:	Completed after 1 iterations at t[s]:   5083.77
	Linear fluid (dielectric constant: 7.2) occupying 0.827382 of unit cell:	Completed after 0 iterations at t[s]:   5095.59
	FillingsUpdate:  mu: -0.083805154  nElectrons: 462.000000
	SubspaceRotationAdjust: set factor to 0.59
ElecMinimize: Iter:  10  F: -1746.387287317918663  |grad|_K:  1.542e-07  alpha:  4.080e-02  linmin: -2.749e-03  t[s]:   5112.62
	Linear fluid (dielectric constant: 7.2) occupying 0.827376 of unit cell:	Completed after 0 iterations at t[s]:   5131.07
	Linear fluid (dielectric constant: 7.2) occupying 0.827376 of unit cell:	Completed after 0 iterations at t[s]:   5142.89
	FillingsUpdate:  mu: -0.083796918  nElectrons: 462.000000
	SubspaceRotationAdjust: set factor to 0.645
ElecMinimize: Iter:  11  F: -1746.387287372197534  |grad|_K:  1.226e-07  alpha:  4.094e-02  linmin: -3.435e-03  t[s]:   5159.92
	Linear fluid (dielectric constant: 7.2) occupying 0.827373 of unit cell:	Completed after 0 iterations at t[s]:   5178.39
	Linear fluid (dielectric constant: 7.2) occupying 0.827372 of unit cell:	Completed after 0 iterations at t[s]:   5190.29
	FillingsUpdate:  mu: -0.083793921  nElectrons: 462.000000
	SubspaceRotationAdjust: set factor to 0.659
ElecMinimize: Iter:  12  F: -1746.387287443745436  |grad|_K:  1.022e-07  alpha:  6.288e-02  linmin: -2.839e-03  t[s]:   5207.32
	Linear fluid (dielectric constant: 7.2) occupying 0.827374 of unit cell:	Completed after 1 iterations at t[s]:   5225.85
	Linear fluid (dielectric constant: 7.2) occupying 0.827377 of unit cell:	Completed after 1 iterations at t[s]:   5237.83
	FillingsUpdate:  mu: -0.083808433  nElectrons: 462.000000
	SubspaceRotationAdjust: set factor to 0.559
ElecMinimize: Iter:  13  F: -1746.387287479794622  |grad|_K:  1.491e-07  alpha:  1.605e-01  linmin:  5.178e-03  t[s]:   5254.86
ElecMinimize: 	Bad step direction: g.d > 0.
ElecMinimize: 	Undoing step.
	Linear fluid (dielectric constant: 7.2) occupying 0.827377 of unit cell:	Completed after 0 iterations at t[s]:   5273.22
ElecMinimize: 	Step failed: resetting search direction.
	FillingsUpdate:  mu: -0.083808433  nElectrons: 462.000000
	SubspaceRotationAdjust: set factor to 0.606
ElecMinimize: Iter:  14  F: -1746.387287479801898  |grad|_K:  1.433e-07  alpha:  0.000e+00
	Linear fluid (dielectric constant: 7.2) occupying 0.827372 of unit cell:	Completed after 1 iterations at t[s]:   5308.75
	Linear fluid (dielectric constant: 7.2) occupying 0.827374 of unit cell:	Completed after 0 iterations at t[s]:   5320.66
	FillingsUpdate:  mu: -0.083800470  nElectrons: 462.000000
	SubspaceRotationAdjust: set factor to 0.712
ElecMinimize: Iter:  15  F: -1746.387287542124113  |grad|_K:  6.325e-08  alpha:  1.001e-01  linmin: -4.127e-03  t[s]:   5337.68
	Linear fluid (dielectric constant: 7.2) occupying 0.827376 of unit cell:	Completed after 0 iterations at t[s]:   5356.12
ElecMinimize: 	Predicted alpha/alphaT>3.000000, increasing alphaT to 3.003458e-01.
	Linear fluid (dielectric constant: 7.2) occupying 0.827379 of unit cell:	Completed after 1 iterations at t[s]:   5368.11
	Linear fluid (dielectric constant: 7.2) occupying 0.827377 of unit cell:	Completed after 1 iterations at t[s]:   5380.09
	FillingsUpdate:  mu: -0.083802124  nElectrons: 462.000000
	SubspaceRotationAdjust: set factor to 0.548
ElecMinimize: Iter:  16  F: -1746.387287581456576  |grad|_K:  3.620e-08  alpha:  1.841e-01  linmin:  1.409e-03  t[s]:   5397.11
	Linear fluid (dielectric constant: 7.2) occupying 0.827375 of unit cell:	Completed after 0 iterations at t[s]:   5415.48
[...]
	FillingsUpdate:  mu: -0.083486839  nElectrons: 462.000000
ElecMinimize: Iter:   0  F: -1746.387425368800677  |grad|_K:  8.453e-07  alpha:  1.000e+00
	Linear fluid (dielectric constant: 7.2) occupying 0.827843 of unit cell:	Completed after 6 iterations at t[s]:  22134.19
	Linear fluid (dielectric constant: 7.2) occupying 0.827301 of unit cell:	Completed after 5 iterations at t[s]:  22146.49
	FillingsUpdate:  mu: -0.083619411  nElectrons: 462.000000
	SubspaceRotationAdjust: set factor to 0.439
ElecMinimize: Iter:   1  F: -1746.387429302679266  |grad|_K:  8.058e-07  alpha:  1.408e-01  linmin:  8.885e-04  t[s]:  22163.49
	Linear fluid (dielectric constant: 7.2) occupying 0.827287 of unit cell:	Completed after 2 iterations at t[s]:  22182.07
	Linear fluid (dielectric constant: 7.2) occupying 0.827274 of unit cell:	Completed after 2 iterations at t[s]:  22194.12
	FillingsUpdate:  mu: -0.083547892  nElectrons: 462.000000
	SubspaceRotationAdjust: set factor to 0.607
ElecMinimize: Iter:   2  F: -1746.387435516915730  |grad|_K:  3.365e-07  alpha:  2.687e-01  linmin: -4.624e-03  t[s]:  22211.12
	Linear fluid (dielectric constant: 7.2) occupying 0.827236 of unit cell:	Completed after 2 iterations at t[s]:  22229.71
	Linear fluid (dielectric constant: 7.2) occupying 0.827247 of unit cell:	Completed after 1 iterations at t[s]:  22241.68
	FillingsUpdate:  mu: -0.083514233  nElectrons: 462.000000
	SubspaceRotationAdjust: set factor to 0.529
ElecMinimize: Iter:   3  F: -1746.387436407525684  |grad|_K:  3.128e-07  alpha:  1.908e-01  linmin: -7.521e-04  t[s]:  22258.67
	Linear fluid (dielectric constant: 7.2) occupying 0.827268 of unit cell:	Completed after 1 iterations at t[s]:  22277.18
	Linear fluid (dielectric constant: 7.2) occupying 0.827280 of unit cell:	Completed after 1 iterations at t[s]:  22289.15
	FillingsUpdate:  mu: -0.083576327  nElectrons: 462.000000
	SubspaceRotationAdjust: set factor to 0.42
ElecMinimize: Iter:   4  F: -1746.387437364555808  |grad|_K:  3.955e-07  alpha:  3.115e-01  linmin:  3.849e-03  t[s]:  22306.14
	Linear fluid (dielectric constant: 7.2) occupying 0.827251 of unit cell:	Completed after 2 iterations at t[s]:  22324.73
	Linear fluid (dielectric constant: 7.2) occupying 0.827273 of unit cell:	Completed after 1 iterations at t[s]:  22336.70
	FillingsUpdate:  mu: -0.083561532  nElectrons: 462.000000
	SubspaceRotationAdjust: set factor to 0.618
ElecMinimize: Iter:   5  F: -1746.387437497324981  |grad|_K:  3.215e-07  alpha:  8.260e-02  linmin: -3.813e-04  t[s]:  22353.59
	Linear fluid (dielectric constant: 7.2) occupying 0.827258 of unit cell:	Completed after 1 iterations at t[s]:  22371.99
	Linear fluid (dielectric constant: 7.2) occupying 0.827263 of unit cell:	Completed after 0 iterations at t[s]:  22383.88
	FillingsUpdate:  mu: -0.083539840  nElectrons: 462.000000
	SubspaceRotationAdjust: set factor to 0.79
ElecMinimize: Iter:   6  F: -1746.387437670589406  |grad|_K:  2.361e-07  alpha:  5.489e-02  linmin: -2.991e-03  t[s]:  22400.89
	Linear fluid (dielectric constant: 7.2) occupying 0.827260 of unit cell:	Completed after 1 iterations at t[s]:  22419.39
	Linear fluid (dielectric constant: 7.2) occupying 0.827260 of unit cell:	Completed after 0 iterations at t[s]:  22431.20
	FillingsUpdate:  mu: -0.083529809  nElectrons: 462.000000
	SubspaceRotationAdjust: set factor to 1.02
ElecMinimize: Iter:   7  F: -1746.387437806384241  |grad|_K:  1.930e-07  alpha:  4.828e-02  linmin: -3.957e-03  t[s]:  22448.22
	Linear fluid (dielectric constant: 7.2) occupying 0.827264 of unit cell:	Completed after 1 iterations at t[s]:  22466.72
	Linear fluid (dielectric constant: 7.2) occupying 0.827266 of unit cell:	Completed after 0 iterations at t[s]:  22478.61
	FillingsUpdate:  mu: -0.083530068  nElectrons: 462.000000
	SubspaceRotationAdjust: set factor to 1.27
ElecMinimize: Iter:   8  F: -1746.387437977897207  |grad|_K:  1.364e-07  alpha:  6.588e-02  linmin: -2.580e-03  t[s]:  22495.62
	Linear fluid (dielectric constant: 7.2) occupying 0.827275 of unit cell:	Completed after 1 iterations at t[s]:  22514.12
	Linear fluid (dielectric constant: 7.2) occupying 0.827289 of unit cell:	Completed after 1 iterations at t[s]:  22526.09
	FillingsUpdate:  mu: -0.083554639  nElectrons: 462.000000
	SubspaceRotationAdjust: set factor to 0.797
ElecMinimize: Iter:   9  F: -1746.387438041360838  |grad|_K:  3.152e-07  alpha:  1.747e-01  linmin:  5.039e-03  t[s]:  22542.98
ElecMinimize: 	Bad step direction: g.d > 0.
ElecMinimize: 	Undoing step.
	Linear fluid (dielectric constant: 7.2) occupying 0.827289 of unit cell:	Completed after 0 iterations at t[s]:  22561.20
ElecMinimize: 	Step failed: resetting search direction.
	FillingsUpdate:  mu: -0.083554639  nElectrons: 462.000000
	SubspaceRotationAdjust: set factor to 0.562
ElecMinimize: Iter:  10  F: -1746.387438041353562  |grad|_K:  2.647e-07  alpha:  0.000e+00
	Linear fluid (dielectric constant: 7.2) occupying 0.827234 of unit cell:	Completed after 2 iterations at t[s]:  22596.77
	Linear fluid (dielectric constant: 7.2) occupying 0.827270 of unit cell:	Completed after 1 iterations at t[s]:  22608.74
	FillingsUpdate:  mu: -0.083531886  nElectrons: 462.000000
	SubspaceRotationAdjust: set factor to 0.828
ElecMinimize: Iter:  11  F: -1746.387438149573882  |grad|_K:  1.057e-07  alpha:  6.141e-02  linmin: -1.492e-03  t[s]:  22625.74
	Linear fluid (dielectric constant: 7.2) occupying 0.827268 of unit cell:	Completed after 0 iterations at t[s]:  22644.16
ElecMinimize: 	Wrong curvature in test step, increasing alphaT to 1.842340e-01.
	Linear fluid (dielectric constant: 7.2) occupying 0.827268 of unit cell:	Completed after 0 iterations at t[s]:  22648.28
	FillingsUpdate:  mu: -0.083530473  nElectrons: 462.000000
	SubspaceRotationAdjust: set factor to 1.07
ElecMinimize: Iter:  12  F: -1746.387438214836266  |grad|_K:  8.599e-08  alpha: -4.028e-01  linmin: -6.012e-03  t[s]:  22665.29
	Linear fluid (dielectric constant: 7.2) occupying 0.827283 of unit cell:	Completed after 4 iterations at t[s]:  22684.03
	Linear fluid (dielectric constant: 7.2) occupying 0.827269 of unit cell:	Completed after 3 iterations at t[s]:  22696.16
	FillingsUpdate:  mu: -0.083540186  nElectrons: 462.000000
	SubspaceRotationAdjust: set factor to 0.778
ElecMinimize: Iter:  13  F: -1746.387438334575108  |grad|_K:  7.713e-08  alpha:  1.159e-01  linmin:  2.024e-03  t[s]:  22713.15
	Linear fluid (dielectric constant: 7.2) occupying 0.827264 of unit cell:	Completed after 1 iterations at t[s]:  22731.66
	Linear fluid (dielectric constant: 7.2) occupying 0.827265 of unit cell:	Completed after 0 iterations at t[s]:  22743.46
	FillingsUpdate:  mu: -0.083538724  nElectrons: 462.000000
	SubspaceRotationAdjust: set factor to 1.05
ElecMinimize: Iter:  14  F: -1746.387438347890338  |grad|_K:  8.195e-08  alpha:  9.546e-02  linmin:  1.671e-04  t[s]:  22760.46
	Linear fluid (dielectric constant: 7.2) occupying 0.827261 of unit cell:	Completed after 0 iterations at t[s]:  22778.88
	Linear fluid (dielectric constant: 7.2) occupying 0.827262 of unit cell:	Completed after 0 iterations at t[s]:  22790.77
	FillingsUpdate:  mu: -0.083535929  nElectrons: 462.000000
	SubspaceRotationAdjust: set factor to 1.29
ElecMinimize: Iter:  15  F: -1746.387438357908422  |grad|_K:  7.542e-08  alpha:  6.274e-02  linmin: -2.792e-03  t[s]:  22807.76
	Linear fluid (dielectric constant: 7.2) occupying 0.827263 of unit cell:	Completed after 0 iterations at t[s]:  22826.19
	Linear fluid (dielectric constant: 7.2) occupying 0.827264 of unit cell:	Completed after 0 iterations at t[s]:  22837.99
	FillingsUpdate:  mu: -0.083536015  nElectrons: 462.000000
	SubspaceRotationAdjust: set factor to 1.81
ElecMinimize: Iter:  16  F: -1746.387438382240134  |grad|_K:  4.733e-08  alpha:  7.130e-02  linmin: -3.485e-03  t[s]:  22854.99
	Linear fluid (dielectric constant: 7.2) occupying 0.827266 of unit cell:	Completed after 1 iterations at t[s]:  22873.49
	Linear fluid (dielectric constant: 7.2) occupying 0.827267 of unit cell:	Completed after 0 iterations at t[s]:  22885.29
	FillingsUpdate:  mu: -0.083538889  nElectrons: 462.000000
	SubspaceRotationAdjust: set factor to 1.36
ElecMinimize: Iter:  17  F: -1746.387438395453046  |grad|_K:  4.983e-08  alpha:  8.826e-02  linmin: -1.066e-03  t[s]:  22902.29
	Linear fluid (dielectric constant: 7.2) occupying 0.827265 of unit cell:	Completed after 0 iterations at t[s]:  22920.72
	Linear fluid (dielectric constant: 7.2) occupying 0.827266 of unit cell:	Completed after 0 iterations at t[s]:  22932.60
ElecMinimize: 	Step increased F by 1.820354e-09, reducing alpha to 2.489339e-03.
	Linear fluid (dielectric constant: 7.2) occupying 0.827267 of unit cell:	Completed after 0 iterations at t[s]:  22961.08
	FillingsUpdate:  mu: -0.083538129  nElectrons: 462.000000
	SubspaceRotationAdjust: set factor to 1.12
ElecMinimize: Iter:  18  F: -1746.387438396387779  |grad|_K:  4.476e-08  alpha:  2.489e-03  linmin: -3.400e-03  t[s]:  22978.07
	Linear fluid (dielectric constant: 7.2) occupying 0.827267 of unit cell:	Completed after 0 iterations at t[s]:  22996.41
	Linear fluid (dielectric constant: 7.2) occupying 0.827267 of unit cell:	Completed after 0 iterations at t[s]:  23008.22
ElecMinimize: 	Step increased F by 9.458745e-11, reducing alpha to 8.250968e-05.
	Linear fluid (dielectric constant: 7.2) occupying 0.827267 of unit cell:	Completed after 0 iterations at t[s]:  23036.69
ElecMinimize: 	Step increased F by 1.045919e-11, reducing alpha to 8.250968e-06.
	Linear fluid (dielectric constant: 7.2) occupying 0.827267 of unit cell:	Completed after 0 iterations at t[s]:  23065.16
ElecMinimize: 	Step increased F by 5.002221e-12, reducing alpha to 8.250968e-07.
ElecMinimize: 	Step failed to reduce F after 3 attempts. Quitting step.
ElecMinimize: 	Undoing step.
	Linear fluid (dielectric constant: 7.2) occupying 0.827267 of unit cell:	Completed after 0 iterations at t[s]:  23093.64
ElecMinimize: 	Step failed: resetting search direction.
	FillingsUpdate:  mu: -0.083538128  nElectrons: 462.000000
	SubspaceRotationAdjust: set factor to 0.997
ElecMinimize: Iter:  19  F: -1746.387438396396874  |grad|_K:  4.225e-08  alpha:  8.251e-07
ElecMinimize: Converged (|Delta F|<1.000000e-08 for 2 iters).
Setting wave functions to eigenvectors of Hamiltonian

# Ionic positions in cartesian coordinates:
ion Ti   0.000000174975000  -0.000000174975000   2.000000000000000 0
ion Ti   4.340445422775000   4.340445072825000   4.795024053800001 0
ion Ti   0.000000174975000   8.680909217924999   2.000000000000000 0
ion Ti   4.340445422775000  13.021354465725000   4.795024053800001 0
ion Ti   0.000000174975000  17.361818610825001   2.000000000000000 0
ion Ti   4.340445422775000  21.702263858624999   4.795024053800001 0
ion Ti   8.680909567874998  -0.000000174975000   2.000000000000000 0
ion Ti  13.021354815675002   4.340445072825000   4.795024053800001 0
ion Ti   8.680909567874998   8.680909217924999   2.000000000000000 0
ion Ti  13.021354815675002  13.021354465725000   4.795024053800001 0
ion Ti   8.680909567874998  17.361818610825001   2.000000000000000 0
ion Ti  13.021364264325003  21.702263858624999   4.795024053800001 0
ion Ti  17.361818960775000  -0.000000174975000   2.000000000000000 0
ion Ti  21.702264208574999   4.340445072825000   4.795024053800001 0
ion Ti  17.361818960775000   8.680909217924999   2.000000000000000 0
ion Ti  21.702264208574999  13.021363914375000   4.795024053800001 0
ion Ti  17.361818960775000  17.361818610825001   2.000000000000000 0
ion Ti  21.702264208574999  21.702263858624999   4.795024053800001 0
ion O   2.650289808075000   2.650289458125000   2.000000000000000 0
ion O   6.030619934775000   6.030619584825001   2.000000000000000 0
ion O   1.690174686975000   6.990734705924999   4.795024053800001 0
ion O   6.990735055874999   1.690174337025000   4.795024053800001 0
ion O   2.650289808075000  11.331198851025000   2.000000000000000 0
ion O   6.030619934775000  14.711528977725004   2.000000000000000 0
ion O   1.690174686975000  15.671644098825000   4.795024053800001 0
ion O   6.990735055874999  10.371083729925001   4.795024053800001 0
ion O   2.650289808075000  20.012108243924999   2.000000000000000 0
ion O   6.030619934775000  23.392438370625001   2.000000000000000 0
ion O   1.690174686975000  24.352553491725004   4.795024053800001 0
ion O   6.990735055874999  19.051993122824996   4.795024053800001 0
ion O  11.331199200975000   2.650289458125000   2.000000000000000 0
ion O  14.711529327675001   6.030619584825001   2.000000000000000 0
ion O  10.371084079875001   6.990734705924999   4.795024053800001 0
ion O  15.671644448774998   1.690174337025000   4.795024053800001 0
ion O  11.331199200975000  11.331198851025000   2.000000000000000 0
ion O  14.711529327675001  14.711528977725004   2.000000000000000 0
ion O  10.371084079875001  15.671644098825000   4.795024053800001 0
ion O  15.671644448774998  10.371083729925001   4.795024053800001 0
ion O  11.331199200975000  20.012108243924999   2.000000000000000 0
ion O  14.711529327675001  23.392438370625001   2.000000000000000 0
ion O  10.371084079875001  24.352553491725004   4.795024053800001 0
ion O  15.671644448774998  19.051993122824996   4.795024053800001 0
ion O  20.012108593874995   2.650289458125000   2.000000000000000 0
ion O  23.392438720575004   6.030619584825001   2.000000000000000 0
ion O  19.051993472774999   6.990734705924999   4.795024053800001 0
ion O  24.352553841675000   1.690174337025000   4.795024053800001 0
ion O  20.012108593874995  11.331198851025000   2.000000000000000 0
ion O  23.392438720575004  14.711528977725004   2.000000000000000 0
ion O  19.051993472774999  15.671644098825000   4.795024053800001 0
ion O  24.352553841675000  10.371083729925001   4.795024053800001 0
ion O  20.012108593874995  20.012108243924999   2.000000000000000 0
ion O  23.392438720575004  23.392438370625001   2.000000000000000 0
ion O  19.051993472774999  24.352553491725004   4.795024053800001 0
ion O  24.352553841675000  19.051993122824996   4.795024053800001 0
ion S  13.545882816195197  13.422922204240974   9.590609274276060 1
ion S  12.782571726435558  17.006219039635742  11.179715236881462 1
ion Na   8.683226473341898  17.224561127887451   8.273817061838034 1
ion Na  17.046815928569846  17.068393463683222   8.262035956915055 1

# Forces in Cartesian coordinates:
force Ti  -0.000144055443451   0.001993040458307   0.120401293670038 0
force Ti   0.000674965493988   0.001199087145476  -0.126656122155010 0
force Ti  -0.000210045012218  -0.001933362669727   0.120707900600345 0
force Ti  -0.003200208311394  -0.008592406678581  -0.130412192160718 0
force Ti  -0.000458460927827  -0.001012010470153   0.119689620291689 0
force Ti  -0.009222070027866   0.010246016339229  -0.131855200080188 0
force Ti  -0.000350561777332   0.003650206171868   0.120108961100969 0
force Ti  -0.000502830510935   0.003205836780403  -0.124287103038024 0
force Ti   0.005331859867614   0.002827533998862   0.121269933730382 0
force Ti   0.007469901626638  -0.006914300280109  -0.091231609715616 0
force Ti   0.003704749824350  -0.007069197865125   0.108580204603700 0
force Ti  -0.004292706180042   0.008010874259274  -0.129155589181348 0
force Ti  -0.000277876997298   0.002851059481192   0.120970104265922 0
force Ti  -0.001354938925533   0.001287957491666  -0.125275042687721 0
force Ti  -0.005230020614970   0.000884452620326   0.125118983663813 0
force Ti   0.006480264739763  -0.010781777607508  -0.131224266438020 0
force Ti  -0.004237670441589  -0.004302090330758   0.105097302177410 0
force Ti   0.003489399163730   0.004962542971450  -0.130171271667083 0
force O  -0.019288851503618  -0.019642230214224   0.011473094711948 0
force O   0.016897723754255   0.017214024668480   0.012638904046938 0
force O   0.018429216948572  -0.018537696977831  -0.015113766589448 0
force O  -0.018217099371507   0.017637936725009  -0.015606397234118 0
force O  -0.018075289743821  -0.017599152574247   0.012239297438142 0
force O   0.020090827008688   0.021664557061787   0.012319891000079 0
force O   0.019873026053643  -0.018225034919698  -0.013118240106433 0
force O  -0.021499907318456   0.021443395404268  -0.013947234882108 0
force O  -0.017032959577922  -0.018175808765577   0.013220679199054 0
force O   0.017649076974268   0.015941398669023   0.013506452246780 0
force O   0.021006131271941  -0.021381893410360  -0.013298852137971 0
force O  -0.018671845214868   0.018020450842780  -0.002410313266091 0
force O  -0.019762961916343  -0.020367532534610   0.011203943805782 0
force O   0.018569172400956   0.017581440538280   0.011845421701085 0
force O   0.018410219015064  -0.019999205425828  -0.016339900949207 0
force O  -0.017874017376725   0.017318890474755  -0.015904638257065 0
force O  -0.028063608422285  -0.026689694588857   0.003197923051741 0
force O   0.027430541006891   0.028983518260435   0.005572024958349 0
force O   0.006927191423098  -0.008158079282997  -0.024844606369257 0
force O  -0.012703135755738   0.012226295028476  -0.025289217716078 0
force O  -0.019118138929357  -0.018956781653227   0.012810402378994 0
force O   0.017628867655614   0.016411408889103   0.012812569335727 0
force O   0.021394189621199  -0.022817801814992  -0.011013783641552 0
force O  -0.016478590318790   0.020140762978272  -0.010511064944947 0
force O  -0.019211234835842  -0.019686496203487   0.011455212893122 0
force O   0.018985371487874   0.019152731388745   0.011648296143625 0
force O   0.020249121255096  -0.020071329730104  -0.015045532781080 0
force O  -0.018420292077503   0.018152962095557  -0.015225418986895 0
force O  -0.015822401247307  -0.015299327886305   0.013658882199276 0
force O   0.017780351440894   0.018880900238353   0.012837254009134 0
force O   0.019972208954483  -0.016173773405523  -0.006804659708288 0
force O  -0.020390837058873   0.020907367591143  -0.013649391142992 0
force O  -0.019759609383696  -0.019857581342108   0.012734746730628 0
force O   0.017753018561911   0.017379770764331   0.012360956404885 0
force O   0.019714205938697  -0.021124230087884  -0.012923659672763 0
force O  -0.020254422308888   0.019085274150795  -0.012779010720848 0
force S  -0.000106005990816  -0.000112421013543   0.000061639428124 1
force S  -0.000059261164188   0.000189802406999  -0.000021174740045 1
force Na   0.000207869033883   0.000013627333546   0.000232822428302 1
force Na   0.000038740464911  -0.000130693619433   0.000548933797876 1

# Energy components:
   A_diel =       -0.1668408020359933
   Eewald =     9281.1223769814187108
       EH =    10757.6079863750674122
     Eloc =   -22049.1092162216700672
      Enl =       38.2391631464425927
      Exc =     -313.7798906807418007
 Exc_core =       29.4468900852465900
       KE =      510.3415934607866689
  MuShift =        0.0000000000004260
-------------------------------------
     Etot =    -1746.2979376554856117
       TS =        0.0895007409112774
-------------------------------------
        F =    -1746.3874383963968739

IonicMinimize: Iter:  10  F: -1746.387438396396874  |grad|_K:  2.011e-04  alpha:  1.725e+01  linmin:  3.611e-04  t[s]:  23125.80
IonicMinimize: Converged (|Delta F|<1.000000e-06 for 2 iters).

#--- Lowdin population analysis ---
# oxidation-state Ti +1.630 +1.628 +1.630 +1.605 +1.632 +1.622 +1.631 +1.634 +1.628 +1.569 +1.637 +1.567 +1.630 +1.628 +1.625 +1.626 +1.641 +1.595
# oxidation-state O -0.761 -0.763 -0.762 -0.762 -0.757 -0.761 -0.769 -0.755 -0.761 -0.761 -0.760 -0.832 -0.761 -0.760 -0.751 -0.761 -0.783 -0.775 -0.804 -0.732 -0.757 -0.756 -0.763 -0.815 -0.760 -0.761 -0.759 -0.763 -0.760 -0.761 -0.821 -0.760 -0.762 -0.756 -0.764 -0.768
# oxidation-state S -0.458 -0.571
# oxidation-state Na +0.771 +0.769


Dumping 'Na2S2@TiO2-glyme.fillings' ... done
Dumping 'Na2S2@TiO2-glyme.wfns' ... done
Dumping 'Na2S2@TiO2-glyme.fluidState' ... done
Dumping 'Na2S2@TiO2-glyme.ionpos' ... done
Dumping 'Na2S2@TiO2-glyme.eigenvals' ... done
End date and time: Thu Sep 26 08:51:28 2024  (Duration: 0-6:25:33.41)
Done!
