
*************** JDFTx 1.7.0  ***************

Start date and time: Tue Jul 23 21:55:46 2024
Executable ../../jdftx_install/build/jdftx_gpu with command-line: -i Na2S2@TiO2.in -o Na2S2@TiO2.out
Running on hosts (process indices):  ubaid-base (0)
Divided in process groups (process indices):  0 (0)
gpuInit: Found compatible cuda device 0 'NVIDIA GeForce RTX 3050'
gpuInit: Selected device 0
Resource initialization completed at t[s]:      0.12
Run totals: 1 processes, 16 threads, 1 GPUs


Input parsed successfully to the following command list (including defaults):

basis kpoint-dependent
coords-type Cartesian
core-overlap-check vector
coulomb-interaction Slab 001
coulomb-truncation-embed 0 0 1
davidson-band-ratio 1.1
dump End State
dump-name Na2S2@TiO2.$VAR
elec-cutoff 20 100
elec-eigen-algo Davidson
elec-ex-corr gga-PBE
elec-smearing Fermi 0.01
electronic-minimize  \
	dirUpdateScheme      FletcherReeves \
	linminMethod         DirUpdateRecommended \
	nIterations          100 \
	history              15 \
	knormThreshold       0 \
	energyDiffThreshold  1e-08 \
	nEnergyDiff          2 \
	alphaTstart          1 \
	alphaTmin            1e-10 \
	updateTestStepSize   yes \
	alphaTreduceFactor   0.1 \
	alphaTincreaseFactor 3 \
	nAlphaAdjustMax      3 \
	wolfeEnergy          0.0001 \
	wolfeGradient        0.9 \
	fdTest               no
electronic-scf  \
	nIterations	50 \
	energyDiffThreshold	1e-08 \
	residualThreshold	1e-07 \
	mixFraction	0.5 \
	qMetric	0.8 \
	history	10 \
	nEigSteps	2 \
	eigDiffThreshold	1e-08 \
	mixedVariable	Density \
	qKerker	0.8 \
	qKappa	-1 \
	verbose	no \
	mixFractionMag	1.5
exchange-regularization WignerSeitzTruncated
fluid None
fluid-ex-corr lda-TF lda-PZ
fluid-gummel-loop 10 1.000000e-05
fluid-minimize  \
	dirUpdateScheme      PolakRibiere \
	linminMethod         DirUpdateRecommended \
	nIterations          100 \
	history              15 \
	knormThreshold       0 \
	energyDiffThreshold  0 \
	nEnergyDiff          2 \
	alphaTstart          1 \
	alphaTmin            1e-10 \
	updateTestStepSize   yes \
	alphaTreduceFactor   0.1 \
	alphaTincreaseFactor 3 \
	nAlphaAdjustMax      3 \
	wolfeEnergy          0.0001 \
	wolfeGradient        0.9 \
	fdTest               no
fluid-solvent H2O 55.338 ScalarEOS \
	epsBulk 78.4 \
	pMol 0.92466 \
	epsInf 1.77 \
	Pvap 1.06736e-10 \
	sigmaBulk 4.62e-05 \
	Rvdw 2.61727 \
	Res 1.42 \
	tauNuc 343133 \
	poleEl 15 7 1
forces-output-coords Positions
ion Ti   0.000000174975000  -0.000000174975000   2.000000000000000 0
ion Ti   4.340445422775000   4.340445072825000   4.795024053800001 0
ion Ti   0.000000174975000   8.680909217924999   2.000000000000000 0
ion Ti   4.340445422775000  13.021354465725000   4.795024053800001 0
ion Ti   0.000000174975000  17.361818610825001   2.000000000000000 0
ion Ti   4.340445422775000  21.702263858624999   4.795024053800001 0
ion Ti   8.680909567874998  -0.000000174975000   2.000000000000000 0
ion Ti  13.021354815675002   4.340445072825000   4.795024053800001 0
ion Ti   8.680909567874998   8.680909217924999   2.000000000000000 0
ion Ti  13.021354815675002  13.021354465725000   4.795024053800001 0
ion Ti   8.680909567874998  17.361818610825001   2.000000000000000 0
ion Ti  13.021364264325003  21.702263858624999   4.795024053800001 0
ion Ti  17.361818960775000  -0.000000174975000   2.000000000000000 0
ion Ti  21.702264208574999   4.340445072825000   4.795024053800001 0
ion Ti  17.361818960775000   8.680909217924999   2.000000000000000 0
ion Ti  21.702264208574999  13.021363914375000   4.795024053800001 0
ion Ti  17.361818960775000  17.361818610825001   2.000000000000000 0
ion Ti  21.702264208574999  21.702263858624999   4.795024053800001 0
ion O   2.650289808075000   2.650289458125000   2.000000000000000 0
ion O   6.030619934775000   6.030619584825001   2.000000000000000 0
ion O   1.690174686975000   6.990734705924999   4.795024053800001 0
ion O   6.990735055874999   1.690174337025000   4.795024053800001 0
ion O   2.650289808075000  11.331198851025000   2.000000000000000 0
ion O   6.030619934775000  14.711528977725004   2.000000000000000 0
ion O   1.690174686975000  15.671644098825000   4.795024053800001 0
ion O   6.990735055874999  10.371083729925001   4.795024053800001 0
ion O   2.650289808075000  20.012108243924999   2.000000000000000 0
ion O   6.030619934775000  23.392438370625001   2.000000000000000 0
ion O   1.690174686975000  24.352553491725004   4.795024053800001 0
ion O   6.990735055874999  19.051993122824996   4.795024053800001 0
ion O  11.331199200975000   2.650289458125000   2.000000000000000 0
ion O  14.711529327675001   6.030619584825001   2.000000000000000 0
ion O  10.371084079875001   6.990734705924999   4.795024053800001 0
ion O  15.671644448774998   1.690174337025000   4.795024053800001 0
ion O  11.331199200975000  11.331198851025000   2.000000000000000 0
ion O  14.711529327675001  14.711528977725004   2.000000000000000 0
ion O  10.371084079875001  15.671644098825000   4.795024053800001 0
ion O  15.671644448774998  10.371083729925001   4.795024053800001 0
ion O  11.331199200975000  20.012108243924999   2.000000000000000 0
ion O  14.711529327675001  23.392438370625001   2.000000000000000 0
ion O  10.371084079875001  24.352553491725004   4.795024053800001 0
ion O  15.671644448774998  19.051993122824996   4.795024053800001 0
ion O  20.012108593874995   2.650289458125000   2.000000000000000 0
ion O  23.392438720575004   6.030619584825001   2.000000000000000 0
ion O  19.051993472774999   6.990734705924999   4.795024053800001 0
ion O  24.352553841675000   1.690174337025000   4.795024053800001 0
ion O  20.012108593874995  11.331198851025000   2.000000000000000 0
ion O  23.392438720575004  14.711528977725004   2.000000000000000 0
ion O  19.051993472774999  15.671644098825000   4.795024053800001 0
ion O  24.352553841675000  10.371083729925001   4.795024053800001 0
ion O  20.012108593874995  20.012108243924999   2.000000000000000 0
ion O  23.392438720575004  23.392438370625001   2.000000000000000 0
ion O  19.051993472774999  24.352553491725004   4.795024053800001 0
ion O  24.352553841675000  19.051993122824996   4.795024053800001 0
ion S  14.930246502899999  14.188092839999999   8.090349870600001 1
ion S  15.154047226799998  16.479787308300001  11.599068253499999 1
ion Na  10.931710103999999  16.696766106900004   9.215910853199999 1
ion Na  18.950741564400001  16.860643492499999   8.600614765200000 1
ion-species GBRV/$ID_pbe.uspp
ion-width 0
ionic-minimize  \
	dirUpdateScheme      FletcherReeves \
	linminMethod         DirUpdateRecommended \
	nIterations          200 \
	history              15 \
	knormThreshold       0.0001 \
	energyDiffThreshold  1e-06 \
	nEnergyDiff          2 \
	alphaTstart          1 \
	alphaTmin            1e-10 \
	updateTestStepSize   yes \
	alphaTreduceFactor   0.1 \
	alphaTincreaseFactor 3 \
	nAlphaAdjustMax      3 \
	wolfeEnergy          0.0001 \
	wolfeGradient        0.9 \
	fdTest               no
kpoint   0.000000000000   0.000000000000   0.000000000000  1.00000000000000
kpoint-folding 1 1 1 
latt-move-scale 1 1 1
latt-scale 1 1 1 
lattice Tetragonal 26.04 37.7946
lattice-minimize  \
	dirUpdateScheme      L-BFGS \
	linminMethod         DirUpdateRecommended \
	nIterations          0 \
	history              15 \
	knormThreshold       0 \
	energyDiffThreshold  1e-06 \
	nEnergyDiff          2 \
	alphaTstart          1 \
	alphaTmin            1e-10 \
	updateTestStepSize   yes \
	alphaTreduceFactor   0.1 \
	alphaTincreaseFactor 3 \
	nAlphaAdjustMax      3 \
	wolfeEnergy          0.0001 \
	wolfeGradient        0.9 \
	fdTest               no
lcao-params -1 1e-06 0.01
pcm-variant GLSSA13
spintype no-spin
subspace-rotation-factor 1 yes
symmetries automatic
symmetry-threshold 0.0001



---------- Setting up symmetries ----------

Found 16 point-group symmetries of the bravais lattice
Found 1 space-group symmetries with basis
Applied RMS atom displacement 0 bohrs to make symmetries exact.

---------- Initializing the Grid ----------
R = 
[        26.04            0            0  ]
[            0        26.04            0  ]
[            0            0      37.7946  ]
unit cell volume = 25627.8
G =
[    0.24129          0          0  ]
[          0    0.24129          0  ]
[          0          0   0.166246  ]
Minimum fftbox size, Smin = [  120  120  172  ]
Chosen fftbox size, S = [  120  120  180  ]

---------- Initializing tighter grid for wavefunction operations ----------
R = 
[        26.04            0            0  ]
[            0        26.04            0  ]
[            0            0      37.7946  ]
unit cell volume = 25627.8
G =
[    0.24129          0          0  ]
[          0    0.24129          0  ]
[          0          0   0.166246  ]
Minimum fftbox size, Smin = [  108  108  156  ]
Chosen fftbox size, S = [  108  108  160  ]

---------- Exchange Correlation functional ----------
Initalized PBE GGA exchange.
Initalized PBE GGA correlation.

---------- Setting up pseudopotentials ----------
Width of ionic core gaussian charges (only for fluid interactions / plotting) set to 0

Reading pseudopotential file '/home/ubaid/jdftx_install/build/pseudopotentials/GBRV/ti_pbe.uspp':
  Title: Ti.  Created by USPP 7.3.6 on 31-3-15
  Reference state energy: -59.020943.  12 valence electrons in orbitals:
    |300>  occupation: 2  eigenvalue: -2.777623
    |310>  occupation: 6  eigenvalue: -1.894596
    |400>  occupation: 2  eigenvalue: -0.438610
    |320>  occupation: 1  eigenvalue: -0.583119
  lMax: 2  lLocal: 3  QijEcut: 6
  6 projectors sampled on a log grid with 597 points:
    l: 0  eig: -2.777624  rCut: 1.8
    l: 0  eig: -0.438611  rCut: 1.8
    l: 1  eig: -1.894596  rCut: 1.8
    l: 1  eig: 0.500000  rCut: 1.8
    l: 2  eig: -0.583118  rCut: 1.8
    l: 2  eig: 0.150000  rCut: 1.8
  Partial core density with radius 0.8
  Transforming core density to a uniform radial grid of dG=0.02 with 1273 points.
  Transforming local potential to a uniform radial grid of dG=0.02 with 1273 points.
  Transforming nonlocal projectors to a uniform radial grid of dG=0.02 with 432 points.
  Transforming density augmentations to a uniform radial grid of dG=0.02 with 1273 points.
  Transforming atomic orbitals to a uniform radial grid of dG=0.02 with 432 points.
  Core radius for overlap checks: 1.80 bohrs.

Reading pseudopotential file '/home/ubaid/jdftx_install/build/pseudopotentials/GBRV/o_pbe.uspp':
  Title: O.  Created by USPP 7.3.6 on 3-2-2014
  Reference state energy: -15.894388.  6 valence electrons in orbitals:
    |200>  occupation: 2  eigenvalue: -0.878823
    |210>  occupation: 4  eigenvalue: -0.332131
  lMax: 2  lLocal: 2  QijEcut: 6
  5 projectors sampled on a log grid with 511 points:
    l: 0  eig: -0.878823  rCut: 1.25
    l: 0  eig: 0.000000  rCut: 1.25
    l: 1  eig: -0.332132  rCut: 1.25
    l: 1  eig: 0.000000  rCut: 1.25
    l: 2  eig: 1.000000  rCut: 1.25
  Partial core density with radius 0.7
  Transforming core density to a uniform radial grid of dG=0.02 with 1273 points.
  Transforming local potential to a uniform radial grid of dG=0.02 with 1273 points.
  Transforming nonlocal projectors to a uniform radial grid of dG=0.02 with 432 points.
  Transforming density augmentations to a uniform radial grid of dG=0.02 with 1273 points.
  Transforming atomic orbitals to a uniform radial grid of dG=0.02 with 432 points.
  Core radius for overlap checks: 1.25 bohrs.

Reading pseudopotential file '/home/ubaid/jdftx_install/build/pseudopotentials/GBRV/s_pbe.uspp':
  Title: S.  Created by USPP 7.3.6 on 1-4-15
  Reference state energy: -11.898476.  6 valence electrons in orbitals:
    |300>  occupation: 2  eigenvalue: -0.634167
    |310>  occupation: 4  eigenvalue: -0.257568
  lMax: 2  lLocal: 3  QijEcut: 6
  6 projectors sampled on a log grid with 635 points:
    l: 0  eig: -0.634161  rCut: 1.5
    l: 0  eig: 1.500000  rCut: 1.5
    l: 1  eig: -0.257567  rCut: 1.5
    l: 1  eig: 1.500000  rCut: 1.5
    l: 2  eig: -1.000000  rCut: 1.5
    l: 2  eig: 1.500000  rCut: 1.5
  Partial core density with radius 1.15
  Transforming core density to a uniform radial grid of dG=0.02 with 1273 points.
  Transforming local potential to a uniform radial grid of dG=0.02 with 1273 points.
  Transforming nonlocal projectors to a uniform radial grid of dG=0.02 with 432 points.
  Transforming density augmentations to a uniform radial grid of dG=0.02 with 1273 points.
  Transforming atomic orbitals to a uniform radial grid of dG=0.02 with 432 points.
  Core radius for overlap checks: 1.50 bohrs.

Reading pseudopotential file '/home/ubaid/jdftx_install/build/pseudopotentials/GBRV/na_pbe.uspp':
  Title: Na.  Created by USPP 7.3.6 on 23-9-15
  Reference state energy: -47.625620.  9 valence electrons in orbitals:
    |200>  occupation: 2  eigenvalue: -2.085638
    |210>  occupation: 6  eigenvalue: -1.053708
    |300>  occupation: 1  eigenvalue: -0.100838
  lMax: 2  lLocal: 0  QijEcut: 6
  5 projectors sampled on a log grid with 657 points:
    l: 0  eig: -2.085640  rCut: 1.37
    l: 0  eig: -0.100839  rCut: 1.37
    l: 1  eig: -1.053708  rCut: 1.47
    l: 1  eig: 0.500000  rCut: 1.47
    l: 2  eig: 0.750000  rCut: 2
  Transforming local potential to a uniform radial grid of dG=0.02 with 1273 points.
  Transforming nonlocal projectors to a uniform radial grid of dG=0.02 with 432 points.
  Transforming density augmentations to a uniform radial grid of dG=0.02 with 1273 points.
  Transforming atomic orbitals to a uniform radial grid of dG=0.02 with 432 points.
  Core radius for overlap checks: 2.00 bohrs.

Initialized 4 species with 58 total atoms.

Folded 1 k-points by 1x1x1 to 1 k-points.

---------- Setting up k-points, bands, fillings ----------
No reducable k-points. 
Computing the number of bands and number of electrons
Calculating initial fillings.
nElectrons: 462.000000   nBands: 342   nStates: 1

----- Setting up reduced wavefunction bases (one per k-point) -----
average nbasis = 109517.000 , ideal nbasis = 109484.012

---------- Setting up coulomb interaction ----------
Setting up double-sized grid for truncated Coulomb potentials:
R = 
[        26.04            0            0  ]
[            0        26.04            0  ]
[            0            0      75.5892  ]
unit cell volume = 51255.6
G =
[    0.24129          0          0  ]
[          0    0.24129          0  ]
[          0          0  0.0831228  ]
Chosen fftbox size, S = [  120  120  360  ]
Integer grid location selected as the embedding center:
   Grid: [  0  0  5  ]
   Lattice: [  0  0  0.0264588  ]
   Cartesian: [  0  0  1  ]
Constructing Wigner-Seitz cell: 6 faces (6 quadrilaterals, 0 hexagons)
Range-separation parameter for embedded mesh potentials due to point charges: 0.587679 bohrs.
Initialized slab truncation along lattice direction 001

---------- Setting up 2D ewald sum ----------
Optimum gaussian width for ewald sums = 15.534366 bohr.
Real space sums over 225 unit cells with max indices [  7  7  0  ]
Reciprocal space sums over 81 terms with max indices [  4  4  0  ]

---------- Allocating electronic variables ----------
Initializing wave functions:  linear combination of atomic orbitals
Ti pseudo-atom occupations:   s ( 2 0 )  p ( 6 )  d ( 4 )
O pseudo-atom occupations:   s ( 2 )  p ( 4 )
S pseudo-atom occupations:   s ( 2 )  p ( 4 )
Na pseudo-atom occupations:   s ( 2 1 )  p ( 6 )
	FillingsUpdate:  mu: +0.137619105  nElectrons: 462.000000
LCAOMinimize: Iter:   0  F: -1716.6918663931264746  |grad|_K:  1.711e-02  alpha:  1.000e+00
	FillingsUpdate:  mu: +0.134250523  nElectrons: 462.000000
LCAOMinimize: Iter:   1  F: -1718.3260872063638089  |grad|_K:  1.642e-02  alpha:  4.811e-02  linmin: -1.877e-01  cgtest:  9.714e-01  t[s]:     53.85
LCAOMinimize: Encountered beta<0, resetting CG.
LCAOMinimize: 	Wrong curvature in test step, increasing alphaT to 1.443290e-01.
	FillingsUpdate:  mu: +0.128431138  nElectrons: 462.000000
LCAOMinimize: Iter:   2  F: -1719.8839984599508171  |grad|_K:  1.627e-02  alpha: -1.147e+00  linmin: -1.860e-01  cgtest:  9.430e-01  t[s]:     71.38
	FillingsUpdate:  mu: +0.121600143  nElectrons: 462.000000
LCAOMinimize: Iter:   3  F: -1721.4220017542079404  |grad|_K:  1.639e-02  alpha:  4.520e-02  linmin: -1.875e-01  cgtest:  9.277e-01  t[s]:     89.96
LCAOMinimize: 	Wrong curvature in test step, increasing alphaT to 1.355875e-01.
	FillingsUpdate:  mu: +0.113087359  nElectrons: 462.000000
LCAOMinimize: Iter:   4  F: -1723.0612737554999967  |grad|_K:  1.666e-02  alpha: -4.249e-01  linmin: -1.921e-01  cgtest:  9.136e-01  t[s]:    107.67
	FillingsUpdate:  mu: +0.100431609  nElectrons: 462.000000
LCAOMinimize: Iter:   5  F: -1725.0056470561946753  |grad|_K:  1.708e-02  alpha:  4.951e-02  linmin: -2.006e-01  cgtest:  8.922e-01  t[s]:    126.24
LCAOMinimize: 	Wrong curvature in test step, increasing alphaT to 1.485399e-01.
	FillingsUpdate:  mu: +0.085386758  nElectrons: 462.000000
LCAOMinimize: Iter:   6  F: -1727.1469941226014271  |grad|_K:  1.754e-02  alpha: -3.101e-01  linmin: -2.114e-01  cgtest:  8.789e-01  t[s]:    143.97
	FillingsUpdate:  mu: +0.069628664  nElectrons: 462.000000
LCAOMinimize: Iter:   7  F: -1729.8667934130014601  |grad|_K:  1.799e-02  alpha:  5.720e-02  linmin: -2.274e-01  cgtest:  8.479e-01  t[s]:    162.59
LCAOMinimize: 	Wrong curvature in test step, increasing alphaT to 1.715909e-01.
	FillingsUpdate:  mu: +0.033548979  nElectrons: 462.000000
LCAOMinimize: Iter:   8  F: -1732.8589580801526608  |grad|_K:  1.817e-02  alpha: -2.887e-01  linmin: -2.450e-01  cgtest:  8.341e-01  t[s]:    180.34
	FillingsUpdate:  mu: -0.012269440  nElectrons: 462.000000
LCAOMinimize: Iter:   9  F: -1736.3348056499305585  |grad|_K:  1.759e-02  alpha:  6.476e-02  linmin: -2.677e-01  cgtest:  8.088e-01  t[s]:    198.96
LCAOMinimize: 	Wrong curvature in test step, increasing alphaT to 1.942930e-01.
	FillingsUpdate:  mu: -0.053905375  nElectrons: 462.000000
LCAOMinimize: Iter:  10  F: -1739.4194043508525738  |grad|_K:  1.567e-02  alpha: -6.575e-01  linmin: -2.893e-01  cgtest:  8.199e-01  t[s]:    216.70
	FillingsUpdate:  mu: -0.074696129  nElectrons: 462.000000
LCAOMinimize: Iter:  11  F: -1740.9974790933058557  |grad|_K:  1.364e-02  alpha:  4.966e-02  linmin: -2.987e-01  cgtest:  8.922e-01  t[s]:    235.31
LCAOMinimize: Encountered beta<0, resetting CG.
LCAOMinimize: 	Predicted alpha/alphaT>3.000000, increasing alphaT to 1.489690e-01.
LCAOMinimize: 	Step increased F by 1.534428e+01, reducing alpha to 3.500914e-02.
	FillingsUpdate:  mu: -0.084009067  nElectrons: 462.000000
LCAOMinimize: Iter:  12  F: -1741.7462462262599274  |grad|_K:  1.218e-02  alpha:  3.501e-02  linmin: -3.034e-01  cgtest:  9.400e-01  t[s]:    272.52
LCAOMinimize: Encountered beta<0, resetting CG.
LCAOMinimize: 	Predicted alpha/alphaT>3.000000, increasing alphaT to 1.050274e-01.
LCAOMinimize: 	Predicted alpha/alphaT>3.000000, increasing alphaT to 3.150823e-01.
	FillingsUpdate:  mu: -0.096813647  nElectrons: 462.000000
LCAOMinimize: Iter:  13  F: -1743.0248940742901596  |grad|_K:  7.999e-03  alpha:  8.170e-02  linmin: -3.219e-01  cgtest:  8.628e-01  t[s]:    300.35
LCAOMinimize: Encountered beta<0, resetting CG.
	FillingsUpdate:  mu: -0.075201094  nElectrons: 462.000000
LCAOMinimize: Iter:  14  F: -1743.2767791253197629  |grad|_K:  9.139e-03  alpha:  2.341e-01  linmin:  3.542e-01  cgtest: -6.838e-01  t[s]:    318.96
LCAOMinimize: 	Bad step direction: g.d > 0.
LCAOMinimize: 	Undoing step.
LCAOMinimize: 	Step failed: resetting search direction.
	FillingsUpdate:  mu: -0.075201094  nElectrons: 462.000000
LCAOMinimize: Iter:  15  F: -1743.2767791253197629  |grad|_K:  9.139e-03  alpha:  0.000e+00
	FillingsUpdate:  mu: -0.052815228  nElectrons: 462.000000
LCAOMinimize: Iter:  16  F: -1743.7267373555671384  |grad|_K:  1.368e-03  alpha:  1.195e-01  linmin:  3.797e-01  cgtest: -8.919e-01  t[s]:    351.56
	FillingsUpdate:  mu: -0.052325249  nElectrons: 462.000000
LCAOMinimize: Iter:  17  F: -1743.7328826077196027  |grad|_K:  1.333e-03  alpha:  1.432e-01  linmin:  1.077e-04  cgtest:  7.867e-01  t[s]:    370.17
	FillingsUpdate:  mu: -0.048577750  nElectrons: 462.000000
LCAOMinimize: Iter:  18  F: -1743.7475017860526805  |grad|_K:  4.761e-04  alpha:  1.395e-01  linmin:  4.246e-02  cgtest: -1.187e-01  t[s]:    388.77
	FillingsUpdate:  mu: -0.045031475  nElectrons: 462.000000
LCAOMinimize: Iter:  19  F: -1743.7508814523116598  |grad|_K:  4.380e-04  alpha:  2.671e-01  linmin:  2.972e-03  cgtest:  9.741e-02  t[s]:    407.38
	FillingsUpdate:  mu: -0.043717248  nElectrons: 462.000000
LCAOMinimize: Iter:  20  F: -1743.7533103858629602  |grad|_K:  1.882e-04  alpha:  2.172e-01  linmin: -7.438e-04  cgtest: -6.967e-02  t[s]:    425.99
	FillingsUpdate:  mu: -0.043504197  nElectrons: 462.000000
LCAOMinimize: Iter:  21  F: -1743.7536198674581556  |grad|_K:  8.887e-05  alpha:  1.472e-01  linmin:  1.729e-04  cgtest:  8.875e-03  t[s]:    444.60
	FillingsUpdate:  mu: -0.043352721  nElectrons: 462.000000
LCAOMinimize: Iter:  22  F: -1743.7537124462460270  |grad|_K:  5.836e-05  alpha:  1.997e-01  linmin:  1.727e-03  cgtest: -3.754e-03  t[s]:    463.21
	FillingsUpdate:  mu: -0.043442356  nElectrons: 462.000000
LCAOMinimize: Iter:  23  F: -1743.7537569106323190  |grad|_K:  3.281e-05  alpha:  2.230e-01  linmin:  8.016e-05  cgtest:  9.725e-03  t[s]:    481.81
	FillingsUpdate:  mu: -0.043528316  nElectrons: 462.000000
LCAOMinimize: Iter:  24  F: -1743.7537666849834750  |grad|_K:  1.602e-05  alpha:  1.542e-01  linmin:  7.848e-05  cgtest:  6.141e-04  t[s]:    500.41
	FillingsUpdate:  mu: -0.043556315  nElectrons: 462.000000
LCAOMinimize: Iter:  25  F: -1743.7537695971566336  |grad|_K:  9.138e-06  alpha:  1.931e-01  linmin:  2.540e-04  cgtest: -2.373e-04  t[s]:    519.01
	FillingsUpdate:  mu: -0.043573649  nElectrons: 462.000000
LCAOMinimize: Iter:  26  F: -1743.7537704494973241  |grad|_K:  4.138e-06  alpha:  1.736e-01  linmin: -2.366e-05  cgtest:  1.939e-03  t[s]:    537.62
	FillingsUpdate:  mu: -0.043581316  nElectrons: 462.000000
LCAOMinimize: Iter:  27  F: -1743.7537706078494466  |grad|_K:  2.175e-06  alpha:  1.572e-01  linmin:  3.024e-05  cgtest: -1.426e-04  t[s]:    556.23
LCAOMinimize: Converged (|Delta F|<1.000000e-06 for 2 iters).


---- Citations for features of the code used in this run ----

   Software package:
      R. Sundararaman, K. Letchworth-Weaver, K.A. Schwarz, D. Gunceler, Y. Ozhabes and T.A. Arias, 'JDFTx: software for joint density-functional theory', SoftwareX 6, 278 (2017)

   gga-PBE exchange-correlation functional:
      J.P. Perdew, K. Burke and M. Ernzerhof, Phys. Rev. Lett. 77, 3865 (1996)

   Pseudopotentials:
      KF Garrity, JW Bennett, KM Rabe and D Vanderbilt, Comput. Mater. Sci. 81, 446 (2014)

   Truncated Coulomb potentials:
      R. Sundararaman and T.A. Arias, Phys. Rev. B 87, 165122 (2013)

This list may not be complete. Please suggest additional citations or
report any other bugs at https://github.com/shankar1729/jdftx/issues

Initialization completed successfully at t[s]:    566.05


-------- Electronic minimization -----------
Will mix electronic density at each iteration.
	FillingsUpdate:  mu: -0.043581316  nElectrons: 462.000000
	FillingsUpdate:  mu: -0.067024614  nElectrons: 462.000000
SCF: Cycle:  0   F: -1743.746337193965928   dF: +7.433e-03   |Residual|: 1.742e+00   |deigs|: 3.234e-02  t[s]:    637.83
	FillingsUpdate:  mu: -0.106483419  nElectrons: 462.000000
SCF: Cycle:  1   F: -1744.562427023068722   dF: -8.161e-01   |Residual|: 8.352e-01   |deigs|: 5.696e-02  t[s]:    699.98
	FillingsUpdate:  mu: -0.127154671  nElectrons: 462.000000
SCF: Cycle:  2   F: -1744.434857144611669   dF: +1.276e-01   |Residual|: 8.505e-01   |deigs|: 3.679e-02  t[s]:    762.11
	FillingsUpdate:  mu: -0.127402451  nElectrons: 462.000000
SCF: Cycle:  3   F: -1746.114476142975036   dF: -1.680e+00   |Residual|: 1.870e-01   |deigs|: 1.552e-02  t[s]:    824.29
	FillingsUpdate:  mu: -0.130224469  nElectrons: 462.000000
SCF: Cycle:  4   F: -1746.199370027685745   dF: -8.489e-02   |Residual|: 5.259e-02   |deigs|: 5.767e-03  t[s]:    886.47
	FillingsUpdate:  mu: -0.131262051  nElectrons: 462.000000
SCF: Cycle:  5   F: -1746.202374971429663   dF: -3.005e-03   |Residual|: 4.362e-02   |deigs|: 2.381e-03  t[s]:    948.25
	FillingsUpdate:  mu: -0.132018076  nElectrons: 462.000000
SCF: Cycle:  6   F: -1746.204290752264569   dF: -1.916e-03   |Residual|: 2.814e-02   |deigs|: 1.113e-03  t[s]:   1005.67
	FillingsUpdate:  mu: -0.132354864  nElectrons: 462.000000
SCF: Cycle:  7   F: -1746.206717286414687   dF: -2.427e-03   |Residual|: 1.575e-02   |deigs|: 5.065e-04  t[s]:   1056.14
	FillingsUpdate:  mu: -0.132689714  nElectrons: 462.000000
SCF: Cycle:  8   F: -1746.208768928535164   dF: -2.052e-03   |Residual|: 9.711e-03   |deigs|: 4.771e-04  t[s]:   1106.00
	FillingsUpdate:  mu: -0.133418417  nElectrons: 462.000000
SCF: Cycle:  9   F: -1746.210155933890519   dF: -1.387e-03   |Residual|: 9.517e-03   |deigs|: 8.900e-04  t[s]:   1157.80
	FillingsUpdate:  mu: -0.134042302  nElectrons: 462.000000
SCF: Cycle: 10   F: -1746.210861657343912   dF: -7.057e-04   |Residual|: 7.474e-03   |deigs|: 7.809e-04  t[s]:   1209.64
	FillingsUpdate:  mu: -0.134461683  nElectrons: 462.000000
SCF: Cycle: 11   F: -1746.211323286206607   dF: -4.616e-04   |Residual|: 4.700e-03   |deigs|: 5.075e-04  t[s]:   1259.57
	FillingsUpdate:  mu: -0.134762875  nElectrons: 462.000000
SCF: Cycle: 12   F: -1746.211488375575755   dF: -1.651e-04   |Residual|: 4.078e-03   |deigs|: 3.355e-04  t[s]:   1309.47
	FillingsUpdate:  mu: -0.134987523  nElectrons: 462.000000
SCF: Cycle: 13   F: -1746.211607451683449   dF: -1.191e-04   |Residual|: 3.473e-03   |deigs|: 2.796e-04  t[s]:   1359.34
	FillingsUpdate:  mu: -0.135205524  nElectrons: 462.000000
SCF: Cycle: 14   F: -1746.211705517115888   dF: -9.807e-05   |Residual|: 3.141e-03   |deigs|: 2.570e-04  t[s]:   1409.23
	FillingsUpdate:  mu: -0.135333699  nElectrons: 462.000000
SCF: Cycle: 15   F: -1746.211731749427827   dF: -2.623e-05   |Residual|: 2.591e-03   |deigs|: 1.763e-04  t[s]:   1459.12
	FillingsUpdate:  mu: -0.135465237  nElectrons: 462.000000
SCF: Cycle: 16   F: -1746.211773643891547   dF: -4.189e-05   |Residual|: 2.374e-03   |deigs|: 2.064e-04  t[s]:   1508.99
	FillingsUpdate:  mu: -0.135614920  nElectrons: 462.000000
SCF: Cycle: 17   F: -1746.211808303965199   dF: -3.466e-05   |Residual|: 1.693e-03   |deigs|: 3.142e-04  t[s]:   1560.81
	FillingsUpdate:  mu: -0.135670163  nElectrons: 462.000000
SCF: Cycle: 18   F: -1746.211818205128566   dF: -9.901e-06   |Residual|: 1.512e-03   |deigs|: 1.528e-04  t[s]:   1609.43
	FillingsUpdate:  mu: -0.135779807  nElectrons: 462.000000
SCF: Cycle: 19   F: -1746.211846332842924   dF: -2.813e-05   |Residual|: 1.300e-03   |deigs|: 2.218e-04  t[s]:   1658.05
	FillingsUpdate:  mu: -0.135866094  nElectrons: 462.000000
SCF: Cycle: 20   F: -1746.211856633529578   dF: -1.030e-05   |Residual|: 1.227e-03   |deigs|: 1.580e-04  t[s]:   1706.65
	FillingsUpdate:  mu: -0.135960331  nElectrons: 462.000000
SCF: Cycle: 21   F: -1746.211866793160425   dF: -1.016e-05   |Residual|: 9.907e-04   |deigs|: 1.250e-04  t[s]:   1754.62
	FillingsUpdate:  mu: -0.136047716  nElectrons: 462.000000
SCF: Cycle: 22   F: -1746.211871728261485   dF: -4.935e-06   |Residual|: 8.091e-04   |deigs|: 1.047e-04  t[s]:   1802.58
	FillingsUpdate:  mu: -0.136190911  nElectrons: 462.000000
SCF: Cycle: 23   F: -1746.211874344751095   dF: -2.616e-06   |Residual|: 7.248e-04   |deigs|: 1.628e-04  t[s]:   1851.18
	FillingsUpdate:  mu: -0.136330024  nElectrons: 462.000000
SCF: Cycle: 24   F: -1746.211876438551599   dF: -2.094e-06   |Residual|: 6.035e-04   |deigs|: 1.603e-04  t[s]:   1899.78
	FillingsUpdate:  mu: -0.136494753  nElectrons: 462.000000
SCF: Cycle: 25   F: -1746.211877152289389   dF: -7.137e-07   |Residual|: 4.937e-04   |deigs|: 1.739e-04  t[s]:   1948.33
	FillingsUpdate:  mu: -0.136642985  nElectrons: 462.000000
SCF: Cycle: 26   F: -1746.211877093702469   dF: +5.859e-08   |Residual|: 5.124e-04   |deigs|: 1.525e-04  t[s]:   1996.93
	FillingsUpdate:  mu: -0.136893842  nElectrons: 462.000000
SCF: Cycle: 27   F: -1746.211876841535286   dF: +2.522e-07   |Residual|: 4.792e-04   |deigs|: 2.734e-04  t[s]:   2048.72
	FillingsUpdate:  mu: -0.137127432  nElectrons: 462.000000
SCF: Cycle: 28   F: -1746.211876857432799   dF: -1.590e-08   |Residual|: 4.007e-04   |deigs|: 2.517e-04  t[s]:   2100.60
	FillingsUpdate:  mu: -0.137319013  nElectrons: 462.000000
SCF: Cycle: 29   F: -1746.211877504969152   dF: -6.475e-07   |Residual|: 4.525e-04   |deigs|: 2.008e-04  t[s]:   2152.54
	FillingsUpdate:  mu: -0.137428007  nElectrons: 462.000000
SCF: Cycle: 30   F: -1746.211877665049769   dF: -1.601e-07   |Residual|: 3.088e-04   |deigs|: 1.234e-04  t[s]:   2202.43
	FillingsUpdate:  mu: -0.137577957  nElectrons: 462.000000
SCF: Cycle: 31   F: -1746.211878248468111   dF: -5.834e-07   |Residual|: 3.037e-04   |deigs|: 1.597e-04  t[s]:   2254.27
	FillingsUpdate:  mu: -0.137665964  nElectrons: 462.000000
SCF: Cycle: 32   F: -1746.211878631017498   dF: -3.825e-07   |Residual|: 2.885e-04   |deigs|: 9.729e-05  t[s]:   2303.50
	FillingsUpdate:  mu: -0.137759633  nElectrons: 462.000000
SCF: Cycle: 33   F: -1746.211878914904446   dF: -2.839e-07   |Residual|: 2.992e-04   |deigs|: 1.042e-04  t[s]:   2353.41
	FillingsUpdate:  mu: -0.137891273  nElectrons: 462.000000
SCF: Cycle: 34   F: -1746.211879239327800   dF: -3.244e-07   |Residual|: 2.484e-04   |deigs|: 1.621e-04  t[s]:   2405.27
	FillingsUpdate:  mu: -0.137943803  nElectrons: 462.000000
SCF: Cycle: 35   F: -1746.211879394379366   dF: -1.551e-07   |Residual|: 2.396e-04   |deigs|: 6.450e-05  t[s]:   2453.87
	FillingsUpdate:  mu: -0.138045407  nElectrons: 462.000000
SCF: Cycle: 36   F: -1746.211879631249985   dF: -2.369e-07   |Residual|: 1.954e-04   |deigs|: 1.212e-04  t[s]:   2505.73
	FillingsUpdate:  mu: -0.138135924  nElectrons: 462.000000
SCF: Cycle: 37   F: -1746.211879742275414   dF: -1.110e-07   |Residual|: 1.536e-04   |deigs|: 1.071e-04  t[s]:   2555.63
	FillingsUpdate:  mu: -0.138230695  nElectrons: 462.000000
SCF: Cycle: 38   F: -1746.211879837577044   dF: -9.530e-08   |Residual|: 1.343e-04   |deigs|: 1.228e-04  t[s]:   2607.48
	FillingsUpdate:  mu: -0.138282864  nElectrons: 462.000000
SCF: Cycle: 39   F: -1746.211879873826547   dF: -3.625e-08   |Residual|: 1.067e-04   |deigs|: 6.728e-05  t[s]:   2657.40
	FillingsUpdate:  mu: -0.138325691  nElectrons: 462.000000
SCF: Cycle: 40   F: -1746.211879899550468   dF: -2.572e-08   |Residual|: 1.163e-04   |deigs|: 5.583e-05  t[s]:   2709.28
	FillingsUpdate:  mu: -0.138358814  nElectrons: 462.000000
SCF: Cycle: 41   F: -1746.211879914854990   dF: -1.530e-08   |Residual|: 8.934e-05   |deigs|: 3.802e-05  t[s]:   2759.16
	FillingsUpdate:  mu: -0.138381777  nElectrons: 462.000000
SCF: Cycle: 42   F: -1746.211879935810884   dF: -2.096e-08   |Residual|: 7.989e-05   |deigs|: 3.968e-05  t[s]:   2811.02
	FillingsUpdate:  mu: -0.138395075  nElectrons: 462.000000
SCF: Cycle: 43   F: -1746.211879954981214   dF: -1.917e-08   |Residual|: 5.442e-05   |deigs|: 2.230e-05  t[s]:   2861.50
	FillingsUpdate:  mu: -0.138398876  nElectrons: 462.000000
SCF: Cycle: 44   F: -1746.211879965607523   dF: -1.063e-08   |Residual|: 5.984e-05   |deigs|: 2.031e-05  t[s]:   2913.37
	FillingsUpdate:  mu: -0.138401296  nElectrons: 462.000000
SCF: Cycle: 45   F: -1746.211879973331406   dF: -7.724e-09   |Residual|: 3.999e-05   |deigs|: 1.374e-05  t[s]:   2963.28
	FillingsUpdate:  mu: -0.138399977  nElectrons: 462.000000
SCF: Cycle: 46   F: -1746.211879978377738   dF: -5.046e-09   |Residual|: 4.168e-05   |deigs|: 1.035e-05  t[s]:   3013.33
SCF: Converged (|Delta E|<1.000000e-08 for 2 iters).

Setting wave functions to eigenvectors of Hamiltonian

# Ionic positions in cartesian coordinates:
ion Ti   0.000000174975000  -0.000000174975000   2.000000000000000 0
ion Ti   4.340445422775000   4.340445072825000   4.795024053800001 0
ion Ti   0.000000174975000   8.680909217924999   2.000000000000000 0
ion Ti   4.340445422775000  13.021354465725000   4.795024053800001 0
ion Ti   0.000000174975000  17.361818610825001   2.000000000000000 0
ion Ti   4.340445422775000  21.702263858624999   4.795024053800001 0
ion Ti   8.680909567874998  -0.000000174975000   2.000000000000000 0
ion Ti  13.021354815675002   4.340445072825000   4.795024053800001 0
ion Ti   8.680909567874998   8.680909217924999   2.000000000000000 0
ion Ti  13.021354815675002  13.021354465725000   4.795024053800001 0
ion Ti   8.680909567874998  17.361818610825001   2.000000000000000 0
ion Ti  13.021364264325003  21.702263858624999   4.795024053800001 0
ion Ti  17.361818960775000  -0.000000174975000   2.000000000000000 0
ion Ti  21.702264208574999   4.340445072825000   4.795024053800001 0
ion Ti  17.361818960775000   8.680909217924999   2.000000000000000 0
ion Ti  21.702264208574999  13.021363914375000   4.795024053800001 0
ion Ti  17.361818960775000  17.361818610825001   2.000000000000000 0
ion Ti  21.702264208574999  21.702263858624999   4.795024053800001 0
ion O   2.650289808075000   2.650289458125000   2.000000000000000 0
ion O   6.030619934775000   6.030619584825001   2.000000000000000 0
ion O   1.690174686975000   6.990734705924999   4.795024053800001 0
ion O   6.990735055874999   1.690174337025000   4.795024053800001 0
ion O   2.650289808075000  11.331198851025000   2.000000000000000 0
ion O   6.030619934775000  14.711528977725004   2.000000000000000 0
ion O   1.690174686975000  15.671644098825000   4.795024053800001 0
ion O   6.990735055874999  10.371083729925001   4.795024053800001 0
ion O   2.650289808075000  20.012108243924999   2.000000000000000 0
ion O   6.030619934775000  23.392438370625001   2.000000000000000 0
ion O   1.690174686975000  24.352553491725004   4.795024053800001 0
ion O   6.990735055874999  19.051993122824996   4.795024053800001 0
ion O  11.331199200975000   2.650289458125000   2.000000000000000 0
ion O  14.711529327675001   6.030619584825001   2.000000000000000 0
ion O  10.371084079875001   6.990734705924999   4.795024053800001 0
ion O  15.671644448774998   1.690174337025000   4.795024053800001 0
ion O  11.331199200975000  11.331198851025000   2.000000000000000 0
ion O  14.711529327675001  14.711528977725004   2.000000000000000 0
ion O  10.371084079875001  15.671644098825000   4.795024053800001 0
ion O  15.671644448774998  10.371083729925001   4.795024053800001 0
ion O  11.331199200975000  20.012108243924999   2.000000000000000 0
ion O  14.711529327675001  23.392438370625001   2.000000000000000 0
ion O  10.371084079875001  24.352553491725004   4.795024053800001 0
ion O  15.671644448774998  19.051993122824996   4.795024053800001 0
ion O  20.012108593874995   2.650289458125000   2.000000000000000 0
ion O  23.392438720575004   6.030619584825001   2.000000000000000 0
ion O  19.051993472774999   6.990734705924999   4.795024053800001 0
ion O  24.352553841675000   1.690174337025000   4.795024053800001 0
ion O  20.012108593874995  11.331198851025000   2.000000000000000 0
ion O  23.392438720575004  14.711528977725004   2.000000000000000 0
ion O  19.051993472774999  15.671644098825000   4.795024053800001 0
ion O  24.352553841675000  10.371083729925001   4.795024053800001 0
ion O  20.012108593874995  20.012108243924999   2.000000000000000 0
ion O  23.392438720575004  23.392438370625001   2.000000000000000 0
ion O  19.051993472774999  24.352553491725004   4.795024053800001 0
ion O  24.352553841675000  19.051993122824996   4.795024053800001 0
ion S  14.930246502899999  14.188092839999999   8.090349870600001 1
ion S  15.154047226799998  16.479787308300001  11.599068253499999 1
ion Na  10.931710103999999  16.696766106900004   9.215910853199999 1
ion Na  18.950741564400001  16.860643492499999   8.600614765200000 1

# Forces in Cartesian coordinates:
force Ti   0.000643134644831   0.002141458768879   0.127884967958983 0
force Ti   0.001197702742369   0.001307712025752  -0.128873310042098 0
force Ti   0.000614503247271  -0.001206515809077   0.127653165067885 0
force Ti   0.000561635739280  -0.004171017060732  -0.130854585573263 0
force Ti   0.002160417131707  -0.002320172011914   0.124982847606925 0
force Ti  -0.002541598287307   0.003944540055067  -0.130389907079094 0
force Ti  -0.000001747537224   0.002301087750195   0.127477855095991 0
force Ti  -0.000239987263799   0.003625373602049  -0.127177989326470 0
force Ti   0.009202409938585   0.006977419346611   0.125861987468025 0
force Ti  -0.022741349614124  -0.020958743851700  -0.137858009016671 0
force Ti   0.001812627838677  -0.004530183723093   0.123044981911135 0
force Ti   0.000627540083494   0.006939707363802  -0.132984698635450 0
force Ti  -0.000839323984771   0.002422140048884   0.127796697646101 0
force Ti  -0.001821945534873   0.001739999645441  -0.127050520277343 0
force Ti  -0.006700600778347   0.003412054434852   0.131692249536847 0
force Ti   0.007901328854379  -0.017837831927352  -0.140651303123181 0
force Ti  -0.011957370423378  -0.002944053614663   0.112814785078030 0
force Ti   0.002545170813523   0.010120450570264  -0.135679012761808 0
force O  -0.020086642864286  -0.020298922009039   0.014897692051844 0
force O   0.016652200314698   0.016933710693132   0.016485290261215 0
force O   0.019065094653412  -0.019227838116167  -0.015187477826749 0
force O  -0.019282401956463   0.018755392890460  -0.015266631248057 0
force O  -0.019499044819582  -0.019063820590901   0.015368515042118 0
force O   0.019254823287258   0.020913542259065   0.015549760198333 0
force O   0.018794883976059  -0.018529658921127  -0.013692809126144 0
force O  -0.022273174486351   0.022098067819263  -0.012502145296424 0
force O  -0.019904254341738  -0.019831877793513   0.015684343150667 0
force O   0.018938686894534   0.018235827599591   0.015850783513731 0
force O   0.020389539660625  -0.020906604329239  -0.014027420725067 0
force O  -0.018563470221217   0.019360722204524  -0.006381021387932 0
force O  -0.020213192642947  -0.020677706444336   0.014781315085258 0
force O   0.018655393792088   0.017516667656602   0.015820149368864 0
force O   0.019594829752621  -0.021371943937496  -0.015326949723679 0
force O  -0.018646121440847   0.018217952257547  -0.015859317363210 0
force O  -0.036844006870938  -0.035093668629461  -0.005188671776866 0
force O   0.033683441317693   0.032816188482651   0.003967854573774 0
force O   0.001072645934894  -0.004286077890601  -0.013532981462200 0
force O  -0.007385770937307   0.000016749830169  -0.035095769497702 0
force O  -0.019196084513424  -0.018858935362568   0.016483627785444 0
force O   0.019246748302765   0.018655963546990   0.015407624041073 0
force O   0.020515764273827  -0.021521147135515  -0.013030771887644 0
force O  -0.014949972646673   0.022050975030371  -0.011083471965876 0
force O  -0.019624206783413  -0.020218078113510   0.015067365037212 0
force O   0.019787353883616   0.019848498594523   0.015041440564467 0
force O   0.021846120068137  -0.021682537578920  -0.014472364776175 0
force O  -0.019081675112090   0.018848166392052  -0.015379549706560 0
force O  -0.015723693310151  -0.015300366137791   0.017404398410602 0
force O   0.019271669117627   0.020438413303827   0.015797655951330 0
force O   0.031772493287631  -0.019544776149714  -0.017343424019046 0
force O  -0.020871386415721   0.021636901901536  -0.013374668224696 0
force O  -0.018673573444842  -0.019455754662494   0.017433833485803 0
force O   0.018864815452031   0.018215197653391   0.015462633857252 0
force O   0.020799889670851  -0.021833945288534  -0.013088123150098 0
force O  -0.023260460546631   0.019457836233487  -0.008276326931016 0
force S   0.038393364483458   0.011717485810120   0.094388240062682 1
force S  -0.007826058662189  -0.008187310254410  -0.011233124879891 1
force Na  -0.016781372781499   0.004378452970185  -0.009529247911126 1
force Na   0.001004907295132   0.014198390675875   0.005243834059967 1

# Energy components:
   Eewald =    -3294.1342623033401651
       EH =    -1834.9509583681972344
     Eloc =     3118.5521411549066215
      Enl =       38.3645434136340384
      Exc =     -313.6622480280791478
 Exc_core =       29.4468901423092504
       KE =      510.2701725008761855
-------------------------------------
     Etot =    -1746.1137214878901887
       TS =        0.0981584904876460
-------------------------------------
        F =    -1746.2118799783777376

IonicMinimize: Iter:   0  F: -1746.211879978377738  |grad|_K:  3.082e-02  alpha:  1.000e+00

#--- Lowdin population analysis ---
# oxidation-state Ti +1.585 +1.584 +1.587 +1.570 +1.588 +1.575 +1.587 +1.589 +1.589 +1.461 +1.591 +1.562 +1.586 +1.586 +1.577 +1.555 +1.595 +1.546
# oxidation-state O -0.742 -0.745 -0.744 -0.744 -0.741 -0.741 -0.753 -0.744 -0.743 -0.743 -0.745 -0.773 -0.742 -0.740 -0.737 -0.743 -0.779 -0.753 -0.784 -0.692 -0.743 -0.740 -0.747 -0.754 -0.742 -0.742 -0.741 -0.745 -0.738 -0.742 -0.805 -0.743 -0.749 -0.739 -0.746 -0.760
# oxidation-state S -0.333 -0.562
# oxidation-state Na +0.765 +0.727


-------- Electronic minimization -----------
Will mix electronic density at each iteration.
	FillingsUpdate:  mu: -0.138399977  nElectrons: 462.000000
	FillingsUpdate:  mu: -0.134955991  nElectrons: 462.000000
SCF: Cycle:  0   F: -1746.108785993988022   dF: +7.795e-02   |Residual|: 1.450e-01   |deigs|: 2.888e-04  t[s]:   3117.96
	FillingsUpdate:  mu: -0.135327149  nElectrons: 462.000000
SCF: Cycle:  1   F: -1746.199061604583449   dF: -9.028e-02   |Residual|: 9.857e-02   |deigs|: 5.780e-03  t[s]:   3180.08
	FillingsUpdate:  mu: -0.135669386  nElectrons: 462.000000
SCF: Cycle:  2   F: -1746.212573684386598   dF: -1.351e-02   |Residual|: 4.872e-02   |deigs|: 2.721e-03  t[s]:   3241.86
	FillingsUpdate:  mu: -0.135557065  nElectrons: 462.000000
SCF: Cycle:  3   F: -1746.218627062377436   dF: -6.053e-03   |Residual|: 3.151e-02   |deigs|: 1.206e-03  t[s]:   3299.31
	FillingsUpdate:  mu: -0.135798187  nElectrons: 462.000000
SCF: Cycle:  4   F: -1746.220762699655552   dF: -2.136e-03   |Residual|: 1.415e-02   |deigs|: 6.781e-04  t[s]:   3356.73
	FillingsUpdate:  mu: -0.135842402  nElectrons: 462.000000
SCF: Cycle:  5   F: -1746.221291228270275   dF: -5.285e-04   |Residual|: 9.151e-03   |deigs|: 3.281e-04  t[s]:   3404.66
	FillingsUpdate:  mu: -0.135984423  nElectrons: 462.000000
SCF: Cycle:  6   F: -1746.221475232198372   dF: -1.840e-04   |Residual|: 4.498e-03   |deigs|: 2.745e-04  t[s]:   3452.61
	FillingsUpdate:  mu: -0.136061564  nElectrons: 462.000000
SCF: Cycle:  7   F: -1746.221527703442234   dF: -5.247e-05   |Residual|: 2.795e-03   |deigs|: 1.591e-04  t[s]:   3500.58
	FillingsUpdate:  mu: -0.136135083  nElectrons: 462.000000
SCF: Cycle:  8   F: -1746.221643859944834   dF: -1.162e-04   |Residual|: 2.171e-03   |deigs|: 1.420e-04  t[s]:   3538.66
	FillingsUpdate:  mu: -0.136223632  nElectrons: 462.000000
SCF: Cycle:  9   F: -1746.221677905461092   dF: -3.405e-05   |Residual|: 1.706e-03   |deigs|: 1.552e-04  t[s]:   3586.61
	FillingsUpdate:  mu: -0.136344127  nElectrons: 462.000000
SCF: Cycle: 10   F: -1746.221720798871729   dF: -4.289e-05   |Residual|: 1.422e-03   |deigs|: 1.940e-04  t[s]:   3634.69
	FillingsUpdate:  mu: -0.136404541  nElectrons: 462.000000
SCF: Cycle: 11   F: -1746.221745636394644   dF: -2.484e-05   |Residual|: 1.051e-03   |deigs|: 9.691e-05  t[s]:   3672.79
	FillingsUpdate:  mu: -0.136496648  nElectrons: 462.000000
SCF: Cycle: 12   F: -1746.221756910669910   dF: -1.127e-05   |Residual|: 9.478e-04   |deigs|: 1.532e-04  t[s]:   3720.74
	FillingsUpdate:  mu: -0.136574225  nElectrons: 462.000000
SCF: Cycle: 13   F: -1746.221767794631205   dF: -1.088e-05   |Residual|: 8.319e-04   |deigs|: 1.212e-04  t[s]:   3768.70
	FillingsUpdate:  mu: -0.136654913  nElectrons: 462.000000
SCF: Cycle: 14   F: -1746.221773777361250   dF: -5.983e-06   |Residual|: 7.060e-04   |deigs|: 1.269e-04  t[s]:   3816.68
	FillingsUpdate:  mu: -0.136732378  nElectrons: 462.000000
SCF: Cycle: 15   F: -1746.221776945129022   dF: -3.168e-06   |Residual|: 5.318e-04   |deigs|: 1.129e-04  t[s]:   3864.68
	FillingsUpdate:  mu: -0.136835955  nElectrons: 462.000000
SCF: Cycle: 16   F: -1746.221779488392713   dF: -2.543e-06   |Residual|: 5.161e-04   |deigs|: 1.375e-04  t[s]:   3913.88
	FillingsUpdate:  mu: -0.136923664  nElectrons: 462.000000
SCF: Cycle: 17   F: -1746.221780243060493   dF: -7.547e-07   |Residual|: 4.837e-04   |deigs|: 1.163e-04  t[s]:   3962.49
	FillingsUpdate:  mu: -0.137018947  nElectrons: 462.000000
SCF: Cycle: 18   F: -1746.221780617836203   dF: -3.748e-07   |Residual|: 5.099e-04   |deigs|: 1.275e-04  t[s]:   4014.32
	FillingsUpdate:  mu: -0.137110509  nElectrons: 462.000000
SCF: Cycle: 19   F: -1746.221780913476778   dF: -2.956e-07   |Residual|: 3.498e-04   |deigs|: 1.252e-04  t[s]:   4066.15
	FillingsUpdate:  mu: -0.137189736  nElectrons: 462.000000
SCF: Cycle: 20   F: -1746.221781202651073   dF: -2.892e-07   |Residual|: 2.777e-04   |deigs|: 1.170e-04  t[s]:   4116.69
	FillingsUpdate:  mu: -0.137283029  nElectrons: 462.000000
SCF: Cycle: 21   F: -1746.221781252476376   dF: -4.983e-08   |Residual|: 2.325e-04   |deigs|: 1.456e-04  t[s]:   4167.16
	FillingsUpdate:  mu: -0.137351421  nElectrons: 462.000000
SCF: Cycle: 22   F: -1746.221781271802683   dF: -1.933e-08   |Residual|: 2.007e-04   |deigs|: 9.847e-05  t[s]:   4219.04
	FillingsUpdate:  mu: -0.137422849  nElectrons: 462.000000
SCF: Cycle: 23   F: -1746.221781480836626   dF: -2.090e-07   |Residual|: 1.650e-04   |deigs|: 1.032e-04  t[s]:   4270.89
	FillingsUpdate:  mu: -0.137472453  nElectrons: 462.000000
SCF: Cycle: 24   F: -1746.221781494705510   dF: -1.387e-08   |Residual|: 1.250e-04   |deigs|: 5.816e-05  t[s]:   4319.30
	FillingsUpdate:  mu: -0.137543281  nElectrons: 462.000000
SCF: Cycle: 25   F: -1746.221781566425989   dF: -7.172e-08   |Residual|: 1.185e-04   |deigs|: 7.764e-05  t[s]:   4371.13
	FillingsUpdate:  mu: -0.137592649  nElectrons: 462.000000
SCF: Cycle: 26   F: -1746.221781626075199   dF: -5.965e-08   |Residual|: 9.593e-05   |deigs|: 5.382e-05  t[s]:   4421.02
	FillingsUpdate:  mu: -0.137640425  nElectrons: 462.000000
SCF: Cycle: 27   F: -1746.221781637962522   dF: -1.189e-08   |Residual|: 8.688e-05   |deigs|: 5.363e-05  t[s]:   4470.91
	FillingsUpdate:  mu: -0.137676588  nElectrons: 462.000000
SCF: Cycle: 28   F: -1746.221781656411395   dF: -1.845e-08   |Residual|: 8.589e-05   |deigs|: 4.639e-05  t[s]:   4521.45
	FillingsUpdate:  mu: -0.137717371  nElectrons: 462.000000
SCF: Cycle: 29   F: -1746.221781688984947   dF: -3.257e-08   |Residual|: 8.423e-05   |deigs|: 5.188e-05  t[s]:   4573.33
	FillingsUpdate:  mu: -0.137746954  nElectrons: 462.000000
SCF: Cycle: 30   F: -1746.221781686668692   dF: +2.316e-09   |Residual|: 7.042e-05   |deigs|: 4.275e-05  t[s]:   4623.23
	FillingsUpdate:  mu: -0.137771815  nElectrons: 462.000000
SCF: Cycle: 31   F: -1746.221781711847598   dF: -2.518e-08   |Residual|: 6.478e-05   |deigs|: 3.259e-05  t[s]:   4675.11
	FillingsUpdate:  mu: -0.137806174  nElectrons: 462.000000
SCF: Cycle: 32   F: -1746.221781739119251   dF: -2.727e-08   |Residual|: 4.930e-05   |deigs|: 4.433e-05  t[s]:   4725.01
	FillingsUpdate:  mu: -0.137826043  nElectrons: 462.000000
SCF: Cycle: 33   F: -1746.221781746948864   dF: -7.830e-09   |Residual|: 4.536e-05   |deigs|: 2.456e-05  t[s]:   4773.64
	FillingsUpdate:  mu: -0.137839201  nElectrons: 462.000000
SCF: Cycle: 34   F: -1746.221781765189007   dF: -1.824e-08   |Residual|: 3.821e-05   |deigs|: 1.780e-05  t[s]:   4823.71
	FillingsUpdate:  mu: -0.137852167  nElectrons: 462.000000
SCF: Cycle: 35   F: -1746.221781771783526   dF: -6.595e-09   |Residual|: 3.285e-05   |deigs|: 1.769e-05  t[s]:   4873.61
	FillingsUpdate:  mu: -0.137864768  nElectrons: 462.000000
SCF: Cycle: 36   F: -1746.221781782559219   dF: -1.078e-08   |Residual|: 2.575e-05   |deigs|: 2.208e-05  t[s]:   4925.49
	FillingsUpdate:  mu: -0.137870851  nElectrons: 462.000000
SCF: Cycle: 37   F: -1746.221781787949794   dF: -5.391e-09   |Residual|: 2.262e-05   |deigs|: 1.200e-05  t[s]:   4975.40
	FillingsUpdate:  mu: -0.137878391  nElectrons: 462.000000
SCF: Cycle: 38   F: -1746.221781792529555   dF: -4.580e-09   |Residual|: 1.952e-05   |deigs|: 1.646e-05  t[s]:   5025.33
SCF: Converged (|Delta E|<1.000000e-08 for 2 iters).

Setting wave functions to eigenvectors of Hamiltonian
IonicMinimize: 	Predicted alpha/alphaT>3.000000, increasing alphaT to 2.924848e+00.

-------- Electronic minimization -----------
Will mix electronic density at each iteration.
	FillingsUpdate:  mu: -0.137878391  nElectrons: 462.000000
	FillingsUpdate:  mu: -0.130947329  nElectrons: 462.000000
SCF: Cycle:  0   F: -1745.842070375364983   dF: +2.524e-01   |Residual|: 2.753e-01   |deigs|: 1.173e-03  t[s]:   5115.39
	FillingsUpdate:  mu: -0.131735466  nElectrons: 462.000000
SCF: Cycle:  1   F: -1746.167143716010969   dF: -3.251e-01   |Residual|: 1.760e-01   |deigs|: 8.424e-03  t[s]:   5177.54
	FillingsUpdate:  mu: -0.132400446  nElectrons: 462.000000
SCF: Cycle:  2   F: -1746.191210799437158   dF: -2.407e-02   |Residual|: 1.060e-01   |deigs|: 3.367e-03  t[s]:   5239.76
	FillingsUpdate:  mu: -0.132125170  nElectrons: 462.000000
SCF: Cycle:  3   F: -1746.219663631557523   dF: -2.845e-02   |Residual|: 7.065e-02   |deigs|: 2.546e-03  t[s]:   5301.62
	FillingsUpdate:  mu: -0.132550411  nElectrons: 462.000000
SCF: Cycle:  4   F: -1746.231020531212607   dF: -1.136e-02   |Residual|: 2.687e-02   |deigs|: 1.575e-03  t[s]:   5362.70
	FillingsUpdate:  mu: -0.132670472  nElectrons: 462.000000
SCF: Cycle:  5   F: -1746.232540693309602   dF: -1.520e-03   |Residual|: 1.714e-02   |deigs|: 5.731e-04  t[s]:   5412.55
	FillingsUpdate:  mu: -0.132961646  nElectrons: 462.000000
SCF: Cycle:  6   F: -1746.233250473193948   dF: -7.098e-04   |Residual|: 9.045e-03   |deigs|: 4.980e-04  t[s]:   5460.47
	FillingsUpdate:  mu: -0.133086803  nElectrons: 462.000000
SCF: Cycle:  7   F: -1746.233519360224363   dF: -2.689e-04   |Residual|: 5.697e-03   |deigs|: 2.665e-04  t[s]:   5508.42
	FillingsUpdate:  mu: -0.133236236  nElectrons: 462.000000
SCF: Cycle:  8   F: -1746.233888572671049   dF: -3.692e-04   |Residual|: 4.367e-03   |deigs|: 2.573e-04  t[s]:   5556.34
	FillingsUpdate:  mu: -0.133406316  nElectrons: 462.000000
SCF: Cycle:  9   F: -1746.234073863378171   dF: -1.853e-04   |Residual|: 3.581e-03   |deigs|: 2.836e-04  t[s]:   5604.29
	FillingsUpdate:  mu: -0.133643831  nElectrons: 462.000000
SCF: Cycle: 10   F: -1746.234190743163936   dF: -1.169e-04   |Residual|: 2.940e-03   |deigs|: 3.369e-04  t[s]:   5652.86
	FillingsUpdate:  mu: -0.133777681  nElectrons: 462.000000
SCF: Cycle: 11   F: -1746.234302443699335   dF: -1.117e-04   |Residual|: 2.077e-03   |deigs|: 1.898e-04  t[s]:   5700.83
	FillingsUpdate:  mu: -0.133963605  nElectrons: 462.000000
SCF: Cycle: 12   F: -1746.234346809613271   dF: -4.437e-05   |Residual|: 1.951e-03   |deigs|: 2.675e-04  t[s]:   5749.44
	FillingsUpdate:  mu: -0.134111647  nElectrons: 462.000000
SCF: Cycle: 13   F: -1746.234376475768386   dF: -2.967e-05   |Residual|: 1.721e-03   |deigs|: 1.951e-04  t[s]:   5797.42
	FillingsUpdate:  mu: -0.134297793  nElectrons: 462.000000
SCF: Cycle: 14   F: -1746.234404271359608   dF: -2.780e-05   |Residual|: 1.327e-03   |deigs|: 2.534e-04  t[s]:   5846.03
	FillingsUpdate:  mu: -0.134461690  nElectrons: 462.000000
SCF: Cycle: 15   F: -1746.234410909940379   dF: -6.639e-06   |Residual|: 1.187e-03   |deigs|: 2.030e-04  t[s]:   5894.64
	FillingsUpdate:  mu: -0.134645509  nElectrons: 462.000000
SCF: Cycle: 16   F: -1746.234420446186959   dF: -9.536e-06   |Residual|: 9.866e-04   |deigs|: 2.184e-04  t[s]:   5943.26
	FillingsUpdate:  mu: -0.134874082  nElectrons: 462.000000
SCF: Cycle: 17   F: -1746.234422960758820   dF: -2.515e-06   |Residual|: 9.379e-04   |deigs|: 2.613e-04  t[s]:   5991.87
	FillingsUpdate:  mu: -0.135016383  nElectrons: 462.000000
SCF: Cycle: 18   F: -1746.234422858408607   dF: +1.024e-07   |Residual|: 1.094e-03   |deigs|: 1.594e-04  t[s]:   6040.43
	FillingsUpdate:  mu: -0.135240899  nElectrons: 462.000000
SCF: Cycle: 19   F: -1746.234424376457582   dF: -1.518e-06   |Residual|: 7.143e-04   |deigs|: 2.660e-04  t[s]:   6092.27
	FillingsUpdate:  mu: -0.135404225  nElectrons: 462.000000
SCF: Cycle: 20   F: -1746.234424943262638   dF: -5.668e-07   |Residual|: 5.938e-04   |deigs|: 1.963e-04  t[s]:   6142.15
	FillingsUpdate:  mu: -0.135593610  nElectrons: 462.000000
SCF: Cycle: 21   F: -1746.234425360569048   dF: -4.173e-07   |Residual|: 4.529e-04   |deigs|: 2.408e-04  t[s]:   6193.97
	FillingsUpdate:  mu: -0.135731043  nElectrons: 462.000000
SCF: Cycle: 22   F: -1746.234424885250519   dF: +4.753e-07   |Residual|: 4.506e-04   |deigs|: 1.627e-04  t[s]:   6243.85
	FillingsUpdate:  mu: -0.135893112  nElectrons: 462.000000
SCF: Cycle: 23   F: -1746.234425939075663   dF: -1.054e-06   |Residual|: 3.137e-04   |deigs|: 1.965e-04  t[s]:   6294.30
	FillingsUpdate:  mu: -0.136025975  nElectrons: 462.000000
SCF: Cycle: 24   F: -1746.234426166766980   dF: -2.277e-07   |Residual|: 2.745e-04   |deigs|: 1.426e-04  t[s]:   6342.90
	FillingsUpdate:  mu: -0.136135736  nElectrons: 462.000000
SCF: Cycle: 25   F: -1746.234426229724477   dF: -6.296e-08   |Residual|: 2.495e-04   |deigs|: 1.125e-04  t[s]:   6393.35
	FillingsUpdate:  mu: -0.136267522  nElectrons: 462.000000
SCF: Cycle: 26   F: -1746.234426667132993   dF: -4.374e-07   |Residual|: 2.056e-04   |deigs|: 1.361e-04  t[s]:   6445.20
	FillingsUpdate:  mu: -0.136354271  nElectrons: 462.000000
SCF: Cycle: 27   F: -1746.234426702205383   dF: -3.507e-08   |Residual|: 1.963e-04   |deigs|: 9.022e-05  t[s]:   6493.84
	FillingsUpdate:  mu: -0.136439810  nElectrons: 462.000000
SCF: Cycle: 28   F: -1746.234426827835250   dF: -1.256e-07   |Residual|: 1.678e-04   |deigs|: 1.014e-04  t[s]:   6544.33
	FillingsUpdate:  mu: -0.136512386  nElectrons: 462.000000
SCF: Cycle: 29   F: -1746.234426958582162   dF: -1.307e-07   |Residual|: 1.933e-04   |deigs|: 7.994e-05  t[s]:   6594.25
	FillingsUpdate:  mu: -0.136575143  nElectrons: 462.000000
SCF: Cycle: 30   F: -1746.234427012100468   dF: -5.352e-08   |Residual|: 1.427e-04   |deigs|: 7.669e-05  t[s]:   6644.19
	FillingsUpdate:  mu: -0.136633304  nElectrons: 462.000000
SCF: Cycle: 31   F: -1746.234427071284244   dF: -5.918e-08   |Residual|: 1.433e-04   |deigs|: 6.453e-05  t[s]:   6694.13
	FillingsUpdate:  mu: -0.136701758  nElectrons: 462.000000
SCF: Cycle: 32   F: -1746.234427173576478   dF: -1.023e-07   |Residual|: 1.079e-04   |deigs|: 7.385e-05  t[s]:   6744.04
	FillingsUpdate:  mu: -0.136750870  nElectrons: 462.000000
SCF: Cycle: 33   F: -1746.234427194730415   dF: -2.115e-08   |Residual|: 1.072e-04   |deigs|: 5.291e-05  t[s]:   6793.93
	FillingsUpdate:  mu: -0.136777971  nElectrons: 462.000000
SCF: Cycle: 34   F: -1746.234427255701121   dF: -6.097e-08   |Residual|: 7.464e-05   |deigs|: 3.106e-05  t[s]:   6844.41
	FillingsUpdate:  mu: -0.136808791  nElectrons: 462.000000
SCF: Cycle: 35   F: -1746.234427280398222   dF: -2.470e-08   |Residual|: 6.448e-05   |deigs|: 3.678e-05  t[s]:   6894.31
	FillingsUpdate:  mu: -0.136829909  nElectrons: 462.000000
SCF: Cycle: 36   F: -1746.234427294709121   dF: -1.431e-08   |Residual|: 5.420e-05   |deigs|: 2.892e-05  t[s]:   6944.24
	FillingsUpdate:  mu: -0.136842958  nElectrons: 462.000000
SCF: Cycle: 37   F: -1746.234427317953759   dF: -2.324e-08   |Residual|: 4.313e-05   |deigs|: 2.012e-05  t[s]:   6996.11
	FillingsUpdate:  mu: -0.136856889  nElectrons: 462.000000
SCF: Cycle: 38   F: -1746.234427330025255   dF: -1.207e-08   |Residual|: 4.144e-05   |deigs|: 2.478e-05  t[s]:   7046.02
	FillingsUpdate:  mu: -0.136864583  nElectrons: 462.000000
SCF: Cycle: 39   F: -1746.234427341908258   dF: -1.188e-08   |Residual|: 3.645e-05   |deigs|: 1.468e-05  t[s]:   7095.96
	FillingsUpdate:  mu: -0.136869677  nElectrons: 462.000000
SCF: Cycle: 40   F: -1746.234427352768535   dF: -1.086e-08   |Residual|: 3.471e-05   |deigs|: 1.644e-05  t[s]:   7146.45
	FillingsUpdate:  mu: -0.136872981  nElectrons: 462.000000
SCF: Cycle: 41   F: -1746.234427357038157   dF: -4.270e-09   |Residual|: 2.705e-05   |deigs|: 9.234e-06  t[s]:   7196.05
	FillingsUpdate:  mu: -0.136874758  nElectrons: 462.000000
SCF: Cycle: 42   F: -1746.234427361567214   dF: -4.529e-09   |Residual|: 2.354e-05   |deigs|: 1.370e-05  t[s]:   7247.94
SCF: Converged (|Delta E|<1.000000e-08 for 2 iters).

Setting wave functions to eigenvectors of Hamiltonian

-------- Electronic minimization -----------
Will mix electronic density at each iteration.
	FillingsUpdate:  mu: -0.136874758  nElectrons: 462.000000
	FillingsUpdate:  mu: -0.131540813  nElectrons: 462.000000
SCF: Cycle:  0   F: -1745.995870811666236   dF: +1.477e-01   |Residual|: 2.189e-01   |deigs|: 9.001e-04  t[s]:   7337.97
	FillingsUpdate:  mu: -0.131548494  nElectrons: 462.000000
SCF: Cycle:  1   F: -1746.195501472979458   dF: -1.996e-01   |Residual|: 1.399e-01   |deigs|: 6.291e-03  t[s]:   7400.14
	FillingsUpdate:  mu: -0.132164229  nElectrons: 462.000000
SCF: Cycle:  2   F: -1746.209555293403810   dF: -1.405e-02   |Residual|: 8.420e-02   |deigs|: 2.701e-03  t[s]:   7462.33
	FillingsUpdate:  mu: -0.131943678  nElectrons: 462.000000
SCF: Cycle:  3   F: -1746.229691485653575   dF: -2.014e-02   |Residual|: 4.905e-02   |deigs|: 2.003e-03  t[s]:   7524.15
	FillingsUpdate:  mu: -0.132324719  nElectrons: 462.000000
SCF: Cycle:  4   F: -1746.235101638384094   dF: -5.410e-03   |Residual|: 2.210e-02   |deigs|: 1.084e-03  t[s]:   7581.51
	FillingsUpdate:  mu: -0.132383951  nElectrons: 462.000000
SCF: Cycle:  5   F: -1746.236290866453828   dF: -1.189e-03   |Residual|: 1.426e-02   |deigs|: 4.882e-04  t[s]:   7630.04
	FillingsUpdate:  mu: -0.132625024  nElectrons: 462.000000
SCF: Cycle:  6   F: -1746.236778195802344   dF: -4.873e-04   |Residual|: 7.153e-03   |deigs|: 4.225e-04  t[s]:   7678.58
	FillingsUpdate:  mu: -0.132732432  nElectrons: 462.000000
SCF: Cycle:  7   F: -1746.236908481310138   dF: -1.303e-04   |Residual|: 4.474e-03   |deigs|: 2.241e-04  t[s]:   7726.54
	FillingsUpdate:  mu: -0.132843630  nElectrons: 462.000000
SCF: Cycle:  8   F: -1746.237151753936132   dF: -2.433e-04   |Residual|: 3.377e-03   |deigs|: 1.942e-04  t[s]:   7774.48
	FillingsUpdate:  mu: -0.132981817  nElectrons: 462.000000
SCF: Cycle:  9   F: -1746.237234537421728   dF: -8.278e-05   |Residual|: 2.727e-03   |deigs|: 2.259e-04  t[s]:   7822.46
	FillingsUpdate:  mu: -0.133179993  nElectrons: 462.000000
SCF: Cycle: 10   F: -1746.237336759346817   dF: -1.022e-04   |Residual|: 2.137e-03   |deigs|: 2.859e-04  t[s]:   7870.43
	FillingsUpdate:  mu: -0.133286043  nElectrons: 462.000000
SCF: Cycle: 11   F: -1746.237395102501523   dF: -5.834e-05   |Residual|: 1.716e-03   |deigs|: 1.535e-04  t[s]:   7918.39
	FillingsUpdate:  mu: -0.133442703  nElectrons: 462.000000
SCF: Cycle: 12   F: -1746.237420304910529   dF: -2.520e-05   |Residual|: 1.552e-03   |deigs|: 2.281e-04  t[s]:   7966.99
	FillingsUpdate:  mu: -0.133565980  nElectrons: 462.000000
SCF: Cycle: 13   F: -1746.237442265904065   dF: -2.196e-05   |Residual|: 1.323e-03   |deigs|: 1.673e-04  t[s]:   8014.97
	FillingsUpdate:  mu: -0.133725608  nElectrons: 462.000000
SCF: Cycle: 14   F: -1746.237456628478412   dF: -1.436e-05   |Residual|: 1.210e-03   |deigs|: 2.167e-04  t[s]:   8063.56
	FillingsUpdate:  mu: -0.133862274  nElectrons: 462.000000
SCF: Cycle: 15   F: -1746.237463976311574   dF: -7.348e-06   |Residual|: 8.246e-04   |deigs|: 1.758e-04  t[s]:   8111.84
	FillingsUpdate:  mu: -0.134051615  nElectrons: 462.000000
SCF: Cycle: 16   F: -1746.237467988163189   dF: -4.012e-06   |Residual|: 8.020e-04   |deigs|: 2.270e-04  t[s]:   8160.40
	FillingsUpdate:  mu: -0.134201284  nElectrons: 462.000000
SCF: Cycle: 17   F: -1746.237469074820410   dF: -1.087e-06   |Residual|: 7.970e-04   |deigs|: 1.758e-04  t[s]:   8208.93
	FillingsUpdate:  mu: -0.134388598  nElectrons: 462.000000
SCF: Cycle: 18   F: -1746.237469845989835   dF: -7.712e-07   |Residual|: 7.594e-04   |deigs|: 2.238e-04  t[s]:   8260.69
	FillingsUpdate:  mu: -0.134538435  nElectrons: 462.000000
SCF: Cycle: 19   F: -1746.237470124215633   dF: -2.782e-07   |Residual|: 5.614e-04   |deigs|: 1.816e-04  t[s]:   8312.29
	FillingsUpdate:  mu: -0.134677753  nElectrons: 462.000000
SCF: Cycle: 20   F: -1746.237470811382309   dF: -6.872e-07   |Residual|: 4.379e-04   |deigs|: 1.781e-04  t[s]:   8364.13
	FillingsUpdate:  mu: -0.134851799  nElectrons: 462.000000
SCF: Cycle: 21   F: -1746.237470928459061   dF: -1.171e-07   |Residual|: 3.823e-04   |deigs|: 2.176e-04  t[s]:   8414.67
	FillingsUpdate:  mu: -0.134966617  nElectrons: 462.000000
SCF: Cycle: 22   F: -1746.237470823950389   dF: +1.045e-07   |Residual|: 3.449e-04   |deigs|: 1.359e-04  t[s]:   8466.51
	FillingsUpdate:  mu: -0.135103405  nElectrons: 462.000000
SCF: Cycle: 23   F: -1746.237471436836813   dF: -6.129e-07   |Residual|: 2.712e-04   |deigs|: 1.596e-04  t[s]:   8518.36
	FillingsUpdate:  mu: -0.135199106  nElectrons: 462.000000
SCF: Cycle: 24   F: -1746.237471473864389   dF: -3.703e-08   |Residual|: 2.369e-04   |deigs|: 9.881e-05  t[s]:   8566.98
	FillingsUpdate:  mu: -0.135318180  nElectrons: 462.000000
SCF: Cycle: 25   F: -1746.237471656474554   dF: -1.826e-07   |Residual|: 2.112e-04   |deigs|: 1.215e-04  t[s]:   8618.81
	FillingsUpdate:  mu: -0.135419619  nElectrons: 462.000000
SCF: Cycle: 26   F: -1746.237471885143805   dF: -2.287e-07   |Residual|: 1.673e-04   |deigs|: 1.069e-04  t[s]:   8669.34
	FillingsUpdate:  mu: -0.135506410  nElectrons: 462.000000
SCF: Cycle: 27   F: -1746.237471947547647   dF: -6.240e-08   |Residual|: 1.545e-04   |deigs|: 9.397e-05  t[s]:   8719.24
	FillingsUpdate:  mu: -0.135576012  nElectrons: 462.000000
SCF: Cycle: 28   F: -1746.237472008825307   dF: -6.128e-08   |Residual|: 1.520e-04   |deigs|: 8.190e-05  t[s]:   8769.73
	FillingsUpdate:  mu: -0.135652296  nElectrons: 462.000000
SCF: Cycle: 29   F: -1746.237472121207247   dF: -1.124e-07   |Residual|: 1.445e-04   |deigs|: 8.732e-05  t[s]:   8820.21
	FillingsUpdate:  mu: -0.135701004  nElectrons: 462.000000
SCF: Cycle: 30   F: -1746.237472130625520   dF: -9.418e-09   |Residual|: 1.246e-04   |deigs|: 5.986e-05  t[s]:   8868.83
	FillingsUpdate:  mu: -0.135745224  nElectrons: 462.000000
SCF: Cycle: 31   F: -1746.237472194662359   dF: -6.404e-08   |Residual|: 1.121e-04   |deigs|: 4.837e-05  t[s]:   8920.67
	FillingsUpdate:  mu: -0.135799988  nElectrons: 462.000000
SCF: Cycle: 32   F: -1746.237472263043401   dF: -6.838e-08   |Residual|: 8.451e-05   |deigs|: 5.929e-05  t[s]:   8970.57
	FillingsUpdate:  mu: -0.135833442  nElectrons: 462.000000
SCF: Cycle: 33   F: -1746.237472272137211   dF: -9.094e-09   |Residual|: 7.880e-05   |deigs|: 3.584e-05  t[s]:   9019.17
	FillingsUpdate:  mu: -0.135852817  nElectrons: 462.000000
SCF: Cycle: 34   F: -1746.237472310983321   dF: -3.885e-08   |Residual|: 6.138e-05   |deigs|: 2.311e-05  t[s]:   9071.02
	FillingsUpdate:  mu: -0.135874748  nElectrons: 462.000000
SCF: Cycle: 35   F: -1746.237472327889463   dF: -1.691e-08   |Residual|: 5.523e-05   |deigs|: 2.663e-05  t[s]:   9120.93
	FillingsUpdate:  mu: -0.135892006  nElectrons: 462.000000
SCF: Cycle: 36   F: -1746.237472345867900   dF: -1.798e-08   |Residual|: 4.529e-05   |deigs|: 2.747e-05  t[s]:   9172.80
	FillingsUpdate:  mu: -0.135899445  nElectrons: 462.000000
SCF: Cycle: 37   F: -1746.237472362177868   dF: -1.631e-08   |Residual|: 3.725e-05   |deigs|: 1.436e-05  t[s]:   9222.67
	FillingsUpdate:  mu: -0.135911517  nElectrons: 462.000000
SCF: Cycle: 38   F: -1746.237472376515825   dF: -1.434e-08   |Residual|: 3.113e-05   |deigs|: 2.382e-05  t[s]:   9274.49
	FillingsUpdate:  mu: -0.135916615  nElectrons: 462.000000
SCF: Cycle: 39   F: -1746.237472385161027   dF: -8.645e-09   |Residual|: 2.936e-05   |deigs|: 1.342e-05  t[s]:   9324.36
	FillingsUpdate:  mu: -0.135920776  nElectrons: 462.000000
SCF: Cycle: 40   F: -1746.237472392163454   dF: -7.002e-09   |Residual|: 2.334e-05   |deigs|: 1.256e-05  t[s]:   9374.90
SCF: Converged (|Delta E|<1.000000e-08 for 2 iters).

Setting wave functions to eigenvectors of Hamiltonian

# Ionic positions in cartesian coordinates:
ion Ti   0.000000174975000  -0.000000174975000   2.000000000000000 0
ion Ti   4.340445422775000   4.340445072825000   4.795024053800001 0
ion Ti   0.000000174975000   8.680909217924999   2.000000000000000 0
ion Ti   4.340445422775000  13.021354465725000   4.795024053800001 0
ion Ti   0.000000174975000  17.361818610825001   2.000000000000000 0
ion Ti   4.340445422775000  21.702263858624999   4.795024053800001 0
ion Ti   8.680909567874998  -0.000000174975000   2.000000000000000 0
ion Ti  13.021354815675002   4.340445072825000   4.795024053800001 0
ion Ti   8.680909567874998   8.680909217924999   2.000000000000000 0
ion Ti  13.021354815675002  13.021354465725000   4.795024053800001 0
ion Ti   8.680909567874998  17.361818610825001   2.000000000000000 0
ion Ti  13.021364264325003  21.702263858624999   4.795024053800001 0
ion Ti  17.361818960775000  -0.000000174975000   2.000000000000000 0
ion Ti  21.702264208574999   4.340445072825000   4.795024053800001 0
ion Ti  17.361818960775000   8.680909217924999   2.000000000000000 0
ion Ti  21.702264208574999  13.021363914375000   4.795024053800001 0
ion Ti  17.361818960775000  17.361818610825001   2.000000000000000 0
ion Ti  21.702264208574999  21.702263858624999   4.795024053800001 0
ion O   2.650289808075000   2.650289458125000   2.000000000000000 0
ion O   6.030619934775000   6.030619584825001   2.000000000000000 0
ion O   1.690174686975000   6.990734705924999   4.795024053800001 0
ion O   6.990735055874999   1.690174337025000   4.795024053800001 0
ion O   2.650289808075000  11.331198851025000   2.000000000000000 0
ion O   6.030619934775000  14.711528977725004   2.000000000000000 0
ion O   1.690174686975000  15.671644098825000   4.795024053800001 0
ion O   6.990735055874999  10.371083729925001   4.795024053800001 0
ion O   2.650289808075000  20.012108243924999   2.000000000000000 0
ion O   6.030619934775000  23.392438370625001   2.000000000000000 0
ion O   1.690174686975000  24.352553491725004   4.795024053800001 0
ion O   6.990735055874999  19.051993122824996   4.795024053800001 0
ion O  11.331199200975000   2.650289458125000   2.000000000000000 0
ion O  14.711529327675001   6.030619584825001   2.000000000000000 0
ion O  10.371084079875001   6.990734705924999   4.795024053800001 0
ion O  15.671644448774998   1.690174337025000   4.795024053800001 0
ion O  11.331199200975000  11.331198851025000   2.000000000000000 0
ion O  14.711529327675001  14.711528977725004   2.000000000000000 0
ion O  10.371084079875001  15.671644098825000   4.795024053800001 0
ion O  15.671644448774998  10.371083729925001   4.795024053800001 0
ion O  11.331199200975000  20.012108243924999   2.000000000000000 0
ion O  14.711529327675001  23.392438370625001   2.000000000000000 0
ion O  10.371084079875001  24.352553491725004   4.795024053800001 0
ion O  15.671644448774998  19.051993122824996   4.795024053800001 0
ion O  20.012108593874995   2.650289458125000   2.000000000000000 0
ion O  23.392438720575004   6.030619584825001   2.000000000000000 0
ion O  19.051993472774999   6.990734705924999   4.795024053800001 0
ion O  24.352553841675000   1.690174337025000   4.795024053800001 0
ion O  20.012108593874995  11.331198851025000   2.000000000000000 0
ion O  23.392438720575004  14.711528977725004   2.000000000000000 0
ion O  19.051993472774999  15.671644098825000   4.795024053800001 0
ion O  24.352553841675000  10.371083729925001   4.795024053800001 0
ion O  20.012108593874995  20.012108243924999   2.000000000000000 0
ion O  23.392438720575004  23.392438370625001   2.000000000000000 0
ion O  19.051993472774999  24.352553491725004   4.795024053800001 0
ion O  24.352553841675000  19.051993122824996   4.795024053800001 0
ion S  15.103765277825287  14.241050006175229   8.516937433408859 1
ion S  15.118677361985426  16.442784767251780  11.548300156096570 1
ion Na  10.855866705387072  16.716554521009467   9.172843426165562 1
ion Na  18.955283241981810  16.924813105898952   8.624314268336510 1

# Forces in Cartesian coordinates:
force Ti   0.000633602798180   0.002216173910048   0.127777382495584 0
force Ti   0.000859164976474   0.001037145606321  -0.128815210170772 0
force Ti   0.000521761256940  -0.001332513581469   0.127600008737324 0
force Ti  -0.000603586303386  -0.004390349925524  -0.130876850939381 0
force Ti   0.002069311432930  -0.002303337080505   0.124763322421962 0
force Ti  -0.003361858306391   0.004739870554648  -0.130723162548929 0
force Ti  -0.000156743047855   0.002451226235641   0.127319519927856 0
force Ti  -0.000059979270487   0.002974369190012  -0.127325190664394 0
force Ti   0.007014947049066   0.004477267916504   0.126417121911106 0
force Ti   0.004725266340988  -0.007867855031595  -0.107605677371344 0
force Ti  -0.000374887237322  -0.002194008220576   0.120414138711157 0
force Ti   0.000324815974672   0.008588969055501  -0.133117970133804 0
force Ti  -0.000709806094798   0.002620051940683   0.127641974330146 0
force Ti  -0.001481435431087   0.001478531063090  -0.127208038337128 0
force Ti  -0.005643798479207   0.002076749244470   0.131593571606904 0
force Ti   0.007809017394083  -0.017769068388774  -0.139420935318142 0
force Ti  -0.009088964827273  -0.001346112200484   0.113547684919362 0
force Ti   0.003102520462682   0.010602949597122  -0.135643585624944 0
force O  -0.020034091126592  -0.020265549218639   0.014925612134730 0
force O   0.017447972082049   0.017758443949015   0.016143256309459 0
force O   0.019202560381456  -0.019269302708408  -0.015040858699812 0
force O  -0.019274503841769   0.018827655391290  -0.015130500424401 0
force O  -0.019290279533088  -0.018893358189471   0.015455965942543 0
force O   0.020390719904917   0.021429675224206   0.015396272650674 0
force O   0.019132787194589  -0.018718919008215  -0.013397868228203 0
force O  -0.021796330759538   0.022110715532561  -0.012410499253307 0
force O  -0.019801694329935  -0.019860421488697   0.015732342480366 0
force O   0.018996069759209   0.018125765246096   0.015877863034856 0
force O   0.020629636335630  -0.021165976465316  -0.013764972050655 0
force O  -0.017511845865363   0.018420155672946  -0.005990944263098 0
force O  -0.020162267563565  -0.020617247668865   0.014845339853870 0
force O   0.019004905765025   0.018021252876552   0.015533468219663 0
force O   0.019398425628643  -0.020795037135369  -0.015413465942716 0
force O  -0.018819789080718   0.018406051308121  -0.015619457072221 0
force O  -0.031840385662700  -0.029731506072071   0.002298436120711 0
force O   0.029503759883153   0.029175204294515   0.008216426252103 0
force O   0.007373868443728  -0.008555221159381  -0.007927477482868 0
force O  -0.011629969623237   0.007654496128204  -0.029520015946803 0
force O  -0.019710913399019  -0.019935493031171   0.016349592927730 0
force O   0.019153906093503   0.018403059024664   0.015494220127563 0
force O   0.020782607933587  -0.021927255135836  -0.012700851716400 0
force O  -0.015518710349715   0.020805940337766  -0.009208448192319 0
force O  -0.019725833653840  -0.020291853150341   0.015035716098211 0
force O   0.019769952656073   0.019899121708160   0.015021379662408 0
force O   0.021260926840953  -0.021110770388155  -0.014829079137968 0
force O  -0.019218761019891   0.018947035184695  -0.015205364806634 0
force O  -0.016447350487394  -0.015734751108421   0.017041475215838 0
force O   0.019246427772161   0.020483655531360   0.015824940197375 0
force O   0.029842083817634  -0.018713759885785  -0.015492108113619 0
force O  -0.021025033946990   0.021761496070925  -0.013278532571364 0
force O  -0.019659332341822  -0.020317191605627   0.016970810005396 0
force O   0.018828034730775   0.018155011548474   0.015444079970113 0
force O   0.020824325696885  -0.022057762632129  -0.012754470476600 0
force O  -0.023421510830849   0.019521541526871  -0.007985311785980 0
force S   0.005009112032018  -0.040689588086890  -0.000739561611521 1
force S  -0.009473912355328   0.024812894101404   0.034019537500976 1
force Na  -0.013575165157350   0.003182673266614  -0.010348249879496 1
force Na   0.005928503133802   0.016035203686614   0.000986590069442 1

# Energy components:
   Eewald =    -3301.6519910205074666
       EH =    -1842.0687403194951912
     Eloc =     3133.1630307002133122
      Enl =       38.3629721182601315
      Exc =     -313.6724835285787094
 Exc_core =       29.4468942705310823
       KE =      510.2843807962702840
-------------------------------------
     Etot =    -1746.1359369833066921
       TS =        0.1015354088567700
-------------------------------------
        F =    -1746.2374723921634541

IonicMinimize: Iter:   1  F: -1746.237472392163454  |grad|_K:  1.857e-02  alpha:  4.519e+00  linmin:  4.641e-03  t[s]:   9393.98

#--- Lowdin population analysis ---
# oxidation-state Ti +1.585 +1.583 +1.586 +1.568 +1.588 +1.574 +1.586 +1.588 +1.589 +1.519 +1.592 +1.558 +1.586 +1.585 +1.580 +1.555 +1.594 +1.543
# oxidation-state O -0.743 -0.745 -0.745 -0.745 -0.742 -0.742 -0.754 -0.746 -0.744 -0.744 -0.746 -0.776 -0.743 -0.741 -0.739 -0.744 -0.776 -0.751 -0.794 -0.704 -0.745 -0.741 -0.747 -0.761 -0.743 -0.743 -0.741 -0.745 -0.739 -0.743 -0.804 -0.743 -0.748 -0.739 -0.747 -0.761
# oxidation-state S -0.354 -0.476
# oxidation-state Na +0.764 +0.730


-------- Electronic minimization -----------
Will mix electronic density at each iteration.
	FillingsUpdate:  mu: -0.135920776  nElectrons: 462.000000
	FillingsUpdate:  mu: -0.129176742  nElectrons: 462.000000
SCF: Cycle:  0   F: -1746.126331217060169   dF: +8.956e-03   |Residual|: 1.807e-01   |deigs|: 1.091e-03  t[s]:   9479.30
	FillingsUpdate:  mu: -0.130395415  nElectrons: 462.000000
SCF: Cycle:  1   F: -1746.221221140918487   dF: -9.489e-02   |Residual|: 1.103e-01   |deigs|: 3.756e-03  t[s]:   9541.10
	FillingsUpdate:  mu: -0.131321294  nElectrons: 462.000000
SCF: Cycle:  2   F: -1746.223258916609666   dF: -2.038e-03   |Residual|: 8.412e-02   |deigs|: 2.680e-03  t[s]:   9603.29
	FillingsUpdate:  mu: -0.131035285  nElectrons: 462.000000
SCF: Cycle:  3   F: -1746.239211444132934   dF: -1.595e-02   |Residual|: 4.372e-02   |deigs|: 1.720e-03  t[s]:   9665.16
	FillingsUpdate:  mu: -0.131453724  nElectrons: 462.000000
SCF: Cycle:  4   F: -1746.243143709673177   dF: -3.932e-03   |Residual|: 2.075e-02   |deigs|: 9.242e-04  t[s]:   9723.56
	FillingsUpdate:  mu: -0.131505731  nElectrons: 462.000000
SCF: Cycle:  5   F: -1746.243792886757092   dF: -6.492e-04   |Residual|: 1.157e-02   |deigs|: 4.381e-04  t[s]:   9771.50
	FillingsUpdate:  mu: -0.131747312  nElectrons: 462.000000
SCF: Cycle:  6   F: -1746.244025482964389   dF: -2.326e-04   |Residual|: 6.406e-03   |deigs|: 3.417e-04  t[s]:   9819.46
	FillingsUpdate:  mu: -0.131895070  nElectrons: 462.000000
SCF: Cycle:  7   F: -1746.244117812690320   dF: -9.233e-05   |Residual|: 3.498e-03   |deigs|: 2.035e-04  t[s]:   9857.59
	FillingsUpdate:  mu: -0.132025215  nElectrons: 462.000000
SCF: Cycle:  8   F: -1746.244238721587635   dF: -1.209e-04   |Residual|: 2.991e-03   |deigs|: 1.804e-04  t[s]:   9905.55
	FillingsUpdate:  mu: -0.132247574  nElectrons: 462.000000
SCF: Cycle:  9   F: -1746.244317967184770   dF: -7.925e-05   |Residual|: 2.537e-03   |deigs|: 2.629e-04  t[s]:   9953.51
	FillingsUpdate:  mu: -0.132500327  nElectrons: 462.000000
SCF: Cycle: 10   F: -1746.244358010818132   dF: -4.004e-05   |Residual|: 1.921e-03   |deigs|: 3.019e-04  t[s]:  10002.04
	FillingsUpdate:  mu: -0.132697112  nElectrons: 462.000000
SCF: Cycle: 11   F: -1746.244402344573246   dF: -4.433e-05   |Residual|: 1.570e-03   |deigs|: 2.344e-04  t[s]:  10050.01
	FillingsUpdate:  mu: -0.132925587  nElectrons: 462.000000
SCF: Cycle: 12   F: -1746.244419585601690   dF: -1.724e-05   |Residual|: 1.403e-03   |deigs|: 2.791e-04  t[s]:  10098.57
	FillingsUpdate:  mu: -0.133226274  nElectrons: 462.000000
SCF: Cycle: 13   F: -1746.244433437081852   dF: -1.385e-05   |Residual|: 1.262e-03   |deigs|: 3.584e-04  t[s]:  10147.17
	FillingsUpdate:  mu: -0.133456511  nElectrons: 462.000000
SCF: Cycle: 14   F: -1746.244437700582012   dF: -4.264e-06   |Residual|: 1.065e-03   |deigs|: 2.678e-04  t[s]:  10195.73
	FillingsUpdate:  mu: -0.133714018  nElectrons: 462.000000
SCF: Cycle: 15   F: -1746.244440082070241   dF: -2.381e-06   |Residual|: 1.010e-03   |deigs|: 2.954e-04  t[s]:  10244.97
	FillingsUpdate:  mu: -0.133994952  nElectrons: 462.000000
SCF: Cycle: 16   F: -1746.244440640198718   dF: -5.581e-07   |Residual|: 7.587e-04   |deigs|: 3.191e-04  t[s]:  10295.51
	FillingsUpdate:  mu: -0.134271022  nElectrons: 462.000000
SCF: Cycle: 17   F: -1746.244440228496615   dF: +4.117e-07   |Residual|: 7.001e-04   |deigs|: 3.033e-04  t[s]:  10347.36
	FillingsUpdate:  mu: -0.134583526  nElectrons: 462.000000
SCF: Cycle: 18   F: -1746.244441624974797   dF: -1.396e-06   |Residual|: 7.486e-04   |deigs|: 3.468e-04  t[s]:  10399.19
	FillingsUpdate:  mu: -0.134879114  nElectrons: 462.000000
SCF: Cycle: 19   F: -1746.244441022410228   dF: +6.026e-07   |Residual|: 5.849e-04   |deigs|: 3.251e-04  t[s]:  10449.66
	FillingsUpdate:  mu: -0.135060710  nElectrons: 462.000000
SCF: Cycle: 20   F: -1746.244442154783655   dF: -1.132e-06   |Residual|: 4.588e-04   |deigs|: 1.935e-04  t[s]:  10499.54
	FillingsUpdate:  mu: -0.135361759  nElectrons: 462.000000
SCF: Cycle: 21   F: -1746.244442703970435   dF: -5.492e-07   |Residual|: 4.779e-04   |deigs|: 3.045e-04  t[s]:  10549.42
	FillingsUpdate:  mu: -0.135604910  nElectrons: 462.000000
SCF: Cycle: 22   F: -1746.244442689063590   dF: +1.491e-08   |Residual|: 4.095e-04   |deigs|: 2.400e-04  t[s]:  10599.93
	FillingsUpdate:  mu: -0.135803986  nElectrons: 462.000000
SCF: Cycle: 23   F: -1746.244443710530959   dF: -1.021e-06   |Residual|: 3.352e-04   |deigs|: 2.002e-04  t[s]:  10651.78
	FillingsUpdate:  mu: -0.135995566  nElectrons: 462.000000
SCF: Cycle: 24   F: -1746.244443958391685   dF: -2.479e-07   |Residual|: 3.364e-04   |deigs|: 1.898e-04  t[s]:  10700.39
	FillingsUpdate:  mu: -0.136200885  nElectrons: 462.000000
SCF: Cycle: 25   F: -1746.244444267762901   dF: -3.094e-07   |Residual|: 2.878e-04   |deigs|: 2.050e-04  t[s]:  10752.22
	FillingsUpdate:  mu: -0.136336669  nElectrons: 462.000000
SCF: Cycle: 26   F: -1746.244444772893758   dF: -5.051e-07   |Residual|: 2.301e-04   |deigs|: 1.367e-04  t[s]:  10802.16
	FillingsUpdate:  mu: -0.136426148  nElectrons: 462.000000
SCF: Cycle: 27   F: -1746.244444853341292   dF: -8.045e-08   |Residual|: 2.189e-04   |deigs|: 8.978e-05  t[s]:  10850.84
	FillingsUpdate:  mu: -0.136551803  nElectrons: 462.000000
SCF: Cycle: 28   F: -1746.244445060013277   dF: -2.067e-07   |Residual|: 1.800e-04   |deigs|: 1.369e-04  t[s]:  10902.69
	FillingsUpdate:  mu: -0.136599180  nElectrons: 462.000000
SCF: Cycle: 29   F: -1746.244445173006625   dF: -1.130e-07   |Residual|: 1.200e-04   |deigs|: 5.268e-05  t[s]:  10951.30
	FillingsUpdate:  mu: -0.136629917  nElectrons: 462.000000
SCF: Cycle: 30   F: -1746.244445200077280   dF: -2.707e-08   |Residual|: 1.094e-04   |deigs|: 3.481e-05  t[s]:  10999.89
	FillingsUpdate:  mu: -0.136641940  nElectrons: 462.000000
SCF: Cycle: 31   F: -1746.244445228671111   dF: -2.859e-08   |Residual|: 9.140e-05   |deigs|: 1.696e-05  t[s]:  11050.39
	FillingsUpdate:  mu: -0.136659994  nElectrons: 462.000000
SCF: Cycle: 32   F: -1746.244445261255123   dF: -3.258e-08   |Residual|: 6.020e-05   |deigs|: 3.536e-05  t[s]:  11102.25
	FillingsUpdate:  mu: -0.136663880  nElectrons: 462.000000
SCF: Cycle: 33   F: -1746.244445269598373   dF: -8.343e-09   |Residual|: 4.636e-05   |deigs|: 1.912e-05  t[s]:  11152.13
	FillingsUpdate:  mu: -0.136662493  nElectrons: 462.000000
SCF: Cycle: 34   F: -1746.244445277086243   dF: -7.488e-09   |Residual|: 3.632e-05   |deigs|: 1.095e-05  t[s]:  11202.04
SCF: Converged (|Delta E|<1.000000e-08 for 2 iters).

Setting wave functions to eigenvectors of Hamiltonian
IonicMinimize: 	Predicted alpha/alphaT>3.000000, increasing alphaT to 5.657903e+00.

-------- Electronic minimization -----------
Will mix electronic density at each iteration.
	FillingsUpdate:  mu: -0.136662493  nElectrons: 462.000000
[...]
ion O   6.990735055874999  19.051993122824996   4.795024053800001 0
ion O  11.331199200975000   2.650289458125000   2.000000000000000 0
ion O  14.711529327675001   6.030619584825001   2.000000000000000 0
ion O  10.371084079875001   6.990734705924999   4.795024053800001 0
ion O  15.671644448774998   1.690174337025000   4.795024053800001 0
ion O  11.331199200975000  11.331198851025000   2.000000000000000 0
ion O  14.711529327675001  14.711528977725004   2.000000000000000 0
ion O  10.371084079875001  15.671644098825000   4.795024053800001 0
ion O  15.671644448774998  10.371083729925001   4.795024053800001 0
ion O  11.331199200975000  20.012108243924999   2.000000000000000 0
ion O  14.711529327675001  23.392438370625001   2.000000000000000 0
ion O  10.371084079875001  24.352553491725004   4.795024053800001 0
ion O  15.671644448774998  19.051993122824996   4.795024053800001 0
ion O  20.012108593874995   2.650289458125000   2.000000000000000 0
ion O  23.392438720575004   6.030619584825001   2.000000000000000 0
ion O  19.051993472774999   6.990734705924999   4.795024053800001 0
ion O  24.352553841675000   1.690174337025000   4.795024053800001 0
ion O  20.012108593874995  11.331198851025000   2.000000000000000 0
ion O  23.392438720575004  14.711528977725004   2.000000000000000 0
ion O  19.051993472774999  15.671644098825000   4.795024053800001 0
ion O  24.352553841675000  10.371083729925001   4.795024053800001 0
ion O  20.012108593874995  20.012108243924999   2.000000000000000 0
ion O  23.392438720575004  23.392438370625001   2.000000000000000 0
ion O  19.051993472774999  24.352553491725004   4.795024053800001 0
ion O  24.352553841675000  19.051993122824996   4.795024053800001 0
ion S  13.467717894710335  13.403029147783958   9.586770044787709 1
ion S  12.784646618818007  16.975953022103177  11.154490438906745 1
ion Na   8.750735514645216  17.227155602775330   8.250471005779666 1
ion Na  16.972660513677123  16.988110534973892   8.243652976153957 1

# Forces in Cartesian coordinates:
force Ti  -0.000093109992776   0.002404017230777   0.127622029133195 0
force Ti   0.000837403276211   0.001325526266382  -0.127918017595007 0
force Ti   0.000220253377915  -0.001796986704083   0.127971558048799 0
force Ti  -0.003564365353091  -0.009738367986061  -0.132316498270252 0
force Ti  -0.000283734819482  -0.000351092062298   0.126370305146238 0
force Ti  -0.010645414495811   0.012112001426321  -0.134314705225111 0
force Ti   0.000377714308958   0.003701387296909   0.127611178334107 0
force Ti  -0.000355209892645   0.003351488189448  -0.125985442051632 0
force Ti   0.006082618349235   0.002980664085697   0.127841027695815 0
force Ti   0.007032127908830  -0.009247150507620  -0.089276136093014 0
force Ti   0.005217900132501  -0.007413188809698   0.113222464607805 0
force Ti  -0.004329653478948   0.010111779673627  -0.127729901272009 0
force Ti  -0.000245452375386   0.003144432088842   0.128080892071814 0
force Ti  -0.001371850104593   0.001371580028326  -0.126614247428055 0
force Ti  -0.005261819582780   0.001437826055754   0.131796858338627 0
force Ti   0.007816210719901  -0.012578297701047  -0.133735370860403 0
force Ti  -0.004691885484939  -0.002941139868998   0.110232176602438 0
force Ti   0.003851069135075   0.006116259036235  -0.131641211117679 0
force O  -0.020002542961924  -0.020384081765827   0.014861857126346 0
force O   0.017543421343919   0.017915299722414   0.016026467401427 0
force O   0.019083451217023  -0.019168733408062  -0.015631044874886 0
force O  -0.019036769686755   0.018428662481944  -0.015836938113037 0
force O  -0.019035088873390  -0.018446948598893   0.015435117101921 0
force O   0.020983281551245   0.022688825824145   0.015680185515440 0
force O   0.021001839810994  -0.018953986000548  -0.012370773361378 0
force O  -0.022505049404902   0.022635556439745  -0.013831142865649 0
force O  -0.018013014716254  -0.019246593552390   0.016514900733312 0
force O   0.018423672531350   0.016577096091856   0.016781542831543 0
force O   0.021956095088698  -0.022366718178836  -0.013346617592904 0
force O  -0.019950700694032   0.018837969102828   0.000517807854971 0
force O  -0.020397073142487  -0.021003572633491   0.014627142539564 0
force O   0.019212474143232   0.018278872836174   0.015285879394407 0
force O   0.019115331673146  -0.020741352967843  -0.016993590477442 0
force O  -0.018654810241180   0.018206656497792  -0.016246108847123 0
force O  -0.029109837389736  -0.027613506559447   0.006819795471820 0
force O   0.028698743485832   0.030351250996975   0.009153153485644 0
force O   0.006612342330104  -0.007856203579347  -0.025402698285813 0
force O  -0.012082278961532   0.012111164665776  -0.026203597767871 0
force O  -0.020371212555293  -0.020227345757571   0.016505579982174 0
force O   0.018596526897150   0.017266099213529   0.016176107727205 0
force O   0.020888026138034  -0.022743397452245  -0.013231339657676 0
force O  -0.015985966839390   0.019585932041138  -0.009801024632757 0
force O  -0.019796850647751  -0.020315609771569   0.014948278592667 0
force O   0.019793213313029   0.019970859203130   0.014914080746572 0
force O   0.020980127056454  -0.020771579513283  -0.015364173631713 0
force O  -0.019080761594453   0.018812638541930  -0.015656334176105 0
force O  -0.016500169878600  -0.015813072541540   0.017076763770710 0
force O   0.018739383197119   0.019847642117569   0.016071448610765 0
force O   0.021256163241279  -0.017187830733911  -0.003950173529448 0
force O  -0.021313404946064   0.021871987233617  -0.013840817090113 0
force O  -0.020840459671163  -0.021072453905706   0.016035569095446 0
force O   0.018886475808430   0.018413501897824   0.015470593941418 0
force O   0.020386814522660  -0.021962865670388  -0.013216345383817 0
force O  -0.020883903762975   0.019365061179471  -0.012823072329389 0
force S   0.000070020400571  -0.000106171125091  -0.000350217536632 1
force S  -0.000168437735070   0.000088220533966  -0.000183447927793 1
force Na   0.000260939882863   0.000014742470966   0.000137707616137 1
force Na   0.000019997154958   0.000105936173249  -0.000422758785762 1

# Energy components:
   Eewald =    -3276.3801875074882446
       EH =    -1819.1880787432955913
     Eloc =     3085.1259693586707726
      Enl =       38.3028582970427465
      Exc =     -313.6233254806447803
 Exc_core =       29.4468884189762043
       KE =      510.1084825079472012
-------------------------------------
     Etot =    -1746.2073931487918799
       TS =        0.1010029561263348
-------------------------------------
        F =    -1746.3083961049183017

IonicMinimize: Iter:  76  F: -1746.308396104918302  |grad|_K:  2.013e-04  alpha:  1.949e+00  linmin:  1.155e-05  t[s]: 165908.16

#--- Lowdin population analysis ---
# oxidation-state Ti +1.585 +1.587 +1.586 +1.558 +1.587 +1.572 +1.586 +1.592 +1.588 +1.566 +1.590 +1.572 +1.586 +1.587 +1.582 +1.578 +1.595 +1.562
# oxidation-state O -0.743 -0.745 -0.743 -0.743 -0.739 -0.745 -0.754 -0.737 -0.744 -0.744 -0.742 -0.825 -0.743 -0.741 -0.732 -0.742 -0.770 -0.764 -0.798 -0.713 -0.746 -0.745 -0.744 -0.808 -0.743 -0.743 -0.740 -0.744 -0.742 -0.743 -0.816 -0.741 -0.748 -0.741 -0.747 -0.753
# oxidation-state S -0.380 -0.480
# oxidation-state Na +0.730 +0.740


-------- Electronic minimization -----------
Will mix electronic density at each iteration.
	FillingsUpdate:  mu: -0.142367457  nElectrons: 462.000000
	FillingsUpdate:  mu: -0.142353667  nElectrons: 462.000000
SCF: Cycle:  0   F: -1746.308395129774681   dF: +6.531e-07   |Residual|: 4.394e-04   |deigs|: 9.256e-08  t[s]: 165971.56
	FillingsUpdate:  mu: -0.142352413  nElectrons: 462.000000
SCF: Cycle:  1   F: -1746.308396280937814   dF: -1.151e-06   |Residual|: 3.593e-04   |deigs|: 1.732e-05  t[s]: 166009.57
	FillingsUpdate:  mu: -0.142351022  nElectrons: 462.000000
SCF: Cycle:  2   F: -1746.308396378281032   dF: -9.734e-08   |Residual|: 1.960e-04   |deigs|: 1.128e-05  t[s]: 166047.59
	FillingsUpdate:  mu: -0.142352145  nElectrons: 462.000000
SCF: Cycle:  3   F: -1746.308396535525617   dF: -1.572e-07   |Residual|: 8.114e-05   |deigs|: 4.478e-06  t[s]: 166095.48
	FillingsUpdate:  mu: -0.142352091  nElectrons: 462.000000
SCF: Cycle:  4   F: -1746.308396564602617   dF: -2.908e-08   |Residual|: 6.256e-05   |deigs|: 3.072e-06  t[s]: 166133.54
	FillingsUpdate:  mu: -0.142352742  nElectrons: 462.000000
SCF: Cycle:  5   F: -1746.308396577641588   dF: -1.304e-08   |Residual|: 2.773e-05   |deigs|: 2.541e-06  t[s]: 166181.47
	FillingsUpdate:  mu: -0.142352978  nElectrons: 462.000000
SCF: Cycle:  6   F: -1746.308396587384095   dF: -9.743e-09   |Residual|: 2.491e-05   |deigs|: 2.216e-06  t[s]: 166229.45
	FillingsUpdate:  mu: -0.142353692  nElectrons: 462.000000
SCF: Cycle:  7   F: -1746.308396595073191   dF: -7.689e-09   |Residual|: 1.728e-05   |deigs|: 3.688e-06  t[s]: 166277.39
SCF: Converged (|Delta E|<1.000000e-08 for 2 iters).

Setting wave functions to eigenvectors of Hamiltonian

-------- Electronic minimization -----------
Will mix electronic density at each iteration.
	FillingsUpdate:  mu: -0.142353692  nElectrons: 462.000000
	FillingsUpdate:  mu: -0.142367041  nElectrons: 462.000000
SCF: Cycle:  0   F: -1746.308395928373557   dF: +6.685e-07   |Residual|: 2.464e-04   |deigs|: 4.418e-08  t[s]: 166345.30
	FillingsUpdate:  mu: -0.142368669  nElectrons: 462.000000
SCF: Cycle:  1   F: -1746.308396244935466   dF: -3.166e-07   |Residual|: 3.553e-04   |deigs|: 1.310e-05  t[s]: 166383.32
	FillingsUpdate:  mu: -0.142368439  nElectrons: 462.000000
SCF: Cycle:  2   F: -1746.308396567921136   dF: -3.230e-07   |Residual|: 5.896e-05   |deigs|: 8.266e-06  t[s]: 166421.33
	FillingsUpdate:  mu: -0.142368529  nElectrons: 462.000000
SCF: Cycle:  3   F: -1746.308396576182759   dF: -8.262e-09   |Residual|: 3.442e-05   |deigs|: 1.598e-06  t[s]: 166459.35
	FillingsUpdate:  mu: -0.142368364  nElectrons: 462.000000
SCF: Cycle:  4   F: -1746.308396590509119   dF: -1.433e-08   |Residual|: 2.687e-05   |deigs|: 1.410e-06  t[s]: 166507.25
	FillingsUpdate:  mu: -0.142368316  nElectrons: 462.000000
SCF: Cycle:  5   F: -1746.308396598756872   dF: -8.248e-09   |Residual|: 2.110e-05   |deigs|: 1.899e-06  t[s]: 166545.31
	FillingsUpdate:  mu: -0.142368202  nElectrons: 462.000000
SCF: Cycle:  6   F: -1746.308396603534675   dF: -4.778e-09   |Residual|: 1.410e-05   |deigs|: 1.229e-06  t[s]: 166592.89
SCF: Converged (|Delta E|<1.000000e-08 for 2 iters).

Setting wave functions to eigenvectors of Hamiltonian

# Ionic positions in cartesian coordinates:
ion Ti   0.000000174975000  -0.000000174975000   2.000000000000000 0
ion Ti   4.340445422775000   4.340445072825000   4.795024053800001 0
ion Ti   0.000000174975000   8.680909217924999   2.000000000000000 0
ion Ti   4.340445422775000  13.021354465725000   4.795024053800001 0
ion Ti   0.000000174975000  17.361818610825001   2.000000000000000 0
ion Ti   4.340445422775000  21.702263858624999   4.795024053800001 0
ion Ti   8.680909567874998  -0.000000174975000   2.000000000000000 0
ion Ti  13.021354815675002   4.340445072825000   4.795024053800001 0
ion Ti   8.680909567874998   8.680909217924999   2.000000000000000 0
ion Ti  13.021354815675002  13.021354465725000   4.795024053800001 0
ion Ti   8.680909567874998  17.361818610825001   2.000000000000000 0
ion Ti  13.021364264325003  21.702263858624999   4.795024053800001 0
ion Ti  17.361818960775000  -0.000000174975000   2.000000000000000 0
ion Ti  21.702264208574999   4.340445072825000   4.795024053800001 0
ion Ti  17.361818960775000   8.680909217924999   2.000000000000000 0
ion Ti  21.702264208574999  13.021363914375000   4.795024053800001 0
ion Ti  17.361818960775000  17.361818610825001   2.000000000000000 0
ion Ti  21.702264208574999  21.702263858624999   4.795024053800001 0
ion O   2.650289808075000   2.650289458125000   2.000000000000000 0
ion O   6.030619934775000   6.030619584825001   2.000000000000000 0
ion O   1.690174686975000   6.990734705924999   4.795024053800001 0
ion O   6.990735055874999   1.690174337025000   4.795024053800001 0
ion O   2.650289808075000  11.331198851025000   2.000000000000000 0
ion O   6.030619934775000  14.711528977725004   2.000000000000000 0
ion O   1.690174686975000  15.671644098825000   4.795024053800001 0
ion O   6.990735055874999  10.371083729925001   4.795024053800001 0
ion O   2.650289808075000  20.012108243924999   2.000000000000000 0
ion O   6.030619934775000  23.392438370625001   2.000000000000000 0
ion O   1.690174686975000  24.352553491725004   4.795024053800001 0
ion O   6.990735055874999  19.051993122824996   4.795024053800001 0
ion O  11.331199200975000   2.650289458125000   2.000000000000000 0
ion O  14.711529327675001   6.030619584825001   2.000000000000000 0
ion O  10.371084079875001   6.990734705924999   4.795024053800001 0
ion O  15.671644448774998   1.690174337025000   4.795024053800001 0
ion O  11.331199200975000  11.331198851025000   2.000000000000000 0
ion O  14.711529327675001  14.711528977725004   2.000000000000000 0
ion O  10.371084079875001  15.671644098825000   4.795024053800001 0
ion O  15.671644448774998  10.371083729925001   4.795024053800001 0
ion O  11.331199200975000  20.012108243924999   2.000000000000000 0
ion O  14.711529327675001  23.392438370625001   2.000000000000000 0
ion O  10.371084079875001  24.352553491725004   4.795024053800001 0
ion O  15.671644448774998  19.051993122824996   4.795024053800001 0
ion O  20.012108593874995   2.650289458125000   2.000000000000000 0
ion O  23.392438720575004   6.030619584825001   2.000000000000000 0
ion O  19.051993472774999   6.990734705924999   4.795024053800001 0
ion O  24.352553841675000   1.690174337025000   4.795024053800001 0
ion O  20.012108593874995  11.331198851025000   2.000000000000000 0
ion O  23.392438720575004  14.711528977725004   2.000000000000000 0
ion O  19.051993472774999  15.671644098825000   4.795024053800001 0
ion O  24.352553841675000  10.371083729925001   4.795024053800001 0
ion O  20.012108593874995  20.012108243924999   2.000000000000000 0
ion O  23.392438720575004  23.392438370625001   2.000000000000000 0
ion O  19.051993472774999  24.352553491725004   4.795024053800001 0
ion O  24.352553841675000  19.051993122824996   4.795024053800001 0
ion S  13.467490833117914  13.402612013176560   9.585275802160560 1
ion S  12.781806720570708  16.976797193224851  11.153612527517598 1
ion Na   8.750587433622146  17.227081454998018   8.250602953328718 1
ion Na  16.973886909916128  16.988940896120106   8.244534609892428 1

# Forces in Cartesian coordinates:
force Ti  -0.000090157317333   0.002405785487962   0.127613084019871 0
force Ti   0.000840920873748   0.001326357076163  -0.127931111831607 0
force Ti   0.000221757693255  -0.001797352528332   0.127961142682553 0
force Ti  -0.003556612749953  -0.009739599585781  -0.132330468799928 0
force Ti  -0.000280651665906  -0.000352150771875   0.126358086518247 0
force Ti  -0.010638393864118   0.012109498689475  -0.134326802540819 0
force Ti   0.000379251311664   0.003700460827070   0.127603715637892 0
force Ti  -0.000358484906733   0.003355254493419  -0.125997302875258 0
force Ti   0.006090130437826   0.002988552562871   0.127831688472513 0
force Ti   0.007029538579544  -0.009225651554573  -0.089295702221320 0
force Ti   0.005229641475362  -0.007421871385076   0.113228901637444 0
force Ti  -0.004334782451556   0.010093937244206  -0.127733875565166 0
force Ti  -0.000249447078402   0.003143879275169   0.128069407228118 0
force Ti  -0.001372926596609   0.001373101465118  -0.126624712223799 0
force Ti  -0.005269256799653   0.001442162791919   0.131792554812395 0
force Ti   0.007810293169228  -0.012579613293680  -0.133747702010500 0
force Ti  -0.004709307939061  -0.002948338842959   0.110232308155524 0
force Ti   0.003851137863103   0.006118457682217  -0.131660582059352 0
force O  -0.020003098709168  -0.020384763692764   0.014853289145224 0
force O   0.017540919103483   0.017912138353027   0.016019632989032 0
force O   0.019081532764271  -0.019167323320904  -0.015638461705435 0
force O  -0.019035748479635   0.018428235496775  -0.015843946770846 0
force O  -0.019036345840790  -0.018449462151365   0.015426359525677 0
force O   0.020978520710358   0.022684479360584   0.015672055135169 0
force O   0.020998367216328  -0.018952384291854  -0.012379394121319 0
force O  -0.022505887384501   0.022632659912823  -0.013841218649473 0
force O  -0.018014974317862  -0.019246912224087   0.016505340964293 0
force O   0.018423622477225   0.016578905839551   0.016772920282277 0
force O   0.021953482820395  -0.022362764965476  -0.013354346177206 0
force O  -0.019954370362911   0.018841866573757   0.000502114621382 0
force O  -0.020397623714250  -0.021003119737763   0.014619543931376 0
force O   0.019211594501766   0.018277041046148   0.015278680411315 0
force O   0.019114364563425  -0.020743163339825  -0.017001746858929 0
force O  -0.018652816484662   0.018204597523199  -0.016253958363504 0
force O  -0.029123070351391  -0.027628257853492   0.006799640889978 0
force O   0.028709607652316   0.030361570136000   0.009134501973179 0
force O   0.006598599790826  -0.007846710480001  -0.025440102206945 0
force O  -0.012072168392204   0.012099048795850  -0.026221241997600 0
force O  -0.020367444361072  -0.020223197787192   0.016498335776869 0
force O   0.018599051680061   0.017269585429419   0.016167207814536 0
force O   0.020885428752218  -0.022738272075176  -0.013243161198592 0
force O  -0.015977252038735   0.019577784247882  -0.009798611986887 0
force O  -0.019797696874636  -0.020316421007472   0.014940383588676 0
force O   0.019794583479249   0.019971482319561   0.014906062698700 0
force O   0.020980393671394  -0.020772117769013  -0.015369252233974 0
force O  -0.019078589804060   0.018811407795324  -0.015662254567198 0
force O  -0.016498078364899  -0.015811902208602   0.017071555829032 0
force O   0.018740128587128   0.019847573784474   0.016064482267820 0
force O   0.021256513023361  -0.017187704879981  -0.003946516977925 0
force O  -0.021312303369079   0.021870451001564  -0.013847514432118 0
force O  -0.020835245008170  -0.021066908415600   0.016029704441669 0
force O   0.018886839177532   0.018414419088078   0.015462972029726 0
force O   0.020386202513266  -0.021961892158653  -0.013221956911107 0
force O  -0.020884160195989   0.019365117791469  -0.012827550888096 0
force S   0.000051777669093   0.000113458089213  -0.000209358806120 1
force S  -0.000022216090942  -0.000116458696269  -0.000244535570515 1
force Na   0.000203355082236   0.000016049356662   0.000084954173723 1
force Na  -0.000048621273863   0.000089080294985  -0.000428147924314 1

# Energy components:
   Eewald =    -3276.3635138732815903
       EH =    -1819.1719417573085593
     Eloc =     3085.0936776831085808
      Enl =       38.3027321813164292
      Exc =     -313.6230566439505196
 Exc_core =       29.4468884646624502
       KE =      510.1077971692855044
-------------------------------------
     Etot =    -1746.2074167761672925
       TS =        0.1009798273673845
-------------------------------------
        F =    -1746.3083966035346748

IonicMinimize: Iter:  77  F: -1746.308396603534675  |grad|_K:  1.769e-04  alpha:  2.072e+00  linmin: -2.275e-05  t[s]: 166611.98
IonicMinimize: Converged (|Delta F|<1.000000e-06 for 2 iters).

#--- Lowdin population analysis ---
# oxidation-state Ti +1.585 +1.587 +1.586 +1.558 +1.587 +1.572 +1.586 +1.592 +1.588 +1.566 +1.590 +1.572 +1.586 +1.587 +1.582 +1.578 +1.595 +1.562
# oxidation-state O -0.743 -0.745 -0.743 -0.743 -0.739 -0.745 -0.754 -0.737 -0.744 -0.744 -0.742 -0.825 -0.743 -0.741 -0.732 -0.742 -0.770 -0.764 -0.798 -0.713 -0.746 -0.745 -0.744 -0.808 -0.743 -0.743 -0.740 -0.744 -0.742 -0.743 -0.816 -0.741 -0.748 -0.741 -0.747 -0.753
# oxidation-state S -0.380 -0.481
# oxidation-state Na +0.730 +0.741


Dumping 'Na2S2@TiO2.fillings' ... done
Dumping 'Na2S2@TiO2.wfns' ... done
Dumping 'Na2S2@TiO2.ionpos' ... done
Dumping 'Na2S2@TiO2.eigenvals' ... done
End date and time: Thu Jul 25 20:12:45 2024  (Duration: 1-22:16:59.43)
Done!
